Protein in water
83618
    1ASP      N    1   6.804   6.970   1.652
    1ASP     H1    2   6.740   6.968   1.575
    1ASP     H2    3   6.804   7.062   1.693
    1ASP     H3    4   6.896   6.949   1.619
    1ASP     CA    5   6.763   6.871   1.752
    1ASP     HA    6   6.767   6.780   1.712
    1ASP     CB    7   6.861   6.874   1.870
    1ASP    HB1    8   6.842   6.954   1.927
    1ASP    HB2    9   6.955   6.879   1.835
    1ASP     CG   10   6.844   6.748   1.953
    1ASP    OD1   11   6.809   6.646   1.889
    1ASP    OD2   12   6.861   6.758   2.076
    1ASP      C   13   6.620   6.901   1.792
    1ASP      O   14   6.588   7.014   1.827
    2SER      N   15   6.530   6.808   1.761
    2SER      H   16   6.563   6.714   1.747
    2SER     CA   17   6.387   6.834   1.748
    2SER     HA   18   6.379   6.913   1.688
    2SER     CB   19   6.319   6.713   1.685
    2SER    HB1   20   6.219   6.723   1.686
    2SER    HB2   21   6.343   6.628   1.733
    2SER     OG   22   6.361   6.702   1.551
    2SER     HG   23   6.317   6.623   1.508
    2SER      C   24   6.325   6.870   1.883
    2SER      O   25   6.297   6.784   1.965
    3HIS      N   26   6.292   6.999   1.897
    3HIS      H   27   6.334   7.061   1.830
    3HIS     CA   28   6.205   7.062   1.996
    3HIS     HA   29   6.242   7.037   2.086
    3HIS     CB   30   6.212   7.215   1.972
    3HIS    HB1   31   6.121   7.249   1.952
    3HIS    HB2   32   6.272   7.233   1.894
    3HIS     CG   33   6.266   7.295   2.088
    3HIS    ND1   34   6.248   7.269   2.222
    3HIS    CE1   35   6.313   7.364   2.291
    3HIS    HE1   36   6.317   7.369   2.391
    3HIS    NE2   37   6.369   7.452   2.207
    3HIS    HE2   38   6.422   7.533   2.233
    3HIS    CD2   39   6.340   7.409   2.078
    3HIS    HD2   40   6.369   7.454   1.993
    3HIS      C   41   6.060   7.010   1.994
    3HIS      O   42   5.963   7.083   2.015
    4ALA      N   43   6.041   6.882   1.964
    4ALA      H   44   6.121   6.822   1.960
    4ALA     CA   45   5.912   6.824   1.938
    4ALA     HA   46   5.844   6.870   1.996
    4ALA     CB   47   5.878   6.847   1.790
    4ALA    HB1   48   5.788   6.807   1.770
    4ALA    HB2   49   5.875   6.945   1.771
    4ALA    HB3   50   5.947   6.803   1.733
    4ALA      C   51   5.914   6.677   1.977
    4ALA      O   52   5.962   6.593   1.900
    5LYS      N   53   5.849   6.649   2.089
    5LYS      H   54   5.867   6.708   2.168
    5LYS     CA   55   5.752   6.540   2.110
    5LYS     HA   56   5.667   6.591   2.125
    5LYS     CB   57   5.731   6.449   1.986
    5LYS    HB1   58   5.676   6.370   2.013
    5LYS    HB2   59   5.820   6.418   1.954
    5LYS     CG   60   5.659   6.523   1.871
    5LYS    HG1   61   5.696   6.615   1.864
    5LYS    HG2   62   5.561   6.527   1.892
    5LYS     CD   63   5.675   6.454   1.735
    5LYS    HD1   64   5.627   6.366   1.736
    5LYS    HD2   65   5.772   6.438   1.717
    5LYS     CE   66   5.617   6.543   1.623
    5LYS    HE1   67   5.669   6.628   1.619
    5LYS    HE2   68   5.521   6.563   1.643
    5LYS     NZ   69   5.623   6.478   1.490
    5LYS    HZ1   70   5.585   6.539   1.421
    5LYS    HZ2   71   5.719   6.458   1.467
    5LYS    HZ3   72   5.571   6.392   1.492
    5LYS      C   73   5.781   6.459   2.237
    5LYS      O   74   5.862   6.368   2.239
    6ARG      N   75   5.694   6.483   2.335
    6ARG      H   76   5.668   6.579   2.352
    6ARG     CA   77   5.633   6.380   2.420
    6ARG     HA   78   5.565   6.433   2.470
    6ARG     CB   79   5.576   6.267   2.330
    6ARG    HB1   80   5.536   6.198   2.390
    6ARG    HB2   81   5.652   6.227   2.279
    6ARG     CG   82   5.469   6.304   2.228
    6ARG    HG1   83   5.498   6.384   2.175
    6ARG    HG2   84   5.383   6.324   2.275
    6ARG     CD   85   5.452   6.182   2.136
    6ARG    HD1   86   5.449   6.099   2.191
    6ARG    HD2   87   5.528   6.178   2.072
    6ARG     NE   88   5.327   6.191   2.059
    6ARG     HE   89   5.259   6.257   2.091
    6ARG     CZ   90   5.297   6.120   1.951
    6ARG    NH1   91   5.383   6.041   1.893
    6ARG   HH11   92   5.475   6.032   1.930
    6ARG   HH12   93   5.356   5.989   1.812
    6ARG    NH2   94   5.177   6.128   1.900
    6ARG   HH21   95   5.109   6.188   1.942
    6ARG   HH22   96   5.154   6.075   1.819
    6ARG      C   97   5.723   6.316   2.525
    6ARG      O   98   5.745   6.197   2.516
    7HIS      N   99   5.762   6.385   2.632
    7HIS      H  100   5.764   6.485   2.629
    7HIS     CA  101   5.802   6.316   2.755
    7HIS     HA  102   5.759   6.226   2.751
    7HIS     CB  103   5.955   6.290   2.758
    7HIS    HB1  104   5.987   6.301   2.852
    7HIS    HB2  105   5.999   6.357   2.699
    7HIS     CG  106   5.996   6.151   2.711
    7HIS    ND1  107   5.970   6.092   2.589
    7HIS    CE1  108   6.014   5.966   2.589
    7HIS    HE1  109   6.004   5.901   2.513
    7HIS    NE2  110   6.073   5.940   2.706
    7HIS    HE2  111   6.116   5.853   2.733
    7HIS    CD2  112   6.064   6.056   2.783
    7HIS    HD2  113   6.102   6.068   2.875
    7HIS      C  114   5.745   6.386   2.880
    7HIS      O  115   5.799   6.482   2.932
    8HIS      N  116   5.630   6.336   2.927
    8HIS      H  117   5.560   6.309   2.860
    8HIS     CA  118   5.600   6.320   3.070
    8HIS     HA  119   5.501   6.304   3.064
    8HIS     CB  120   5.682   6.200   3.121
    8HIS    HB1  121   5.677   6.197   3.221
    8HIS    HB2  122   5.778   6.211   3.093
    8HIS     CG  123   5.631   6.070   3.066
    8HIS    ND1  124   5.504   6.021   3.085
    8HIS    CE1  125   5.496   5.902   3.024
    8HIS    HE1  126   5.415   5.843   3.022
    8HIS    NE2  127   5.613   5.873   2.966
    8HIS    HE2  128   5.633   5.790   2.912
    8HIS    CD2  129   5.701   5.978   2.992
    8HIS    HD2  130   5.796   5.985   2.963
    8HIS      C  131   5.597   6.439   3.168
    8HIS      O  132   5.622   6.420   3.286
    9GLY      N  133   5.552   6.558   3.127
    9GLY      H  134   5.537   6.574   3.029
    9GLY     CA  135   5.525   6.667   3.223
    9GLY    HA1  136   5.546   6.753   3.176
    9GLY    HA2  137   5.588   6.655   3.299
    9GLY      C  138   5.382   6.675   3.278
    9GLY      O  139   5.359   6.737   3.382
   10TYR      N  140   5.283   6.614   3.213
   10TYR      H  141   5.307   6.549   3.140
   10TYR     CA  142   5.141   6.637   3.242
   10TYR     HA  143   5.138   6.734   3.265
   10TYR     CB  144   5.055   6.609   3.118
   10TYR    HB1  145   5.091   6.663   3.042
   10TYR    HB2  146   4.961   6.638   3.137
   10TYR     CG  147   5.052   6.464   3.076
   10TYR    CD1  148   5.141   6.417   2.977
   10TYR    HD1  149   5.205   6.481   2.934
   10TYR    CE1  150   5.139   6.282   2.938
   10TYR    HE1  151   5.202   6.249   2.867
   10TYR     CZ  152   5.048   6.193   2.999
   10TYR     OH  153   5.047   6.062   2.964
   10TYR     HH  154   4.977   6.014   3.017
   10TYR    CE2  155   4.959   6.239   3.098
   10TYR    HE2  156   4.895   6.176   3.141
   10TYR    CD2  157   4.960   6.375   3.135
   10TYR    HD2  158   4.896   6.408   3.205
   10TYR      C  159   5.087   6.565   3.368
   10TYR      O  160   4.968   6.573   3.397
   11LYS      N  161   5.173   6.499   3.447
   11LYS      H  162   5.267   6.486   3.416
   11LYS     CA  163   5.134   6.445   3.579
   11LYS     HA  164   5.039   6.415   3.568
   11LYS     CB  165   5.217   6.321   3.617
   11LYS    HB1  166   5.202   6.302   3.714
   11LYS    HB2  167   5.314   6.342   3.602
   11LYS     CG  168   5.180   6.196   3.536
   11LYS    HG1  169   5.214   6.206   3.442
   11LYS    HG2  170   5.081   6.186   3.535
   11LYS     CD  171   5.244   6.072   3.600
   11LYS    HD1  172   5.212   6.064   3.695
   11LYS    HD2  173   5.343   6.082   3.599
   11LYS     CE  174   5.205   5.945   3.524
   11LYS    HE1  175   5.236   5.952   3.429
   11LYS    HE2  176   5.106   5.934   3.526
   11LYS     NZ  177   5.267   5.823   3.584
   11LYS    HZ1  178   5.239   5.743   3.532
   11LYS    HZ2  179   5.366   5.832   3.582
   11LYS    HZ3  180   5.236   5.814   3.679
   11LYS      C  181   5.137   6.554   3.686
   11LYS      O  182   5.196   6.535   3.793
   12ARG      N  183   5.070   6.667   3.662
   12ARG      H  184   5.038   6.685   3.569
   12ARG     CA  185   5.041   6.764   3.768
   12ARG     HA  186   5.122   6.778   3.825
   12ARG     CB  187   5.011   6.902   3.706
   12ARG    HB1  188   4.912   6.915   3.700
   12ARG    HB2  189   5.050   6.906   3.614
   12ARG     CG  190   5.071   7.015   3.790
   12ARG    HG1  191   5.171   7.011   3.783
   12ARG    HG2  192   5.044   7.001   3.886
   12ARG     CD  193   5.025   7.155   3.747
   12ARG    HD1  194   5.049   7.170   3.651
   12ARG    HD2  195   5.069   7.224   3.804
   12ARG     NE  196   4.879   7.171   3.760
   12ARG     HE  197   4.825   7.088   3.773
   12ARG     CZ  198   4.811   7.284   3.756
   12ARG    NH1  199   4.870   7.400   3.743
   12ARG   HH11  200   4.969   7.405   3.736
   12ARG   HH12  201   4.815   7.484   3.741
   12ARG    NH2  202   4.681   7.283   3.766
   12ARG   HH21  203   4.632   7.197   3.776
   12ARG   HH22  204   4.630   7.369   3.763
   12ARG      C  205   4.930   6.705   3.856
   12ARG      O  206   4.813   6.738   3.841
   13LYS      N  207   4.966   6.607   3.940
   13LYS      H  208   5.063   6.585   3.945
   13LYS     CA  209   4.875   6.531   4.027
   13LYS     HA  210   4.793   6.509   3.974
   13LYS     CB  211   4.942   6.397   4.066
   13LYS    HB1  212   5.001   6.413   4.145
   13LYS    HB2  213   4.997   6.365   3.989
   13LYS     CG  214   4.842   6.285   4.104
   13LYS    HG1  215   4.789   6.261   4.022
   13LYS    HG2  216   4.780   6.320   4.174
   13LYS     CD  217   4.912   6.159   4.156
   13LYS    HD1  218   4.952   6.179   4.246
   13LYS    HD2  219   4.985   6.133   4.093
   13LYS     CE  220   4.814   6.042   4.170
   13LYS    HE1  221   4.790   6.007   4.079
   13LYS    HE2  222   4.731   6.073   4.217
   13LYS     NZ  223   4.871   5.929   4.248
   13LYS    HZ1  224   4.804   5.855   4.254
   13LYS    HZ2  225   4.954   5.895   4.202
   13LYS    HZ3  226   4.895   5.960   4.340
   13LYS      C  227   4.829   6.617   4.146
   13LYS      O  228   4.850   6.580   4.260
   14PHE      N  229   4.769   6.732   4.118
   14PHE      H  230   4.772   6.766   4.024
   14PHE     CA  231   4.697   6.813   4.217
   14PHE     HA  232   4.750   6.812   4.302
   14PHE     CB  233   4.687   6.960   4.170
   14PHE    HB1  234   4.599   6.997   4.200
   14PHE    HB2  235   4.692   6.962   4.070
   14PHE     CG  236   4.795   7.051   4.223
   14PHE    CD1  237   4.773   7.128   4.339
   14PHE    HD1  238   4.685   7.122   4.387
   14PHE    CE1  239   4.873   7.214   4.388
   14PHE    HE1  240   4.857   7.268   4.470
   14PHE     CZ  241   4.996   7.224   4.321
   14PHE     HZ  242   5.067   7.286   4.355
   14PHE    CE2  243   5.020   7.147   4.205
   14PHE    HE2  244   5.107   7.153   4.157
   14PHE    CD2  245   4.919   7.060   4.158
   14PHE    HD2  246   4.937   7.004   4.077
   14PHE      C  247   4.560   6.749   4.241
   14PHE      O  248   4.461   6.791   4.182
   15HIS      N  249   4.555   6.646   4.324
   15HIS      H  250   4.639   6.596   4.344
   15HIS     CA  251   4.430   6.602   4.389
   15HIS     HA  252   4.355   6.644   4.339
   15HIS     CB  253   4.408   6.450   4.377
   15HIS    HB1  254   4.325   6.426   4.427
   15HIS    HB2  255   4.487   6.403   4.417
   15HIS     CG  256   4.394   6.403   4.235
   15HIS    ND1  257   4.496   6.360   4.154
   15HIS    CE1  258   4.443   6.325   4.035
   15HIS    HE1  259   4.496   6.290   3.958
   15HIS    NE2  260   4.311   6.342   4.036
   15HIS    HE2  261   4.248   6.323   3.961
   15HIS    CD2  262   4.278   6.393   4.162
   15HIS    HD2  263   4.186   6.417   4.194
   15HIS      C  264   4.429   6.653   4.534
   15HIS      O  265   4.400   6.579   4.628
   16GLU      N  266   4.466   6.779   4.552
   16GLU      H  267   4.506   6.828   4.475
   16GLU     CA  268   4.450   6.850   4.678
   16GLU     HA  269   4.443   6.785   4.753
   16GLU     CB  270   4.575   6.936   4.704
   16GLU    HB1  271   4.578   7.011   4.637
   16GLU    HB2  272   4.657   6.879   4.694
   16GLU     CG  273   4.574   6.997   4.845
   16GLU    HG1  274   4.564   6.923   4.912
   16GLU    HG2  275   4.497   7.060   4.853
   16GLU     CD  276   4.704   7.073   4.871
   16GLU    OE1  277   4.697   7.197   4.881
   16GLU    OE2  278   4.809   7.005   4.877
   16GLU      C  279   4.321   6.931   4.667
   16GLU      O  280   4.320   7.033   4.598
   17LYS      N  281   4.213   6.877   4.724
   17LYS      H  282   4.208   6.777   4.725
   17LYS     CA  283   4.098   6.948   4.786
   17LYS     HA  284   4.128   6.966   4.880
   17LYS     CB  285   4.068   7.084   4.720
   17LYS    HB1  286   4.032   7.067   4.628
   17LYS    HB2  287   4.153   7.136   4.713
   17LYS     CG  288   3.967   7.171   4.795
   17LYS    HG1  289   3.994   7.179   4.891
   17LYS    HG2  290   3.876   7.129   4.790
   17LYS     CD  291   3.963   7.310   4.730
   17LYS    HD1  292   3.917   7.304   4.641
   17LYS    HD2  293   4.056   7.343   4.717
   17LYS     CE  294   3.886   7.410   4.818
   17LYS    HE1  295   3.929   7.415   4.908
   17LYS    HE2  296   3.791   7.380   4.827
   17LYS     NZ  297   3.887   7.546   4.758
   17LYS    HZ1  298   3.837   7.608   4.817
   17LYS    HZ2  299   3.982   7.578   4.749
   17LYS    HZ3  300   3.844   7.543   4.668
   17LYS      C  301   3.973   6.859   4.789
   17LYS      O  302   3.886   6.869   4.703
   18HIS      N  303   3.960   6.779   4.894
   18HIS      H  304   4.041   6.753   4.946
   18HIS     CA  305   3.830   6.727   4.938
   18HIS     HA  306   3.761   6.761   4.873
   18HIS     CB  307   3.823   6.574   4.928
   18HIS    HB1  308   3.740   6.542   4.974
   18HIS    HB2  309   3.904   6.535   4.974
   18HIS     CG  310   3.822   6.524   4.785
   18HIS    ND1  311   3.711   6.513   4.704
   18HIS    CE1  312   3.751   6.465   4.585
   18HIS    HE1  313   3.690   6.448   4.507
   18HIS    NE2  314   3.883   6.445   4.585
   18HIS    HE2  315   3.938   6.410   4.509
   18HIS    CD2  316   3.929   6.482   4.712
   18HIS    HD2  317   4.024   6.477   4.744
   18HIS      C  318   3.796   6.786   5.076
   18HIS      O  319   3.789   6.716   5.176
   19HIS      N  320   3.775   6.918   5.081
   19HIS      H  321   3.804   6.973   5.003
   19HIS     CA  322   3.712   6.987   5.194
   19HIS     HA  323   3.734   6.932   5.275
   19HIS     CB  324   3.769   7.128   5.213
   19HIS    HB1  325   3.705   7.182   5.267
   19HIS    HB2  326   3.780   7.170   5.123
   19HIS     CG  327   3.902   7.131   5.282
   19HIS    ND1  328   3.925   7.102   5.414
   19HIS    CE1  329   4.055   7.124   5.439
   19HIS    HE1  330   4.099   7.111   5.528
   19HIS    NE2  331   4.117   7.167   5.328
   19HIS    HE2  332   4.214   7.190   5.319
   19HIS    CD2  333   4.020   7.172   5.228
   19HIS    HD2  334   4.035   7.201   5.133
   19HIS      C  335   3.559   6.990   5.178
   19HIS      O  336   3.498   7.096   5.171
   20SER      N  337   3.496   6.874   5.166
   20SER      H  338   3.549   6.790   5.155
   20SER     CA  339   3.350   6.867   5.168
   20SER     HA  340   3.319   6.943   5.224
   20SER     CB  341   3.288   6.885   5.028
   20SER    HB1  342   3.291   6.981   5.001
   20SER    HB2  343   3.194   6.852   5.027
   20SER     OG  344   3.357   6.813   4.928
   20SER     HG  345   3.313   6.828   4.839
   20SER      C  346   3.307   6.736   5.233
   20SER      O  347   3.308   6.632   5.169
   21HIS      N  348   3.281   6.742   5.364
   21HIS      H  349   3.347   6.789   5.423
   21HIS     CA  350   3.161   6.686   5.430
   21HIS     HA  351   3.093   6.758   5.417
   21HIS     CB  352   3.105   6.559   5.361
   21HIS    HB1  353   3.159   6.480   5.389
   21HIS    HB2  354   3.112   6.571   5.262
   21HIS     CG  355   2.961   6.529   5.393
   21HIS    ND1  356   2.865   6.617   5.438
   21HIS    CE1  357   2.746   6.556   5.434
   21HIS    HE1  358   2.660   6.596   5.463
   21HIS    NE2  359   2.760   6.432   5.385
   21HIS    HE2  360   2.687   6.365   5.370
   21HIS    CD2  361   2.896   6.414   5.358
   21HIS    HD2  362   2.938   6.332   5.320
   21HIS      C  363   3.186   6.663   5.580
   21HIS      O  364   3.199   6.551   5.628
   22ARG      N  365   3.192   6.771   5.658
   22ARG      H  366   3.225   6.857   5.620
   22ARG     CA  367   3.152   6.766   5.800
   22ARG     HA  368   3.096   6.685   5.815
   22ARG     CB  369   3.272   6.746   5.894
   22ARG    HB1  370   3.323   6.831   5.903
   22ARG    HB2  371   3.332   6.675   5.856
   22ARG     CG  372   3.223   6.701   6.033
   22ARG    HG1  373   3.163   6.622   6.022
   22ARG    HG2  374   3.174   6.776   6.076
   22ARG     CD  375   3.341   6.661   6.122
   22ARG    HD1  376   3.410   6.733   6.121
   22ARG    HD2  377   3.381   6.576   6.090
   22ARG     NE  378   3.297   6.641   6.261
   22ARG     HE  379   3.200   6.656   6.280
   22ARG     CZ  380   3.372   6.606   6.364
   22ARG    NH1  381   3.498   6.576   6.351
   22ARG   HH11  382   3.541   6.580   6.261
   22ARG   HH12  383   3.552   6.550   6.431
   22ARG    NH2  384   3.320   6.600   6.484
   22ARG   HH21  385   3.224   6.623   6.498
   22ARG   HH22  386   3.377   6.573   6.561
   22ARG      C  387   3.066   6.889   5.828
   22ARG      O  388   3.108   6.984   5.892
   23GLY      N  389   2.951   6.890   5.760
   23GLY      H  390   2.943   6.829   5.681
   23GLY     CA  391   2.838   6.973   5.796
   23GLY    HA1  392   2.787   6.996   5.713
   23GLY    HA2  393   2.872   7.058   5.838
   23GLY      C  394   2.752   6.894   5.893
   23GLY      O  395   2.727   6.777   5.866
   24TYR      N  396   2.711   6.962   6.000
   24TYR      H  397   2.732   7.060   6.000
   24TYR     CA  398   2.639   6.914   6.120
   24TYR     HA  399   2.612   7.000   6.163
   24TYR     CB  400   2.511   6.838   6.083
   24TYR    HB1  401   2.462   6.815   6.167
   24TYR    HB2  402   2.536   6.754   6.034
   24TYR     CG  403   2.419   6.920   5.994
   24TYR    CD1  404   2.337   7.018   6.052
   24TYR    HD1  405   2.337   7.032   6.151
   24TYR    CE1  406   2.254   7.098   5.970
   24TYR    HE1  407   2.195   7.168   6.011
   24TYR     CZ  408   2.255   7.079   5.830
   24TYR     OH  409   2.176   7.156   5.750
   24TYR     HH  410   2.189   7.129   5.655
   24TYR    CE2  411   2.337   6.981   5.772
   24TYR    HE2  412   2.338   6.968   5.673
   24TYR    CD2  413   2.419   6.901   5.854
   24TYR    HD2  414   2.476   6.830   5.814
   24TYR      C  415   2.726   6.849   6.228
   24TYR    OC1  416   2.710   6.897   6.342
   24TYR    OC2  417   2.811   6.762   6.197
   25SOL     OW  418   1.736   0.839   0.257
   25SOL    HW2  419   1.777   0.781   0.322
   25SOL    HW3  420   1.643   0.831   0.274
   25SOL    MW4  421   1.730   0.831   0.267
   26SOL     OW  422   1.602   0.771   1.252
   26SOL    HW2  423   1.557   0.838   1.303
   26SOL    HW3  424   1.690   0.807   1.238
   26SOL    MW4  425   1.608   0.784   1.256
   27SOL     OW  426   0.530   1.022   0.486
   27SOL    HW2  427   0.620   0.997   0.470
   27SOL    HW3  428   0.526   1.115   0.463
   27SOL    MW4  429   0.542   1.031   0.481
   28SOL     OW  430   1.646   1.725   0.628
   28SOL    HW2  431   1.658   1.671   0.706
   28SOL    HW3  432   1.683   1.673   0.557
   28SOL    MW4  433   1.652   1.710   0.629
   29SOL     OW  434   1.025   1.610   1.629
   29SOL    HW2  435   1.066   1.646   1.550
   29SOL    HW3  436   1.060   1.521   1.636
   29SOL    MW4  437   1.036   1.603   1.620
   30SOL     OW  438   1.582   1.165   1.233
   30SOL    HW2  439   1.503   1.130   1.191
   30SOL    HW3  440   1.609   1.237   1.177
   30SOL    MW4  441   1.575   1.170   1.220
   31SOL     OW  442   0.814   0.478   0.499
   31SOL    HW2  443   0.789   0.566   0.527
   31SOL    HW3  444   0.811   0.481   0.403
   31SOL    MW4  445   0.810   0.490   0.491
   32SOL     OW  446   0.256   0.506   0.427
   32SOL    HW2  447   0.288   0.594   0.409
   32SOL    HW3  448   0.244   0.504   0.522
   32SOL    MW4  449   0.259   0.518   0.439
   33SOL     OW  450   0.334   0.919   1.328
   33SOL    HW2  451   0.397   0.866   1.279
   33SOL    HW3  452   0.315   0.993   1.271
   33SOL    MW4  453   0.340   0.921   1.315
   34SOL     OW  454   0.655   0.261   0.514
   34SOL    HW2  455   0.713   0.337   0.516
   34SOL    HW3  456   0.590   0.282   0.447
   34SOL    MW4  457   0.654   0.273   0.505
   35SOL     OW  458   0.742   1.188   0.689
   35SOL    HW2  459   0.822   1.191   0.741
   35SOL    HW3  460   0.770   1.155   0.603
   35SOL    MW4  461   0.756   1.184   0.684
   36SOL     OW  462   0.767   1.529   1.592
   36SOL    HW2  463   0.851   1.555   1.631
   36SOL    HW3  464   0.791   1.473   1.518
   36SOL    MW4  465   0.781   1.525   1.587
   37SOL     OW  466   0.519   0.692   0.680
   37SOL    HW2  467   0.504   0.612   0.731
   37SOL    HW3  468   0.601   0.727   0.714
   37SOL    MW4  469   0.527   0.684   0.692
   38SOL     OW  470   0.856   1.378   1.365
   38SOL    HW2  471   0.820   1.444   1.305
   38SOL    HW3  472   0.784   1.316   1.378
   38SOL    MW4  473   0.842   1.378   1.359
   39SOL     OW  474   0.661   0.518   1.057
   39SOL    HW2  475   0.567   0.514   1.075
   39SOL    HW3  476   0.691   0.427   1.066
   39SOL    MW4  477   0.652   0.506   1.060
   40SOL     OW  478   0.407   0.932   0.961
   40SOL    HW2  479   0.362   0.939   0.877
   40SOL    HW3  480   0.387   1.015   1.005
   40SOL    MW4  481   0.399   0.944   0.955
   41SOL     OW  482   0.104   1.778   0.836
   41SOL    HW2  483   0.193   1.770   0.871
   41SOL    HW3  484   0.068   1.690   0.841
   41SOL    MW4  485   0.111   1.765   0.841
   42SOL     OW  486   1.369   1.170   0.205
   42SOL    HW2  487   1.287   1.206   0.171
   42SOL    HW3  488   1.437   1.213   0.154
   42SOL    MW4  489   1.367   1.180   0.193
   43SOL     OW  490   0.368   1.305   0.871
   43SOL    HW2  491   0.344   1.358   0.947
   43SOL    HW3  492   0.424   1.363   0.819
   43SOL    MW4  493   0.372   1.320   0.874
   44SOL     OW  494   0.930   0.949   0.681
   44SOL    HW2  495   0.844   0.936   0.721
   44SOL    HW3  496   0.983   0.876   0.713
   44SOL    MW4  497   0.926   0.938   0.690
   45SOL     OW  498   0.338   1.601   1.466
   45SOL    HW2  499   0.246   1.577   1.451
   45SOL    HW3  500   0.382   1.518   1.483
   45SOL    MW4  501   0.332   1.586   1.465
   46SOL     OW  502   0.921   1.311   0.398
   46SOL    HW2  503   0.898   1.373   0.466
   46SOL    HW3  504   0.878   1.229   0.424
   46SOL    MW4  505   0.913   1.307   0.409
   47SOL     OW  506   1.794   0.312   0.854
   47SOL    HW2  507   1.731   0.292   0.923
   47SOL    HW3  508   1.784   0.241   0.791
   47SOL    MW4  509   1.784   0.299   0.855
   48SOL     OW  510   0.418   0.284   0.366
   48SOL    HW2  511   0.392   0.246   0.282
   48SOL    HW3  512   0.355   0.354   0.382
   48SOL    MW4  513   0.407   0.287   0.357
   49SOL     OW  514   0.253   1.245   0.403
   49SOL    HW2  515   0.201   1.313   0.359
   49SOL    HW3  516   0.250   1.171   0.343
   49SOL    MW4  517   0.245   1.244   0.390
   50SOL     OW  518   0.915   1.708   0.181
   50SOL    HW2  519   0.870   1.724   0.264
   50SOL    HW3  520   0.846   1.673   0.123
   50SOL    MW4  521   0.901   1.705   0.183
   51SOL     OW  522   1.850   0.481   0.156
   51SOL    HW2  523   1.759   0.483   0.184
   51SOL    HW3  524   1.895   0.543   0.214
   51SOL    MW4  525   1.843   0.489   0.166
   52SOL     OW  526   1.595   1.084   0.506
   52SOL    HW2  527   1.505   1.084   0.541
   52SOL    HW3  528   1.588   1.130   0.423
   52SOL    MW4  529   1.582   1.090   0.500
   53SOL     OW  530   1.395   0.719   1.578
   53SOL    HW2  531   1.464   0.657   1.555
   53SOL    HW3  532   1.320   0.693   1.525
   53SOL    MW4  533   1.395   0.706   1.569
   54SOL     OW  534   0.136   1.599   1.130
   54SOL    HW2  535   0.119   1.545   1.207
   54SOL    HW3  536   0.124   1.689   1.160
   54SOL    MW4  537   0.133   1.603   1.144
   55SOL     OW  538   1.131   1.106   1.570
   55SOL    HW2  539   1.116   1.199   1.555
   55SOL    HW3  540   1.226   1.096   1.570
   55SOL    MW4  541   1.140   1.116   1.567
   56SOL     OW  542   0.927   0.530   1.771
   56SOL    HW2  543   1.017   0.531   1.738
   56SOL    HW3  544   0.886   0.455   1.729
   56SOL    MW4  545   0.933   0.520   1.762
   57SOL     OW  546   1.502   1.062   0.898
   57SOL    HW2  547   1.505   0.996   0.829
   57SOL    HW3  548   1.587   1.105   0.894
   57SOL    MW4  549   1.514   1.058   0.889
   58SOL     OW  550   1.122   0.665   0.467
   58SOL    HW2  551   1.148   0.689   0.378
   58SOL    HW3  552   1.104   0.572   0.463
   58SOL    MW4  553   1.124   0.657   0.454
   59SOL     OW  554   1.787   1.285   0.318
   59SOL    HW2  555   1.743   1.326   0.393
   59SOL    HW3  556   1.844   1.353   0.283
   59SOL    MW4  557   1.789   1.299   0.323
   60SOL     OW  558   0.707   0.334   1.721
   60SOL    HW2  559   0.717   0.260   1.661
   60SOL    HW3  560   0.743   0.303   1.804
   60SOL    MW4  561   0.713   0.320   1.723
   61SOL     OW  562   0.443   1.701   0.636
   61SOL    HW2  563   0.475   1.789   0.614
   61SOL    HW3  564   0.396   1.673   0.558
   61SOL    MW4  565   0.442   1.709   0.623
   62SOL     OW  566   1.827   0.063   0.685
   62SOL    HW2  567   1.881   0.014   0.747
   62SOL    HW3  568   1.770  -0.003   0.646
   62SOL    MW4  569   1.827   0.047   0.687
   63SOL     OW  570   0.159   1.761   0.213
   63SOL    HW2  571   0.188   1.851   0.205
   63SOL    HW3  572   0.109   1.744   0.134
   63SOL    MW4  573   0.157   1.769   0.202
   64SOL     OW  574   0.946   0.016   1.098
   64SOL    HW2  575   0.905   0.094   1.060
   64SOL    HW3  576   1.040   0.034   1.093
   64SOL    MW4  577   0.952   0.028   1.093
   65SOL     OW  578   1.563   1.569   0.184
   65SOL    HW2  579   1.611   1.638   0.230
   65SOL    HW3  580   1.484   1.613   0.153
   65SOL    MW4  581   1.558   1.583   0.187
   66SOL     OW  582   0.961   0.694   0.128
   66SOL    HW2  583   0.963   0.641   0.049
   66SOL    HW3  584   1.049   0.731   0.134
   66SOL    MW4  585   0.973   0.693   0.117
   67SOL     OW  586   1.575   0.620   0.464
   67SOL    HW2  587   1.614   0.620   0.551
   67SOL    HW3  588   1.516   0.696   0.464
   67SOL    MW4  589   1.572   0.631   0.475
   68SOL     OW  590   0.892   0.987   1.593
   68SOL    HW2  591   0.869   0.967   1.683
   68SOL    HW3  592   0.977   1.031   1.598
   68SOL    MW4  593   0.899   0.990   1.605
   69SOL     OW  594   0.972   0.124   1.353
   69SOL    HW2  595   0.978   0.086   1.266
   69SOL    HW3  596   0.961   0.218   1.338
   69SOL    MW4  597   0.973   0.132   1.341
   70SOL     OW  598   1.061   0.613   1.187
   70SOL    HW2  599   1.136   0.642   1.134
   70SOL    HW3  600   0.993   0.678   1.171
   70SOL    MW4  601   1.062   0.625   1.177
   71SOL     OW  602   1.611   0.581   1.464
   71SOL    HW2  603   1.592   0.490   1.443
   71SOL    HW3  604   1.589   0.630   1.385
   71SOL    MW4  605   1.606   0.574   1.451
   72SOL     OW  606   1.753   1.675   1.368
   72SOL    HW2  607   1.681   1.637   1.419
   72SOL    HW3  608   1.770   1.760   1.409
   72SOL    MW4  609   1.747   1.680   1.380
   73SOL     OW  610   1.058   0.319   1.570
   73SOL    HW2  611   1.024   0.358   1.489
   73SOL    HW3  612   1.036   0.227   1.563
   73SOL    MW4  613   1.051   0.312   1.560
   74SOL     OW  614   1.467   1.133   1.646
   74SOL    HW2  615   1.549   1.174   1.676
   74SOL    HW3  616   1.430   1.095   1.726
   74SOL    MW4  617   1.473   1.134   1.661
   75SOL     OW  618   1.762   0.506   0.630
   75SOL    HW2  619   1.851   0.475   0.647
   75SOL    HW3  620   1.705   0.446   0.678
   75SOL    MW4  621   1.765   0.494   0.639
   76SOL     OW  622   0.188   0.220   0.659
   76SOL    HW2  623   0.179   0.160   0.585
   76SOL    HW3  624   0.121   0.191   0.722
   76SOL    MW4  625   0.178   0.207   0.657
   77SOL     OW  626   1.131   1.313   0.220
   77SOL    HW2  627   1.081   1.315   0.302
   77SOL    HW3  628   1.065   1.331   0.152
   77SOL    MW4  629   1.117   1.315   0.222
   78SOL     OW  630   0.135   0.393   1.022
   78SOL    HW2  631   0.107   0.484   1.031
   78SOL    HW3  632   0.072   0.354   0.961
   78SOL    MW4  633   0.122   0.399   1.016
   79SOL     OW  634   0.594   1.731   0.328
   79SOL    HW2  635   0.515   1.689   0.361
   79SOL    HW3  636   0.660   1.714   0.395
   79SOL    MW4  637   0.593   1.723   0.341
   80SOL     OW  638   1.722   1.251   1.725
   80SOL    HW2  639   1.772   1.177   1.757
   80SOL    HW3  640   1.668   1.278   1.800
   80SOL    MW4  641   1.722   1.245   1.738
   81SOL     OW  642   0.730   1.146   0.035
   81SOL    HW2  643   0.652   1.092   0.022
   81SOL    HW3  644   0.701   1.219   0.088
   81SOL    MW4  645   0.716   1.148   0.040
   82SOL     OW  646   1.856   0.886   1.227
   82SOL    HW2  647   1.872   0.924   1.140
   82SOL    HW3  648   1.890   0.952   1.288
   82SOL    MW4  649   1.863   0.899   1.223
   83SOL     OW  650   1.648   1.595   0.896
   83SOL    HW2  651   1.677   1.662   0.957
   83SOL    HW3  652   1.629   1.519   0.951
   83SOL    MW4  653   1.650   1.595   0.911
   84SOL     OW  654   1.311   1.662   0.103
   84SOL    HW2  655   1.237   1.625   0.153
   84SOL    HW3  656   1.319   1.752   0.136
   84SOL    MW4  657   1.302   1.669   0.115
   85SOL     OW  658   0.119   0.668   1.192
   85SOL    HW2  659   0.181   0.698   1.258
   85SOL    HW3  660   0.053   0.737   1.186
   85SOL    MW4  661   0.118   0.681   1.199
   86SOL     OW  662   1.535   1.336   0.045
   86SOL    HW2  663   1.482   1.385  -0.019
   86SOL    HW3  664   1.566   1.402   0.106
   86SOL    MW4  665   1.533   1.350   0.043
   87SOL     OW  666   0.760   0.225   0.100
   87SOL    HW2  667   0.708   0.145   0.088
   87SOL    HW3  668   0.847   0.202   0.068
   87SOL    MW4  669   0.763   0.211   0.094
   88SOL     OW  670   0.214   1.777   1.644
   88SOL    HW2  671   0.188   1.845   1.582
   88SOL    HW3  672   0.262   1.714   1.592
   88SOL    MW4  673   0.216   1.777   1.630
   89SOL     OW  674   0.266   1.096   1.151
   89SOL    HW2  675   0.319   1.171   1.176
   89SOL    HW3  676   0.185   1.134   1.117
   89SOL    MW4  677   0.262   1.111   1.151
   90SOL     OW  678   0.806   1.000   1.139
   90SOL    HW2  679   0.834   0.909   1.151
   90SOL    HW3  680   0.735   0.994   1.075
   90SOL    MW4  681   0.799   0.988   1.134
   91SOL     OW  682   0.121   0.865   0.557
   91SOL    HW2  683   0.212   0.880   0.584
   91SOL    HW3  684   0.124   0.786   0.503
   91SOL    MW4  685   0.133   0.857   0.555
   92SOL     OW  686   0.357   0.573   1.811
   92SOL    HW2  687   0.304   0.653   1.818
   92SOL    HW3  688   0.427   0.585   1.876
   92SOL    MW4  689   0.359   0.586   1.819
   93SOL     OW  690   0.743   0.123   1.518
   93SOL    HW2  691   0.720   0.031   1.520
   93SOL    HW3  692   0.829   0.125   1.475
   93SOL    MW4  693   0.750   0.113   1.514
   94SOL     OW  694   0.427   0.647   1.557
   94SOL    HW2  695   0.507   0.697   1.543
   94SOL    HW3  696   0.418   0.641   1.652
   94SOL    MW4  697   0.436   0.653   1.567
   95SOL     OW  698   0.748   1.797   0.931
   95SOL    HW2  699   0.837   1.812   0.961
   95SOL    HW3  700   0.743   1.844   0.847
   95SOL    MW4  701   0.758   1.805   0.924
   96SOL     OW  702   1.404   0.172   1.828
   96SOL    HW2  703   1.460   0.099   1.854
   96SOL    HW3  704   1.374   0.210   1.910
   96SOL    MW4  705   1.408   0.167   1.841
   97SOL     OW  706   0.129   1.477   0.596
   97SOL    HW2  707   0.101   1.516   0.678
   97SOL    HW3  708   0.149   1.386   0.618
   97SOL    MW4  709   0.127   1.469   0.609
   98SOL     OW  710   0.962   1.520   0.631
   98SOL    HW2  711   1.045   1.474   0.615
   98SOL    HW3  712   0.952   1.519   0.727
   98SOL    MW4  713   0.972   1.513   0.641
   99SOL     OW  714   1.794   0.665   0.945
   99SOL    HW2  715   1.883   0.695   0.927
   99SOL    HW3  716   1.774   0.605   0.874
   99SOL    MW4  717   1.803   0.662   0.934
  100SOL     OW  718   1.645   0.844   1.825
  100SOL    HW2  719   1.700   0.768   1.806
  100SOL    HW3  720   1.647   0.852   1.920
  100SOL    MW4  721   1.653   0.835   1.833
  101SOL     OW  722   0.695   1.577   0.036
  101SOL    HW2  723   0.635   1.646   0.006
  101SOL    HW3  724   0.640   1.519   0.089
  101SOL    MW4  725   0.679   1.579   0.038
  102SOL     OW  726   1.133   0.222   0.259
  102SOL    HW2  727   1.066   0.198   0.196
  102SOL    HW3  728   1.198   0.271   0.208
  102SOL    MW4  729   1.133   0.224   0.244
  103SOL     OW  730   0.940   0.406   1.344
  103SOL    HW2  731   0.859   0.447   1.372
  103SOL    HW3  732   0.987   0.474   1.296
  103SOL    MW4  733   0.935   0.421   1.342
  104SOL     OW  734   1.200   0.744   0.967
  104SOL    HW2  735   1.213   0.838   0.977
  104SOL    HW3  736   1.161   0.734   0.881
  104SOL    MW4  737   1.196   0.755   0.957
  105SOL     OW  738   0.652   0.939   0.771
  105SOL    HW2  739   0.563   0.930   0.804
  105SOL    HW3  740   0.656   1.029   0.739
  105SOL    MW4  741   0.641   0.950   0.771
  106SOL     OW  742   1.451   0.522   0.766
  106SOL    HW2  743   1.396   0.443   0.765
  106SOL    HW3  744   1.433   0.563   0.850
  106SOL    MW4  745   1.441   0.517   0.775
  107SOL     OW  746   0.422   0.209   1.583
  107SOL    HW2  747   0.343   0.227   1.635
  107SOL    HW3  748   0.417   0.271   1.510
  107SOL    MW4  749   0.412   0.219   1.580
  108SOL     OW  750   1.070   0.726   0.723
  108SOL    HW2  751   1.007   0.658   0.747
  108SOL    HW3  752   1.090   0.707   0.631
  108SOL    MW4  753   1.064   0.713   0.715
  109SOL     OW  754   0.326   1.621   0.425
  109SOL    HW2  755   0.287   1.668   0.351
  109SOL    HW3  756   0.260   1.556   0.450
  109SOL    MW4  757   0.313   1.619   0.419
  110SOL     OW  758   0.818   1.030   0.449
  110SOL    HW2  759   0.820   1.004   0.356
  110SOL    HW3  760   0.876   0.967   0.492
  110SOL    MW4  761   0.826   1.019   0.443
  111SOL     OW  762   1.371   1.590   1.221
  111SOL    HW2  763   1.296   1.636   1.259
  111SOL    HW3  764   1.353   1.497   1.238
  111SOL    MW4  765   1.360   1.584   1.229
  112SOL     OW  766   1.375   1.798   0.651
  112SOL    HW2  767   1.318   1.751   0.590
  112SOL    HW3  768   1.461   1.759   0.638
  112SOL    MW4  769   1.378   1.789   0.641
  113SOL     OW  770   1.328   0.274   0.782
  113SOL    HW2  771   1.356   0.206   0.843
  113SOL    HW3  772   1.242   0.245   0.752
  113SOL    MW4  773   1.321   0.261   0.786
  114SOL     OW  774   0.133   1.208   0.716
  114SOL    HW2  775   0.197   1.240   0.779
  114SOL    HW3  776   0.182   1.144   0.664
  114SOL    MW4  777   0.148   1.204   0.717
  115SOL     OW  778   0.633   1.284   1.698
  115SOL    HW2  779   0.681   1.367   1.685
  115SOL    HW3  780   0.690   1.232   1.754
  115SOL    MW4  781   0.647   1.288   1.704
  116SOL     OW  782   0.209   1.526   1.838
  116SOL    HW2  783   0.265   1.450   1.853
  116SOL    HW3  784   0.158   1.504   1.760
  116SOL    MW4  785   0.209   1.513   1.829
  117SOL     OW  786   1.308   0.378   0.117
  117SOL    HW2  787   1.281   0.444   0.053
  117SOL    HW3  788   1.378   0.421   0.167
  117SOL    MW4  789   1.313   0.391   0.114
  118SOL     OW  790   0.976   0.083   0.054
  118SOL    HW2  791   1.032   0.075  -0.024
  118SOL    HW3  792   0.953  -0.007   0.076
  118SOL    MW4  793   0.981   0.070   0.047
  119SOL     OW  794   1.481   0.934   0.259
  119SOL    HW2  795   1.448   1.023   0.249
  119SOL    HW3  796   1.446   0.905   0.344
  119SOL    MW4  797   1.471   0.943   0.270
  120SOL     OW  798   1.094   1.363   1.447
  120SOL    HW2  799   1.005   1.369   1.415
  120SOL    HW3  800   1.138   1.442   1.415
  120SOL    MW4  801   1.089   1.373   1.439
  121SOL     OW  802   0.387   0.031   1.789
  121SOL    HW2  803   0.315  -0.004   1.737
  121SOL    HW3  804   0.445   0.072   1.724
  121SOL    MW4  805   0.385   0.032   1.774
  122SOL     OW  806   0.411   1.521   1.088
  122SOL    HW2  807   0.456   1.583   1.145
  122SOL    HW3  808   0.318   1.540   1.101
  122SOL    MW4  809   0.404   1.531   1.095
  123SOL     OW  810   1.851   1.050   1.442
  123SOL    HW2  811   1.766   1.063   1.401
  123SOL    HW3  812   1.831   1.014   1.529
  123SOL    MW4  813   1.838   1.046   1.447
  124SOL     OW  814   0.833   1.589   1.196
  124SOL    HW2  815   0.857   1.578   1.105
  124SOL    HW3  816   0.756   1.646   1.194
  124SOL    MW4  817   0.825   1.594   1.185
  125SOL     OW  818   0.475   0.972   0.051
  125SOL    HW2  819   0.398   0.985   0.107
  125SOL    HW3  820   0.439   0.936  -0.030
  125SOL    MW4  821   0.461   0.968   0.048
  126SOL     OW  822   1.128   0.945   0.294
  126SOL    HW2  823   1.038   0.966   0.269
  126SOL    HW3  824   1.155   1.018   0.350
  126SOL    MW4  825   1.120   0.957   0.297
  127SOL     OW  826   0.628   1.294   0.986
  127SOL    HW2  827   0.621   1.273   1.080
  127SOL    HW3  828   0.546   1.262   0.949
  127SOL    MW4  829   0.616   1.288   0.993
  128SOL     OW  830   1.492   0.304   1.388
  128SOL    HW2  831   1.439   0.306   1.468
  128SOL    HW3  832   1.477   0.217   1.351
  128SOL    MW4  833   1.484   0.294   1.393
  129SOL     OW  834   1.828   0.228   1.261
  129SOL    HW2  835   1.809   0.295   1.196
  129SOL    HW3  836   1.885   0.166   1.216
  129SOL    MW4  837   1.832   0.229   1.247
  130SOL     OW  838   0.074   1.386   1.649
  130SOL    HW2  839   0.118   1.319   1.595
  130SOL    HW3  840  -0.011   1.348   1.669
  130SOL    MW4  841   0.069   1.372   1.645
  131SOL     OW  842   0.757   0.061   0.701
  131SOL    HW2  843   0.686   0.122   0.683
  131SOL    HW3  844   0.808   0.058   0.620
  131SOL    MW4  845   0.753   0.067   0.688
  132SOL     OW  846   0.515   1.301   0.450
  132SOL    HW2  847   0.508   1.333   0.540
  132SOL    HW3  848   0.425   1.285   0.422
  132SOL    MW4  849   0.503   1.303   0.457
  133SOL     OW  850   1.110   1.694   1.359
  133SOL    HW2  851   1.030   1.679   1.309
  133SOL    HW3  852   1.117   1.789   1.366
  133SOL    MW4  853   1.101   1.705   1.353
  134SOL     OW  854   1.224   1.659   0.849
  134SOL    HW2  855   1.271   1.732   0.808
  134SOL    HW3  856   1.145   1.698   0.885
  134SOL    MW4  857   1.219   1.674   0.848
  135SOL     OW  858   1.632   1.754   1.124
  135SOL    HW2  859   1.675   1.724   1.204
  135SOL    HW3  860   1.551   1.702   1.121
  135SOL    MW4  861   1.627   1.743   1.134
  136SOL     OW  862   0.717   0.718   1.831
  136SOL    HW2  863   0.787   0.660   1.803
  136SOL    HW3  864   0.660   0.663   1.886
  136SOL    MW4  865   0.719   0.705   1.835
  137SOL     OW  866   1.504   0.930   1.464
  137SOL    HW2  867   1.509   0.983   1.544
  137SOL    HW3  868   1.466   0.847   1.492
  137SOL    MW4  869   1.500   0.925   1.479
  138SOL     OW  870   1.144   0.065   1.710
  138SOL    HW2  871   1.139  -0.028   1.691
  138SOL    HW3  872   1.227   0.076   1.756
  138SOL    MW4  873   1.152   0.054   1.714
  139SOL     OW  874   0.518   0.585   0.164
  139SOL    HW2  875   0.484   0.641   0.234
  139SOL    HW3  876   0.589   0.535   0.204
  139SOL    MW4  877   0.524   0.586   0.178
  140SOL     OW  878   1.614   1.336   0.986
  140SOL    HW2  879   1.649   1.318   0.899
  140SOL    HW3  880   1.519   1.337   0.973
  140SOL    MW4  881   1.606   1.333   0.973
  141SOL     OW  882   1.043   0.984   1.355
  141SOL    HW2  883   1.086   1.019   1.433
  141SOL    HW3  884   1.026   1.061   1.301
  141SOL    MW4  885   1.046   0.999   1.358
  142SOL     OW  886   1.574   0.471   0.228
  142SOL    HW2  887   1.566   0.542   0.165
  142SOL    HW3  888   1.592   0.515   0.311
  142SOL    MW4  889   1.575   0.485   0.230
  143SOL     OW  890   0.434   0.126   0.657
  143SOL    HW2  891   0.484   0.169   0.588
  143SOL    HW3  892   0.349   0.170   0.657
  143SOL    MW4  893   0.431   0.139   0.648
  144SOL     OW  894   0.193   1.188   1.517
  144SOL    HW2  895   0.221   1.141   1.595
  144SOL    HW3  896   0.114   1.143   1.488
  144SOL    MW4  897   0.186   1.177   1.523
  145SOL     OW  898   0.701   0.515   1.484
  145SOL    HW2  899   0.673   0.603   1.508
  145SOL    HW3  900   0.670   0.459   1.555
  145SOL    MW4  901   0.693   0.518   1.496
  146SOL     OW  902   1.243   0.733   0.203
  146SOL    HW2  903   1.290   0.751   0.122
  146SOL    HW3  904   1.209   0.817   0.231
  146SOL    MW4  905   1.245   0.747   0.196
  147SOL     OW  906   0.356   0.911   0.697
  147SOL    HW2  907   0.414   0.967   0.645
  147SOL    HW3  908   0.400   0.826   0.699
  147SOL    MW4  909   0.369   0.908   0.690
  148SOL     OW  910   1.496   0.263   0.534
  148SOL    HW2  911   1.418   0.213   0.559
  148SOL    HW3  912   1.467   0.354   0.534
  148SOL    MW4  913   1.482   0.267   0.537
  149SOL     OW  914   1.082   0.225   0.693
  149SOL    HW2  915   1.102   0.300   0.637
  149SOL    HW3  916   1.062   0.264   0.778
  149SOL    MW4  917   1.083   0.241   0.697
  150SOL     OW  918   0.978   1.475   0.025
  150SOL    HW2  919   1.005   1.553  -0.023
  150SOL    HW3  920   0.885   1.490   0.044
  150SOL    MW4  921   0.969   1.488   0.021
  151SOL     OW  922   1.842   0.998   1.712
  151SOL    HW2  923   1.755   0.978   1.748
  151SOL    HW3  924   1.896   0.924   1.737
  151SOL    MW4  925   1.837   0.987   1.720
  152SOL     OW  926   0.063   1.511   0.869
  152SOL    HW2  927   0.095   1.515   0.960
  152SOL    HW3  928  -0.032   1.519   0.877
  152SOL    MW4  929   0.055   1.514   0.882
  153SOL     OW  930   0.018   0.637   0.416
  153SOL    HW2  931  -0.042   0.609   0.486
  153SOL    HW3  932   0.092   0.577   0.422
  153SOL    MW4  933   0.020   0.626   0.425
  154SOL     OW  934   1.586   1.849   1.850
  154SOL    HW2  935   1.631   1.773   1.815
  154SOL    HW3  936   1.624   1.862   1.937
  154SOL    MW4  937   1.596   1.842   1.856
  155SOL     OW  938   1.186   1.368   0.576
  155SOL    HW2  939   1.209   1.319   0.654
  155SOL    HW3  940   1.267   1.410   0.548
  155SOL    MW4  941   1.199   1.368   0.583
  156SOL     OW  942   0.444   0.376   1.305
  156SOL    HW2  943   0.477   0.457   1.345
  156SOL    HW3  944   0.417   0.402   1.217
  156SOL    MW4  945   0.443   0.390   1.299
  157SOL     OW  946   0.398   0.343   1.041
  157SOL    HW2  947   0.428   0.257   1.012
  157SOL    HW3  948   0.303   0.336   1.044
  157SOL    MW4  949   0.390   0.332   1.039
  158SOL     OW  950   1.227   0.552   1.732
  158SOL    HW2  951   1.279   0.487   1.685
  158SOL    HW3  952   1.185   0.603   1.662
  158SOL    MW4  953   1.228   0.549   1.715
  159SOL     OW  954   1.326   0.347   1.593
  159SOL    HW2  955   1.233   0.331   1.580
  159SOL    HW3  956   1.352   0.285   1.661
  159SOL    MW4  957   1.316   0.337   1.600
  160SOL     OW  958   0.541   0.121   0.932
  160SOL    HW2  959   0.551   0.030   0.958
  160SOL    HW3  960   0.497   0.117   0.847
  160SOL    MW4  961   0.537   0.109   0.924
  161SOL     OW  962   0.635   1.736   1.478
  161SOL    HW2  963   0.552   1.721   1.523
  161SOL    HW3  964   0.694   1.669   1.513
  161SOL    MW4  965   0.633   1.726   1.488
  162SOL     OW  966   1.692   0.443   1.103
  162SOL    HW2  967   1.625   0.476   1.163
  162SOL    HW3  968   1.735   0.521   1.069
  162SOL    MW4  969   1.690   0.458   1.107
  163SOL     OW  970   1.870   1.163   1.073
  163SOL    HW2  971   1.863   1.103   0.998
  163SOL    HW3  972   1.796   1.223   1.062
  163SOL    MW4  973   1.860   1.163   1.062
  164SOL     OW  974   1.252   1.025   0.991
  164SOL    HW2  975   1.266   0.997   1.082
  164SOL    HW3  976   1.338   1.056   0.963
  164SOL    MW4  977   1.265   1.026   1.000
  165SOL     OW  978   1.335   0.520   1.270
  165SOL    HW2  979   1.356   0.521   1.177
  165SOL    HW3  980   1.380   0.442   1.303
  165SOL    MW4  981   1.342   0.510   1.262
  166SOL     OW  982   1.828   0.651   1.812
  166SOL    HW2  983   1.865   0.596   1.881
  166SOL    HW3  984   1.853   0.608   1.730
  166SOL    MW4  985   1.835   0.639   1.811
  167SOL     OW  986   1.375   0.949   1.863
  167SOL    HW2  987   1.441   0.897   1.817
  167SOL    HW3  988   1.395   0.936   1.956
  167SOL    MW4  989   1.386   0.940   1.870
  168SOL     OW  990   1.326   0.035   0.212
  168SOL    HW2  991   1.400   0.079   0.255
  168SOL    HW3  992   1.250   0.089   0.234
  168SOL    MW4  993   1.326   0.047   0.220
  169SOL     OW  994   1.386   0.810   0.490
  169SOL    HW2  995   1.301   0.780   0.460
  169SOL    HW3  996   1.378   0.817   0.585
  169SOL    MW4  997   1.374   0.808   0.499
  170SOL     OW  998   0.462   1.273   1.221
  170SOL    HW2  999   0.474   1.300   1.312
  170SOL    HW3 1000   0.443   1.354   1.174
  170SOL    MW4 1001   0.461   1.288   1.226
  171SOL     OW 1002   0.746   0.253   1.044
  171SOL    HW2 1003   0.719   0.255   1.135
  171SOL    HW3 1004   0.676   0.205   0.999
  171SOL    MW4 1005   0.734   0.249   1.051
  172SOL     OW 1006   0.600   1.745   1.206
  172SOL    HW2 1007   0.652   1.822   1.183
  172SOL    HW3 1008   0.609   1.737   1.301
  172SOL    MW4 1009   0.609   1.752   1.217
  173SOL     OW 1010   1.502   1.330   1.438
  173SOL    HW2 1011   1.487   1.259   1.501
  173SOL    HW3 1012   1.548   1.288   1.366
  173SOL    MW4 1013   1.508   1.314   1.438
  174SOL     OW 1014   0.576   1.061   1.555
  174SOL    HW2 1015   0.613   1.066   1.467
  174SOL    HW3 1016   0.615   1.134   1.602
  174SOL    MW4 1017   0.586   1.071   1.550
  175SOL     OW 1018   0.756   1.104   1.367
  175SOL    HW2 1019   0.815   1.050   1.420
  175SOL    HW3 1020   0.771   1.076   1.277
  175SOL    MW4 1021   0.766   1.093   1.363
  176SOL     OW 1022   0.759   0.476   0.216
  176SOL    HW2 1023   0.832   0.525   0.179
  176SOL    HW3 1024   0.775   0.385   0.190
  176SOL    MW4 1025   0.771   0.471   0.209
  177SOL     OW 1026   1.567   1.593   1.539
  177SOL    HW2 1027   1.609   1.578   1.624
  177SOL    HW3 1028   1.558   1.506   1.501
  177SOL    MW4 1029   1.571   1.581   1.546
  178SOL     OW 1030   1.227   0.072   1.130
  178SOL    HW2 1031   1.282   0.081   1.052
  178SOL    HW3 1032   1.282   0.106   1.201
  178SOL    MW4 1033   1.241   0.077   1.129
  179SOL     OW 1034   0.234   0.985   0.314
  179SOL    HW2 1035   0.171   1.001   0.243
  179SOL    HW3 1036   0.181   0.948   0.385
  179SOL    MW4 1037   0.219   0.982   0.314
  180SOL     OW 1038   0.590   1.339   0.173
  180SOL    HW2 1039   0.605   1.315   0.265
  180SOL    HW3 1040   0.498   1.317   0.157
  180SOL    MW4 1041   0.580   1.332   0.183
  181SOL     OW 1042   1.129   1.570   0.325
  181SOL    HW2 1043   1.137   1.488   0.276
  181SOL    HW3 1044   1.048   1.609   0.292
  181SOL    MW4 1045   1.119   1.565   0.315
  182SOL     OW 1046   0.388   1.728   0.894
  182SOL    HW2 1047   0.392   1.639   0.929
  182SOL    HW3 1048   0.414   1.719   0.803
  182SOL    MW4 1049   0.391   1.716   0.886
  183SOL     OW 1050   1.005   1.206   1.137
  183SOL    HW2 1051   0.937   1.140   1.153
  183SOL    HW3 1052   1.023   1.200   1.044
  183SOL    MW4 1053   0.998   1.197   1.128
  184SOL     OW 1054   0.094   1.481   1.388
  184SOL    HW2 1055   0.084   1.439   1.474
  184SOL    HW3 1056   0.015   1.534   1.378
  184SOL    MW4 1057   0.083   1.482   1.399
  185SOL     OW 1058   0.998   0.345   0.958
  185SOL    HW2 1059   0.928   0.297   1.003
  185SOL    HW3 1060   1.030   0.408   1.022
  185SOL    MW4 1061   0.993   0.347   0.972
  186SOL     OW 1062   0.649   0.781   1.578
  186SOL    HW2 1063   0.642   0.876   1.566
  186SOL    HW3 1064   0.658   0.770   1.673
  186SOL    MW4 1065   0.650   0.793   1.588
  187SOL     OW 1066   0.370   1.296   1.836
  187SOL    HW2 1067   0.442   1.298   1.773
  187SOL    HW3 1068   0.340   1.205   1.835
  187SOL    MW4 1069   0.375   1.285   1.828
  188SOL     OW 1070   1.454   0.059   1.303
  188SOL    HW2 1071   1.525   0.005   1.267
  188SOL    HW3 1072   1.453   0.038   1.396
  188SOL    MW4 1073   1.463   0.050   1.311
  189SOL     OW 1074   1.654   1.589   1.787
  189SOL    HW2 1075   1.627   1.586   1.878
  189SOL    HW3 1076   1.750   1.593   1.790
  189SOL    MW4 1077   1.664   1.589   1.799
  190SOL     OW 1078   0.465   0.451   0.771
  190SOL    HW2 1079   0.536   0.399   0.734
  190SOL    HW3 1080   0.451   0.416   0.858
  190SOL    MW4 1081   0.473   0.440   0.778
  191SOL     OW 1082   0.020   1.786   1.843
  191SOL    HW2 1083   0.070   1.764   1.765
  191SOL    HW3 1084   0.028   1.881   1.851
  191SOL    MW4 1085   0.028   1.795   1.834
  192SOL     OW 1086   0.781   1.544   0.847
  192SOL    HW2 1087   0.709   1.481   0.860
  192SOL    HW3 1088   0.742   1.629   0.865
  192SOL    MW4 1089   0.765   1.547   0.850
  193SOL     OW 1090   1.101   0.392   0.495
  193SOL    HW2 1091   1.123   0.329   0.427
  193SOL    HW3 1092   1.006   0.384   0.506
  193SOL    MW4 1093   1.091   0.383   0.487
  194SOL     OW 1094   0.186   0.082   0.427
  194SOL    HW2 1095   0.257   0.103   0.366
  194SOL    HW3 1096   0.140   0.010   0.385
  194SOL    MW4 1097   0.190   0.076   0.413
  195SOL     OW 1098   0.017   0.549   1.570
  195SOL    HW2 1099   0.081   0.615   1.545
  195SOL    HW3 1100  -0.064   0.576   1.527
  195SOL    MW4 1101   0.015   0.561   1.562
  196SOL     OW 1102   1.755   1.456   0.527
  196SOL    HW2 1103   1.725   1.389   0.588
  196SOL    HW3 1104   1.849   1.462   0.541
  196SOL    MW4 1105   1.763   1.448   0.537
  197SOL     OW 1106   1.311   1.133   0.457
  197SOL    HW2 1107   1.283   1.219   0.490
  197SOL    HW3 1108   1.339   1.149   0.367
  197SOL    MW4 1109   1.311   1.147   0.449
  198SOL     OW 1110   0.973   0.053   0.510
  198SOL    HW2 1111   1.010   0.112   0.575
  198SOL    HW3 1112   0.950   0.109   0.436
  198SOL    MW4 1113   0.974   0.068   0.509
  199SOL     OW 1114   1.826   0.935   0.932
  199SOL    HW2 1115   1.817   0.967   0.843
  199SOL    HW3 1116   1.779   0.851   0.932
  199SOL    MW4 1117   1.819   0.928   0.922
  200SOL     OW 1118   0.202   0.775   1.511
  200SOL    HW2 1119   0.223   0.844   1.449
  200SOL    HW3 1120   0.282   0.722   1.516
  200SOL    MW4 1121   0.215   0.776   1.505
  201SOL     OW 1122   1.738   0.866   0.633
  201SOL    HW2 1123   1.832   0.855   0.621
  201SOL    HW3 1124   1.714   0.938   0.574
  201SOL    MW4 1125   1.748   0.874   0.624
  202SOL     OW 1126   0.187   0.790   1.778
  202SOL    HW2 1127   0.113   0.734   1.804
  202SOL    HW3 1128   0.182   0.793   1.683
  202SOL    MW4 1129   0.176   0.783   1.768
  203SOL     OW 1130   0.353   0.077   1.228
  203SOL    HW2 1131   0.396   0.161   1.248
  203SOL    HW3 1132   0.426   0.015   1.221
  203SOL    MW4 1133   0.368   0.080   1.229
  204SOL     OW 1134   0.394   0.744   0.406
  204SOL    HW2 1135   0.394   0.839   0.391
  204SOL    HW3 1136   0.471   0.728   0.460
  204SOL    MW4 1137   0.404   0.755   0.411
  205SOL     OW 1138   1.170   0.603   1.470
  205SOL    HW2 1139   1.206   0.576   1.386
  205SOL    HW3 1140   1.083   0.637   1.449
  205SOL    MW4 1141   1.164   0.604   1.457
  206SOL     OW 1142   0.153   0.475   0.695
  206SOL    HW2 1143   0.215   0.482   0.768
  206SOL    HW3 1144   0.153   0.382   0.672
  206SOL    MW4 1145   0.161   0.464   0.702
  207SOL     OW 1146   1.700   1.815   0.227
  207SOL    HW2 1147   1.767   1.848   0.167
  207SOL    HW3 1148   1.657   1.894   0.261
  207SOL    MW4 1149   1.702   1.830   0.223
  208SOL     OW 1150   0.835   0.736   1.179
  208SOL    HW2 1151   0.793   0.654   1.155
  208SOL    HW3 1152   0.836   0.735   1.275
  208SOL    MW4 1153   0.828   0.725   1.188
  209SOL     OW 1154   1.506   1.869   1.578
  209SOL    HW2 1155   1.509   1.775   1.561
  209SOL    HW3 1156   1.529   1.877   1.670
  209SOL    MW4 1157   1.509   1.857   1.588
  210SOL     OW 1158   0.639   0.206   1.284
  210SOL    HW2 1159   0.570   0.269   1.305
  210SOL    HW3 1160   0.666   0.170   1.369
  210SOL    MW4 1161   0.633   0.209   1.297
  211SOL     OW 1162   0.022   1.047   0.153
  211SOL    HW2 1163  -0.009   1.112   0.216
  211SOL    HW3 1164  -0.029   0.969   0.172
  211SOL    MW4 1165   0.012   1.044   0.163
  212SOL     OW 1166   1.434   0.059   0.901
  212SOL    HW2 1167   1.522   0.068   0.938
  212SOL    HW3 1168   1.444   0.000   0.827
  212SOL    MW4 1169   1.448   0.053   0.895
  213SOL     OW 1170   1.466   0.798   0.745
  213SOL    HW2 1171   1.546   0.813   0.694
  213SOL    HW3 1172   1.459   0.703   0.751
  213SOL    MW4 1173   1.475   0.787   0.740
  214SOL     OW 1174   0.606   1.847   0.095
  214SOL    HW2 1175   0.511   1.847   0.087
  214SOL    HW3 1176   0.622   1.793   0.173
  214SOL    MW4 1177   0.596   1.841   0.104
  215SOL     OW 1178   0.916   0.724   1.442
  215SOL    HW2 1179   0.985   0.791   1.439
  215SOL    HW3 1180   0.849   0.762   1.498
  215SOL    MW4 1181   0.917   0.737   1.449
  216SOL     OW 1182   0.334   1.024   1.690
  216SOL    HW2 1183   0.288   0.940   1.692
  216SOL    HW3 1184   0.391   1.018   1.614
  216SOL    MW4 1185   0.336   1.012   1.682
  217SOL     OW 1186   1.451   0.667   0.011
  217SOL    HW2 1187   1.379   0.643  -0.047
  217SOL    HW3 1188   1.517   0.704  -0.047
  217SOL    MW4 1189   1.450   0.669  -0.004
  218SOL     OW 1190   0.585   1.399   0.691
  218SOL    HW2 1191   0.650   1.332   0.712
  218SOL    HW3 1192   0.637   1.476   0.668
  218SOL    MW4 1193   0.600   1.401   0.690
  219SOL     OW 1194   0.846   0.564   0.821
  219SOL    HW2 1195   0.786   0.582   0.893
  219SOL    HW3 1196   0.880   0.476   0.840
  219SOL    MW4 1197   0.842   0.554   0.834
  220SOL     OW 1198   1.787   0.063   1.490
  220SOL    HW2 1199   1.708   0.109   1.518
  220SOL    HW3 1200   1.822   0.117   1.419
  220SOL    MW4 1201   1.781   0.076   1.484
  221SOL     OW 1202   1.071   1.147   0.840
  221SOL    HW2 1203   1.163   1.128   0.858
  221SOL    HW3 1204   1.044   1.077   0.780
  221SOL    MW4 1205   1.079   1.135   0.834
  222SOL     OW 1206   0.864   0.967   0.195
  222SOL    HW2 1207   0.850   0.879   0.160
  222SOL    HW3 1208   0.815   1.024   0.136
  222SOL    MW4 1209   0.856   0.962   0.183
  223SOL     OW 1210   1.345   1.385   0.936
  223SOL    HW2 1211   1.318   1.469   0.901
  223SOL    HW3 1212   1.305   1.380   1.023
  223SOL    MW4 1213   1.338   1.394   0.942
  224SOL     OW 1214   1.264   1.333   1.204
  224SOL    HW2 1215   1.275   1.300   1.293
  224SOL    HW3 1216   1.183   1.292   1.173
  224SOL    MW4 1217   1.254   1.325   1.210
  225SOL     OW 1218   0.277   0.691   0.974
  225SOL    HW2 1219   0.227   0.690   1.055
  225SOL    HW3 1220   0.297   0.783   0.958
  225SOL    MW4 1221   0.273   0.703   0.982
  226SOL     OW 1222   1.344   1.455   1.736
  226SOL    HW2 1223   1.344   1.549   1.752
  226SOL    HW3 1224   1.389   1.445   1.652
  226SOL    MW4 1225   1.350   1.465   1.727
  227SOL     OW 1226   1.583   0.173   0.297
  227SOL    HW2 1227   1.576   0.177   0.392
  227SOL    HW3 1228   1.595   0.264   0.270
  227SOL    MW4 1229   1.584   0.186   0.305
  228SOL     OW 1230   0.872   0.736   0.411
  228SOL    HW2 1231   0.852   0.722   0.318
  228SOL    HW3 1232   0.965   0.715   0.418
  228SOL    MW4 1233   0.882   0.731   0.400
  229SOL     OW 1234   0.199   0.359   1.715
  229SOL    HW2 1235   0.156   0.418   1.652
  229SOL    HW3 1236   0.267   0.414   1.755
  229SOL    MW4 1237   0.203   0.374   1.712
  230SOL     OW 1238   1.311   0.979   1.260
  230SOL    HW2 1239   1.374   0.976   1.333
  230SOL    HW3 1240   1.227   0.997   1.302
  230SOL    MW4 1241   1.307   0.981   1.275
  231SOL     OW 1242   0.855   1.694   0.449
  231SOL    HW2 1243   0.913   1.765   0.476
  231SOL    HW3 1244   0.878   1.622   0.507
  231SOL    MW4 1245   0.866   1.694   0.460
  232SOL     OW 1246   1.650   0.156   1.039
  232SOL    HW2 1247   1.695   0.074   1.058
  232SOL    HW3 1248   1.670   0.212   1.115
  232SOL    MW4 1249   1.660   0.152   1.051
  233SOL     OW 1250   0.098  -0.001   1.138
  233SOL    HW2 1251   0.089   0.000   1.043
  233SOL    HW3 1252   0.192   0.011   1.153
  233SOL    MW4 1253   0.110   0.002   1.129
  234SOL     OW 1254   1.735   1.192   0.758
  234SOL    HW2 1255   1.714   1.138   0.681
  234SOL    HW3 1256   1.831   1.190   0.762
  234SOL    MW4 1257   1.744   1.185   0.747
  235SOL     OW 1258   0.427   1.337   1.501
  235SOL    HW2 1259   0.348   1.287   1.524
  235SOL    HW3 1260   0.497   1.296   1.551
  235SOL    MW4 1261   0.425   1.325   1.511
  236SOL     OW 1262   0.311   0.126   0.184
  236SOL    HW2 1263   0.240   0.181   0.152
  236SOL    HW3 1264   0.353   0.092   0.105
  236SOL    MW4 1265   0.307   0.128   0.170
  237SOL     OW 1266   1.435   0.623   1.020
  237SOL    HW2 1267   1.358   0.669   0.986
  237SOL    HW3 1268   1.492   0.692   1.054
  237SOL    MW4 1269   1.432   0.638   1.020
  238SOL     OW 1270   0.067   0.225   0.033
  238SOL    HW2 1271   0.034   0.304   0.077
  238SOL    HW3 1272   0.122   0.258  -0.038
  238SOL    MW4 1273   0.070   0.239   0.030
  239SOL     OW 1274   0.101   1.482   0.222
  239SOL    HW2 1275   0.118   1.566   0.264
  239SOL    HW3 1276   0.136   1.491   0.134
  239SOL    MW4 1277   0.106   1.495   0.216
  240SOL     OW 1278   1.373   1.571   0.439
  240SOL    HW2 1279   1.436   1.561   0.368
  240SOL    HW3 1280   1.290   1.591   0.394
  240SOL    MW4 1281   1.370   1.572   0.424
  241SOL     OW 1282   1.736   0.839   2.125
  241SOL    HW2 1283   1.777   0.781   2.190
  241SOL    HW3 1284   1.643   0.831   2.142
  241SOL    MW4 1285   1.730   0.831   2.135
  242SOL     OW 1286   1.602   0.771   3.120
  242SOL    HW2 1287   1.557   0.838   3.171
  242SOL    HW3 1288   1.690   0.807   3.106
  242SOL    MW4 1289   1.608   0.784   3.124
  243SOL     OW 1290   0.530   1.022   2.354
  243SOL    HW2 1291   0.620   0.997   2.338
  243SOL    HW3 1292   0.526   1.115   2.331
  243SOL    MW4 1293   0.542   1.031   2.349
  244SOL     OW 1294   1.646   1.725   2.496
  244SOL    HW2 1295   1.658   1.671   2.574
  244SOL    HW3 1296   1.683   1.673   2.425
  244SOL    MW4 1297   1.652   1.710   2.497
  245SOL     OW 1298   1.025   1.610   3.497
  245SOL    HW2 1299   1.066   1.646   3.418
  245SOL    HW3 1300   1.060   1.521   3.504
  245SOL    MW4 1301   1.036   1.603   3.488
  246SOL     OW 1302   1.582   1.165   3.101
  246SOL    HW2 1303   1.503   1.130   3.059
  246SOL    HW3 1304   1.609   1.237   3.045
  246SOL    MW4 1305   1.575   1.170   3.088
  247SOL     OW 1306   0.814   0.478   2.367
  247SOL    HW2 1307   0.789   0.566   2.395
  247SOL    HW3 1308   0.811   0.481   2.271
  247SOL    MW4 1309   0.810   0.490   2.359
  248SOL     OW 1310   0.256   0.506   2.295
  248SOL    HW2 1311   0.288   0.594   2.277
  248SOL    HW3 1312   0.244   0.504   2.390
  248SOL    MW4 1313   0.259   0.518   2.307
  249SOL     OW 1314   0.334   0.919   3.196
  249SOL    HW2 1315   0.397   0.866   3.147
  249SOL    HW3 1316   0.315   0.993   3.139
  249SOL    MW4 1317   0.340   0.921   3.183
  250SOL     OW 1318   0.655   0.261   2.382
  250SOL    HW2 1319   0.713   0.337   2.384
  250SOL    HW3 1320   0.590   0.282   2.315
  250SOL    MW4 1321   0.654   0.273   2.373
  251SOL     OW 1322   0.742   1.188   2.557
  251SOL    HW2 1323   0.822   1.191   2.609
  251SOL    HW3 1324   0.770   1.155   2.471
  251SOL    MW4 1325   0.756   1.184   2.552
  252SOL     OW 1326   0.767   1.529   3.460
  252SOL    HW2 1327   0.851   1.555   3.499
  252SOL    HW3 1328   0.791   1.473   3.386
  252SOL    MW4 1329   0.781   1.525   3.455
  253SOL     OW 1330   0.519   0.692   2.548
  253SOL    HW2 1331   0.504   0.612   2.599
  253SOL    HW3 1332   0.601   0.727   2.582
  253SOL    MW4 1333   0.527   0.684   2.560
  254SOL     OW 1334   0.856   1.378   3.233
  254SOL    HW2 1335   0.820   1.444   3.173
  254SOL    HW3 1336   0.784   1.316   3.246
  254SOL    MW4 1337   0.842   1.378   3.227
  255SOL     OW 1338   0.661   0.518   2.925
  255SOL    HW2 1339   0.567   0.514   2.943
  255SOL    HW3 1340   0.691   0.427   2.934
  255SOL    MW4 1341   0.652   0.506   2.928
  256SOL     OW 1342   0.407   0.932   2.829
  256SOL    HW2 1343   0.362   0.939   2.745
  256SOL    HW3 1344   0.387   1.015   2.873
  256SOL    MW4 1345   0.399   0.944   2.823
  257SOL     OW 1346   0.104   1.778   2.704
  257SOL    HW2 1347   0.193   1.770   2.739
  257SOL    HW3 1348   0.068   1.690   2.709
  257SOL    MW4 1349   0.111   1.765   2.709
  258SOL     OW 1350   1.369   1.170   2.073
  258SOL    HW2 1351   1.287   1.206   2.039
  258SOL    HW3 1352   1.437   1.213   2.022
  258SOL    MW4 1353   1.367   1.180   2.061
  259SOL     OW 1354   0.368   1.305   2.739
  259SOL    HW2 1355   0.344   1.358   2.815
  259SOL    HW3 1356   0.424   1.363   2.687
  259SOL    MW4 1357   0.372   1.320   2.742
  260SOL     OW 1358   0.930   0.949   2.549
  260SOL    HW2 1359   0.844   0.936   2.589
  260SOL    HW3 1360   0.983   0.876   2.581
  260SOL    MW4 1361   0.926   0.938   2.558
  261SOL     OW 1362   0.338   1.601   3.334
  261SOL    HW2 1363   0.246   1.577   3.319
  261SOL    HW3 1364   0.382   1.518   3.351
  261SOL    MW4 1365   0.332   1.586   3.333
  262SOL     OW 1366   0.921   1.311   2.266
  262SOL    HW2 1367   0.898   1.373   2.334
  262SOL    HW3 1368   0.878   1.229   2.292
  262SOL    MW4 1369   0.913   1.307   2.277
  263SOL     OW 1370   1.794   0.312   2.722
  263SOL    HW2 1371   1.731   0.292   2.791
  263SOL    HW3 1372   1.784   0.241   2.659
  263SOL    MW4 1373   1.784   0.299   2.723
  264SOL     OW 1374   0.418   0.284   2.234
  264SOL    HW2 1375   0.392   0.246   2.150
  264SOL    HW3 1376   0.355   0.354   2.250
  264SOL    MW4 1377   0.407   0.287   2.225
  265SOL     OW 1378   0.253   1.245   2.271
  265SOL    HW2 1379   0.201   1.313   2.227
  265SOL    HW3 1380   0.250   1.171   2.211
  265SOL    MW4 1381   0.245   1.244   2.258
  266SOL     OW 1382   0.915   1.708   2.049
  266SOL    HW2 1383   0.870   1.724   2.132
  266SOL    HW3 1384   0.846   1.673   1.991
  266SOL    MW4 1385   0.901   1.705   2.051
  267SOL     OW 1386   1.850   0.481   2.024
  267SOL    HW2 1387   1.759   0.483   2.052
  267SOL    HW3 1388   1.895   0.543   2.082
  267SOL    MW4 1389   1.843   0.489   2.034
  268SOL     OW 1390   1.595   1.084   2.374
  268SOL    HW2 1391   1.505   1.084   2.409
  268SOL    HW3 1392   1.588   1.130   2.291
  268SOL    MW4 1393   1.582   1.090   2.368
  269SOL     OW 1394   1.395   0.719   3.446
  269SOL    HW2 1395   1.464   0.657   3.423
  269SOL    HW3 1396   1.320   0.693   3.393
  269SOL    MW4 1397   1.395   0.706   3.437
  270SOL     OW 1398   0.136   1.599   2.998
  270SOL    HW2 1399   0.119   1.545   3.075
  270SOL    HW3 1400   0.124   1.689   3.028
  270SOL    MW4 1401   0.133   1.603   3.012
  271SOL     OW 1402   1.131   1.106   3.438
  271SOL    HW2 1403   1.116   1.199   3.423
  271SOL    HW3 1404   1.226   1.096   3.438
  271SOL    MW4 1405   1.140   1.116   3.435
  272SOL     OW 1406   0.927   0.530   3.639
  272SOL    HW2 1407   1.017   0.531   3.606
  272SOL    HW3 1408   0.886   0.455   3.597
  272SOL    MW4 1409   0.933   0.520   3.630
  273SOL     OW 1410   1.502   1.062   2.766
  273SOL    HW2 1411   1.505   0.996   2.697
  273SOL    HW3 1412   1.587   1.105   2.762
  273SOL    MW4 1413   1.514   1.058   2.757
  274SOL     OW 1414   1.122   0.665   2.335
  274SOL    HW2 1415   1.148   0.689   2.246
  274SOL    HW3 1416   1.104   0.572   2.331
  274SOL    MW4 1417   1.124   0.657   2.322
  275SOL     OW 1418   1.787   1.285   2.186
  275SOL    HW2 1419   1.743   1.326   2.261
  275SOL    HW3 1420   1.844   1.353   2.151
  275SOL    MW4 1421   1.789   1.299   2.191
  276SOL     OW 1422   0.707   0.334   3.589
  276SOL    HW2 1423   0.717   0.260   3.529
  276SOL    HW3 1424   0.743   0.303   3.672
  276SOL    MW4 1425   0.713   0.320   3.591
  277SOL     OW 1426   0.443   1.701   2.504
  277SOL    HW2 1427   0.475   1.789   2.482
  277SOL    HW3 1428   0.396   1.673   2.426
  277SOL    MW4 1429   0.442   1.709   2.491
  278SOL     OW 1430   1.827   0.063   2.553
  278SOL    HW2 1431   1.881   0.014   2.615
  278SOL    HW3 1432   1.770  -0.003   2.514
  278SOL    MW4 1433   1.827   0.047   2.555
  279SOL     OW 1434   0.159   1.761   2.081
  279SOL    HW2 1435   0.188   1.851   2.073
  279SOL    HW3 1436   0.109   1.744   2.002
  279SOL    MW4 1437   0.157   1.769   2.070
  280SOL     OW 1438   0.946   0.016   2.966
  280SOL    HW2 1439   0.905   0.094   2.928
  280SOL    HW3 1440   1.040   0.034   2.961
  280SOL    MW4 1441   0.952   0.028   2.961
  281SOL     OW 1442   1.563   1.569   2.052
  281SOL    HW2 1443   1.611   1.638   2.098
  281SOL    HW3 1444   1.484   1.613   2.021
  281SOL    MW4 1445   1.558   1.583   2.055
  282SOL     OW 1446   0.961   0.694   1.996
  282SOL    HW2 1447   0.963   0.641   1.917
  282SOL    HW3 1448   1.049   0.731   2.002
  282SOL    MW4 1449   0.973   0.693   1.985
  283SOL     OW 1450   1.575   0.620   2.332
  283SOL    HW2 1451   1.614   0.620   2.419
  283SOL    HW3 1452   1.516   0.696   2.332
  283SOL    MW4 1453   1.572   0.631   2.343
  284SOL     OW 1454   0.892   0.987   3.461
  284SOL    HW2 1455   0.869   0.967   3.551
  284SOL    HW3 1456   0.977   1.031   3.466
  284SOL    MW4 1457   0.899   0.990   3.473
  285SOL     OW 1458   0.972   0.124   3.221
  285SOL    HW2 1459   0.978   0.086   3.134
  285SOL    HW3 1460   0.961   0.218   3.206
  285SOL    MW4 1461   0.973   0.132   3.209
  286SOL     OW 1462   1.061   0.613   3.055
  286SOL    HW2 1463   1.136   0.642   3.002
  286SOL    HW3 1464   0.993   0.678   3.039
  286SOL    MW4 1465   1.062   0.625   3.045
  287SOL     OW 1466   1.611   0.581   3.332
  287SOL    HW2 1467   1.592   0.490   3.311
  287SOL    HW3 1468   1.589   0.630   3.253
  287SOL    MW4 1469   1.606   0.574   3.319
  288SOL     OW 1470   1.753   1.675   3.236
  288SOL    HW2 1471   1.681   1.637   3.287
  288SOL    HW3 1472   1.770   1.760   3.277
  288SOL    MW4 1473   1.747   1.680   3.248
  289SOL     OW 1474   1.058   0.319   3.438
  289SOL    HW2 1475   1.024   0.358   3.357
  289SOL    HW3 1476   1.036   0.227   3.431
  289SOL    MW4 1477   1.051   0.312   3.428
  290SOL     OW 1478   1.467   1.133   3.514
  290SOL    HW2 1479   1.549   1.174   3.544
  290SOL    HW3 1480   1.430   1.095   3.594
  290SOL    MW4 1481   1.473   1.134   3.529
  291SOL     OW 1482   1.762   0.506   2.498
  291SOL    HW2 1483   1.851   0.475   2.515
  291SOL    HW3 1484   1.705   0.446   2.546
  291SOL    MW4 1485   1.765   0.494   2.507
  292SOL     OW 1486   0.188   0.220   2.527
  292SOL    HW2 1487   0.179   0.160   2.453
  292SOL    HW3 1488   0.121   0.191   2.590
  292SOL    MW4 1489   0.178   0.207   2.525
  293SOL     OW 1490   1.131   1.313   2.088
  293SOL    HW2 1491   1.081   1.315   2.170
  293SOL    HW3 1492   1.065   1.331   2.020
  293SOL    MW4 1493   1.117   1.315   2.090
  294SOL     OW 1494   0.135   0.393   2.890
  294SOL    HW2 1495   0.107   0.484   2.899
  294SOL    HW3 1496   0.072   0.354   2.829
  294SOL    MW4 1497   0.122   0.399   2.884
  295SOL     OW 1498   0.594   1.731   2.196
  295SOL    HW2 1499   0.515   1.689   2.229
  295SOL    HW3 1500   0.660   1.714   2.263
  295SOL    MW4 1501   0.593   1.723   2.209
  296SOL     OW 1502   1.722   1.251   3.593
  296SOL    HW2 1503   1.772   1.177   3.625
  296SOL    HW3 1504   1.668   1.278   3.668
  296SOL    MW4 1505   1.722   1.245   3.606
  297SOL     OW 1506   0.730   1.146   1.903
  297SOL    HW2 1507   0.652   1.092   1.890
  297SOL    HW3 1508   0.701   1.219   1.956
  297SOL    MW4 1509   0.716   1.148   1.908
  298SOL     OW 1510   1.856   0.886   3.095
  298SOL    HW2 1511   1.872   0.924   3.008
  298SOL    HW3 1512   1.890   0.952   3.156
  298SOL    MW4 1513   1.863   0.899   3.091
  299SOL     OW 1514   1.648   1.595   2.764
  299SOL    HW2 1515   1.677   1.662   2.825
  299SOL    HW3 1516   1.629   1.519   2.819
  299SOL    MW4 1517   1.650   1.595   2.779
  300SOL     OW 1518   1.311   1.662   1.971
  300SOL    HW2 1519   1.237   1.625   2.021
  300SOL    HW3 1520   1.319   1.752   2.004
  300SOL    MW4 1521   1.302   1.669   1.983
  301SOL     OW 1522   0.119   0.668   3.060
  301SOL    HW2 1523   0.181   0.698   3.126
  301SOL    HW3 1524   0.053   0.737   3.054
  301SOL    MW4 1525   0.118   0.681   3.067
  302SOL     OW 1526   1.535   1.336   1.913
  302SOL    HW2 1527   1.482   1.385   1.849
  302SOL    HW3 1528   1.566   1.402   1.974
  302SOL    MW4 1529   1.533   1.350   1.911
  303SOL     OW 1530   0.760   0.225   1.968
  303SOL    HW2 1531   0.708   0.145   1.956
  303SOL    HW3 1532   0.847   0.202   1.936
  303SOL    MW4 1533   0.763   0.211   1.962
  304SOL     OW 1534   0.214   1.777   3.512
  304SOL    HW2 1535   0.188   1.845   3.450
  304SOL    HW3 1536   0.262   1.714   3.460
  304SOL    MW4 1537   0.216   1.777   3.498
  305SOL     OW 1538   0.266   1.096   3.019
  305SOL    HW2 1539   0.319   1.171   3.044
  305SOL    HW3 1540   0.185   1.134   2.985
  305SOL    MW4 1541   0.262   1.111   3.019
  306SOL     OW 1542   0.806   1.000   3.007
  306SOL    HW2 1543   0.834   0.909   3.019
  306SOL    HW3 1544   0.735   0.994   2.943
  306SOL    MW4 1545   0.799   0.988   3.002
  307SOL     OW 1546   0.121   0.865   2.425
  307SOL    HW2 1547   0.212   0.880   2.452
  307SOL    HW3 1548   0.124   0.786   2.371
  307SOL    MW4 1549   0.133   0.857   2.423
  308SOL     OW 1550   0.357   0.573   3.679
  308SOL    HW2 1551   0.304   0.653   3.686
  308SOL    HW3 1552   0.427   0.585   3.744
  308SOL    MW4 1553   0.359   0.586   3.687
  309SOL     OW 1554   0.743   0.123   3.386
  309SOL    HW2 1555   0.720   0.031   3.388
  309SOL    HW3 1556   0.829   0.125   3.343
  309SOL    MW4 1557   0.750   0.113   3.382
  310SOL     OW 1558   0.427   0.647   3.425
  310SOL    HW2 1559   0.507   0.697   3.411
  310SOL    HW3 1560   0.418   0.641   3.520
  310SOL    MW4 1561   0.436   0.653   3.435
  311SOL     OW 1562   0.748   1.797   2.799
  311SOL    HW2 1563   0.837   1.812   2.829
  311SOL    HW3 1564   0.743   1.844   2.715
  311SOL    MW4 1565   0.758   1.805   2.792
  312SOL     OW 1566   1.404   0.172   3.696
  312SOL    HW2 1567   1.460   0.099   3.722
  312SOL    HW3 1568   1.374   0.210   3.778
  312SOL    MW4 1569   1.408   0.167   3.709
  313SOL     OW 1570   0.129   1.477   2.464
  313SOL    HW2 1571   0.101   1.516   2.546
  313SOL    HW3 1572   0.149   1.386   2.486
  313SOL    MW4 1573   0.127   1.469   2.477
  314SOL     OW 1574   0.962   1.520   2.499
  314SOL    HW2 1575   1.045   1.474   2.483
  314SOL    HW3 1576   0.952   1.519   2.595
  314SOL    MW4 1577   0.972   1.513   2.509
  315SOL     OW 1578   1.794   0.665   2.813
  315SOL    HW2 1579   1.883   0.695   2.795
  315SOL    HW3 1580   1.774   0.605   2.742
  315SOL    MW4 1581   1.803   0.662   2.802
  316SOL     OW 1582   1.645   0.844   3.693
  316SOL    HW2 1583   1.700   0.768   3.674
  316SOL    HW3 1584   1.647   0.852   3.788
  316SOL    MW4 1585   1.653   0.835   3.701
  317SOL     OW 1586   0.695   1.577   1.904
  317SOL    HW2 1587   0.635   1.646   1.874
  317SOL    HW3 1588   0.640   1.519   1.957
  317SOL    MW4 1589   0.679   1.579   1.906
  318SOL     OW 1590   1.133   0.222   2.127
  318SOL    HW2 1591   1.066   0.198   2.064
  318SOL    HW3 1592   1.198   0.271   2.076
  318SOL    MW4 1593   1.133   0.224   2.112
  319SOL     OW 1594   0.940   0.406   3.212
  319SOL    HW2 1595   0.859   0.447   3.240
  319SOL    HW3 1596   0.987   0.474   3.164
  319SOL    MW4 1597   0.935   0.421   3.210
  320SOL     OW 1598   1.200   0.744   2.835
  320SOL    HW2 1599   1.213   0.838   2.845
  320SOL    HW3 1600   1.161   0.734   2.749
  320SOL    MW4 1601   1.196   0.755   2.825
  321SOL     OW 1602   0.652   0.939   2.639
  321SOL    HW2 1603   0.563   0.930   2.672
  321SOL    HW3 1604   0.656   1.029   2.607
  321SOL    MW4 1605   0.641   0.950   2.639
  322SOL     OW 1606   1.451   0.522   2.634
  322SOL    HW2 1607   1.396   0.443   2.633
  322SOL    HW3 1608   1.433   0.563   2.718
  322SOL    MW4 1609   1.441   0.517   2.643
  323SOL     OW 1610   0.422   0.209   3.451
  323SOL    HW2 1611   0.343   0.227   3.503
  323SOL    HW3 1612   0.417   0.271   3.378
  323SOL    MW4 1613   0.412   0.219   3.448
  324SOL     OW 1614   1.070   0.726   2.591
  324SOL    HW2 1615   1.007   0.658   2.615
  324SOL    HW3 1616   1.090   0.707   2.499
  324SOL    MW4 1617   1.064   0.713   2.583
  325SOL     OW 1618   0.326   1.621   2.293
  325SOL    HW2 1619   0.287   1.668   2.219
  325SOL    HW3 1620   0.260   1.556   2.318
  325SOL    MW4 1621   0.313   1.619   2.287
  326SOL     OW 1622   0.818   1.030   2.317
  326SOL    HW2 1623   0.820   1.004   2.224
  326SOL    HW3 1624   0.876   0.967   2.360
  326SOL    MW4 1625   0.826   1.019   2.311
  327SOL     OW 1626   1.371   1.590   3.089
  327SOL    HW2 1627   1.296   1.636   3.127
  327SOL    HW3 1628   1.353   1.497   3.106
  327SOL    MW4 1629   1.360   1.584   3.097
  328SOL     OW 1630   1.375   1.798   2.519
  328SOL    HW2 1631   1.318   1.751   2.458
  328SOL    HW3 1632   1.461   1.759   2.506
  328SOL    MW4 1633   1.378   1.789   2.509
  329SOL     OW 1634   1.328   0.274   2.650
  329SOL    HW2 1635   1.356   0.206   2.711
  329SOL    HW3 1636   1.242   0.245   2.620
  329SOL    MW4 1637   1.321   0.261   2.654
  330SOL     OW 1638   0.133   1.208   2.584
  330SOL    HW2 1639   0.197   1.240   2.647
  330SOL    HW3 1640   0.182   1.144   2.532
  330SOL    MW4 1641   0.148   1.204   2.585
  331SOL     OW 1642   0.633   1.284   3.566
  331SOL    HW2 1643   0.681   1.367   3.553
  331SOL    HW3 1644   0.690   1.232   3.622
  331SOL    MW4 1645   0.647   1.288   3.572
  332SOL     OW 1646   0.209   1.526   3.706
  332SOL    HW2 1647   0.265   1.450   3.721
  332SOL    HW3 1648   0.158   1.504   3.628
  332SOL    MW4 1649   0.209   1.513   3.697
  333SOL     OW 1650   1.308   0.378   1.985
  333SOL    HW2 1651   1.281   0.444   1.921
  333SOL    HW3 1652   1.378   0.421   2.035
  333SOL    MW4 1653   1.313   0.391   1.982
  334SOL     OW 1654   0.976   0.083   1.922
  334SOL    HW2 1655   1.032   0.075   1.844
  334SOL    HW3 1656   0.953  -0.007   1.944
  334SOL    MW4 1657   0.981   0.070   1.915
  335SOL     OW 1658   1.481   0.934   2.127
  335SOL    HW2 1659   1.448   1.023   2.117
  335SOL    HW3 1660   1.446   0.905   2.212
  335SOL    MW4 1661   1.471   0.943   2.138
  336SOL     OW 1662   1.094   1.363   3.315
  336SOL    HW2 1663   1.005   1.369   3.283
  336SOL    HW3 1664   1.138   1.442   3.283
  336SOL    MW4 1665   1.089   1.373   3.307
  337SOL     OW 1666   0.387   0.031   3.657
  337SOL    HW2 1667   0.315  -0.004   3.605
  337SOL    HW3 1668   0.445   0.072   3.592
  337SOL    MW4 1669   0.385   0.032   3.642
  338SOL     OW 1670   0.411   1.521   2.956
  338SOL    HW2 1671   0.456   1.583   3.013
  338SOL    HW3 1672   0.318   1.540   2.969
  338SOL    MW4 1673   0.404   1.531   2.963
  339SOL     OW 1674   1.851   1.050   3.310
  339SOL    HW2 1675   1.766   1.063   3.269
  339SOL    HW3 1676   1.831   1.014   3.397
  339SOL    MW4 1677   1.838   1.046   3.315
  340SOL     OW 1678   0.833   1.589   3.064
  340SOL    HW2 1679   0.857   1.578   2.973
  340SOL    HW3 1680   0.756   1.646   3.062
  340SOL    MW4 1681   0.825   1.594   3.053
  341SOL     OW 1682   0.475   0.972   1.919
  341SOL    HW2 1683   0.398   0.985   1.975
  341SOL    HW3 1684   0.439   0.936   1.838
  341SOL    MW4 1685   0.461   0.968   1.916
  342SOL     OW 1686   1.128   0.945   2.162
  342SOL    HW2 1687   1.038   0.966   2.137
  342SOL    HW3 1688   1.155   1.018   2.218
  342SOL    MW4 1689   1.120   0.957   2.165
  343SOL     OW 1690   0.628   1.294   2.854
  343SOL    HW2 1691   0.621   1.273   2.948
  343SOL    HW3 1692   0.546   1.262   2.817
  343SOL    MW4 1693   0.616   1.288   2.861
  344SOL     OW 1694   1.492   0.304   3.256
  344SOL    HW2 1695   1.439   0.306   3.336
  344SOL    HW3 1696   1.477   0.217   3.219
  344SOL    MW4 1697   1.484   0.294   3.261
  345SOL     OW 1698   1.828   0.228   3.129
  345SOL    HW2 1699   1.809   0.295   3.064
  345SOL    HW3 1700   1.885   0.166   3.084
  345SOL    MW4 1701   1.832   0.229   3.115
  346SOL     OW 1702   0.074   1.386   3.517
  346SOL    HW2 1703   0.118   1.319   3.463
  346SOL    HW3 1704  -0.011   1.348   3.537
  346SOL    MW4 1705   0.069   1.372   3.513
  347SOL     OW 1706   0.757   0.061   2.569
  347SOL    HW2 1707   0.686   0.122   2.551
  347SOL    HW3 1708   0.808   0.058   2.488
  347SOL    MW4 1709   0.753   0.067   2.556
  348SOL     OW 1710   0.515   1.301   2.318
  348SOL    HW2 1711   0.508   1.333   2.408
  348SOL    HW3 1712   0.425   1.285   2.290
  348SOL    MW4 1713   0.503   1.303   2.325
  349SOL     OW 1714   1.110   1.694   3.227
  349SOL    HW2 1715   1.030   1.679   3.177
  349SOL    HW3 1716   1.117   1.789   3.234
  349SOL    MW4 1717   1.101   1.705   3.221
  350SOL     OW 1718   1.224   1.659   2.717
  350SOL    HW2 1719   1.271   1.732   2.676
  350SOL    HW3 1720   1.145   1.698   2.753
  350SOL    MW4 1721   1.219   1.674   2.716
  351SOL     OW 1722   1.632   1.754   2.992
  351SOL    HW2 1723   1.675   1.724   3.072
  351SOL    HW3 1724   1.551   1.702   2.989
  351SOL    MW4 1725   1.627   1.743   3.002
  352SOL     OW 1726   0.717   0.718   3.699
  352SOL    HW2 1727   0.787   0.660   3.671
  352SOL    HW3 1728   0.660   0.663   3.754
  352SOL    MW4 1729   0.719   0.705   3.703
  353SOL     OW 1730   1.504   0.930   3.332
  353SOL    HW2 1731   1.509   0.983   3.412
  353SOL    HW3 1732   1.466   0.847   3.360
  353SOL    MW4 1733   1.500   0.925   3.347
  354SOL     OW 1734   1.144   0.065   3.578
  354SOL    HW2 1735   1.139  -0.028   3.559
  354SOL    HW3 1736   1.227   0.076   3.624
  354SOL    MW4 1737   1.152   0.054   3.582
  355SOL     OW 1738   0.518   0.585   2.032
  355SOL    HW2 1739   0.484   0.641   2.102
  355SOL    HW3 1740   0.589   0.535   2.072
  355SOL    MW4 1741   0.524   0.586   2.046
  356SOL     OW 1742   1.614   1.336   2.854
  356SOL    HW2 1743   1.649   1.318   2.767
  356SOL    HW3 1744   1.519   1.337   2.841
  356SOL    MW4 1745   1.606   1.333   2.841
  357SOL     OW 1746   1.043   0.984   3.223
  357SOL    HW2 1747   1.086   1.019   3.301
  357SOL    HW3 1748   1.026   1.061   3.169
  357SOL    MW4 1749   1.046   0.999   3.226
  358SOL     OW 1750   1.574   0.471   2.096
  358SOL    HW2 1751   1.566   0.542   2.033
  358SOL    HW3 1752   1.592   0.515   2.179
  358SOL    MW4 1753   1.575   0.485   2.098
  359SOL     OW 1754   0.434   0.126   2.525
  359SOL    HW2 1755   0.484   0.169   2.456
  359SOL    HW3 1756   0.349   0.170   2.525
  359SOL    MW4 1757   0.431   0.139   2.516
  360SOL     OW 1758   0.193   1.188   3.385
  360SOL    HW2 1759   0.221   1.141   3.463
  360SOL    HW3 1760   0.114   1.143   3.356
  360SOL    MW4 1761   0.186   1.177   3.391
  361SOL     OW 1762   0.701   0.515   3.352
  361SOL    HW2 1763   0.673   0.603   3.376
  361SOL    HW3 1764   0.670   0.459   3.423
  361SOL    MW4 1765   0.693   0.518   3.364
  362SOL     OW 1766   1.243   0.733   2.071
  362SOL    HW2 1767   1.290   0.751   1.990
  362SOL    HW3 1768   1.209   0.817   2.099
  362SOL    MW4 1769   1.245   0.747   2.064
  363SOL     OW 1770   0.356   0.911   2.565
  363SOL    HW2 1771   0.414   0.967   2.513
  363SOL    HW3 1772   0.400   0.826   2.567
  363SOL    MW4 1773   0.369   0.908   2.558
  364SOL     OW 1774   1.496   0.263   2.402
  364SOL    HW2 1775   1.418   0.213   2.427
  364SOL    HW3 1776   1.467   0.354   2.402
  364SOL    MW4 1777   1.482   0.267   2.405
  365SOL     OW 1778   1.082   0.225   2.561
  365SOL    HW2 1779   1.102   0.300   2.505
  365SOL    HW3 1780   1.062   0.264   2.646
  365SOL    MW4 1781   1.083   0.241   2.565
  366SOL     OW 1782   0.978   1.475   1.893
  366SOL    HW2 1783   1.005   1.553   1.845
  366SOL    HW3 1784   0.885   1.490   1.912
  366SOL    MW4 1785   0.969   1.488   1.889
  367SOL     OW 1786   1.842   0.998   3.580
  367SOL    HW2 1787   1.755   0.978   3.616
  367SOL    HW3 1788   1.896   0.924   3.605
  367SOL    MW4 1789   1.837   0.987   3.588
  368SOL     OW 1790   0.063   1.511   2.737
  368SOL    HW2 1791   0.095   1.515   2.828
  368SOL    HW3 1792  -0.032   1.519   2.745
  368SOL    MW4 1793   0.055   1.514   2.750
  369SOL     OW 1794   0.018   0.637   2.284
  369SOL    HW2 1795  -0.042   0.609   2.354
  369SOL    HW3 1796   0.092   0.577   2.290
  369SOL    MW4 1797   0.020   0.626   2.293
  370SOL     OW 1798   1.586   1.849   3.718
  370SOL    HW2 1799   1.631   1.773   3.683
  370SOL    HW3 1800   1.624   1.862   3.805
  370SOL    MW4 1801   1.596   1.842   3.724
  371SOL     OW 1802   1.186   1.368   2.444
  371SOL    HW2 1803   1.209   1.319   2.522
  371SOL    HW3 1804   1.267   1.410   2.416
  371SOL    MW4 1805   1.199   1.368   2.451
  372SOL     OW 1806   0.444   0.376   3.173
  372SOL    HW2 1807   0.477   0.457   3.213
  372SOL    HW3 1808   0.417   0.402   3.085
  372SOL    MW4 1809   0.443   0.390   3.167
  373SOL     OW 1810   0.398   0.343   2.909
  373SOL    HW2 1811   0.428   0.257   2.880
  373SOL    HW3 1812   0.303   0.336   2.912
  373SOL    MW4 1813   0.390   0.332   2.907
  374SOL     OW 1814   1.227   0.552   3.600
  374SOL    HW2 1815   1.279   0.487   3.553
  374SOL    HW3 1816   1.185   0.603   3.530
  374SOL    MW4 1817   1.228   0.549   3.583
  375SOL     OW 1818   1.326   0.347   3.461
  375SOL    HW2 1819   1.233   0.331   3.448
  375SOL    HW3 1820   1.352   0.285   3.529
  375SOL    MW4 1821   1.316   0.337   3.468
  376SOL     OW 1822   0.541   0.121   2.800
  376SOL    HW2 1823   0.551   0.030   2.826
  376SOL    HW3 1824   0.497   0.117   2.715
  376SOL    MW4 1825   0.537   0.109   2.792
  377SOL     OW 1826   0.635   1.736   3.346
  377SOL    HW2 1827   0.552   1.721   3.391
  377SOL    HW3 1828   0.694   1.669   3.381
  377SOL    MW4 1829   0.633   1.726   3.356
  378SOL     OW 1830   1.692   0.443   2.971
  378SOL    HW2 1831   1.625   0.476   3.031
  378SOL    HW3 1832   1.735   0.521   2.937
  378SOL    MW4 1833   1.690   0.458   2.975
  379SOL     OW 1834   1.870   1.163   2.941
  379SOL    HW2 1835   1.863   1.103   2.866
  379SOL    HW3 1836   1.796   1.223   2.930
  379SOL    MW4 1837   1.860   1.163   2.930
  380SOL     OW 1838   1.252   1.025   2.859
  380SOL    HW2 1839   1.266   0.997   2.950
  380SOL    HW3 1840   1.338   1.056   2.831
  380SOL    MW4 1841   1.265   1.026   2.868
  381SOL     OW 1842   1.335   0.520   3.138
  381SOL    HW2 1843   1.356   0.521   3.045
  381SOL    HW3 1844   1.380   0.442   3.171
  381SOL    MW4 1845   1.342   0.510   3.130
  382SOL     OW 1846   1.828   0.651   3.680
  382SOL    HW2 1847   1.865   0.596   3.749
  382SOL    HW3 1848   1.853   0.608   3.598
  382SOL    MW4 1849   1.835   0.639   3.679
  383SOL     OW 1850   1.375   0.949   3.731
  383SOL    HW2 1851   1.441   0.897   3.685
  383SOL    HW3 1852   1.395   0.936   3.824
  383SOL    MW4 1853   1.386   0.940   3.738
  384SOL     OW 1854   1.326   0.035   2.080
  384SOL    HW2 1855   1.400   0.079   2.123
  384SOL    HW3 1856   1.250   0.089   2.102
  384SOL    MW4 1857   1.326   0.047   2.088
  385SOL     OW 1858   1.386   0.810   2.358
  385SOL    HW2 1859   1.301   0.780   2.328
  385SOL    HW3 1860   1.378   0.817   2.453
  385SOL    MW4 1861   1.374   0.808   2.367
  386SOL     OW 1862   0.462   1.273   3.089
  386SOL    HW2 1863   0.474   1.300   3.180
  386SOL    HW3 1864   0.443   1.354   3.042
  386SOL    MW4 1865   0.461   1.288   3.094
  387SOL     OW 1866   0.746   0.253   2.912
  387SOL    HW2 1867   0.719   0.255   3.003
  387SOL    HW3 1868   0.676   0.205   2.867
  387SOL    MW4 1869   0.734   0.249   2.919
  388SOL     OW 1870   0.600   1.745   3.074
  388SOL    HW2 1871   0.652   1.822   3.051
  388SOL    HW3 1872   0.609   1.737   3.169
  388SOL    MW4 1873   0.609   1.752   3.085
  389SOL     OW 1874   1.502   1.330   3.306
  389SOL    HW2 1875   1.487   1.259   3.369
  389SOL    HW3 1876   1.548   1.288   3.234
  389SOL    MW4 1877   1.508   1.314   3.306
  390SOL     OW 1878   0.576   1.061   3.423
  390SOL    HW2 1879   0.613   1.066   3.335
  390SOL    HW3 1880   0.615   1.134   3.470
  390SOL    MW4 1881   0.586   1.071   3.418
  391SOL     OW 1882   0.756   1.104   3.235
  391SOL    HW2 1883   0.815   1.050   3.288
  391SOL    HW3 1884   0.771   1.076   3.145
  391SOL    MW4 1885   0.766   1.093   3.231
  392SOL     OW 1886   0.759   0.476   2.084
  392SOL    HW2 1887   0.832   0.525   2.047
  392SOL    HW3 1888   0.775   0.385   2.058
  392SOL    MW4 1889   0.771   0.471   2.077
  393SOL     OW 1890   1.567   1.593   3.407
  393SOL    HW2 1891   1.609   1.578   3.492
  393SOL    HW3 1892   1.558   1.506   3.369
  393SOL    MW4 1893   1.571   1.581   3.414
  394SOL     OW 1894   1.227   0.072   2.998
  394SOL    HW2 1895   1.282   0.081   2.920
  394SOL    HW3 1896   1.282   0.106   3.069
  394SOL    MW4 1897   1.241   0.077   2.997
  395SOL     OW 1898   0.234   0.985   2.182
  395SOL    HW2 1899   0.171   1.001   2.111
  395SOL    HW3 1900   0.181   0.948   2.253
  395SOL    MW4 1901   0.219   0.982   2.182
  396SOL     OW 1902   0.590   1.339   2.041
  396SOL    HW2 1903   0.605   1.315   2.133
  396SOL    HW3 1904   0.498   1.317   2.025
  396SOL    MW4 1905   0.580   1.332   2.051
  397SOL     OW 1906   1.129   1.570   2.193
  397SOL    HW2 1907   1.137   1.488   2.144
  397SOL    HW3 1908   1.048   1.609   2.160
  397SOL    MW4 1909   1.119   1.565   2.183
  398SOL     OW 1910   0.388   1.728   2.762
  398SOL    HW2 1911   0.392   1.639   2.797
  398SOL    HW3 1912   0.414   1.719   2.671
  398SOL    MW4 1913   0.391   1.716   2.754
  399SOL     OW 1914   1.005   1.206   3.005
  399SOL    HW2 1915   0.937   1.140   3.021
  399SOL    HW3 1916   1.023   1.200   2.912
  399SOL    MW4 1917   0.998   1.197   2.996
  400SOL     OW 1918   0.094   1.481   3.256
  400SOL    HW2 1919   0.084   1.439   3.342
  400SOL    HW3 1920   0.015   1.534   3.246
  400SOL    MW4 1921   0.083   1.482   3.267
  401SOL     OW 1922   0.998   0.345   2.826
  401SOL    HW2 1923   0.928   0.297   2.871
  401SOL    HW3 1924   1.030   0.408   2.890
  401SOL    MW4 1925   0.993   0.347   2.840
  402SOL     OW 1926   0.649   0.781   3.446
  402SOL    HW2 1927   0.642   0.876   3.434
  402SOL    HW3 1928   0.658   0.770   3.541
  402SOL    MW4 1929   0.650   0.793   3.456
  403SOL     OW 1930   0.370   1.296   3.704
  403SOL    HW2 1931   0.442   1.298   3.641
  403SOL    HW3 1932   0.340   1.205   3.703
  403SOL    MW4 1933   0.375   1.285   3.696
  404SOL     OW 1934   1.454   0.059   3.171
  404SOL    HW2 1935   1.525   0.005   3.135
  404SOL    HW3 1936   1.453   0.038   3.264
  404SOL    MW4 1937   1.463   0.050   3.179
  405SOL     OW 1938   1.654   1.589   3.655
  405SOL    HW2 1939   1.627   1.586   3.746
  405SOL    HW3 1940   1.750   1.593   3.658
  405SOL    MW4 1941   1.664   1.589   3.667
  406SOL     OW 1942   0.465   0.451   2.639
  406SOL    HW2 1943   0.536   0.399   2.602
  406SOL    HW3 1944   0.451   0.416   2.726
  406SOL    MW4 1945   0.473   0.440   2.646
  407SOL     OW 1946   0.020   1.786   3.711
  407SOL    HW2 1947   0.070   1.764   3.633
  407SOL    HW3 1948   0.028   1.881   3.719
  407SOL    MW4 1949   0.028   1.795   3.702
  408SOL     OW 1950   0.781   1.544   2.715
  408SOL    HW2 1951   0.709   1.481   2.728
  408SOL    HW3 1952   0.742   1.629   2.733
  408SOL    MW4 1953   0.765   1.547   2.718
  409SOL     OW 1954   1.101   0.392   2.363
  409SOL    HW2 1955   1.123   0.329   2.295
  409SOL    HW3 1956   1.006   0.384   2.374
  409SOL    MW4 1957   1.091   0.383   2.355
  410SOL     OW 1958   0.186   0.082   2.295
  410SOL    HW2 1959   0.257   0.103   2.234
  410SOL    HW3 1960   0.140   0.010   2.253
  410SOL    MW4 1961   0.190   0.076   2.281
  411SOL     OW 1962   0.017   0.549   3.438
  411SOL    HW2 1963   0.081   0.615   3.413
  411SOL    HW3 1964  -0.064   0.576   3.395
  411SOL    MW4 1965   0.015   0.561   3.430
  412SOL     OW 1966   1.755   1.456   2.395
  412SOL    HW2 1967   1.725   1.389   2.456
  412SOL    HW3 1968   1.849   1.462   2.409
  412SOL    MW4 1969   1.763   1.448   2.405
  413SOL     OW 1970   1.311   1.133   2.325
  413SOL    HW2 1971   1.283   1.219   2.358
  413SOL    HW3 1972   1.339   1.149   2.235
  413SOL    MW4 1973   1.311   1.147   2.317
  414SOL     OW 1974   0.973   0.053   2.378
  414SOL    HW2 1975   1.010   0.112   2.443
  414SOL    HW3 1976   0.950   0.109   2.304
  414SOL    MW4 1977   0.974   0.068   2.377
  415SOL     OW 1978   1.826   0.935   2.800
  415SOL    HW2 1979   1.817   0.967   2.711
  415SOL    HW3 1980   1.779   0.851   2.800
  415SOL    MW4 1981   1.819   0.928   2.790
  416SOL     OW 1982   0.202   0.775   3.379
  416SOL    HW2 1983   0.223   0.844   3.317
  416SOL    HW3 1984   0.282   0.722   3.384
  416SOL    MW4 1985   0.215   0.776   3.373
  417SOL     OW 1986   1.738   0.866   2.501
  417SOL    HW2 1987   1.832   0.855   2.489
  417SOL    HW3 1988   1.714   0.938   2.442
  417SOL    MW4 1989   1.748   0.874   2.492
  418SOL     OW 1990   0.187   0.790   3.646
  418SOL    HW2 1991   0.113   0.734   3.672
  418SOL    HW3 1992   0.182   0.793   3.551
  418SOL    MW4 1993   0.176   0.783   3.636
  419SOL     OW 1994   0.353   0.077   3.096
  419SOL    HW2 1995   0.396   0.161   3.116
  419SOL    HW3 1996   0.426   0.015   3.089
  419SOL    MW4 1997   0.368   0.080   3.097
  420SOL     OW 1998   0.394   0.744   2.274
  420SOL    HW2 1999   0.394   0.839   2.259
  420SOL    HW3 2000   0.471   0.728   2.328
  420SOL    MW4 2001   0.404   0.755   2.279
  421SOL     OW 2002   0.153   0.475   2.563
  421SOL    HW2 2003   0.215   0.482   2.636
  421SOL    HW3 2004   0.153   0.382   2.540
  421SOL    MW4 2005   0.161   0.464   2.570
  422SOL     OW 2006   1.700   1.815   2.095
  422SOL    HW2 2007   1.767   1.848   2.035
  422SOL    HW3 2008   1.657   1.894   2.129
  422SOL    MW4 2009   1.702   1.830   2.091
  423SOL     OW 2010   0.835   0.736   3.047
  423SOL    HW2 2011   0.793   0.654   3.023
  423SOL    HW3 2012   0.836   0.735   3.143
  423SOL    MW4 2013   0.828   0.725   3.056
  424SOL     OW 2014   1.506   1.869   3.446
  424SOL    HW2 2015   1.509   1.775   3.429
  424SOL    HW3 2016   1.529   1.877   3.538
  424SOL    MW4 2017   1.509   1.857   3.456
  425SOL     OW 2018   0.639   0.206   3.152
  425SOL    HW2 2019   0.570   0.269   3.173
  425SOL    HW3 2020   0.666   0.170   3.237
  425SOL    MW4 2021   0.633   0.209   3.165
  426SOL     OW 2022   0.022   1.047   2.021
  426SOL    HW2 2023  -0.009   1.112   2.084
  426SOL    HW3 2024  -0.029   0.969   2.040
  426SOL    MW4 2025   0.012   1.044   2.031
  427SOL     OW 2026   1.434   0.059   2.769
  427SOL    HW2 2027   1.522   0.068   2.806
  427SOL    HW3 2028   1.444   0.000   2.695
  427SOL    MW4 2029   1.448   0.053   2.763
  428SOL     OW 2030   1.466   0.798   2.613
  428SOL    HW2 2031   1.546   0.813   2.562
  428SOL    HW3 2032   1.459   0.703   2.619
  428SOL    MW4 2033   1.475   0.787   2.608
  429SOL     OW 2034   0.606   1.847   1.963
  429SOL    HW2 2035   0.511   1.847   1.955
  429SOL    HW3 2036   0.622   1.793   2.041
  429SOL    MW4 2037   0.596   1.841   1.972
  430SOL     OW 2038   0.916   0.724   3.310
  430SOL    HW2 2039   0.985   0.791   3.307
  430SOL    HW3 2040   0.849   0.762   3.366
  430SOL    MW4 2041   0.917   0.737   3.317
  431SOL     OW 2042   0.334   1.024   3.558
  431SOL    HW2 2043   0.288   0.940   3.560
  431SOL    HW3 2044   0.391   1.018   3.482
  431SOL    MW4 2045   0.336   1.012   3.550
  432SOL     OW 2046   1.451   0.667   1.879
  432SOL    HW2 2047   1.379   0.643   1.821
  432SOL    HW3 2048   1.517   0.704   1.821
  432SOL    MW4 2049   1.450   0.669   1.864
  433SOL     OW 2050   0.585   1.399   2.559
  433SOL    HW2 2051   0.650   1.332   2.580
  433SOL    HW3 2052   0.637   1.476   2.536
  433SOL    MW4 2053   0.600   1.401   2.558
  434SOL     OW 2054   1.787   0.063   3.358
  434SOL    HW2 2055   1.708   0.109   3.386
  434SOL    HW3 2056   1.822   0.117   3.287
  434SOL    MW4 2057   1.781   0.076   3.352
  435SOL     OW 2058   1.071   1.147   2.708
  435SOL    HW2 2059   1.163   1.128   2.726
  435SOL    HW3 2060   1.044   1.077   2.648
  435SOL    MW4 2061   1.079   1.135   2.702
  436SOL     OW 2062   0.864   0.967   2.063
  436SOL    HW2 2063   0.850   0.879   2.028
  436SOL    HW3 2064   0.815   1.024   2.004
  436SOL    MW4 2065   0.856   0.962   2.051
  437SOL     OW 2066   1.345   1.385   2.804
  437SOL    HW2 2067   1.318   1.469   2.769
  437SOL    HW3 2068   1.305   1.380   2.891
  437SOL    MW4 2069   1.338   1.394   2.810
  438SOL     OW 2070   1.264   1.333   3.072
  438SOL    HW2 2071   1.275   1.300   3.161
  438SOL    HW3 2072   1.183   1.292   3.041
  438SOL    MW4 2073   1.254   1.325   3.078
  439SOL     OW 2074   0.277   0.691   2.842
  439SOL    HW2 2075   0.227   0.690   2.923
  439SOL    HW3 2076   0.297   0.783   2.826
  439SOL    MW4 2077   0.273   0.703   2.850
  440SOL     OW 2078   1.344   1.455   3.604
  440SOL    HW2 2079   1.344   1.549   3.620
  440SOL    HW3 2080   1.389   1.445   3.520
  440SOL    MW4 2081   1.350   1.465   3.595
  441SOL     OW 2082   1.583   0.173   2.165
  441SOL    HW2 2083   1.576   0.177   2.260
  441SOL    HW3 2084   1.595   0.264   2.138
  441SOL    MW4 2085   1.584   0.186   2.173
  442SOL     OW 2086   0.872   0.736   2.279
  442SOL    HW2 2087   0.852   0.722   2.186
  442SOL    HW3 2088   0.965   0.715   2.286
  442SOL    MW4 2089   0.882   0.731   2.268
  443SOL     OW 2090   0.199   0.359   3.583
  443SOL    HW2 2091   0.156   0.418   3.520
  443SOL    HW3 2092   0.267   0.414   3.623
  443SOL    MW4 2093   0.203   0.374   3.580
  444SOL     OW 2094   1.311   0.979   3.128
  444SOL    HW2 2095   1.374   0.976   3.201
  444SOL    HW3 2096   1.227   0.997   3.170
  444SOL    MW4 2097   1.307   0.981   3.143
  445SOL     OW 2098   0.855   1.694   2.317
  445SOL    HW2 2099   0.913   1.765   2.344
  445SOL    HW3 2100   0.878   1.622   2.375
  445SOL    MW4 2101   0.866   1.694   2.328
  446SOL     OW 2102   1.650   0.156   2.907
  446SOL    HW2 2103   1.695   0.074   2.926
  446SOL    HW3 2104   1.670   0.212   2.983
  446SOL    MW4 2105   1.660   0.152   2.919
  447SOL     OW 2106   0.098  -0.001   3.006
  447SOL    HW2 2107   0.089   0.000   2.911
  447SOL    HW3 2108   0.192   0.011   3.021
  447SOL    MW4 2109   0.110   0.002   2.997
  448SOL     OW 2110   1.735   1.192   2.626
  448SOL    HW2 2111   1.714   1.138   2.549
  448SOL    HW3 2112   1.831   1.190   2.630
  448SOL    MW4 2113   1.744   1.185   2.615
  449SOL     OW 2114   0.427   1.337   3.369
  449SOL    HW2 2115   0.348   1.287   3.392
  449SOL    HW3 2116   0.497   1.296   3.419
  449SOL    MW4 2117   0.425   1.325   3.379
  450SOL     OW 2118   0.311   0.126   2.052
  450SOL    HW2 2119   0.240   0.181   2.020
  450SOL    HW3 2120   0.353   0.092   1.973
  450SOL    MW4 2121   0.307   0.128   2.038
  451SOL     OW 2122   1.435   0.623   2.888
  451SOL    HW2 2123   1.358   0.669   2.854
  451SOL    HW3 2124   1.492   0.692   2.922
  451SOL    MW4 2125   1.432   0.638   2.888
  452SOL     OW 2126   0.067   0.225   1.901
  452SOL    HW2 2127   0.034   0.304   1.945
  452SOL    HW3 2128   0.122   0.258   1.830
  452SOL    MW4 2129   0.070   0.239   1.898
  453SOL     OW 2130   0.101   1.482   2.090
  453SOL    HW2 2131   0.118   1.566   2.132
  453SOL    HW3 2132   0.136   1.491   2.002
  453SOL    MW4 2133   0.106   1.495   2.084
  454SOL     OW 2134   1.373   1.571   2.307
  454SOL    HW2 2135   1.436   1.561   2.236
  454SOL    HW3 2136   1.290   1.591   2.262
  454SOL    MW4 2137   1.370   1.572   2.292
  455SOL     OW 2138   1.736   0.839   3.993
  455SOL    HW2 2139   1.777   0.781   4.058
  455SOL    HW3 2140   1.643   0.831   4.010
  455SOL    MW4 2141   1.730   0.831   4.003
  456SOL     OW 2142   1.602   0.771   4.988
  456SOL    HW2 2143   1.557   0.838   5.039
  456SOL    HW3 2144   1.690   0.807   4.974
  456SOL    MW4 2145   1.608   0.784   4.992
  457SOL     OW 2146   0.530   1.022   4.222
  457SOL    HW2 2147   0.620   0.997   4.206
  457SOL    HW3 2148   0.526   1.115   4.199
  457SOL    MW4 2149   0.542   1.031   4.217
  458SOL     OW 2150   1.646   1.725   4.364
  458SOL    HW2 2151   1.658   1.671   4.442
  458SOL    HW3 2152   1.683   1.673   4.293
  458SOL    MW4 2153   1.652   1.710   4.365
  459SOL     OW 2154   1.025   1.610   5.365
  459SOL    HW2 2155   1.066   1.646   5.286
  459SOL    HW3 2156   1.060   1.521   5.372
  459SOL    MW4 2157   1.036   1.603   5.356
  460SOL     OW 2158   1.582   1.165   4.969
  460SOL    HW2 2159   1.503   1.130   4.927
  460SOL    HW3 2160   1.609   1.237   4.913
  460SOL    MW4 2161   1.575   1.170   4.956
  461SOL     OW 2162   0.814   0.478   4.235
  461SOL    HW2 2163   0.789   0.566   4.263
  461SOL    HW3 2164   0.811   0.481   4.139
  461SOL    MW4 2165   0.810   0.490   4.227
  462SOL     OW 2166   0.256   0.506   4.163
  462SOL    HW2 2167   0.288   0.594   4.145
  462SOL    HW3 2168   0.244   0.504   4.258
  462SOL    MW4 2169   0.259   0.518   4.175
  463SOL     OW 2170   0.334   0.919   5.064
  463SOL    HW2 2171   0.397   0.866   5.015
  463SOL    HW3 2172   0.315   0.993   5.007
  463SOL    MW4 2173   0.340   0.921   5.051
  464SOL     OW 2174   0.655   0.261   4.250
  464SOL    HW2 2175   0.713   0.337   4.252
  464SOL    HW3 2176   0.590   0.282   4.183
  464SOL    MW4 2177   0.654   0.273   4.241
  465SOL     OW 2178   0.742   1.188   4.425
  465SOL    HW2 2179   0.822   1.191   4.477
  465SOL    HW3 2180   0.770   1.155   4.339
  465SOL    MW4 2181   0.756   1.184   4.420
  466SOL     OW 2182   0.767   1.529   5.328
  466SOL    HW2 2183   0.851   1.555   5.367
  466SOL    HW3 2184   0.791   1.473   5.254
  466SOL    MW4 2185   0.781   1.525   5.323
  467SOL     OW 2186   0.519   0.692   4.416
  467SOL    HW2 2187   0.504   0.612   4.467
  467SOL    HW3 2188   0.601   0.727   4.450
  467SOL    MW4 2189   0.527   0.684   4.428
  468SOL     OW 2190   0.856   1.378   5.101
  468SOL    HW2 2191   0.820   1.444   5.041
  468SOL    HW3 2192   0.784   1.316   5.114
  468SOL    MW4 2193   0.842   1.378   5.095
  469SOL     OW 2194   0.661   0.518   4.793
  469SOL    HW2 2195   0.567   0.514   4.811
  469SOL    HW3 2196   0.691   0.427   4.802
  469SOL    MW4 2197   0.652   0.506   4.796
  470SOL     OW 2198   0.407   0.932   4.697
  470SOL    HW2 2199   0.362   0.939   4.613
  470SOL    HW3 2200   0.387   1.015   4.741
  470SOL    MW4 2201   0.399   0.944   4.691
  471SOL     OW 2202   0.104   1.778   4.572
  471SOL    HW2 2203   0.193   1.770   4.607
  471SOL    HW3 2204   0.068   1.690   4.577
  471SOL    MW4 2205   0.111   1.765   4.577
  472SOL     OW 2206   1.369   1.170   3.941
  472SOL    HW2 2207   1.287   1.206   3.907
  472SOL    HW3 2208   1.437   1.213   3.890
  472SOL    MW4 2209   1.367   1.180   3.929
  473SOL     OW 2210   0.368   1.305   4.607
  473SOL    HW2 2211   0.344   1.358   4.683
  473SOL    HW3 2212   0.424   1.363   4.555
  473SOL    MW4 2213   0.372   1.320   4.610
  474SOL     OW 2214   0.930   0.949   4.417
  474SOL    HW2 2215   0.844   0.936   4.457
  474SOL    HW3 2216   0.983   0.876   4.449
  474SOL    MW4 2217   0.926   0.938   4.426
  475SOL     OW 2218   0.338   1.601   5.202
  475SOL    HW2 2219   0.246   1.577   5.187
  475SOL    HW3 2220   0.382   1.518   5.219
  475SOL    MW4 2221   0.332   1.586   5.201
  476SOL     OW 2222   0.921   1.311   4.134
  476SOL    HW2 2223   0.898   1.373   4.202
  476SOL    HW3 2224   0.878   1.229   4.160
  476SOL    MW4 2225   0.913   1.307   4.145
  477SOL     OW 2226   1.794   0.312   4.590
  477SOL    HW2 2227   1.731   0.292   4.659
  477SOL    HW3 2228   1.784   0.241   4.527
  477SOL    MW4 2229   1.784   0.299   4.591
  478SOL     OW 2230   0.418   0.284   4.102
  478SOL    HW2 2231   0.392   0.246   4.018
  478SOL    HW3 2232   0.355   0.354   4.118
  478SOL    MW4 2233   0.407   0.287   4.093
  479SOL     OW 2234   0.253   1.245   4.139
  479SOL    HW2 2235   0.201   1.313   4.095
  479SOL    HW3 2236   0.250   1.171   4.079
  479SOL    MW4 2237   0.245   1.244   4.126
  480SOL     OW 2238   0.915   1.708   3.917
  480SOL    HW2 2239   0.870   1.724   4.000
  480SOL    HW3 2240   0.846   1.673   3.859
  480SOL    MW4 2241   0.901   1.705   3.919
  481SOL     OW 2242   1.850   0.481   3.892
  481SOL    HW2 2243   1.759   0.483   3.920
  481SOL    HW3 2244   1.895   0.543   3.950
  481SOL    MW4 2245   1.843   0.489   3.902
  482SOL     OW 2246   1.595   1.084   4.242
  482SOL    HW2 2247   1.505   1.084   4.277
  482SOL    HW3 2248   1.588   1.130   4.159
  482SOL    MW4 2249   1.582   1.090   4.236
  483SOL     OW 2250   1.395   0.719   5.314
  483SOL    HW2 2251   1.464   0.657   5.291
  483SOL    HW3 2252   1.320   0.693   5.261
  483SOL    MW4 2253   1.395   0.706   5.305
  484SOL     OW 2254   0.136   1.599   4.866
  484SOL    HW2 2255   0.119   1.545   4.943
  484SOL    HW3 2256   0.124   1.689   4.896
  484SOL    MW4 2257   0.133   1.603   4.880
  485SOL     OW 2258   1.131   1.106   5.306
  485SOL    HW2 2259   1.116   1.199   5.291
  485SOL    HW3 2260   1.226   1.096   5.306
  485SOL    MW4 2261   1.140   1.116   5.303
  486SOL     OW 2262   0.927   0.530   5.507
  486SOL    HW2 2263   1.017   0.531   5.474
  486SOL    HW3 2264   0.886   0.455   5.465
  486SOL    MW4 2265   0.933   0.520   5.498
  487SOL     OW 2266   1.502   1.062   4.634
  487SOL    HW2 2267   1.505   0.996   4.565
  487SOL    HW3 2268   1.587   1.105   4.630
  487SOL    MW4 2269   1.514   1.058   4.625
  488SOL     OW 2270   1.122   0.665   4.203
  488SOL    HW2 2271   1.148   0.689   4.114
  488SOL    HW3 2272   1.104   0.572   4.199
  488SOL    MW4 2273   1.124   0.657   4.190
  489SOL     OW 2274   1.787   1.285   4.054
  489SOL    HW2 2275   1.743   1.326   4.129
  489SOL    HW3 2276   1.844   1.353   4.019
  489SOL    MW4 2277   1.789   1.299   4.059
  490SOL     OW 2278   0.707   0.334   5.457
  490SOL    HW2 2279   0.717   0.260   5.397
  490SOL    HW3 2280   0.743   0.303   5.540
  490SOL    MW4 2281   0.713   0.320   5.459
  491SOL     OW 2282   0.443   1.701   4.372
  491SOL    HW2 2283   0.475   1.789   4.350
  491SOL    HW3 2284   0.396   1.673   4.294
  491SOL    MW4 2285   0.442   1.709   4.359
  492SOL     OW 2286   1.827   0.063   4.421
  492SOL    HW2 2287   1.881   0.014   4.483
  492SOL    HW3 2288   1.770  -0.003   4.382
  492SOL    MW4 2289   1.827   0.047   4.423
  493SOL     OW 2290   0.159   1.761   3.949
  493SOL    HW2 2291   0.188   1.851   3.941
  493SOL    HW3 2292   0.109   1.744   3.870
  493SOL    MW4 2293   0.157   1.769   3.938
  494SOL     OW 2294   0.946   0.016   4.834
  494SOL    HW2 2295   0.905   0.094   4.796
  494SOL    HW3 2296   1.040   0.034   4.829
  494SOL    MW4 2297   0.952   0.028   4.829
  495SOL     OW 2298   1.563   1.569   3.920
  495SOL    HW2 2299   1.611   1.638   3.966
  495SOL    HW3 2300   1.484   1.613   3.889
  495SOL    MW4 2301   1.558   1.583   3.923
  496SOL     OW 2302   0.961   0.694   3.864
  496SOL    HW2 2303   0.963   0.641   3.785
  496SOL    HW3 2304   1.049   0.731   3.870
  496SOL    MW4 2305   0.973   0.693   3.853
  497SOL     OW 2306   1.575   0.620   4.200
  497SOL    HW2 2307   1.614   0.620   4.287
  497SOL    HW3 2308   1.516   0.696   4.200
  497SOL    MW4 2309   1.572   0.631   4.211
  498SOL     OW 2310   0.892   0.987   5.329
  498SOL    HW2 2311   0.869   0.967   5.419
  498SOL    HW3 2312   0.977   1.031   5.334
  498SOL    MW4 2313   0.899   0.990   5.341
  499SOL     OW 2314   0.972   0.124   5.089
  499SOL    HW2 2315   0.978   0.086   5.002
  499SOL    HW3 2316   0.961   0.218   5.074
  499SOL    MW4 2317   0.973   0.132   5.077
  500SOL     OW 2318   1.061   0.613   4.923
  500SOL    HW2 2319   1.136   0.642   4.870
  500SOL    HW3 2320   0.993   0.678   4.907
  500SOL    MW4 2321   1.062   0.625   4.913
  501SOL     OW 2322   1.611   0.581   5.200
  501SOL    HW2 2323   1.592   0.490   5.179
  501SOL    HW3 2324   1.589   0.630   5.121
  501SOL    MW4 2325   1.606   0.574   5.187
  502SOL     OW 2326   1.753   1.675   5.104
  502SOL    HW2 2327   1.681   1.637   5.155
  502SOL    HW3 2328   1.770   1.760   5.145
  502SOL    MW4 2329   1.747   1.680   5.116
  503SOL     OW 2330   1.058   0.319   5.306
  503SOL    HW2 2331   1.024   0.358   5.225
  503SOL    HW3 2332   1.036   0.227   5.299
  503SOL    MW4 2333   1.051   0.312   5.296
  504SOL     OW 2334   1.467   1.133   5.382
  504SOL    HW2 2335   1.549   1.174   5.412
  504SOL    HW3 2336   1.430   1.095   5.462
  504SOL    MW4 2337   1.473   1.134   5.397
  505SOL     OW 2338   1.762   0.506   4.366
  505SOL    HW2 2339   1.851   0.475   4.383
  505SOL    HW3 2340   1.705   0.446   4.414
  505SOL    MW4 2341   1.765   0.494   4.375
  506SOL     OW 2342   0.188   0.220   4.395
  506SOL    HW2 2343   0.179   0.160   4.321
  506SOL    HW3 2344   0.121   0.191   4.458
  506SOL    MW4 2345   0.178   0.207   4.393
  507SOL     OW 2346   1.131   1.313   3.956
  507SOL    HW2 2347   1.081   1.315   4.038
  507SOL    HW3 2348   1.065   1.331   3.888
  507SOL    MW4 2349   1.117   1.315   3.958
  508SOL     OW 2350   0.135   0.393   4.758
  508SOL    HW2 2351   0.107   0.484   4.767
  508SOL    HW3 2352   0.072   0.354   4.697
  508SOL    MW4 2353   0.122   0.399   4.752
  509SOL     OW 2354   0.594   1.731   4.064
  509SOL    HW2 2355   0.515   1.689   4.097
  509SOL    HW3 2356   0.660   1.714   4.131
  509SOL    MW4 2357   0.593   1.723   4.077
  510SOL     OW 2358   1.722   1.251   5.461
  510SOL    HW2 2359   1.772   1.177   5.493
  510SOL    HW3 2360   1.668   1.278   5.536
  510SOL    MW4 2361   1.722   1.245   5.474
  511SOL     OW 2362   1.856   0.886   4.963
  511SOL    HW2 2363   1.872   0.924   4.876
  511SOL    HW3 2364   1.890   0.952   5.024
  511SOL    MW4 2365   1.863   0.899   4.959
  512SOL     OW 2366   1.648   1.595   4.632
  512SOL    HW2 2367   1.677   1.662   4.693
  512SOL    HW3 2368   1.629   1.519   4.687
  512SOL    MW4 2369   1.650   1.595   4.647
  513SOL     OW 2370   1.311   1.662   3.839
  513SOL    HW2 2371   1.237   1.625   3.889
  513SOL    HW3 2372   1.319   1.752   3.872
  513SOL    MW4 2373   1.302   1.669   3.851
  514SOL     OW 2374   0.119   0.668   4.928
  514SOL    HW2 2375   0.181   0.698   4.994
  514SOL    HW3 2376   0.053   0.737   4.922
  514SOL    MW4 2377   0.118   0.681   4.935
  515SOL     OW 2378   1.535   1.336   3.781
  515SOL    HW2 2379   1.482   1.385   3.717
  515SOL    HW3 2380   1.566   1.402   3.842
  515SOL    MW4 2381   1.533   1.350   3.779
  516SOL     OW 2382   0.760   0.225   3.836
  516SOL    HW2 2383   0.708   0.145   3.824
  516SOL    HW3 2384   0.847   0.202   3.804
  516SOL    MW4 2385   0.763   0.211   3.830
  517SOL     OW 2386   0.214   1.777   5.380
  517SOL    HW2 2387   0.188   1.845   5.318
  517SOL    HW3 2388   0.262   1.714   5.328
  517SOL    MW4 2389   0.216   1.777   5.366
  518SOL     OW 2390   0.266   1.096   4.887
  518SOL    HW2 2391   0.319   1.171   4.912
  518SOL    HW3 2392   0.185   1.134   4.853
  518SOL    MW4 2393   0.262   1.111   4.887
  519SOL     OW 2394   0.806   1.000   4.875
  519SOL    HW2 2395   0.834   0.909   4.887
  519SOL    HW3 2396   0.735   0.994   4.811
  519SOL    MW4 2397   0.799   0.988   4.870
  520SOL     OW 2398   0.121   0.865   4.293
  520SOL    HW2 2399   0.212   0.880   4.320
  520SOL    HW3 2400   0.124   0.786   4.239
  520SOL    MW4 2401   0.133   0.857   4.291
  521SOL     OW 2402   0.357   0.573   5.547
  521SOL    HW2 2403   0.304   0.653   5.554
  521SOL    HW3 2404   0.427   0.585   5.612
  521SOL    MW4 2405   0.359   0.586   5.555
  522SOL     OW 2406   0.743   0.123   5.254
  522SOL    HW2 2407   0.720   0.031   5.256
  522SOL    HW3 2408   0.829   0.125   5.211
  522SOL    MW4 2409   0.750   0.113   5.250
  523SOL     OW 2410   0.427   0.647   5.293
  523SOL    HW2 2411   0.507   0.697   5.279
  523SOL    HW3 2412   0.418   0.641   5.388
  523SOL    MW4 2413   0.436   0.653   5.303
  524SOL     OW 2414   0.748   1.797   4.667
  524SOL    HW2 2415   0.837   1.812   4.697
  524SOL    HW3 2416   0.743   1.844   4.583
  524SOL    MW4 2417   0.758   1.805   4.660
  525SOL     OW 2418   1.404   0.172   5.564
  525SOL    HW2 2419   1.460   0.099   5.590
  525SOL    HW3 2420   1.374   0.210   5.646
  525SOL    MW4 2421   1.408   0.167   5.577
  526SOL     OW 2422   0.129   1.477   4.332
  526SOL    HW2 2423   0.101   1.516   4.414
  526SOL    HW3 2424   0.149   1.386   4.354
  526SOL    MW4 2425   0.127   1.469   4.345
  527SOL     OW 2426   0.962   1.520   4.367
  527SOL    HW2 2427   1.045   1.474   4.351
  527SOL    HW3 2428   0.952   1.519   4.463
  527SOL    MW4 2429   0.972   1.513   4.377
  528SOL     OW 2430   1.794   0.665   4.681
  528SOL    HW2 2431   1.883   0.695   4.663
  528SOL    HW3 2432   1.774   0.605   4.610
  528SOL    MW4 2433   1.803   0.662   4.670
  529SOL     OW 2434   1.645   0.844   5.561
  529SOL    HW2 2435   1.700   0.768   5.542
  529SOL    HW3 2436   1.647   0.852   5.656
  529SOL    MW4 2437   1.653   0.835   5.569
  530SOL     OW 2438   0.695   1.577   3.772
  530SOL    HW2 2439   0.635   1.646   3.742
  530SOL    HW3 2440   0.640   1.519   3.825
  530SOL    MW4 2441   0.679   1.579   3.774
  531SOL     OW 2442   1.133   0.222   3.995
  531SOL    HW2 2443   1.066   0.198   3.932
  531SOL    HW3 2444   1.198   0.271   3.944
  531SOL    MW4 2445   1.133   0.224   3.980
  532SOL     OW 2446   0.940   0.406   5.080
  532SOL    HW2 2447   0.859   0.447   5.108
  532SOL    HW3 2448   0.987   0.474   5.032
  532SOL    MW4 2449   0.935   0.421   5.078
  533SOL     OW 2450   1.200   0.744   4.703
  533SOL    HW2 2451   1.213   0.838   4.713
  533SOL    HW3 2452   1.161   0.734   4.617
  533SOL    MW4 2453   1.196   0.755   4.693
  534SOL     OW 2454   0.652   0.939   4.507
  534SOL    HW2 2455   0.563   0.930   4.540
  534SOL    HW3 2456   0.656   1.029   4.475
  534SOL    MW4 2457   0.641   0.950   4.507
  535SOL     OW 2458   1.451   0.522   4.502
  535SOL    HW2 2459   1.396   0.443   4.501
  535SOL    HW3 2460   1.433   0.563   4.586
  535SOL    MW4 2461   1.441   0.517   4.511
  536SOL     OW 2462   0.422   0.209   5.319
  536SOL    HW2 2463   0.343   0.227   5.371
  536SOL    HW3 2464   0.417   0.271   5.246
  536SOL    MW4 2465   0.412   0.219   5.316
  537SOL     OW 2466   1.070   0.726   4.459
  537SOL    HW2 2467   1.007   0.658   4.483
  537SOL    HW3 2468   1.090   0.707   4.367
  537SOL    MW4 2469   1.064   0.713   4.451
  538SOL     OW 2470   0.326   1.621   4.161
  538SOL    HW2 2471   0.287   1.668   4.087
  538SOL    HW3 2472   0.260   1.556   4.186
  538SOL    MW4 2473   0.313   1.619   4.155
  539SOL     OW 2474   0.818   1.030   4.185
  539SOL    HW2 2475   0.820   1.004   4.092
  539SOL    HW3 2476   0.876   0.967   4.228
  539SOL    MW4 2477   0.826   1.019   4.179
  540SOL     OW 2478   1.371   1.590   4.957
  540SOL    HW2 2479   1.296   1.636   4.995
  540SOL    HW3 2480   1.353   1.497   4.974
  540SOL    MW4 2481   1.360   1.584   4.965
  541SOL     OW 2482   1.375   1.798   4.387
  541SOL    HW2 2483   1.318   1.751   4.326
  541SOL    HW3 2484   1.461   1.759   4.374
  541SOL    MW4 2485   1.378   1.789   4.377
  542SOL     OW 2486   1.328   0.274   4.518
  542SOL    HW2 2487   1.356   0.206   4.579
  542SOL    HW3 2488   1.242   0.245   4.488
  542SOL    MW4 2489   1.321   0.261   4.522
  543SOL     OW 2490   0.133   1.208   4.452
  543SOL    HW2 2491   0.197   1.240   4.515
  543SOL    HW3 2492   0.182   1.144   4.400
  543SOL    MW4 2493   0.148   1.204   4.453
  544SOL     OW 2494   0.633   1.284   5.434
  544SOL    HW2 2495   0.681   1.367   5.421
  544SOL    HW3 2496   0.690   1.232   5.490
  544SOL    MW4 2497   0.647   1.288   5.440
  545SOL     OW 2498   0.209   1.526   5.574
  545SOL    HW2 2499   0.265   1.450   5.589
  545SOL    HW3 2500   0.158   1.504   5.496
  545SOL    MW4 2501   0.209   1.513   5.565
  546SOL     OW 2502   1.308   0.378   3.853
  546SOL    HW2 2503   1.281   0.444   3.789
  546SOL    HW3 2504   1.378   0.421   3.903
  546SOL    MW4 2505   1.313   0.391   3.850
  547SOL     OW 2506   0.976   0.083   3.790
  547SOL    HW2 2507   1.032   0.075   3.712
  547SOL    HW3 2508   0.953  -0.007   3.812
  547SOL    MW4 2509   0.981   0.070   3.783
  548SOL     OW 2510   1.481   0.934   3.995
  548SOL    HW2 2511   1.448   1.023   3.985
  548SOL    HW3 2512   1.446   0.905   4.080
  548SOL    MW4 2513   1.471   0.943   4.006
  549SOL     OW 2514   1.094   1.363   5.183
  549SOL    HW2 2515   1.005   1.369   5.151
  549SOL    HW3 2516   1.138   1.442   5.151
  549SOL    MW4 2517   1.089   1.373   5.175
  550SOL     OW 2518   0.387   0.031   5.525
  550SOL    HW2 2519   0.315  -0.004   5.473
  550SOL    HW3 2520   0.445   0.072   5.460
  550SOL    MW4 2521   0.385   0.032   5.510
  551SOL     OW 2522   0.411   1.521   4.824
  551SOL    HW2 2523   0.456   1.583   4.881
  551SOL    HW3 2524   0.318   1.540   4.837
  551SOL    MW4 2525   0.404   1.531   4.831
  552SOL     OW 2526   1.851   1.050   5.178
  552SOL    HW2 2527   1.766   1.063   5.137
  552SOL    HW3 2528   1.831   1.014   5.265
  552SOL    MW4 2529   1.838   1.046   5.183
  553SOL     OW 2530   0.833   1.589   4.932
  553SOL    HW2 2531   0.857   1.578   4.841
  553SOL    HW3 2532   0.756   1.646   4.930
  553SOL    MW4 2533   0.825   1.594   4.921
  554SOL     OW 2534   0.475   0.972   3.787
  554SOL    HW2 2535   0.398   0.985   3.843
  554SOL    HW3 2536   0.439   0.936   3.706
  554SOL    MW4 2537   0.461   0.968   3.784
  555SOL     OW 2538   1.128   0.945   4.030
  555SOL    HW2 2539   1.038   0.966   4.005
  555SOL    HW3 2540   1.155   1.018   4.086
  555SOL    MW4 2541   1.120   0.957   4.033
  556SOL     OW 2542   0.628   1.294   4.722
  556SOL    HW2 2543   0.621   1.273   4.816
  556SOL    HW3 2544   0.546   1.262   4.685
  556SOL    MW4 2545   0.616   1.288   4.729
  557SOL     OW 2546   1.492   0.304   5.124
  557SOL    HW2 2547   1.439   0.306   5.204
  557SOL    HW3 2548   1.477   0.217   5.087
  557SOL    MW4 2549   1.484   0.294   5.129
  558SOL     OW 2550   1.828   0.228   4.997
  558SOL    HW2 2551   1.809   0.295   4.932
  558SOL    HW3 2552   1.885   0.166   4.952
  558SOL    MW4 2553   1.832   0.229   4.983
  559SOL     OW 2554   0.074   1.386   5.385
  559SOL    HW2 2555   0.118   1.319   5.331
  559SOL    HW3 2556  -0.011   1.348   5.405
  559SOL    MW4 2557   0.069   1.372   5.381
  560SOL     OW 2558   0.757   0.061   4.437
  560SOL    HW2 2559   0.686   0.122   4.419
  560SOL    HW3 2560   0.808   0.058   4.356
  560SOL    MW4 2561   0.753   0.067   4.424
  561SOL     OW 2562   0.515   1.301   4.186
  561SOL    HW2 2563   0.508   1.333   4.276
  561SOL    HW3 2564   0.425   1.285   4.158
  561SOL    MW4 2565   0.503   1.303   4.193
  562SOL     OW 2566   1.110   1.694   5.095
  562SOL    HW2 2567   1.030   1.679   5.045
  562SOL    HW3 2568   1.117   1.789   5.102
  562SOL    MW4 2569   1.101   1.705   5.089
  563SOL     OW 2570   1.224   1.659   4.585
  563SOL    HW2 2571   1.271   1.732   4.544
  563SOL    HW3 2572   1.145   1.698   4.621
  563SOL    MW4 2573   1.219   1.674   4.584
  564SOL     OW 2574   1.632   1.754   4.860
  564SOL    HW2 2575   1.675   1.724   4.940
  564SOL    HW3 2576   1.551   1.702   4.857
  564SOL    MW4 2577   1.627   1.743   4.870
  565SOL     OW 2578   0.717   0.718   5.567
  565SOL    HW2 2579   0.787   0.660   5.539
  565SOL    HW3 2580   0.660   0.663   5.622
  565SOL    MW4 2581   0.719   0.705   5.571
  566SOL     OW 2582   1.504   0.930   5.200
  566SOL    HW2 2583   1.509   0.983   5.280
  566SOL    HW3 2584   1.466   0.847   5.228
  566SOL    MW4 2585   1.500   0.925   5.215
  567SOL     OW 2586   1.144   0.065   5.446
  567SOL    HW2 2587   1.139  -0.028   5.427
  567SOL    HW3 2588   1.227   0.076   5.492
  567SOL    MW4 2589   1.152   0.054   5.450
  568SOL     OW 2590   0.518   0.585   3.900
  568SOL    HW2 2591   0.484   0.641   3.970
  568SOL    HW3 2592   0.589   0.535   3.940
  568SOL    MW4 2593   0.524   0.586   3.914
  569SOL     OW 2594   1.614   1.336   4.722
  569SOL    HW2 2595   1.649   1.318   4.635
  569SOL    HW3 2596   1.519   1.337   4.709
  569SOL    MW4 2597   1.606   1.333   4.709
  570SOL     OW 2598   1.043   0.984   5.091
  570SOL    HW2 2599   1.086   1.019   5.169
  570SOL    HW3 2600   1.026   1.061   5.037
  570SOL    MW4 2601   1.046   0.999   5.094
  571SOL     OW 2602   1.574   0.471   3.964
  571SOL    HW2 2603   1.566   0.542   3.901
  571SOL    HW3 2604   1.592   0.515   4.047
  571SOL    MW4 2605   1.575   0.485   3.966
  572SOL     OW 2606   0.434   0.126   4.393
  572SOL    HW2 2607   0.484   0.169   4.324
  572SOL    HW3 2608   0.349   0.170   4.393
  572SOL    MW4 2609   0.431   0.139   4.384
  573SOL     OW 2610   0.193   1.188   5.253
  573SOL    HW2 2611   0.221   1.141   5.331
  573SOL    HW3 2612   0.114   1.143   5.224
  573SOL    MW4 2613   0.186   1.177   5.259
  574SOL     OW 2614   0.701   0.515   5.220
  574SOL    HW2 2615   0.673   0.603   5.244
  574SOL    HW3 2616   0.670   0.459   5.291
  574SOL    MW4 2617   0.693   0.518   5.232
  575SOL     OW 2618   1.243   0.733   3.939
  575SOL    HW2 2619   1.290   0.751   3.858
  575SOL    HW3 2620   1.209   0.817   3.967
  575SOL    MW4 2621   1.245   0.747   3.932
  576SOL     OW 2622   0.356   0.911   4.433
  576SOL    HW2 2623   0.414   0.967   4.381
  576SOL    HW3 2624   0.400   0.826   4.435
  576SOL    MW4 2625   0.369   0.908   4.426
  577SOL     OW 2626   1.496   0.263   4.270
  577SOL    HW2 2627   1.418   0.213   4.295
  577SOL    HW3 2628   1.467   0.354   4.270
  577SOL    MW4 2629   1.482   0.267   4.273
  578SOL     OW 2630   1.082   0.225   4.429
  578SOL    HW2 2631   1.102   0.300   4.373
  578SOL    HW3 2632   1.062   0.264   4.514
  578SOL    MW4 2633   1.083   0.241   4.433
  579SOL     OW 2634   0.978   1.475   3.761
  579SOL    HW2 2635   1.005   1.553   3.713
  579SOL    HW3 2636   0.885   1.490   3.780
  579SOL    MW4 2637   0.969   1.488   3.757
  580SOL     OW 2638   1.842   0.998   5.448
  580SOL    HW2 2639   1.755   0.978   5.484
  580SOL    HW3 2640   1.896   0.924   5.473
  580SOL    MW4 2641   1.837   0.987   5.456
  581SOL     OW 2642   0.063   1.511   4.605
  581SOL    HW2 2643   0.095   1.515   4.696
  581SOL    HW3 2644  -0.032   1.519   4.613
  581SOL    MW4 2645   0.055   1.514   4.618
  582SOL     OW 2646   0.018   0.637   4.152
  582SOL    HW2 2647  -0.042   0.609   4.222
  582SOL    HW3 2648   0.092   0.577   4.158
  582SOL    MW4 2649   0.020   0.626   4.161
  583SOL     OW 2650   1.586   1.849   5.586
  583SOL    HW2 2651   1.631   1.773   5.551
  583SOL    HW3 2652   1.624   1.862   5.673
  583SOL    MW4 2653   1.596   1.842   5.592
  584SOL     OW 2654   1.186   1.368   4.312
  584SOL    HW2 2655   1.209   1.319   4.390
  584SOL    HW3 2656   1.267   1.410   4.284
  584SOL    MW4 2657   1.199   1.368   4.319
  585SOL     OW 2658   0.444   0.376   5.041
  585SOL    HW2 2659   0.477   0.457   5.081
  585SOL    HW3 2660   0.417   0.402   4.953
  585SOL    MW4 2661   0.443   0.390   5.035
  586SOL     OW 2662   1.227   0.552   5.468
  586SOL    HW2 2663   1.279   0.487   5.421
  586SOL    HW3 2664   1.185   0.603   5.398
  586SOL    MW4 2665   1.228   0.549   5.451
  587SOL     OW 2666   1.326   0.347   5.329
  587SOL    HW2 2667   1.233   0.331   5.316
  587SOL    HW3 2668   1.352   0.285   5.397
  587SOL    MW4 2669   1.316   0.337   5.336
  588SOL     OW 2670   0.541   0.121   4.668
  588SOL    HW2 2671   0.551   0.030   4.694
  588SOL    HW3 2672   0.497   0.117   4.583
  588SOL    MW4 2673   0.537   0.109   4.660
  589SOL     OW 2674   0.635   1.736   5.214
  589SOL    HW2 2675   0.552   1.721   5.259
  589SOL    HW3 2676   0.694   1.669   5.249
  589SOL    MW4 2677   0.633   1.726   5.224
  590SOL     OW 2678   1.692   0.443   4.839
  590SOL    HW2 2679   1.625   0.476   4.899
  590SOL    HW3 2680   1.735   0.521   4.805
  590SOL    MW4 2681   1.690   0.458   4.843
  591SOL     OW 2682   1.870   1.163   4.809
  591SOL    HW2 2683   1.863   1.103   4.734
  591SOL    HW3 2684   1.796   1.223   4.798
  591SOL    MW4 2685   1.860   1.163   4.798
  592SOL     OW 2686   1.252   1.025   4.727
  592SOL    HW2 2687   1.266   0.997   4.818
  592SOL    HW3 2688   1.338   1.056   4.699
  592SOL    MW4 2689   1.265   1.026   4.736
  593SOL     OW 2690   1.335   0.520   5.006
  593SOL    HW2 2691   1.356   0.521   4.913
  593SOL    HW3 2692   1.380   0.442   5.039
  593SOL    MW4 2693   1.342   0.510   4.998
  594SOL     OW 2694   1.828   0.651   5.548
  594SOL    HW2 2695   1.865   0.596   5.617
  594SOL    HW3 2696   1.853   0.608   5.466
  594SOL    MW4 2697   1.835   0.639   5.547
  595SOL     OW 2698   1.375   0.949   5.600
  595SOL    HW2 2699   1.441   0.897   5.554
  595SOL    HW3 2700   1.395   0.936   5.693
  595SOL    MW4 2701   1.386   0.940   5.607
  596SOL     OW 2702   1.326   0.035   3.948
  596SOL    HW2 2703   1.400   0.079   3.991
  596SOL    HW3 2704   1.250   0.089   3.970
  596SOL    MW4 2705   1.326   0.047   3.956
  597SOL     OW 2706   1.386   0.810   4.226
  597SOL    HW2 2707   1.301   0.780   4.196
  597SOL    HW3 2708   1.378   0.817   4.321
  597SOL    MW4 2709   1.374   0.808   4.235
  598SOL     OW 2710   0.462   1.273   4.957
  598SOL    HW2 2711   0.474   1.300   5.048
  598SOL    HW3 2712   0.443   1.354   4.910
  598SOL    MW4 2713   0.461   1.288   4.962
  599SOL     OW 2714   0.746   0.253   4.780
  599SOL    HW2 2715   0.719   0.255   4.871
  599SOL    HW3 2716   0.676   0.205   4.735
  599SOL    MW4 2717   0.734   0.249   4.787
  600SOL     OW 2718   0.600   1.745   4.942
  600SOL    HW2 2719   0.652   1.822   4.919
  600SOL    HW3 2720   0.609   1.737   5.037
  600SOL    MW4 2721   0.609   1.752   4.953
  601SOL     OW 2722   1.502   1.330   5.174
  601SOL    HW2 2723   1.487   1.259   5.237
  601SOL    HW3 2724   1.548   1.288   5.102
  601SOL    MW4 2725   1.508   1.314   5.174
  602SOL     OW 2726   0.576   1.061   5.291
  602SOL    HW2 2727   0.613   1.066   5.203
  602SOL    HW3 2728   0.615   1.134   5.338
  602SOL    MW4 2729   0.586   1.071   5.286
  603SOL     OW 2730   0.756   1.104   5.103
  603SOL    HW2 2731   0.815   1.050   5.156
  603SOL    HW3 2732   0.771   1.076   5.013
  603SOL    MW4 2733   0.766   1.093   5.099
  604SOL     OW 2734   0.759   0.476   3.952
  604SOL    HW2 2735   0.832   0.525   3.915
  604SOL    HW3 2736   0.775   0.385   3.926
  604SOL    MW4 2737   0.771   0.471   3.945
  605SOL     OW 2738   1.567   1.593   5.275
  605SOL    HW2 2739   1.609   1.578   5.360
  605SOL    HW3 2740   1.558   1.506   5.237
  605SOL    MW4 2741   1.571   1.581   5.282
  606SOL     OW 2742   1.227   0.072   4.866
  606SOL    HW2 2743   1.282   0.081   4.788
  606SOL    HW3 2744   1.282   0.106   4.937
  606SOL    MW4 2745   1.241   0.077   4.865
  607SOL     OW 2746   0.234   0.985   4.050
  607SOL    HW2 2747   0.171   1.001   3.979
  607SOL    HW3 2748   0.181   0.948   4.121
  607SOL    MW4 2749   0.219   0.982   4.050
  608SOL     OW 2750   0.590   1.339   3.909
  608SOL    HW2 2751   0.605   1.315   4.001
  608SOL    HW3 2752   0.498   1.317   3.893
  608SOL    MW4 2753   0.580   1.332   3.919
  609SOL     OW 2754   1.129   1.570   4.061
  609SOL    HW2 2755   1.137   1.488   4.012
  609SOL    HW3 2756   1.048   1.609   4.028
  609SOL    MW4 2757   1.119   1.565   4.051
  610SOL     OW 2758   0.388   1.728   4.630
  610SOL    HW2 2759   0.392   1.639   4.665
  610SOL    HW3 2760   0.414   1.719   4.539
  610SOL    MW4 2761   0.391   1.716   4.622
  611SOL     OW 2762   1.005   1.206   4.873
  611SOL    HW2 2763   0.937   1.140   4.889
  611SOL    HW3 2764   1.023   1.200   4.780
  611SOL    MW4 2765   0.998   1.197   4.864
  612SOL     OW 2766   0.094   1.481   5.124
  612SOL    HW2 2767   0.084   1.439   5.210
  612SOL    HW3 2768   0.015   1.534   5.114
  612SOL    MW4 2769   0.083   1.482   5.135
  613SOL     OW 2770   0.998   0.345   4.694
  613SOL    HW2 2771   0.928   0.297   4.739
  613SOL    HW3 2772   1.030   0.408   4.758
  613SOL    MW4 2773   0.993   0.347   4.708
  614SOL     OW 2774   0.649   0.781   5.314
  614SOL    HW2 2775   0.642   0.876   5.302
  614SOL    HW3 2776   0.658   0.770   5.409
  614SOL    MW4 2777   0.650   0.793   5.324
  615SOL     OW 2778   0.370   1.296   5.572
  615SOL    HW2 2779   0.442   1.298   5.509
  615SOL    HW3 2780   0.340   1.205   5.571
  615SOL    MW4 2781   0.375   1.285   5.564
  616SOL     OW 2782   1.454   0.059   5.039
  616SOL    HW2 2783   1.525   0.005   5.003
  616SOL    HW3 2784   1.453   0.038   5.132
  616SOL    MW4 2785   1.463   0.050   5.047
  617SOL     OW 2786   1.654   1.589   5.523
  617SOL    HW2 2787   1.627   1.586   5.614
  617SOL    HW3 2788   1.750   1.593   5.526
  617SOL    MW4 2789   1.664   1.589   5.535
  618SOL     OW 2790   0.465   0.451   4.507
  618SOL    HW2 2791   0.536   0.399   4.470
  618SOL    HW3 2792   0.451   0.416   4.594
  618SOL    MW4 2793   0.473   0.440   4.514
  619SOL     OW 2794   0.020   1.786   5.579
  619SOL    HW2 2795   0.070   1.764   5.501
  619SOL    HW3 2796   0.028   1.881   5.587
  619SOL    MW4 2797   0.028   1.795   5.570
  620SOL     OW 2798   0.781   1.544   4.583
  620SOL    HW2 2799   0.709   1.481   4.596
  620SOL    HW3 2800   0.742   1.629   4.601
  620SOL    MW4 2801   0.765   1.547   4.586
  621SOL     OW 2802   1.101   0.392   4.231
  621SOL    HW2 2803   1.123   0.329   4.163
  621SOL    HW3 2804   1.006   0.384   4.242
  621SOL    MW4 2805   1.091   0.383   4.223
  622SOL     OW 2806   0.186   0.082   4.163
  622SOL    HW2 2807   0.257   0.103   4.102
  622SOL    HW3 2808   0.140   0.010   4.121
  622SOL    MW4 2809   0.190   0.076   4.149
  623SOL     OW 2810   0.017   0.549   5.306
  623SOL    HW2 2811   0.081   0.615   5.281
  623SOL    HW3 2812  -0.064   0.576   5.263
  623SOL    MW4 2813   0.015   0.561   5.298
  624SOL     OW 2814   1.755   1.456   4.263
  624SOL    HW2 2815   1.725   1.389   4.324
  624SOL    HW3 2816   1.849   1.462   4.277
  624SOL    MW4 2817   1.763   1.448   4.273
  625SOL     OW 2818   1.311   1.133   4.193
  625SOL    HW2 2819   1.283   1.219   4.226
  625SOL    HW3 2820   1.339   1.149   4.103
  625SOL    MW4 2821   1.311   1.147   4.185
  626SOL     OW 2822   0.973   0.053   4.246
  626SOL    HW2 2823   1.010   0.112   4.311
  626SOL    HW3 2824   0.950   0.109   4.172
  626SOL    MW4 2825   0.974   0.068   4.245
  627SOL     OW 2826   1.826   0.935   4.668
  627SOL    HW2 2827   1.817   0.967   4.579
  627SOL    HW3 2828   1.779   0.851   4.668
  627SOL    MW4 2829   1.819   0.928   4.658
  628SOL     OW 2830   0.202   0.775   5.247
  628SOL    HW2 2831   0.223   0.844   5.185
  628SOL    HW3 2832   0.282   0.722   5.252
  628SOL    MW4 2833   0.215   0.776   5.241
  629SOL     OW 2834   1.738   0.866   4.369
  629SOL    HW2 2835   1.832   0.855   4.357
  629SOL    HW3 2836   1.714   0.938   4.310
  629SOL    MW4 2837   1.748   0.874   4.360
  630SOL     OW 2838   0.187   0.790   5.514
  630SOL    HW2 2839   0.113   0.734   5.540
  630SOL    HW3 2840   0.182   0.793   5.419
  630SOL    MW4 2841   0.176   0.783   5.504
  631SOL     OW 2842   0.353   0.077   4.964
  631SOL    HW2 2843   0.396   0.161   4.984
  631SOL    HW3 2844   0.426   0.015   4.957
  631SOL    MW4 2845   0.368   0.080   4.965
  632SOL     OW 2846   0.394   0.744   4.142
  632SOL    HW2 2847   0.394   0.839   4.127
  632SOL    HW3 2848   0.471   0.728   4.196
  632SOL    MW4 2849   0.404   0.755   4.147
  633SOL     OW 2850   1.170   0.603   5.206
  633SOL    HW2 2851   1.206   0.576   5.122
  633SOL    HW3 2852   1.083   0.637   5.185
  633SOL    MW4 2853   1.164   0.604   5.193
  634SOL     OW 2854   0.153   0.475   4.431
  634SOL    HW2 2855   0.215   0.482   4.504
  634SOL    HW3 2856   0.153   0.382   4.408
  634SOL    MW4 2857   0.161   0.464   4.438
  635SOL     OW 2858   1.700   1.815   3.963
  635SOL    HW2 2859   1.767   1.848   3.903
  635SOL    HW3 2860   1.657   1.894   3.997
  635SOL    MW4 2861   1.702   1.830   3.959
  636SOL     OW 2862   0.835   0.736   4.915
  636SOL    HW2 2863   0.793   0.654   4.891
  636SOL    HW3 2864   0.836   0.735   5.011
  636SOL    MW4 2865   0.828   0.725   4.924
  637SOL     OW 2866   1.506   1.869   5.314
  637SOL    HW2 2867   1.509   1.775   5.297
  637SOL    HW3 2868   1.529   1.877   5.406
  637SOL    MW4 2869   1.509   1.857   5.324
  638SOL     OW 2870   0.639   0.206   5.020
  638SOL    HW2 2871   0.570   0.269   5.041
  638SOL    HW3 2872   0.666   0.170   5.105
  638SOL    MW4 2873   0.633   0.209   5.033
  639SOL     OW 2874   0.022   1.047   3.889
  639SOL    HW2 2875  -0.009   1.112   3.952
  639SOL    HW3 2876  -0.029   0.969   3.908
  639SOL    MW4 2877   0.012   1.044   3.899
  640SOL     OW 2878   1.434   0.059   4.637
  640SOL    HW2 2879   1.522   0.068   4.674
  640SOL    HW3 2880   1.444   0.000   4.563
  640SOL    MW4 2881   1.448   0.053   4.631
  641SOL     OW 2882   1.466   0.798   4.481
  641SOL    HW2 2883   1.546   0.813   4.430
  641SOL    HW3 2884   1.459   0.703   4.487
  641SOL    MW4 2885   1.475   0.787   4.476
  642SOL     OW 2886   0.606   1.847   3.831
  642SOL    HW2 2887   0.511   1.847   3.823
  642SOL    HW3 2888   0.622   1.793   3.909
  642SOL    MW4 2889   0.596   1.841   3.840
  643SOL     OW 2890   0.916   0.724   5.178
  643SOL    HW2 2891   0.985   0.791   5.175
  643SOL    HW3 2892   0.849   0.762   5.234
  643SOL    MW4 2893   0.917   0.737   5.185
  644SOL     OW 2894   0.334   1.024   5.426
  644SOL    HW2 2895   0.288   0.940   5.428
  644SOL    HW3 2896   0.391   1.018   5.350
  644SOL    MW4 2897   0.336   1.012   5.418
  645SOL     OW 2898   1.451   0.667   3.747
  645SOL    HW2 2899   1.379   0.643   3.689
  645SOL    HW3 2900   1.517   0.704   3.689
  645SOL    MW4 2901   1.450   0.669   3.732
  646SOL     OW 2902   0.585   1.399   4.427
  646SOL    HW2 2903   0.650   1.332   4.448
  646SOL    HW3 2904   0.637   1.476   4.404
  646SOL    MW4 2905   0.600   1.401   4.426
  647SOL     OW 2906   0.846   0.564   4.557
  647SOL    HW2 2907   0.786   0.582   4.629
  647SOL    HW3 2908   0.880   0.476   4.576
  647SOL    MW4 2909   0.842   0.554   4.570
  648SOL     OW 2910   1.787   0.063   5.226
  648SOL    HW2 2911   1.708   0.109   5.254
  648SOL    HW3 2912   1.822   0.117   5.155
  648SOL    MW4 2913   1.781   0.076   5.220
  649SOL     OW 2914   1.071   1.147   4.576
  649SOL    HW2 2915   1.163   1.128   4.594
  649SOL    HW3 2916   1.044   1.077   4.516
  649SOL    MW4 2917   1.079   1.135   4.570
  650SOL     OW 2918   0.864   0.967   3.931
  650SOL    HW2 2919   0.850   0.879   3.896
  650SOL    HW3 2920   0.815   1.024   3.872
  650SOL    MW4 2921   0.856   0.962   3.919
  651SOL     OW 2922   1.345   1.385   4.672
  651SOL    HW2 2923   1.318   1.469   4.637
  651SOL    HW3 2924   1.305   1.380   4.759
  651SOL    MW4 2925   1.338   1.394   4.678
  652SOL     OW 2926   1.264   1.333   4.940
  652SOL    HW2 2927   1.275   1.300   5.029
  652SOL    HW3 2928   1.183   1.292   4.909
  652SOL    MW4 2929   1.254   1.325   4.946
  653SOL     OW 2930   0.277   0.691   4.710
  653SOL    HW2 2931   0.227   0.690   4.791
  653SOL    HW3 2932   0.297   0.783   4.694
  653SOL    MW4 2933   0.273   0.703   4.718
  654SOL     OW 2934   1.344   1.455   5.472
  654SOL    HW2 2935   1.344   1.549   5.488
  654SOL    HW3 2936   1.389   1.445   5.388
  654SOL    MW4 2937   1.350   1.465   5.463
  655SOL     OW 2938   1.583   0.173   4.033
  655SOL    HW2 2939   1.576   0.177   4.128
  655SOL    HW3 2940   1.595   0.264   4.006
  655SOL    MW4 2941   1.584   0.186   4.041
  656SOL     OW 2942   0.872   0.736   4.147
  656SOL    HW2 2943   0.852   0.722   4.054
  656SOL    HW3 2944   0.965   0.715   4.154
  656SOL    MW4 2945   0.882   0.731   4.136
  657SOL     OW 2946   0.199   0.359   5.451
  657SOL    HW2 2947   0.156   0.418   5.388
  657SOL    HW3 2948   0.267   0.414   5.491
  657SOL    MW4 2949   0.203   0.374   5.448
  658SOL     OW 2950   1.311   0.979   4.996
  658SOL    HW2 2951   1.374   0.976   5.069
  658SOL    HW3 2952   1.227   0.997   5.038
  658SOL    MW4 2953   1.307   0.981   5.011
  659SOL     OW 2954   0.855   1.694   4.185
  659SOL    HW2 2955   0.913   1.765   4.212
  659SOL    HW3 2956   0.878   1.622   4.243
  659SOL    MW4 2957   0.866   1.694   4.196
  660SOL     OW 2958   1.650   0.156   4.775
  660SOL    HW2 2959   1.695   0.074   4.794
  660SOL    HW3 2960   1.670   0.212   4.851
  660SOL    MW4 2961   1.660   0.152   4.787
  661SOL     OW 2962   0.098  -0.001   4.874
  661SOL    HW2 2963   0.089   0.000   4.779
  661SOL    HW3 2964   0.192   0.011   4.889
  661SOL    MW4 2965   0.110   0.002   4.865
  662SOL     OW 2966   1.735   1.192   4.494
  662SOL    HW2 2967   1.714   1.138   4.417
  662SOL    HW3 2968   1.831   1.190   4.498
  662SOL    MW4 2969   1.744   1.185   4.483
  663SOL     OW 2970   0.427   1.337   5.237
  663SOL    HW2 2971   0.348   1.287   5.260
  663SOL    HW3 2972   0.497   1.296   5.287
  663SOL    MW4 2973   0.425   1.325   5.247
  664SOL     OW 2974   0.311   0.126   3.920
  664SOL    HW2 2975   0.240   0.181   3.888
  664SOL    HW3 2976   0.353   0.092   3.841
  664SOL    MW4 2977   0.307   0.128   3.906
  665SOL     OW 2978   1.435   0.623   4.756
  665SOL    HW2 2979   1.358   0.669   4.722
  665SOL    HW3 2980   1.492   0.692   4.790
  665SOL    MW4 2981   1.432   0.638   4.756
  666SOL     OW 2982   0.067   0.225   3.769
  666SOL    HW2 2983   0.034   0.304   3.813
  666SOL    HW3 2984   0.122   0.258   3.698
  666SOL    MW4 2985   0.070   0.239   3.766
  667SOL     OW 2986   0.101   1.482   3.958
  667SOL    HW2 2987   0.118   1.566   4.000
  667SOL    HW3 2988   0.136   1.491   3.870
  667SOL    MW4 2989   0.106   1.495   3.952
  668SOL     OW 2990   1.373   1.571   4.175
  668SOL    HW2 2991   1.436   1.561   4.104
  668SOL    HW3 2992   1.290   1.591   4.130
  668SOL    MW4 2993   1.370   1.572   4.160
  669SOL     OW 2994   1.736   0.839   5.862
  669SOL    HW2 2995   1.777   0.781   5.927
  669SOL    HW3 2996   1.643   0.831   5.879
  669SOL    MW4 2997   1.730   0.831   5.872
  670SOL     OW 2998   1.602   0.771   6.857
  670SOL    HW2 2999   1.557   0.838   6.908
  670SOL    HW3 3000   1.690   0.807   6.843
  670SOL    MW4 3001   1.608   0.784   6.861
  671SOL     OW 3002   0.530   1.022   6.091
  671SOL    HW2 3003   0.620   0.997   6.075
  671SOL    HW3 3004   0.526   1.115   6.068
  671SOL    MW4 3005   0.542   1.031   6.086
  672SOL     OW 3006   1.646   1.725   6.233
  672SOL    HW2 3007   1.658   1.671   6.311
  672SOL    HW3 3008   1.683   1.673   6.162
  672SOL    MW4 3009   1.652   1.710   6.234
  673SOL     OW 3010   1.025   1.610   7.234
  673SOL    HW2 3011   1.066   1.646   7.155
  673SOL    HW3 3012   1.060   1.521   7.241
  673SOL    MW4 3013   1.036   1.603   7.225
  674SOL     OW 3014   1.582   1.165   6.838
  674SOL    HW2 3015   1.503   1.130   6.796
  674SOL    HW3 3016   1.609   1.237   6.782
  674SOL    MW4 3017   1.575   1.170   6.825
  675SOL     OW 3018   0.814   0.478   6.104
  675SOL    HW2 3019   0.789   0.566   6.132
  675SOL    HW3 3020   0.811   0.481   6.008
  675SOL    MW4 3021   0.810   0.490   6.096
  676SOL     OW 3022   0.256   0.506   6.032
  676SOL    HW2 3023   0.288   0.594   6.014
  676SOL    HW3 3024   0.244   0.504   6.127
  676SOL    MW4 3025   0.259   0.518   6.044
  677SOL     OW 3026   0.334   0.919   6.933
  677SOL    HW2 3027   0.397   0.866   6.884
  677SOL    HW3 3028   0.315   0.993   6.876
  677SOL    MW4 3029   0.340   0.921   6.920
  678SOL     OW 3030   0.655   0.261   6.119
  678SOL    HW2 3031   0.713   0.337   6.121
  678SOL    HW3 3032   0.590   0.282   6.052
  678SOL    MW4 3033   0.654   0.273   6.110
  679SOL     OW 3034   0.742   1.188   6.294
  679SOL    HW2 3035   0.822   1.191   6.346
  679SOL    HW3 3036   0.770   1.155   6.208
  679SOL    MW4 3037   0.756   1.184   6.289
  680SOL     OW 3038   0.767   1.529   7.197
  680SOL    HW2 3039   0.851   1.555   7.236
  680SOL    HW3 3040   0.791   1.473   7.123
  680SOL    MW4 3041   0.781   1.525   7.192
  681SOL     OW 3042   0.519   0.692   6.285
  681SOL    HW2 3043   0.504   0.612   6.336
  681SOL    HW3 3044   0.601   0.727   6.319
  681SOL    MW4 3045   0.527   0.684   6.297
  682SOL     OW 3046   0.856   1.378   6.970
  682SOL    HW2 3047   0.820   1.444   6.910
  682SOL    HW3 3048   0.784   1.316   6.983
  682SOL    MW4 3049   0.842   1.378   6.964
  683SOL     OW 3050   0.661   0.518   6.662
  683SOL    HW2 3051   0.567   0.514   6.680
  683SOL    HW3 3052   0.691   0.427   6.671
  683SOL    MW4 3053   0.652   0.506   6.665
  684SOL     OW 3054   0.407   0.932   6.566
  684SOL    HW2 3055   0.362   0.939   6.482
  684SOL    HW3 3056   0.387   1.015   6.610
  684SOL    MW4 3057   0.399   0.944   6.560
  685SOL     OW 3058   0.104   1.778   6.441
  685SOL    HW2 3059   0.193   1.770   6.476
  685SOL    HW3 3060   0.068   1.690   6.446
  685SOL    MW4 3061   0.111   1.765   6.446
  686SOL     OW 3062   1.369   1.170   5.810
  686SOL    HW2 3063   1.287   1.206   5.776
  686SOL    HW3 3064   1.437   1.213   5.759
  686SOL    MW4 3065   1.367   1.180   5.798
  687SOL     OW 3066   0.368   1.305   6.476
  687SOL    HW2 3067   0.344   1.358   6.552
  687SOL    HW3 3068   0.424   1.363   6.424
  687SOL    MW4 3069   0.372   1.320   6.479
  688SOL     OW 3070   0.930   0.949   6.286
  688SOL    HW2 3071   0.844   0.936   6.326
  688SOL    HW3 3072   0.983   0.876   6.318
  688SOL    MW4 3073   0.926   0.938   6.295
  689SOL     OW 3074   0.338   1.601   7.071
  689SOL    HW2 3075   0.246   1.577   7.056
  689SOL    HW3 3076   0.382   1.518   7.088
  689SOL    MW4 3077   0.332   1.586   7.070
  690SOL     OW 3078   0.921   1.311   6.003
  690SOL    HW2 3079   0.898   1.373   6.071
  690SOL    HW3 3080   0.878   1.229   6.029
  690SOL    MW4 3081   0.913   1.307   6.014
  691SOL     OW 3082   1.794   0.312   6.459
  691SOL    HW2 3083   1.731   0.292   6.528
  691SOL    HW3 3084   1.784   0.241   6.396
  691SOL    MW4 3085   1.784   0.299   6.460
  692SOL     OW 3086   0.418   0.284   5.971
  692SOL    HW2 3087   0.392   0.246   5.887
  692SOL    HW3 3088   0.355   0.354   5.987
  692SOL    MW4 3089   0.407   0.287   5.962
  693SOL     OW 3090   0.253   1.245   6.008
  693SOL    HW2 3091   0.201   1.313   5.964
  693SOL    HW3 3092   0.250   1.171   5.948
  693SOL    MW4 3093   0.245   1.244   5.995
  694SOL     OW 3094   0.915   1.708   5.786
  694SOL    HW2 3095   0.870   1.724   5.869
  694SOL    HW3 3096   0.846   1.673   5.728
  694SOL    MW4 3097   0.901   1.705   5.788
  695SOL     OW 3098   1.595   1.084   6.111
  695SOL    HW2 3099   1.505   1.084   6.146
  695SOL    HW3 3100   1.588   1.130   6.028
  695SOL    MW4 3101   1.582   1.090   6.105
  696SOL     OW 3102   1.395   0.719   7.183
  696SOL    HW2 3103   1.464   0.657   7.160
  696SOL    HW3 3104   1.320   0.693   7.130
  696SOL    MW4 3105   1.395   0.706   7.174
  697SOL     OW 3106   0.136   1.599   6.735
  697SOL    HW2 3107   0.119   1.545   6.812
  697SOL    HW3 3108   0.124   1.689   6.765
  697SOL    MW4 3109   0.133   1.603   6.749
  698SOL     OW 3110   1.131   1.106   7.175
  698SOL    HW2 3111   1.116   1.199   7.160
  698SOL    HW3 3112   1.226   1.096   7.175
  698SOL    MW4 3113   1.140   1.116   7.172
  699SOL     OW 3114   0.927   0.530   7.376
  699SOL    HW2 3115   1.017   0.531   7.343
  699SOL    HW3 3116   0.886   0.455   7.334
  699SOL    MW4 3117   0.933   0.520   7.367
  700SOL     OW 3118   1.502   1.062   6.503
  700SOL    HW2 3119   1.505   0.996   6.434
  700SOL    HW3 3120   1.587   1.105   6.499
  700SOL    MW4 3121   1.514   1.058   6.494
  701SOL     OW 3122   1.122   0.665   6.072
  701SOL    HW2 3123   1.148   0.689   5.983
  701SOL    HW3 3124   1.104   0.572   6.068
  701SOL    MW4 3125   1.124   0.657   6.059
  702SOL     OW 3126   1.787   1.285   5.923
  702SOL    HW2 3127   1.743   1.326   5.998
  702SOL    HW3 3128   1.844   1.353   5.888
  702SOL    MW4 3129   1.789   1.299   5.928
  703SOL     OW 3130   0.707   0.334   7.326
  703SOL    HW2 3131   0.717   0.260   7.266
  703SOL    HW3 3132   0.743   0.303   7.409
  703SOL    MW4 3133   0.713   0.320   7.328
  704SOL     OW 3134   0.443   1.701   6.241
  704SOL    HW2 3135   0.475   1.789   6.219
  704SOL    HW3 3136   0.396   1.673   6.163
  704SOL    MW4 3137   0.442   1.709   6.228
  705SOL     OW 3138   1.827   0.063   6.290
  705SOL    HW2 3139   1.881   0.014   6.352
  705SOL    HW3 3140   1.770  -0.003   6.251
  705SOL    MW4 3141   1.827   0.047   6.292
  706SOL     OW 3142   0.159   1.761   5.818
  706SOL    HW2 3143   0.188   1.851   5.810
  706SOL    HW3 3144   0.109   1.744   5.739
  706SOL    MW4 3145   0.157   1.769   5.807
  707SOL     OW 3146   0.946   0.016   6.703
  707SOL    HW2 3147   0.905   0.094   6.665
  707SOL    HW3 3148   1.040   0.034   6.698
  707SOL    MW4 3149   0.952   0.028   6.698
  708SOL     OW 3150   1.563   1.569   5.789
  708SOL    HW2 3151   1.611   1.638   5.835
  708SOL    HW3 3152   1.484   1.613   5.758
  708SOL    MW4 3153   1.558   1.583   5.792
  709SOL     OW 3154   0.961   0.694   5.733
  709SOL    HW2 3155   0.963   0.641   5.654
  709SOL    HW3 3156   1.049   0.731   5.739
  709SOL    MW4 3157   0.973   0.693   5.722
  710SOL     OW 3158   1.575   0.620   6.069
  710SOL    HW2 3159   1.614   0.620   6.156
  710SOL    HW3 3160   1.516   0.696   6.069
  710SOL    MW4 3161   1.572   0.631   6.080
  711SOL     OW 3162   0.892   0.987   7.198
  711SOL    HW2 3163   0.869   0.967   7.288
  711SOL    HW3 3164   0.977   1.031   7.203
  711SOL    MW4 3165   0.899   0.990   7.210
  712SOL     OW 3166   0.972   0.124   6.958
  712SOL    HW2 3167   0.978   0.086   6.871
  712SOL    HW3 3168   0.961   0.218   6.943
  712SOL    MW4 3169   0.973   0.132   6.946
  713SOL     OW 3170   1.061   0.613   6.792
  713SOL    HW2 3171   1.136   0.642   6.739
  713SOL    HW3 3172   0.993   0.678   6.776
  713SOL    MW4 3173   1.062   0.625   6.782
  714SOL     OW 3174   1.611   0.581   7.069
  714SOL    HW2 3175   1.592   0.490   7.048
  714SOL    HW3 3176   1.589   0.630   6.990
  714SOL    MW4 3177   1.606   0.574   7.056
  715SOL     OW 3178   1.753   1.675   6.973
  715SOL    HW2 3179   1.681   1.637   7.024
  715SOL    HW3 3180   1.770   1.760   7.014
  715SOL    MW4 3181   1.747   1.680   6.985
  716SOL     OW 3182   1.058   0.319   7.175
  716SOL    HW2 3183   1.024   0.358   7.094
  716SOL    HW3 3184   1.036   0.227   7.168
  716SOL    MW4 3185   1.051   0.312   7.165
  717SOL     OW 3186   1.467   1.133   7.251
  717SOL    HW2 3187   1.549   1.174   7.281
  717SOL    HW3 3188   1.430   1.095   7.331
  717SOL    MW4 3189   1.473   1.134   7.266
  718SOL     OW 3190   1.762   0.506   6.235
  718SOL    HW2 3191   1.851   0.475   6.252
  718SOL    HW3 3192   1.705   0.446   6.283
  718SOL    MW4 3193   1.765   0.494   6.244
  719SOL     OW 3194   0.188   0.220   6.264
  719SOL    HW2 3195   0.179   0.160   6.190
  719SOL    HW3 3196   0.121   0.191   6.327
  719SOL    MW4 3197   0.178   0.207   6.262
  720SOL     OW 3198   1.131   1.313   5.825
  720SOL    HW2 3199   1.081   1.315   5.907
  720SOL    HW3 3200   1.065   1.331   5.757
  720SOL    MW4 3201   1.117   1.315   5.827
  721SOL     OW 3202   0.135   0.393   6.627
  721SOL    HW2 3203   0.107   0.484   6.636
  721SOL    HW3 3204   0.072   0.354   6.566
  721SOL    MW4 3205   0.122   0.399   6.621
  722SOL     OW 3206   0.594   1.731   5.933
  722SOL    HW2 3207   0.515   1.689   5.966
  722SOL    HW3 3208   0.660   1.714   6.000
  722SOL    MW4 3209   0.593   1.723   5.946
  723SOL     OW 3210   1.722   1.251   7.330
  723SOL    HW2 3211   1.772   1.177   7.362
  723SOL    HW3 3212   1.668   1.278   7.405
  723SOL    MW4 3213   1.722   1.245   7.343
  724SOL     OW 3214   0.730   1.146   5.640
  724SOL    HW2 3215   0.652   1.092   5.627
  724SOL    HW3 3216   0.701   1.219   5.693
  724SOL    MW4 3217   0.716   1.148   5.645
  725SOL     OW 3218   1.856   0.886   6.832
  725SOL    HW2 3219   1.872   0.924   6.745
  725SOL    HW3 3220   1.890   0.952   6.893
  725SOL    MW4 3221   1.863   0.899   6.828
  726SOL     OW 3222   1.648   1.595   6.501
  726SOL    HW2 3223   1.677   1.662   6.562
  726SOL    HW3 3224   1.629   1.519   6.556
  726SOL    MW4 3225   1.650   1.595   6.516
  727SOL     OW 3226   1.311   1.662   5.708
  727SOL    HW2 3227   1.237   1.625   5.758
  727SOL    HW3 3228   1.319   1.752   5.741
  727SOL    MW4 3229   1.302   1.669   5.720
  728SOL     OW 3230   0.119   0.668   6.797
  728SOL    HW2 3231   0.181   0.698   6.863
  728SOL    HW3 3232   0.053   0.737   6.791
  728SOL    MW4 3233   0.118   0.681   6.804
  729SOL     OW 3234   1.535   1.336   5.650
  729SOL    HW2 3235   1.482   1.385   5.586
  729SOL    HW3 3236   1.566   1.402   5.711
  729SOL    MW4 3237   1.533   1.350   5.648
  730SOL     OW 3238   0.760   0.225   5.705
  730SOL    HW2 3239   0.708   0.145   5.693
  730SOL    HW3 3240   0.847   0.202   5.673
  730SOL    MW4 3241   0.763   0.211   5.699
  731SOL     OW 3242   0.214   1.777   7.249
  731SOL    HW2 3243   0.188   1.845   7.187
  731SOL    HW3 3244   0.262   1.714   7.197
  731SOL    MW4 3245   0.216   1.777   7.235
  732SOL     OW 3246   0.266   1.096   6.756
  732SOL    HW2 3247   0.319   1.171   6.781
  732SOL    HW3 3248   0.185   1.134   6.722
  732SOL    MW4 3249   0.262   1.111   6.756
  733SOL     OW 3250   0.806   1.000   6.744
  733SOL    HW2 3251   0.834   0.909   6.756
  733SOL    HW3 3252   0.735   0.994   6.680
  733SOL    MW4 3253   0.799   0.988   6.739
  734SOL     OW 3254   0.121   0.865   6.162
  734SOL    HW2 3255   0.212   0.880   6.189
  734SOL    HW3 3256   0.124   0.786   6.108
  734SOL    MW4 3257   0.133   0.857   6.160
  735SOL     OW 3258   0.357   0.573   7.416
  735SOL    HW2 3259   0.304   0.653   7.423
  735SOL    HW3 3260   0.427   0.585   7.481
  735SOL    MW4 3261   0.359   0.586   7.424
  736SOL     OW 3262   0.743   0.123   7.123
  736SOL    HW2 3263   0.720   0.031   7.125
  736SOL    HW3 3264   0.829   0.125   7.080
  736SOL    MW4 3265   0.750   0.113   7.119
  737SOL     OW 3266   0.427   0.647   7.162
  737SOL    HW2 3267   0.507   0.697   7.148
  737SOL    HW3 3268   0.418   0.641   7.257
  737SOL    MW4 3269   0.436   0.653   7.172
  738SOL     OW 3270   0.748   1.797   6.536
  738SOL    HW2 3271   0.837   1.812   6.566
  738SOL    HW3 3272   0.743   1.844   6.452
  738SOL    MW4 3273   0.758   1.805   6.529
  739SOL     OW 3274   1.404   0.172   7.433
  739SOL    HW2 3275   1.460   0.099   7.459
  739SOL    HW3 3276   1.374   0.210   7.515
  739SOL    MW4 3277   1.408   0.167   7.446
  740SOL     OW 3278   0.129   1.477   6.201
  740SOL    HW2 3279   0.101   1.516   6.283
  740SOL    HW3 3280   0.149   1.386   6.223
  740SOL    MW4 3281   0.127   1.469   6.214
  741SOL     OW 3282   0.962   1.520   6.236
  741SOL    HW2 3283   1.045   1.474   6.220
  741SOL    HW3 3284   0.952   1.519   6.332
  741SOL    MW4 3285   0.972   1.513   6.246
  742SOL     OW 3286   1.794   0.665   6.550
  742SOL    HW2 3287   1.883   0.695   6.532
  742SOL    HW3 3288   1.774   0.605   6.479
  742SOL    MW4 3289   1.803   0.662   6.539
  743SOL     OW 3290   1.645   0.844   7.430
  743SOL    HW2 3291   1.700   0.768   7.411
  743SOL    HW3 3292   1.647   0.852   7.525
  743SOL    MW4 3293   1.653   0.835   7.438
  744SOL     OW 3294   0.695   1.577   5.641
  744SOL    HW2 3295   0.635   1.646   5.611
  744SOL    HW3 3296   0.640   1.519   5.694
  744SOL    MW4 3297   0.679   1.579   5.643
  745SOL     OW 3298   1.133   0.222   5.864
  745SOL    HW2 3299   1.066   0.198   5.801
  745SOL    HW3 3300   1.198   0.271   5.813
  745SOL    MW4 3301   1.133   0.224   5.849
  746SOL     OW 3302   0.940   0.406   6.949
  746SOL    HW2 3303   0.859   0.447   6.977
  746SOL    HW3 3304   0.987   0.474   6.901
  746SOL    MW4 3305   0.935   0.421   6.947
  747SOL     OW 3306   1.200   0.744   6.572
  747SOL    HW2 3307   1.213   0.838   6.582
  747SOL    HW3 3308   1.161   0.734   6.486
  747SOL    MW4 3309   1.196   0.755   6.562
  748SOL     OW 3310   0.652   0.939   6.376
  748SOL    HW2 3311   0.563   0.930   6.409
  748SOL    HW3 3312   0.656   1.029   6.344
  748SOL    MW4 3313   0.641   0.950   6.376
  749SOL     OW 3314   1.451   0.522   6.371
  749SOL    HW2 3315   1.396   0.443   6.370
  749SOL    HW3 3316   1.433   0.563   6.455
  749SOL    MW4 3317   1.441   0.517   6.380
  750SOL     OW 3318   0.422   0.209   7.188
  750SOL    HW2 3319   0.343   0.227   7.240
  750SOL    HW3 3320   0.417   0.271   7.115
  750SOL    MW4 3321   0.412   0.219   7.185
  751SOL     OW 3322   1.070   0.726   6.328
  751SOL    HW2 3323   1.007   0.658   6.352
  751SOL    HW3 3324   1.090   0.707   6.236
  751SOL    MW4 3325   1.064   0.713   6.320
  752SOL     OW 3326   0.326   1.621   6.030
  752SOL    HW2 3327   0.287   1.668   5.956
  752SOL    HW3 3328   0.260   1.556   6.055
  752SOL    MW4 3329   0.313   1.619   6.024
  753SOL     OW 3330   0.818   1.030   6.054
  753SOL    HW2 3331   0.820   1.004   5.961
  753SOL    HW3 3332   0.876   0.967   6.097
  753SOL    MW4 3333   0.826   1.019   6.048
  754SOL     OW 3334   1.371   1.590   6.826
  754SOL    HW2 3335   1.296   1.636   6.864
  754SOL    HW3 3336   1.353   1.497   6.843
  754SOL    MW4 3337   1.360   1.584   6.834
  755SOL     OW 3338   1.375   1.798   6.256
  755SOL    HW2 3339   1.318   1.751   6.195
  755SOL    HW3 3340   1.461   1.759   6.243
  755SOL    MW4 3341   1.378   1.789   6.246
  756SOL     OW 3342   1.328   0.274   6.387
  756SOL    HW2 3343   1.356   0.206   6.448
  756SOL    HW3 3344   1.242   0.245   6.357
  756SOL    MW4 3345   1.321   0.261   6.391
  757SOL     OW 3346   0.133   1.208   6.321
  757SOL    HW2 3347   0.197   1.240   6.384
  757SOL    HW3 3348   0.182   1.144   6.269
  757SOL    MW4 3349   0.148   1.204   6.322
  758SOL     OW 3350   0.633   1.284   7.303
  758SOL    HW2 3351   0.681   1.367   7.290
  758SOL    HW3 3352   0.690   1.232   7.359
  758SOL    MW4 3353   0.647   1.288   7.309
  759SOL     OW 3354   0.209   1.526   7.443
  759SOL    HW2 3355   0.265   1.450   7.458
  759SOL    HW3 3356   0.158   1.504   7.365
  759SOL    MW4 3357   0.209   1.513   7.434
  760SOL     OW 3358   1.308   0.378   5.722
  760SOL    HW2 3359   1.281   0.444   5.658
  760SOL    HW3 3360   1.378   0.421   5.772
  760SOL    MW4 3361   1.313   0.391   5.719
  761SOL     OW 3362   0.976   0.083   5.659
  761SOL    HW2 3363   1.032   0.075   5.581
  761SOL    HW3 3364   0.953  -0.007   5.681
  761SOL    MW4 3365   0.981   0.070   5.652
  762SOL     OW 3366   1.481   0.934   5.864
  762SOL    HW2 3367   1.448   1.023   5.854
  762SOL    HW3 3368   1.446   0.905   5.949
  762SOL    MW4 3369   1.471   0.943   5.875
  763SOL     OW 3370   1.094   1.363   7.052
  763SOL    HW2 3371   1.005   1.369   7.020
  763SOL    HW3 3372   1.138   1.442   7.020
  763SOL    MW4 3373   1.089   1.373   7.044
  764SOL     OW 3374   0.387   0.031   7.394
  764SOL    HW2 3375   0.315  -0.004   7.342
  764SOL    HW3 3376   0.445   0.072   7.329
  764SOL    MW4 3377   0.385   0.032   7.379
  765SOL     OW 3378   0.411   1.521   6.693
  765SOL    HW2 3379   0.456   1.583   6.750
  765SOL    HW3 3380   0.318   1.540   6.706
  765SOL    MW4 3381   0.404   1.531   6.700
  766SOL     OW 3382   1.851   1.050   7.047
  766SOL    HW2 3383   1.766   1.063   7.006
  766SOL    HW3 3384   1.831   1.014   7.134
  766SOL    MW4 3385   1.838   1.046   7.052
  767SOL     OW 3386   0.833   1.589   6.801
  767SOL    HW2 3387   0.857   1.578   6.710
  767SOL    HW3 3388   0.756   1.646   6.799
  767SOL    MW4 3389   0.825   1.594   6.790
  768SOL     OW 3390   0.475   0.972   5.656
  768SOL    HW2 3391   0.398   0.985   5.712
  768SOL    HW3 3392   0.439   0.936   5.575
  768SOL    MW4 3393   0.461   0.968   5.653
  769SOL     OW 3394   1.128   0.945   5.899
  769SOL    HW2 3395   1.038   0.966   5.874
  769SOL    HW3 3396   1.155   1.018   5.955
  769SOL    MW4 3397   1.120   0.957   5.902
  770SOL     OW 3398   0.628   1.294   6.591
  770SOL    HW2 3399   0.621   1.273   6.685
  770SOL    HW3 3400   0.546   1.262   6.554
  770SOL    MW4 3401   0.616   1.288   6.598
  771SOL     OW 3402   1.492   0.304   6.993
  771SOL    HW2 3403   1.439   0.306   7.073
  771SOL    HW3 3404   1.477   0.217   6.956
  771SOL    MW4 3405   1.484   0.294   6.998
  772SOL     OW 3406   1.828   0.228   6.866
  772SOL    HW2 3407   1.809   0.295   6.801
  772SOL    HW3 3408   1.885   0.166   6.821
  772SOL    MW4 3409   1.832   0.229   6.852
  773SOL     OW 3410   0.074   1.386   7.254
  773SOL    HW2 3411   0.118   1.319   7.200
  773SOL    HW3 3412  -0.011   1.348   7.274
  773SOL    MW4 3413   0.069   1.372   7.250
  774SOL     OW 3414   0.757   0.061   6.306
  774SOL    HW2 3415   0.686   0.122   6.288
  774SOL    HW3 3416   0.808   0.058   6.225
  774SOL    MW4 3417   0.753   0.067   6.293
  775SOL     OW 3418   0.515   1.301   6.055
  775SOL    HW2 3419   0.508   1.333   6.145
  775SOL    HW3 3420   0.425   1.285   6.027
  775SOL    MW4 3421   0.503   1.303   6.062
  776SOL     OW 3422   1.110   1.694   6.964
  776SOL    HW2 3423   1.030   1.679   6.914
  776SOL    HW3 3424   1.117   1.789   6.971
  776SOL    MW4 3425   1.101   1.705   6.958
  777SOL     OW 3426   1.224   1.659   6.454
  777SOL    HW2 3427   1.271   1.732   6.413
  777SOL    HW3 3428   1.145   1.698   6.490
  777SOL    MW4 3429   1.219   1.674   6.453
  778SOL     OW 3430   1.632   1.754   6.729
  778SOL    HW2 3431   1.675   1.724   6.809
  778SOL    HW3 3432   1.551   1.702   6.726
  778SOL    MW4 3433   1.627   1.743   6.739
  779SOL     OW 3434   0.717   0.718   7.436
  779SOL    HW2 3435   0.787   0.660   7.408
  779SOL    HW3 3436   0.660   0.663   7.491
  779SOL    MW4 3437   0.719   0.705   7.440
  780SOL     OW 3438   1.504   0.930   7.069
  780SOL    HW2 3439   1.509   0.983   7.149
  780SOL    HW3 3440   1.466   0.847   7.097
  780SOL    MW4 3441   1.500   0.925   7.084
  781SOL     OW 3442   0.518   0.585   5.769
  781SOL    HW2 3443   0.484   0.641   5.839
  781SOL    HW3 3444   0.589   0.535   5.809
  781SOL    MW4 3445   0.524   0.586   5.783
  782SOL     OW 3446   1.614   1.336   6.591
  782SOL    HW2 3447   1.649   1.318   6.504
  782SOL    HW3 3448   1.519   1.337   6.578
  782SOL    MW4 3449   1.606   1.333   6.578
  783SOL     OW 3450   1.043   0.984   6.960
  783SOL    HW2 3451   1.086   1.019   7.038
  783SOL    HW3 3452   1.026   1.061   6.906
  783SOL    MW4 3453   1.046   0.999   6.963
  784SOL     OW 3454   1.574   0.471   5.833
  784SOL    HW2 3455   1.566   0.542   5.770
  784SOL    HW3 3456   1.592   0.515   5.916
  784SOL    MW4 3457   1.575   0.485   5.835
  785SOL     OW 3458   0.434   0.126   6.262
  785SOL    HW2 3459   0.484   0.169   6.193
  785SOL    HW3 3460   0.349   0.170   6.262
  785SOL    MW4 3461   0.431   0.139   6.253
  786SOL     OW 3462   0.193   1.188   7.122
  786SOL    HW2 3463   0.221   1.141   7.200
  786SOL    HW3 3464   0.114   1.143   7.093
  786SOL    MW4 3465   0.186   1.177   7.128
  787SOL     OW 3466   0.701   0.515   7.089
  787SOL    HW2 3467   0.673   0.603   7.113
  787SOL    HW3 3468   0.670   0.459   7.160
  787SOL    MW4 3469   0.693   0.518   7.101
  788SOL     OW 3470   1.243   0.733   5.808
  788SOL    HW2 3471   1.290   0.751   5.727
  788SOL    HW3 3472   1.209   0.817   5.836
  788SOL    MW4 3473   1.245   0.747   5.801
  789SOL     OW 3474   0.356   0.911   6.302
  789SOL    HW2 3475   0.414   0.967   6.250
  789SOL    HW3 3476   0.400   0.826   6.304
  789SOL    MW4 3477   0.369   0.908   6.295
  790SOL     OW 3478   1.496   0.263   6.139
  790SOL    HW2 3479   1.418   0.213   6.164
  790SOL    HW3 3480   1.467   0.354   6.139
  790SOL    MW4 3481   1.482   0.267   6.142
  791SOL     OW 3482   1.082   0.225   6.298
  791SOL    HW2 3483   1.102   0.300   6.242
  791SOL    HW3 3484   1.062   0.264   6.383
  791SOL    MW4 3485   1.083   0.241   6.302
  792SOL     OW 3486   0.978   1.475   5.630
  792SOL    HW2 3487   1.005   1.553   5.582
  792SOL    HW3 3488   0.885   1.490   5.649
  792SOL    MW4 3489   0.969   1.488   5.626
  793SOL     OW 3490   1.842   0.998   7.317
  793SOL    HW2 3491   1.755   0.978   7.353
  793SOL    HW3 3492   1.896   0.924   7.342
  793SOL    MW4 3493   1.837   0.987   7.325
  794SOL     OW 3494   0.063   1.511   6.474
  794SOL    HW2 3495   0.095   1.515   6.565
  794SOL    HW3 3496  -0.032   1.519   6.482
  794SOL    MW4 3497   0.055   1.514   6.487
  795SOL     OW 3498   0.018   0.637   6.021
  795SOL    HW2 3499  -0.042   0.609   6.091
  795SOL    HW3 3500   0.092   0.577   6.027
  795SOL    MW4 3501   0.020   0.626   6.030
  796SOL     OW 3502   1.586   1.849   7.455
  796SOL    HW2 3503   1.631   1.773   7.420
  796SOL    HW3 3504   1.624   1.862   7.542
  796SOL    MW4 3505   1.596   1.842   7.461
  797SOL     OW 3506   1.186   1.368   6.181
  797SOL    HW2 3507   1.209   1.319   6.259
  797SOL    HW3 3508   1.267   1.410   6.153
  797SOL    MW4 3509   1.199   1.368   6.188
  798SOL     OW 3510   0.444   0.376   6.910
  798SOL    HW2 3511   0.477   0.457   6.950
  798SOL    HW3 3512   0.417   0.402   6.822
  798SOL    MW4 3513   0.443   0.390   6.904
  799SOL     OW 3514   0.398   0.343   6.646
  799SOL    HW2 3515   0.428   0.257   6.617
  799SOL    HW3 3516   0.303   0.336   6.649
  799SOL    MW4 3517   0.390   0.332   6.644
  800SOL     OW 3518   1.227   0.552   7.337
  800SOL    HW2 3519   1.279   0.487   7.290
  800SOL    HW3 3520   1.185   0.603   7.267
  800SOL    MW4 3521   1.228   0.549   7.320
  801SOL     OW 3522   1.326   0.347   7.198
  801SOL    HW2 3523   1.233   0.331   7.185
  801SOL    HW3 3524   1.352   0.285   7.266
  801SOL    MW4 3525   1.316   0.337   7.205
  802SOL     OW 3526   0.541   0.121   6.537
  802SOL    HW2 3527   0.551   0.030   6.563
  802SOL    HW3 3528   0.497   0.117   6.452
  802SOL    MW4 3529   0.537   0.109   6.529
  803SOL     OW 3530   0.635   1.736   7.083
  803SOL    HW2 3531   0.552   1.721   7.128
  803SOL    HW3 3532   0.694   1.669   7.118
  803SOL    MW4 3533   0.633   1.726   7.093
  804SOL     OW 3534   1.692   0.443   6.708
  804SOL    HW2 3535   1.625   0.476   6.768
  804SOL    HW3 3536   1.735   0.521   6.674
  804SOL    MW4 3537   1.690   0.458   6.712
  805SOL     OW 3538   1.870   1.163   6.678
  805SOL    HW2 3539   1.863   1.103   6.603
  805SOL    HW3 3540   1.796   1.223   6.667
  805SOL    MW4 3541   1.860   1.163   6.667
  806SOL     OW 3542   1.252   1.025   6.596
  806SOL    HW2 3543   1.266   0.997   6.687
  806SOL    HW3 3544   1.338   1.056   6.568
  806SOL    MW4 3545   1.265   1.026   6.605
  807SOL     OW 3546   1.335   0.520   6.875
  807SOL    HW2 3547   1.356   0.521   6.782
  807SOL    HW3 3548   1.380   0.442   6.908
  807SOL    MW4 3549   1.342   0.510   6.867
  808SOL     OW 3550   1.828   0.651   7.417
  808SOL    HW2 3551   1.865   0.596   7.486
  808SOL    HW3 3552   1.853   0.608   7.335
  808SOL    MW4 3553   1.835   0.639   7.416
  809SOL     OW 3554   1.375   0.949   7.468
  809SOL    HW2 3555   1.441   0.897   7.422
  809SOL    HW3 3556   1.395   0.936   7.561
  809SOL    MW4 3557   1.386   0.940   7.475
  810SOL     OW 3558   1.326   0.035   5.817
  810SOL    HW2 3559   1.400   0.079   5.860
  810SOL    HW3 3560   1.250   0.089   5.839
  810SOL    MW4 3561   1.326   0.047   5.825
  811SOL     OW 3562   1.386   0.810   6.095
  811SOL    HW2 3563   1.301   0.780   6.065
  811SOL    HW3 3564   1.378   0.817   6.190
  811SOL    MW4 3565   1.374   0.808   6.104
  812SOL     OW 3566   0.462   1.273   6.826
  812SOL    HW2 3567   0.474   1.300   6.917
  812SOL    HW3 3568   0.443   1.354   6.779
  812SOL    MW4 3569   0.461   1.288   6.831
  813SOL     OW 3570   0.746   0.253   6.649
  813SOL    HW2 3571   0.719   0.255   6.740
  813SOL    HW3 3572   0.676   0.205   6.604
  813SOL    MW4 3573   0.734   0.249   6.656
  814SOL     OW 3574   0.600   1.745   6.811
  814SOL    HW2 3575   0.652   1.822   6.788
  814SOL    HW3 3576   0.609   1.737   6.906
  814SOL    MW4 3577   0.609   1.752   6.822
  815SOL     OW 3578   1.502   1.330   7.043
  815SOL    HW2 3579   1.487   1.259   7.106
  815SOL    HW3 3580   1.548   1.288   6.971
  815SOL    MW4 3581   1.508   1.314   7.043
  816SOL     OW 3582   0.576   1.061   7.160
  816SOL    HW2 3583   0.613   1.066   7.072
  816SOL    HW3 3584   0.615   1.134   7.207
  816SOL    MW4 3585   0.586   1.071   7.155
  817SOL     OW 3586   0.756   1.104   6.972
  817SOL    HW2 3587   0.815   1.050   7.025
  817SOL    HW3 3588   0.771   1.076   6.882
  817SOL    MW4 3589   0.766   1.093   6.968
  818SOL     OW 3590   0.759   0.476   5.821
  818SOL    HW2 3591   0.832   0.525   5.784
  818SOL    HW3 3592   0.775   0.385   5.795
  818SOL    MW4 3593   0.771   0.471   5.814
  819SOL     OW 3594   1.567   1.593   7.144
  819SOL    HW2 3595   1.609   1.578   7.229
  819SOL    HW3 3596   1.558   1.506   7.106
  819SOL    MW4 3597   1.571   1.581   7.151
  820SOL     OW 3598   1.227   0.072   6.735
  820SOL    HW2 3599   1.282   0.081   6.657
  820SOL    HW3 3600   1.282   0.106   6.806
  820SOL    MW4 3601   1.241   0.077   6.734
  821SOL     OW 3602   0.234   0.985   5.919
  821SOL    HW2 3603   0.171   1.001   5.848
  821SOL    HW3 3604   0.181   0.948   5.990
  821SOL    MW4 3605   0.219   0.982   5.919
  822SOL     OW 3606   0.590   1.339   5.778
  822SOL    HW2 3607   0.605   1.315   5.870
  822SOL    HW3 3608   0.498   1.317   5.762
  822SOL    MW4 3609   0.580   1.332   5.788
  823SOL     OW 3610   1.129   1.570   5.930
  823SOL    HW2 3611   1.137   1.488   5.881
  823SOL    HW3 3612   1.048   1.609   5.897
  823SOL    MW4 3613   1.119   1.565   5.920
  824SOL     OW 3614   0.388   1.728   6.499
  824SOL    HW2 3615   0.392   1.639   6.534
  824SOL    HW3 3616   0.414   1.719   6.408
  824SOL    MW4 3617   0.391   1.716   6.491
  825SOL     OW 3618   1.005   1.206   6.742
  825SOL    HW2 3619   0.937   1.140   6.758
  825SOL    HW3 3620   1.023   1.200   6.649
  825SOL    MW4 3621   0.998   1.197   6.733
  826SOL     OW 3622   0.094   1.481   6.993
  826SOL    HW2 3623   0.084   1.439   7.079
  826SOL    HW3 3624   0.015   1.534   6.983
  826SOL    MW4 3625   0.083   1.482   7.004
  827SOL     OW 3626   0.998   0.345   6.563
  827SOL    HW2 3627   0.928   0.297   6.608
  827SOL    HW3 3628   1.030   0.408   6.627
  827SOL    MW4 3629   0.993   0.347   6.577
  828SOL     OW 3630   0.649   0.781   7.183
  828SOL    HW2 3631   0.642   0.876   7.171
  828SOL    HW3 3632   0.658   0.770   7.278
  828SOL    MW4 3633   0.650   0.793   7.193
  829SOL     OW 3634   0.370   1.296   7.441
  829SOL    HW2 3635   0.442   1.298   7.378
  829SOL    HW3 3636   0.340   1.205   7.440
  829SOL    MW4 3637   0.375   1.285   7.433
  830SOL     OW 3638   1.454   0.059   6.908
  830SOL    HW2 3639   1.525   0.005   6.872
  830SOL    HW3 3640   1.453   0.038   7.001
  830SOL    MW4 3641   1.463   0.050   6.916
  831SOL     OW 3642   1.654   1.589   7.392
  831SOL    HW2 3643   1.627   1.586   7.483
  831SOL    HW3 3644   1.750   1.593   7.395
  831SOL    MW4 3645   1.664   1.589   7.404
  832SOL     OW 3646   0.465   0.451   6.376
  832SOL    HW2 3647   0.536   0.399   6.339
  832SOL    HW3 3648   0.451   0.416   6.463
  832SOL    MW4 3649   0.473   0.440   6.383
  833SOL     OW 3650   0.020   1.786   7.448
  833SOL    HW2 3651   0.070   1.764   7.370
  833SOL    HW3 3652   0.028   1.881   7.456
  833SOL    MW4 3653   0.028   1.795   7.439
  834SOL     OW 3654   0.781   1.544   6.452
  834SOL    HW2 3655   0.709   1.481   6.465
  834SOL    HW3 3656   0.742   1.629   6.470
  834SOL    MW4 3657   0.765   1.547   6.455
  835SOL     OW 3658   1.101   0.392   6.100
  835SOL    HW2 3659   1.123   0.329   6.032
  835SOL    HW3 3660   1.006   0.384   6.111
  835SOL    MW4 3661   1.091   0.383   6.092
  836SOL     OW 3662   0.186   0.082   6.032
  836SOL    HW2 3663   0.257   0.103   5.971
  836SOL    HW3 3664   0.140   0.010   5.990
  836SOL    MW4 3665   0.190   0.076   6.018
  837SOL     OW 3666   0.017   0.549   7.175
  837SOL    HW2 3667   0.081   0.615   7.150
  837SOL    HW3 3668  -0.064   0.576   7.132
  837SOL    MW4 3669   0.015   0.561   7.167
  838SOL     OW 3670   1.755   1.456   6.132
  838SOL    HW2 3671   1.725   1.389   6.193
  838SOL    HW3 3672   1.849   1.462   6.146
  838SOL    MW4 3673   1.763   1.448   6.142
  839SOL     OW 3674   1.311   1.133   6.062
  839SOL    HW2 3675   1.283   1.219   6.095
  839SOL    HW3 3676   1.339   1.149   5.972
  839SOL    MW4 3677   1.311   1.147   6.054
  840SOL     OW 3678   0.973   0.053   6.115
  840SOL    HW2 3679   1.010   0.112   6.180
  840SOL    HW3 3680   0.950   0.109   6.041
  840SOL    MW4 3681   0.974   0.068   6.114
  841SOL     OW 3682   1.826   0.935   6.537
  841SOL    HW2 3683   1.817   0.967   6.448
  841SOL    HW3 3684   1.779   0.851   6.537
  841SOL    MW4 3685   1.819   0.928   6.527
  842SOL     OW 3686   0.202   0.775   7.116
  842SOL    HW2 3687   0.223   0.844   7.054
  842SOL    HW3 3688   0.282   0.722   7.121
  842SOL    MW4 3689   0.215   0.776   7.110
  843SOL     OW 3690   1.738   0.866   6.238
  843SOL    HW2 3691   1.832   0.855   6.226
  843SOL    HW3 3692   1.714   0.938   6.179
  843SOL    MW4 3693   1.748   0.874   6.229
  844SOL     OW 3694   0.187   0.790   7.383
  844SOL    HW2 3695   0.113   0.734   7.409
  844SOL    HW3 3696   0.182   0.793   7.288
  844SOL    MW4 3697   0.176   0.783   7.373
  845SOL     OW 3698   0.353   0.077   6.833
  845SOL    HW2 3699   0.396   0.161   6.853
  845SOL    HW3 3700   0.426   0.015   6.826
  845SOL    MW4 3701   0.368   0.080   6.834
  846SOL     OW 3702   0.394   0.744   6.011
  846SOL    HW2 3703   0.394   0.839   5.996
  846SOL    HW3 3704   0.471   0.728   6.065
  846SOL    MW4 3705   0.404   0.755   6.016
  847SOL     OW 3706   1.170   0.603   7.075
  847SOL    HW2 3707   1.206   0.576   6.991
  847SOL    HW3 3708   1.083   0.637   7.054
  847SOL    MW4 3709   1.164   0.604   7.062
  848SOL     OW 3710   0.153   0.475   6.300
  848SOL    HW2 3711   0.215   0.482   6.373
  848SOL    HW3 3712   0.153   0.382   6.277
  848SOL    MW4 3713   0.161   0.464   6.307
  849SOL     OW 3714   1.700   1.815   5.832
  849SOL    HW2 3715   1.767   1.848   5.772
  849SOL    HW3 3716   1.657   1.894   5.866
  849SOL    MW4 3717   1.702   1.830   5.828
  850SOL     OW 3718   0.835   0.736   6.784
  850SOL    HW2 3719   0.793   0.654   6.760
  850SOL    HW3 3720   0.836   0.735   6.880
  850SOL    MW4 3721   0.828   0.725   6.793
  851SOL     OW 3722   1.506   1.869   7.183
  851SOL    HW2 3723   1.509   1.775   7.166
  851SOL    HW3 3724   1.529   1.877   7.275
  851SOL    MW4 3725   1.509   1.857   7.193
  852SOL     OW 3726   0.639   0.206   6.889
  852SOL    HW2 3727   0.570   0.269   6.910
  852SOL    HW3 3728   0.666   0.170   6.974
  852SOL    MW4 3729   0.633   0.209   6.902
  853SOL     OW 3730   0.022   1.047   5.758
  853SOL    HW2 3731  -0.009   1.112   5.821
  853SOL    HW3 3732  -0.029   0.969   5.777
  853SOL    MW4 3733   0.012   1.044   5.768
  854SOL     OW 3734   1.434   0.059   6.506
  854SOL    HW2 3735   1.522   0.068   6.543
  854SOL    HW3 3736   1.444   0.000   6.432
  854SOL    MW4 3737   1.448   0.053   6.500
  855SOL     OW 3738   1.466   0.798   6.350
  855SOL    HW2 3739   1.546   0.813   6.299
  855SOL    HW3 3740   1.459   0.703   6.356
  855SOL    MW4 3741   1.475   0.787   6.345
  856SOL     OW 3742   0.606   1.847   5.700
  856SOL    HW2 3743   0.511   1.847   5.692
  856SOL    HW3 3744   0.622   1.793   5.778
  856SOL    MW4 3745   0.596   1.841   5.709
  857SOL     OW 3746   0.916   0.724   7.047
  857SOL    HW2 3747   0.985   0.791   7.044
  857SOL    HW3 3748   0.849   0.762   7.103
  857SOL    MW4 3749   0.917   0.737   7.054
  858SOL     OW 3750   0.334   1.024   7.295
  858SOL    HW2 3751   0.288   0.940   7.297
  858SOL    HW3 3752   0.391   1.018   7.219
  858SOL    MW4 3753   0.336   1.012   7.287
  859SOL     OW 3754   1.451   0.667   5.615
  859SOL    HW2 3755   1.379   0.643   5.557
  859SOL    HW3 3756   1.517   0.704   5.557
  859SOL    MW4 3757   1.450   0.669   5.600
  860SOL     OW 3758   0.585   1.399   6.296
  860SOL    HW2 3759   0.650   1.332   6.317
  860SOL    HW3 3760   0.637   1.476   6.273
  860SOL    MW4 3761   0.600   1.401   6.295
  861SOL     OW 3762   0.846   0.564   6.426
  861SOL    HW2 3763   0.786   0.582   6.498
  861SOL    HW3 3764   0.880   0.476   6.445
  861SOL    MW4 3765   0.842   0.554   6.439
  862SOL     OW 3766   1.787   0.063   7.095
  862SOL    HW2 3767   1.708   0.109   7.123
  862SOL    HW3 3768   1.822   0.117   7.024
  862SOL    MW4 3769   1.781   0.076   7.089
  863SOL     OW 3770   1.071   1.147   6.445
  863SOL    HW2 3771   1.163   1.128   6.463
  863SOL    HW3 3772   1.044   1.077   6.385
  863SOL    MW4 3773   1.079   1.135   6.439
  864SOL     OW 3774   0.864   0.967   5.800
  864SOL    HW2 3775   0.850   0.879   5.765
  864SOL    HW3 3776   0.815   1.024   5.741
  864SOL    MW4 3777   0.856   0.962   5.788
  865SOL     OW 3778   1.345   1.385   6.541
  865SOL    HW2 3779   1.318   1.469   6.506
  865SOL    HW3 3780   1.305   1.380   6.628
  865SOL    MW4 3781   1.338   1.394   6.547
  866SOL     OW 3782   1.264   1.333   6.809
  866SOL    HW2 3783   1.275   1.300   6.898
  866SOL    HW3 3784   1.183   1.292   6.778
  866SOL    MW4 3785   1.254   1.325   6.815
  867SOL     OW 3786   0.277   0.691   6.579
  867SOL    HW2 3787   0.227   0.690   6.660
  867SOL    HW3 3788   0.297   0.783   6.563
  867SOL    MW4 3789   0.273   0.703   6.587
  868SOL     OW 3790   1.344   1.455   7.341
  868SOL    HW2 3791   1.344   1.549   7.357
  868SOL    HW3 3792   1.389   1.445   7.257
  868SOL    MW4 3793   1.350   1.465   7.332
  869SOL     OW 3794   1.583   0.173   5.902
  869SOL    HW2 3795   1.576   0.177   5.997
  869SOL    HW3 3796   1.595   0.264   5.875
  869SOL    MW4 3797   1.584   0.186   5.910
  870SOL     OW 3798   0.872   0.736   6.016
  870SOL    HW2 3799   0.852   0.722   5.923
  870SOL    HW3 3800   0.965   0.715   6.023
  870SOL    MW4 3801   0.882   0.731   6.005
  871SOL     OW 3802   0.199   0.359   7.320
  871SOL    HW2 3803   0.156   0.418   7.257
  871SOL    HW3 3804   0.267   0.414   7.360
  871SOL    MW4 3805   0.203   0.374   7.317
  872SOL     OW 3806   1.311   0.979   6.865
  872SOL    HW2 3807   1.374   0.976   6.938
  872SOL    HW3 3808   1.227   0.997   6.907
  872SOL    MW4 3809   1.307   0.981   6.880
  873SOL     OW 3810   0.855   1.694   6.054
  873SOL    HW2 3811   0.913   1.765   6.081
  873SOL    HW3 3812   0.878   1.622   6.112
  873SOL    MW4 3813   0.866   1.694   6.065
  874SOL     OW 3814   1.650   0.156   6.644
  874SOL    HW2 3815   1.695   0.074   6.663
  874SOL    HW3 3816   1.670   0.212   6.720
  874SOL    MW4 3817   1.660   0.152   6.656
  875SOL     OW 3818   0.098  -0.001   6.743
  875SOL    HW2 3819   0.089   0.000   6.648
  875SOL    HW3 3820   0.192   0.011   6.758
  875SOL    MW4 3821   0.110   0.002   6.734
  876SOL     OW 3822   1.735   1.192   6.363
  876SOL    HW2 3823   1.714   1.138   6.286
  876SOL    HW3 3824   1.831   1.190   6.367
  876SOL    MW4 3825   1.744   1.185   6.352
  877SOL     OW 3826   0.427   1.337   7.106
  877SOL    HW2 3827   0.348   1.287   7.129
  877SOL    HW3 3828   0.497   1.296   7.156
  877SOL    MW4 3829   0.425   1.325   7.116
  878SOL     OW 3830   0.311   0.126   5.789
  878SOL    HW2 3831   0.240   0.181   5.757
  878SOL    HW3 3832   0.353   0.092   5.710
  878SOL    MW4 3833   0.307   0.128   5.775
  879SOL     OW 3834   1.435   0.623   6.625
  879SOL    HW2 3835   1.358   0.669   6.591
  879SOL    HW3 3836   1.492   0.692   6.659
  879SOL    MW4 3837   1.432   0.638   6.625
  880SOL     OW 3838   0.067   0.225   5.638
  880SOL    HW2 3839   0.034   0.304   5.682
  880SOL    HW3 3840   0.122   0.258   5.567
  880SOL    MW4 3841   0.070   0.239   5.635
  881SOL     OW 3842   0.101   1.482   5.827
  881SOL    HW2 3843   0.118   1.566   5.869
  881SOL    HW3 3844   0.136   1.491   5.739
  881SOL    MW4 3845   0.106   1.495   5.821
  882SOL     OW 3846   1.373   1.571   6.044
  882SOL    HW2 3847   1.436   1.561   5.973
  882SOL    HW3 3848   1.290   1.591   5.999
  882SOL    MW4 3849   1.370   1.572   6.029
  883SOL     OW 3850   1.736   2.707   0.257
  883SOL    HW2 3851   1.777   2.649   0.322
  883SOL    HW3 3852   1.643   2.699   0.274
  883SOL    MW4 3853   1.730   2.699   0.267
  884SOL     OW 3854   1.602   2.639   1.252
  884SOL    HW2 3855   1.557   2.706   1.303
  884SOL    HW3 3856   1.690   2.675   1.238
  884SOL    MW4 3857   1.608   2.652   1.256
  885SOL     OW 3858   0.530   2.890   0.486
  885SOL    HW2 3859   0.620   2.865   0.470
  885SOL    HW3 3860   0.526   2.983   0.463
  885SOL    MW4 3861   0.542   2.899   0.481
  886SOL     OW 3862   1.646   3.593   0.628
  886SOL    HW2 3863   1.658   3.539   0.706
  886SOL    HW3 3864   1.683   3.541   0.557
  886SOL    MW4 3865   1.652   3.578   0.629
  887SOL     OW 3866   1.025   3.478   1.629
  887SOL    HW2 3867   1.066   3.514   1.550
  887SOL    HW3 3868   1.060   3.389   1.636
  887SOL    MW4 3869   1.036   3.471   1.620
  888SOL     OW 3870   1.582   3.033   1.233
  888SOL    HW2 3871   1.503   2.998   1.191
  888SOL    HW3 3872   1.609   3.105   1.177
  888SOL    MW4 3873   1.575   3.038   1.220
  889SOL     OW 3874   0.814   2.346   0.499
  889SOL    HW2 3875   0.789   2.434   0.527
  889SOL    HW3 3876   0.811   2.349   0.403
  889SOL    MW4 3877   0.810   2.358   0.491
  890SOL     OW 3878   0.256   2.374   0.427
  890SOL    HW2 3879   0.288   2.462   0.409
  890SOL    HW3 3880   0.244   2.372   0.522
  890SOL    MW4 3881   0.259   2.386   0.439
  891SOL     OW 3882   0.334   2.787   1.328
  891SOL    HW2 3883   0.397   2.734   1.279
  891SOL    HW3 3884   0.315   2.861   1.271
  891SOL    MW4 3885   0.340   2.789   1.315
  892SOL     OW 3886   0.655   2.129   0.514
  892SOL    HW2 3887   0.713   2.205   0.516
  892SOL    HW3 3888   0.590   2.150   0.447
  892SOL    MW4 3889   0.654   2.141   0.505
  893SOL     OW 3890   0.742   3.056   0.689
  893SOL    HW2 3891   0.822   3.059   0.741
  893SOL    HW3 3892   0.770   3.023   0.603
  893SOL    MW4 3893   0.756   3.052   0.684
  894SOL     OW 3894   0.767   3.397   1.592
  894SOL    HW2 3895   0.851   3.423   1.631
  894SOL    HW3 3896   0.791   3.341   1.518
  894SOL    MW4 3897   0.781   3.393   1.587
  895SOL     OW 3898   0.519   2.560   0.680
  895SOL    HW2 3899   0.504   2.480   0.731
  895SOL    HW3 3900   0.601   2.595   0.714
  895SOL    MW4 3901   0.527   2.552   0.692
  896SOL     OW 3902   0.856   3.246   1.365
  896SOL    HW2 3903   0.820   3.312   1.305
  896SOL    HW3 3904   0.784   3.184   1.378
  896SOL    MW4 3905   0.842   3.246   1.359
  897SOL     OW 3906   0.661   2.386   1.057
  897SOL    HW2 3907   0.567   2.382   1.075
  897SOL    HW3 3908   0.691   2.295   1.066
  897SOL    MW4 3909   0.652   2.374   1.060
  898SOL     OW 3910   0.407   2.800   0.961
  898SOL    HW2 3911   0.362   2.807   0.877
  898SOL    HW3 3912   0.387   2.883   1.005
  898SOL    MW4 3913   0.399   2.812   0.955
  899SOL     OW 3914   0.104   3.646   0.836
  899SOL    HW2 3915   0.193   3.638   0.871
  899SOL    HW3 3916   0.068   3.558   0.841
  899SOL    MW4 3917   0.111   3.633   0.841
  900SOL     OW 3918   1.369   3.038   0.205
  900SOL    HW2 3919   1.287   3.074   0.171
  900SOL    HW3 3920   1.437   3.081   0.154
  900SOL    MW4 3921   1.367   3.048   0.193
  901SOL     OW 3922   0.930   2.817   0.681
  901SOL    HW2 3923   0.844   2.804   0.721
  901SOL    HW3 3924   0.983   2.744   0.713
  901SOL    MW4 3925   0.926   2.806   0.690
  902SOL     OW 3926   0.338   3.469   1.466
  902SOL    HW2 3927   0.246   3.445   1.451
  902SOL    HW3 3928   0.382   3.386   1.483
  902SOL    MW4 3929   0.332   3.454   1.465
  903SOL     OW 3930   0.921   3.179   0.398
  903SOL    HW2 3931   0.898   3.241   0.466
  903SOL    HW3 3932   0.878   3.097   0.424
  903SOL    MW4 3933   0.913   3.175   0.409
  904SOL     OW 3934   1.794   2.180   0.854
  904SOL    HW2 3935   1.731   2.160   0.923
  904SOL    HW3 3936   1.784   2.109   0.791
  904SOL    MW4 3937   1.784   2.167   0.855
  905SOL     OW 3938   0.418   2.152   0.366
  905SOL    HW2 3939   0.392   2.114   0.282
  905SOL    HW3 3940   0.355   2.222   0.382
  905SOL    MW4 3941   0.407   2.155   0.357
  906SOL     OW 3942   0.253   3.113   0.403
  906SOL    HW2 3943   0.201   3.181   0.359
  906SOL    HW3 3944   0.250   3.039   0.343
  906SOL    MW4 3945   0.245   3.112   0.390
  907SOL     OW 3946   0.915   3.576   0.181
  907SOL    HW2 3947   0.870   3.592   0.264
  907SOL    HW3 3948   0.846   3.541   0.123
  907SOL    MW4 3949   0.901   3.573   0.183
  908SOL     OW 3950   1.850   2.349   0.156
  908SOL    HW2 3951   1.759   2.351   0.184
  908SOL    HW3 3952   1.895   2.411   0.214
  908SOL    MW4 3953   1.843   2.357   0.166
  909SOL     OW 3954   1.595   2.952   0.506
  909SOL    HW2 3955   1.505   2.952   0.541
  909SOL    HW3 3956   1.588   2.998   0.423
  909SOL    MW4 3957   1.582   2.958   0.500
  910SOL     OW 3958   1.395   2.587   1.578
  910SOL    HW2 3959   1.464   2.525   1.555
  910SOL    HW3 3960   1.320   2.561   1.525
  910SOL    MW4 3961   1.395   2.574   1.569
  911SOL     OW 3962   0.136   3.467   1.130
  911SOL    HW2 3963   0.119   3.413   1.207
  911SOL    HW3 3964   0.124   3.557   1.160
  911SOL    MW4 3965   0.133   3.471   1.144
  912SOL     OW 3966   1.131   2.974   1.570
  912SOL    HW2 3967   1.116   3.067   1.555
  912SOL    HW3 3968   1.226   2.964   1.570
  912SOL    MW4 3969   1.140   2.984   1.567
  913SOL     OW 3970   0.927   2.398   1.771
  913SOL    HW2 3971   1.017   2.399   1.738
  913SOL    HW3 3972   0.886   2.323   1.729
  913SOL    MW4 3973   0.933   2.388   1.762
  914SOL     OW 3974   1.502   2.930   0.898
  914SOL    HW2 3975   1.505   2.864   0.829
  914SOL    HW3 3976   1.587   2.973   0.894
  914SOL    MW4 3977   1.514   2.926   0.889
  915SOL     OW 3978   1.122   2.533   0.467
  915SOL    HW2 3979   1.148   2.557   0.378
  915SOL    HW3 3980   1.104   2.440   0.463
  915SOL    MW4 3981   1.124   2.525   0.454
  916SOL     OW 3982   1.787   3.153   0.318
  916SOL    HW2 3983   1.743   3.194   0.393
  916SOL    HW3 3984   1.844   3.221   0.283
  916SOL    MW4 3985   1.789   3.167   0.323
  917SOL     OW 3986   0.707   2.202   1.721
  917SOL    HW2 3987   0.717   2.128   1.661
  917SOL    HW3 3988   0.743   2.171   1.804
  917SOL    MW4 3989   0.713   2.188   1.723
  918SOL     OW 3990   0.443   3.569   0.636
  918SOL    HW2 3991   0.475   3.657   0.614
  918SOL    HW3 3992   0.396   3.541   0.558
  918SOL    MW4 3993   0.442   3.577   0.623
  919SOL     OW 3994   1.827   1.931   0.685
  919SOL    HW2 3995   1.881   1.882   0.747
  919SOL    HW3 3996   1.770   1.865   0.646
  919SOL    MW4 3997   1.827   1.915   0.687
  920SOL     OW 3998   0.159   3.629   0.213
  920SOL    HW2 3999   0.188   3.719   0.205
  920SOL    HW3 4000   0.109   3.612   0.134
  920SOL    MW4 4001   0.157   3.637   0.202
  921SOL     OW 4002   0.946   1.884   1.098
  921SOL    HW2 4003   0.905   1.962   1.060
  921SOL    HW3 4004   1.040   1.902   1.093
  921SOL    MW4 4005   0.952   1.896   1.093
  922SOL     OW 4006   1.563   3.437   0.184
  922SOL    HW2 4007   1.611   3.506   0.230
  922SOL    HW3 4008   1.484   3.481   0.153
  922SOL    MW4 4009   1.558   3.451   0.187
  923SOL     OW 4010   0.961   2.562   0.128
  923SOL    HW2 4011   0.963   2.509   0.049
  923SOL    HW3 4012   1.049   2.599   0.134
  923SOL    MW4 4013   0.973   2.561   0.117
  924SOL     OW 4014   1.575   2.488   0.464
  924SOL    HW2 4015   1.614   2.488   0.551
  924SOL    HW3 4016   1.516   2.564   0.464
  924SOL    MW4 4017   1.572   2.499   0.475
  925SOL     OW 4018   0.892   2.855   1.593
  925SOL    HW2 4019   0.869   2.835   1.683
  925SOL    HW3 4020   0.977   2.899   1.598
  925SOL    MW4 4021   0.899   2.858   1.605
  926SOL     OW 4022   0.972   1.992   1.353
  926SOL    HW2 4023   0.978   1.954   1.266
  926SOL    HW3 4024   0.961   2.086   1.338
  926SOL    MW4 4025   0.973   2.000   1.341
  927SOL     OW 4026   1.061   2.481   1.187
  927SOL    HW2 4027   1.136   2.510   1.134
  927SOL    HW3 4028   0.993   2.546   1.171
  927SOL    MW4 4029   1.062   2.493   1.177
  928SOL     OW 4030   1.611   2.449   1.464
  928SOL    HW2 4031   1.592   2.358   1.443
  928SOL    HW3 4032   1.589   2.498   1.385
  928SOL    MW4 4033   1.606   2.442   1.451
  929SOL     OW 4034   1.753   3.543   1.368
  929SOL    HW2 4035   1.681   3.505   1.419
  929SOL    HW3 4036   1.770   3.628   1.409
  929SOL    MW4 4037   1.747   3.548   1.380
  930SOL     OW 4038   1.058   2.187   1.570
  930SOL    HW2 4039   1.024   2.226   1.489
  930SOL    HW3 4040   1.036   2.095   1.563
  930SOL    MW4 4041   1.051   2.180   1.560
  931SOL     OW 4042   1.467   3.001   1.646
  931SOL    HW2 4043   1.549   3.042   1.676
  931SOL    HW3 4044   1.430   2.963   1.726
  931SOL    MW4 4045   1.473   3.002   1.661
  932SOL     OW 4046   1.762   2.374   0.630
  932SOL    HW2 4047   1.851   2.343   0.647
  932SOL    HW3 4048   1.705   2.314   0.678
  932SOL    MW4 4049   1.765   2.362   0.639
  933SOL     OW 4050   0.188   2.088   0.659
  933SOL    HW2 4051   0.179   2.028   0.585
  933SOL    HW3 4052   0.121   2.059   0.722
  933SOL    MW4 4053   0.178   2.075   0.657
  934SOL     OW 4054   1.131   3.181   0.220
  934SOL    HW2 4055   1.081   3.183   0.302
  934SOL    HW3 4056   1.065   3.199   0.152
  934SOL    MW4 4057   1.117   3.183   0.222
  935SOL     OW 4058   0.135   2.261   1.022
  935SOL    HW2 4059   0.107   2.352   1.031
  935SOL    HW3 4060   0.072   2.222   0.961
  935SOL    MW4 4061   0.122   2.267   1.016
  936SOL     OW 4062   0.594   3.599   0.328
  936SOL    HW2 4063   0.515   3.557   0.361
  936SOL    HW3 4064   0.660   3.582   0.395
  936SOL    MW4 4065   0.593   3.591   0.341
  937SOL     OW 4066   1.722   3.119   1.725
  937SOL    HW2 4067   1.772   3.045   1.757
  937SOL    HW3 4068   1.668   3.146   1.800
  937SOL    MW4 4069   1.722   3.113   1.738
  938SOL     OW 4070   0.730   3.014   0.035
  938SOL    HW2 4071   0.652   2.960   0.022
  938SOL    HW3 4072   0.701   3.087   0.088
  938SOL    MW4 4073   0.716   3.016   0.040
  939SOL     OW 4074   1.856   2.754   1.227
  939SOL    HW2 4075   1.872   2.792   1.140
  939SOL    HW3 4076   1.890   2.820   1.288
  939SOL    MW4 4077   1.863   2.767   1.223
  940SOL     OW 4078   1.648   3.463   0.896
  940SOL    HW2 4079   1.677   3.530   0.957
  940SOL    HW3 4080   1.629   3.387   0.951
  940SOL    MW4 4081   1.650   3.463   0.911
  941SOL     OW 4082   1.311   3.530   0.103
  941SOL    HW2 4083   1.237   3.493   0.153
  941SOL    HW3 4084   1.319   3.620   0.136
  941SOL    MW4 4085   1.302   3.537   0.115
  942SOL     OW 4086   0.119   2.536   1.192
  942SOL    HW2 4087   0.181   2.566   1.258
  942SOL    HW3 4088   0.053   2.605   1.186
  942SOL    MW4 4089   0.118   2.549   1.199
  943SOL     OW 4090   1.535   3.204   0.045
  943SOL    HW2 4091   1.482   3.253  -0.019
  943SOL    HW3 4092   1.566   3.270   0.106
  943SOL    MW4 4093   1.533   3.218   0.043
  944SOL     OW 4094   0.760   2.093   0.100
  944SOL    HW2 4095   0.708   2.013   0.088
  944SOL    HW3 4096   0.847   2.070   0.068
  944SOL    MW4 4097   0.763   2.079   0.094
  945SOL     OW 4098   0.214   3.645   1.644
  945SOL    HW2 4099   0.188   3.713   1.582
  945SOL    HW3 4100   0.262   3.582   1.592
  945SOL    MW4 4101   0.216   3.645   1.630
  946SOL     OW 4102   0.266   2.964   1.151
  946SOL    HW2 4103   0.319   3.039   1.176
  946SOL    HW3 4104   0.185   3.002   1.117
  946SOL    MW4 4105   0.262   2.979   1.151
  947SOL     OW 4106   0.806   2.868   1.139
  947SOL    HW2 4107   0.834   2.777   1.151
  947SOL    HW3 4108   0.735   2.862   1.075
  947SOL    MW4 4109   0.799   2.856   1.134
  948SOL     OW 4110   0.121   2.733   0.557
  948SOL    HW2 4111   0.212   2.748   0.584
  948SOL    HW3 4112   0.124   2.654   0.503
  948SOL    MW4 4113   0.133   2.725   0.555
  949SOL     OW 4114   0.357   2.441   1.811
  949SOL    HW2 4115   0.304   2.521   1.818
  949SOL    HW3 4116   0.427   2.453   1.876
  949SOL    MW4 4117   0.359   2.454   1.819
  950SOL     OW 4118   0.743   1.991   1.518
  950SOL    HW2 4119   0.720   1.899   1.520
  950SOL    HW3 4120   0.829   1.993   1.475
  950SOL    MW4 4121   0.750   1.981   1.514
  951SOL     OW 4122   0.427   2.515   1.557
  951SOL    HW2 4123   0.507   2.565   1.543
  951SOL    HW3 4124   0.418   2.509   1.652
  951SOL    MW4 4125   0.436   2.521   1.567
  952SOL     OW 4126   0.748   3.665   0.931
  952SOL    HW2 4127   0.837   3.680   0.961
  952SOL    HW3 4128   0.743   3.712   0.847
  952SOL    MW4 4129   0.758   3.673   0.924
  953SOL     OW 4130   1.404   2.040   1.828
  953SOL    HW2 4131   1.460   1.967   1.854
  953SOL    HW3 4132   1.374   2.078   1.910
  953SOL    MW4 4133   1.408   2.035   1.841
  954SOL     OW 4134   0.129   3.345   0.596
  954SOL    HW2 4135   0.101   3.384   0.678
  954SOL    HW3 4136   0.149   3.254   0.618
  954SOL    MW4 4137   0.127   3.337   0.609
  955SOL     OW 4138   0.962   3.388   0.631
  955SOL    HW2 4139   1.045   3.342   0.615
  955SOL    HW3 4140   0.952   3.387   0.727
  955SOL    MW4 4141   0.972   3.381   0.641
  956SOL     OW 4142   1.794   2.533   0.945
  956SOL    HW2 4143   1.883   2.563   0.927
  956SOL    HW3 4144   1.774   2.473   0.874
  956SOL    MW4 4145   1.803   2.530   0.934
  957SOL     OW 4146   1.645   2.712   1.825
  957SOL    HW2 4147   1.700   2.636   1.806
  957SOL    HW3 4148   1.647   2.720   1.920
  957SOL    MW4 4149   1.653   2.703   1.833
  958SOL     OW 4150   0.695   3.445   0.036
  958SOL    HW2 4151   0.635   3.514   0.006
  958SOL    HW3 4152   0.640   3.387   0.089
  958SOL    MW4 4153   0.679   3.447   0.038
  959SOL     OW 4154   1.133   2.090   0.259
  959SOL    HW2 4155   1.066   2.066   0.196
  959SOL    HW3 4156   1.198   2.139   0.208
  959SOL    MW4 4157   1.133   2.092   0.244
  960SOL     OW 4158   0.940   2.274   1.344
  960SOL    HW2 4159   0.859   2.315   1.372
  960SOL    HW3 4160   0.987   2.342   1.296
  960SOL    MW4 4161   0.935   2.289   1.342
  961SOL     OW 4162   1.200   2.612   0.967
  961SOL    HW2 4163   1.213   2.706   0.977
  961SOL    HW3 4164   1.161   2.602   0.881
  961SOL    MW4 4165   1.196   2.623   0.957
  962SOL     OW 4166   0.652   2.807   0.771
  962SOL    HW2 4167   0.563   2.798   0.804
  962SOL    HW3 4168   0.656   2.897   0.739
  962SOL    MW4 4169   0.641   2.818   0.771
  963SOL     OW 4170   1.451   2.390   0.766
  963SOL    HW2 4171   1.396   2.311   0.765
  963SOL    HW3 4172   1.433   2.431   0.850
  963SOL    MW4 4173   1.441   2.385   0.775
  964SOL     OW 4174   0.422   2.077   1.583
  964SOL    HW2 4175   0.343   2.095   1.635
  964SOL    HW3 4176   0.417   2.139   1.510
  964SOL    MW4 4177   0.412   2.087   1.580
  965SOL     OW 4178   1.070   2.594   0.723
  965SOL    HW2 4179   1.007   2.526   0.747
  965SOL    HW3 4180   1.090   2.575   0.631
  965SOL    MW4 4181   1.064   2.581   0.715
  966SOL     OW 4182   0.326   3.489   0.425
  966SOL    HW2 4183   0.287   3.536   0.351
  966SOL    HW3 4184   0.260   3.424   0.450
  966SOL    MW4 4185   0.313   3.487   0.419
  967SOL     OW 4186   0.818   2.898   0.449
  967SOL    HW2 4187   0.820   2.872   0.356
  967SOL    HW3 4188   0.876   2.835   0.492
  967SOL    MW4 4189   0.826   2.887   0.443
  968SOL     OW 4190   1.371   3.458   1.221
  968SOL    HW2 4191   1.296   3.504   1.259
  968SOL    HW3 4192   1.353   3.365   1.238
  968SOL    MW4 4193   1.360   3.452   1.229
  969SOL     OW 4194   1.375   3.666   0.651
  969SOL    HW2 4195   1.318   3.619   0.590
  969SOL    HW3 4196   1.461   3.627   0.638
  969SOL    MW4 4197   1.378   3.657   0.641
  970SOL     OW 4198   1.328   2.142   0.782
  970SOL    HW2 4199   1.356   2.074   0.843
  970SOL    HW3 4200   1.242   2.113   0.752
  970SOL    MW4 4201   1.321   2.129   0.786
  971SOL     OW 4202   0.133   3.076   0.716
  971SOL    HW2 4203   0.197   3.108   0.779
  971SOL    HW3 4204   0.182   3.012   0.664
  971SOL    MW4 4205   0.148   3.072   0.717
  972SOL     OW 4206   0.633   3.152   1.698
  972SOL    HW2 4207   0.681   3.235   1.685
  972SOL    HW3 4208   0.690   3.100   1.754
  972SOL    MW4 4209   0.647   3.156   1.704
  973SOL     OW 4210   0.209   3.394   1.838
  973SOL    HW2 4211   0.265   3.318   1.853
  973SOL    HW3 4212   0.158   3.372   1.760
  973SOL    MW4 4213   0.209   3.381   1.829
  974SOL     OW 4214   1.308   2.246   0.117
  974SOL    HW2 4215   1.281   2.312   0.053
  974SOL    HW3 4216   1.378   2.289   0.167
  974SOL    MW4 4217   1.313   2.259   0.114
  975SOL     OW 4218   0.976   1.951   0.054
  975SOL    HW2 4219   1.032   1.943  -0.024
  975SOL    HW3 4220   0.953   1.861   0.076
  975SOL    MW4 4221   0.981   1.938   0.047
  976SOL     OW 4222   1.481   2.802   0.259
  976SOL    HW2 4223   1.448   2.891   0.249
  976SOL    HW3 4224   1.446   2.773   0.344
  976SOL    MW4 4225   1.471   2.811   0.270
  977SOL     OW 4226   1.094   3.231   1.447
  977SOL    HW2 4227   1.005   3.237   1.415
  977SOL    HW3 4228   1.138   3.310   1.415
  977SOL    MW4 4229   1.089   3.241   1.439
  978SOL     OW 4230   0.387   1.899   1.789
  978SOL    HW2 4231   0.315   1.864   1.737
  978SOL    HW3 4232   0.445   1.940   1.724
  978SOL    MW4 4233   0.385   1.900   1.774
  979SOL     OW 4234   0.411   3.389   1.088
  979SOL    HW2 4235   0.456   3.451   1.145
  979SOL    HW3 4236   0.318   3.408   1.101
  979SOL    MW4 4237   0.404   3.399   1.095
  980SOL     OW 4238   1.851   2.918   1.442
  980SOL    HW2 4239   1.766   2.931   1.401
  980SOL    HW3 4240   1.831   2.882   1.529
  980SOL    MW4 4241   1.838   2.914   1.447
  981SOL     OW 4242   0.833   3.457   1.196
  981SOL    HW2 4243   0.857   3.446   1.105
  981SOL    HW3 4244   0.756   3.514   1.194
  981SOL    MW4 4245   0.825   3.462   1.185
  982SOL     OW 4246   0.475   2.840   0.051
  982SOL    HW2 4247   0.398   2.853   0.107
  982SOL    HW3 4248   0.439   2.804  -0.030
  982SOL    MW4 4249   0.461   2.836   0.048
  983SOL     OW 4250   1.128   2.813   0.294
  983SOL    HW2 4251   1.038   2.834   0.269
  983SOL    HW3 4252   1.155   2.886   0.350
  983SOL    MW4 4253   1.120   2.825   0.297
  984SOL     OW 4254   0.628   3.162   0.986
  984SOL    HW2 4255   0.621   3.141   1.080
  984SOL    HW3 4256   0.546   3.130   0.949
  984SOL    MW4 4257   0.616   3.156   0.993
  985SOL     OW 4258   1.492   2.172   1.388
  985SOL    HW2 4259   1.439   2.174   1.468
  985SOL    HW3 4260   1.477   2.085   1.351
  985SOL    MW4 4261   1.484   2.162   1.393
  986SOL     OW 4262   1.828   2.096   1.261
  986SOL    HW2 4263   1.809   2.163   1.196
  986SOL    HW3 4264   1.885   2.034   1.216
  986SOL    MW4 4265   1.832   2.097   1.247
  987SOL     OW 4266   0.074   3.254   1.649
  987SOL    HW2 4267   0.118   3.187   1.595
  987SOL    HW3 4268  -0.011   3.216   1.669
  987SOL    MW4 4269   0.069   3.240   1.645
  988SOL     OW 4270   0.757   1.929   0.701
  988SOL    HW2 4271   0.686   1.990   0.683
  988SOL    HW3 4272   0.808   1.926   0.620
  988SOL    MW4 4273   0.753   1.935   0.688
  989SOL     OW 4274   0.515   3.169   0.450
  989SOL    HW2 4275   0.508   3.201   0.540
  989SOL    HW3 4276   0.425   3.153   0.422
  989SOL    MW4 4277   0.503   3.171   0.457
  990SOL     OW 4278   1.110   3.562   1.359
  990SOL    HW2 4279   1.030   3.547   1.309
  990SOL    HW3 4280   1.117   3.657   1.366
  990SOL    MW4 4281   1.101   3.573   1.353
  991SOL     OW 4282   1.224   3.527   0.849
  991SOL    HW2 4283   1.271   3.600   0.808
  991SOL    HW3 4284   1.145   3.566   0.885
  991SOL    MW4 4285   1.219   3.542   0.848
  992SOL     OW 4286   1.632   3.622   1.124
  992SOL    HW2 4287   1.675   3.592   1.204
  992SOL    HW3 4288   1.551   3.570   1.121
  992SOL    MW4 4289   1.627   3.611   1.134
  993SOL     OW 4290   0.717   2.586   1.831
  993SOL    HW2 4291   0.787   2.528   1.803
  993SOL    HW3 4292   0.660   2.531   1.886
  993SOL    MW4 4293   0.719   2.573   1.835
  994SOL     OW 4294   1.504   2.798   1.464
  994SOL    HW2 4295   1.509   2.851   1.544
  994SOL    HW3 4296   1.466   2.715   1.492
  994SOL    MW4 4297   1.500   2.793   1.479
  995SOL     OW 4298   1.144   1.933   1.710
  995SOL    HW2 4299   1.139   1.840   1.691
  995SOL    HW3 4300   1.227   1.944   1.756
  995SOL    MW4 4301   1.152   1.922   1.714
  996SOL     OW 4302   0.518   2.453   0.164
  996SOL    HW2 4303   0.484   2.509   0.234
  996SOL    HW3 4304   0.589   2.403   0.204
  996SOL    MW4 4305   0.524   2.454   0.178
  997SOL     OW 4306   1.614   3.204   0.986
  997SOL    HW2 4307   1.649   3.186   0.899
  997SOL    HW3 4308   1.519   3.205   0.973
  997SOL    MW4 4309   1.606   3.201   0.973
  998SOL     OW 4310   1.043   2.852   1.355
  998SOL    HW2 4311   1.086   2.887   1.433
  998SOL    HW3 4312   1.026   2.929   1.301
  998SOL    MW4 4313   1.046   2.867   1.358
  999SOL     OW 4314   1.574   2.339   0.228
  999SOL    HW2 4315   1.566   2.410   0.165
  999SOL    HW3 4316   1.592   2.383   0.311
  999SOL    MW4 4317   1.575   2.353   0.230
 1000SOL     OW 4318   0.434   1.994   0.657
 1000SOL    HW2 4319   0.484   2.037   0.588
 1000SOL    HW3 4320   0.349   2.038   0.657
 1000SOL    MW4 4321   0.431   2.007   0.648
 1001SOL     OW 4322   0.193   3.056   1.517
 1001SOL    HW2 4323   0.221   3.009   1.595
 1001SOL    HW3 4324   0.114   3.011   1.488
 1001SOL    MW4 4325   0.186   3.045   1.523
 1002SOL     OW 4326   0.701   2.383   1.484
 1002SOL    HW2 4327   0.673   2.471   1.508
 1002SOL    HW3 4328   0.670   2.327   1.555
 1002SOL    MW4 4329   0.693   2.386   1.496
 1003SOL     OW 4330   1.243   2.601   0.203
 1003SOL    HW2 4331   1.290   2.619   0.122
 1003SOL    HW3 4332   1.209   2.685   0.231
 1003SOL    MW4 4333   1.245   2.615   0.196
 1004SOL     OW 4334   0.356   2.779   0.697
 1004SOL    HW2 4335   0.414   2.835   0.645
 1004SOL    HW3 4336   0.400   2.694   0.699
 1004SOL    MW4 4337   0.369   2.776   0.690
 1005SOL     OW 4338   1.496   2.131   0.534
 1005SOL    HW2 4339   1.418   2.081   0.559
 1005SOL    HW3 4340   1.467   2.222   0.534
 1005SOL    MW4 4341   1.482   2.135   0.537
 1006SOL     OW 4342   1.082   2.093   0.693
 1006SOL    HW2 4343   1.102   2.168   0.637
 1006SOL    HW3 4344   1.062   2.132   0.778
 1006SOL    MW4 4345   1.083   2.109   0.697
 1007SOL     OW 4346   0.978   3.343   0.025
 1007SOL    HW2 4347   1.005   3.421  -0.023
 1007SOL    HW3 4348   0.885   3.358   0.044
 1007SOL    MW4 4349   0.969   3.356   0.021
 1008SOL     OW 4350   1.842   2.866   1.712
 1008SOL    HW2 4351   1.755   2.846   1.748
 1008SOL    HW3 4352   1.896   2.792   1.737
 1008SOL    MW4 4353   1.837   2.855   1.720
 1009SOL     OW 4354   0.063   3.379   0.869
 1009SOL    HW2 4355   0.095   3.383   0.960
 1009SOL    HW3 4356  -0.032   3.387   0.877
 1009SOL    MW4 4357   0.055   3.382   0.882
 1010SOL     OW 4358   0.018   2.505   0.416
 1010SOL    HW2 4359  -0.042   2.477   0.486
 1010SOL    HW3 4360   0.092   2.445   0.422
 1010SOL    MW4 4361   0.020   2.494   0.425
 1011SOL     OW 4362   1.586   3.717   1.850
 1011SOL    HW2 4363   1.631   3.641   1.815
 1011SOL    HW3 4364   1.624   3.730   1.937
 1011SOL    MW4 4365   1.596   3.710   1.856
 1012SOL     OW 4366   1.186   3.236   0.576
 1012SOL    HW2 4367   1.209   3.187   0.654
 1012SOL    HW3 4368   1.267   3.278   0.548
 1012SOL    MW4 4369   1.199   3.236   0.583
 1013SOL     OW 4370   0.444   2.244   1.305
 1013SOL    HW2 4371   0.477   2.325   1.345
 1013SOL    HW3 4372   0.417   2.270   1.217
 1013SOL    MW4 4373   0.443   2.258   1.299
 1014SOL     OW 4374   0.398   2.211   1.041
 1014SOL    HW2 4375   0.428   2.125   1.012
 1014SOL    HW3 4376   0.303   2.204   1.044
 1014SOL    MW4 4377   0.390   2.200   1.039
 1015SOL     OW 4378   1.227   2.420   1.732
 1015SOL    HW2 4379   1.279   2.355   1.685
 1015SOL    HW3 4380   1.185   2.471   1.662
 1015SOL    MW4 4381   1.228   2.417   1.715
 1016SOL     OW 4382   1.326   2.215   1.593
 1016SOL    HW2 4383   1.233   2.199   1.580
 1016SOL    HW3 4384   1.352   2.153   1.661
 1016SOL    MW4 4385   1.316   2.205   1.600
 1017SOL     OW 4386   0.541   1.989   0.932
 1017SOL    HW2 4387   0.551   1.898   0.958
 1017SOL    HW3 4388   0.497   1.985   0.847
 1017SOL    MW4 4389   0.537   1.977   0.924
 1018SOL     OW 4390   0.635   3.604   1.478
 1018SOL    HW2 4391   0.552   3.589   1.523
 1018SOL    HW3 4392   0.694   3.537   1.513
 1018SOL    MW4 4393   0.633   3.594   1.488
 1019SOL     OW 4394   1.692   2.311   1.103
 1019SOL    HW2 4395   1.625   2.344   1.163
 1019SOL    HW3 4396   1.735   2.389   1.069
 1019SOL    MW4 4397   1.690   2.326   1.107
 1020SOL     OW 4398   1.870   3.031   1.073
 1020SOL    HW2 4399   1.863   2.971   0.998
 1020SOL    HW3 4400   1.796   3.091   1.062
 1020SOL    MW4 4401   1.860   3.031   1.062
 1021SOL     OW 4402   1.252   2.893   0.991
 1021SOL    HW2 4403   1.266   2.865   1.082
 1021SOL    HW3 4404   1.338   2.924   0.963
 1021SOL    MW4 4405   1.265   2.894   1.000
 1022SOL     OW 4406   1.335   2.388   1.270
 1022SOL    HW2 4407   1.356   2.389   1.177
 1022SOL    HW3 4408   1.380   2.310   1.303
 1022SOL    MW4 4409   1.342   2.378   1.262
 1023SOL     OW 4410   1.828   2.519   1.812
 1023SOL    HW2 4411   1.865   2.464   1.881
 1023SOL    HW3 4412   1.853   2.476   1.730
 1023SOL    MW4 4413   1.835   2.507   1.811
 1024SOL     OW 4414   1.375   2.817   1.863
 1024SOL    HW2 4415   1.441   2.765   1.817
 1024SOL    HW3 4416   1.395   2.804   1.956
 1024SOL    MW4 4417   1.386   2.808   1.870
 1025SOL     OW 4418   1.326   1.903   0.212
 1025SOL    HW2 4419   1.400   1.947   0.255
 1025SOL    HW3 4420   1.250   1.957   0.234
 1025SOL    MW4 4421   1.326   1.915   0.220
 1026SOL     OW 4422   1.386   2.678   0.490
 1026SOL    HW2 4423   1.301   2.648   0.460
 1026SOL    HW3 4424   1.378   2.685   0.585
 1026SOL    MW4 4425   1.374   2.676   0.499
 1027SOL     OW 4426   0.462   3.141   1.221
 1027SOL    HW2 4427   0.474   3.168   1.312
 1027SOL    HW3 4428   0.443   3.222   1.174
 1027SOL    MW4 4429   0.461   3.156   1.226
 1028SOL     OW 4430   0.746   2.121   1.044
 1028SOL    HW2 4431   0.719   2.123   1.135
 1028SOL    HW3 4432   0.676   2.073   0.999
 1028SOL    MW4 4433   0.734   2.117   1.051
 1029SOL     OW 4434   0.600   3.613   1.206
 1029SOL    HW2 4435   0.652   3.690   1.183
 1029SOL    HW3 4436   0.609   3.605   1.301
 1029SOL    MW4 4437   0.609   3.620   1.217
 1030SOL     OW 4438   1.502   3.198   1.438
 1030SOL    HW2 4439   1.487   3.127   1.501
 1030SOL    HW3 4440   1.548   3.156   1.366
 1030SOL    MW4 4441   1.508   3.182   1.438
 1031SOL     OW 4442   0.576   2.929   1.555
 1031SOL    HW2 4443   0.613   2.934   1.467
 1031SOL    HW3 4444   0.615   3.002   1.602
 1031SOL    MW4 4445   0.586   2.939   1.550
 1032SOL     OW 4446   0.756   2.972   1.367
 1032SOL    HW2 4447   0.815   2.918   1.420
 1032SOL    HW3 4448   0.771   2.944   1.277
 1032SOL    MW4 4449   0.766   2.961   1.363
 1033SOL     OW 4450   0.759   2.344   0.216
 1033SOL    HW2 4451   0.832   2.393   0.179
 1033SOL    HW3 4452   0.775   2.253   0.190
 1033SOL    MW4 4453   0.771   2.339   0.209
 1034SOL     OW 4454   1.567   3.461   1.539
 1034SOL    HW2 4455   1.609   3.446   1.624
 1034SOL    HW3 4456   1.558   3.374   1.501
 1034SOL    MW4 4457   1.571   3.449   1.546
 1035SOL     OW 4458   1.227   1.940   1.130
 1035SOL    HW2 4459   1.282   1.949   1.052
 1035SOL    HW3 4460   1.282   1.974   1.201
 1035SOL    MW4 4461   1.241   1.945   1.129
 1036SOL     OW 4462   0.234   2.853   0.314
 1036SOL    HW2 4463   0.171   2.869   0.243
 1036SOL    HW3 4464   0.181   2.816   0.385
 1036SOL    MW4 4465   0.219   2.850   0.314
 1037SOL     OW 4466   0.590   3.207   0.173
 1037SOL    HW2 4467   0.605   3.183   0.265
 1037SOL    HW3 4468   0.498   3.185   0.157
 1037SOL    MW4 4469   0.580   3.200   0.183
 1038SOL     OW 4470   1.129   3.438   0.325
 1038SOL    HW2 4471   1.137   3.356   0.276
 1038SOL    HW3 4472   1.048   3.477   0.292
 1038SOL    MW4 4473   1.119   3.433   0.315
 1039SOL     OW 4474   0.388   3.596   0.894
 1039SOL    HW2 4475   0.392   3.507   0.929
 1039SOL    HW3 4476   0.414   3.587   0.803
 1039SOL    MW4 4477   0.391   3.584   0.886
 1040SOL     OW 4478   1.005   3.074   1.137
 1040SOL    HW2 4479   0.937   3.008   1.153
 1040SOL    HW3 4480   1.023   3.068   1.044
 1040SOL    MW4 4481   0.998   3.065   1.128
 1041SOL     OW 4482   0.094   3.349   1.388
 1041SOL    HW2 4483   0.084   3.307   1.474
 1041SOL    HW3 4484   0.015   3.402   1.378
 1041SOL    MW4 4485   0.083   3.350   1.399
 1042SOL     OW 4486   0.998   2.213   0.958
 1042SOL    HW2 4487   0.928   2.165   1.003
 1042SOL    HW3 4488   1.030   2.276   1.022
 1042SOL    MW4 4489   0.993   2.215   0.972
 1043SOL     OW 4490   0.649   2.649   1.578
 1043SOL    HW2 4491   0.642   2.744   1.566
 1043SOL    HW3 4492   0.658   2.638   1.673
 1043SOL    MW4 4493   0.650   2.661   1.588
 1044SOL     OW 4494   0.370   3.164   1.836
 1044SOL    HW2 4495   0.442   3.166   1.773
 1044SOL    HW3 4496   0.340   3.073   1.835
 1044SOL    MW4 4497   0.375   3.153   1.828
 1045SOL     OW 4498   1.454   1.927   1.303
 1045SOL    HW2 4499   1.525   1.873   1.267
 1045SOL    HW3 4500   1.453   1.906   1.396
 1045SOL    MW4 4501   1.463   1.918   1.311
 1046SOL     OW 4502   1.654   3.457   1.787
 1046SOL    HW2 4503   1.627   3.454   1.878
 1046SOL    HW3 4504   1.750   3.461   1.790
 1046SOL    MW4 4505   1.664   3.457   1.799
 1047SOL     OW 4506   0.465   2.319   0.771
 1047SOL    HW2 4507   0.536   2.267   0.734
 1047SOL    HW3 4508   0.451   2.284   0.858
 1047SOL    MW4 4509   0.473   2.308   0.778
 1048SOL     OW 4510   0.020   3.654   1.843
 1048SOL    HW2 4511   0.070   3.632   1.765
 1048SOL    HW3 4512   0.028   3.749   1.851
 1048SOL    MW4 4513   0.028   3.663   1.834
 1049SOL     OW 4514   0.781   3.412   0.847
 1049SOL    HW2 4515   0.709   3.349   0.860
 1049SOL    HW3 4516   0.742   3.497   0.865
 1049SOL    MW4 4517   0.765   3.415   0.850
 1050SOL     OW 4518   1.101   2.260   0.495
 1050SOL    HW2 4519   1.123   2.197   0.427
 1050SOL    HW3 4520   1.006   2.252   0.506
 1050SOL    MW4 4521   1.091   2.251   0.487
 1051SOL     OW 4522   0.186   1.950   0.427
 1051SOL    HW2 4523   0.257   1.971   0.366
 1051SOL    HW3 4524   0.140   1.878   0.385
 1051SOL    MW4 4525   0.190   1.944   0.413
 1052SOL     OW 4526   0.017   2.417   1.570
 1052SOL    HW2 4527   0.081   2.483   1.545
 1052SOL    HW3 4528  -0.064   2.444   1.527
 1052SOL    MW4 4529   0.015   2.429   1.562
 1053SOL     OW 4530   1.755   3.324   0.527
 1053SOL    HW2 4531   1.725   3.257   0.588
 1053SOL    HW3 4532   1.849   3.330   0.541
 1053SOL    MW4 4533   1.763   3.316   0.537
 1054SOL     OW 4534   1.311   3.001   0.457
 1054SOL    HW2 4535   1.283   3.087   0.490
 1054SOL    HW3 4536   1.339   3.017   0.367
 1054SOL    MW4 4537   1.311   3.015   0.449
 1055SOL     OW 4538   0.973   1.921   0.510
 1055SOL    HW2 4539   1.010   1.980   0.575
 1055SOL    HW3 4540   0.950   1.977   0.436
 1055SOL    MW4 4541   0.974   1.936   0.509
 1056SOL     OW 4542   1.826   2.803   0.932
 1056SOL    HW2 4543   1.817   2.835   0.843
 1056SOL    HW3 4544   1.779   2.719   0.932
 1056SOL    MW4 4545   1.819   2.796   0.922
 1057SOL     OW 4546   0.202   2.643   1.511
 1057SOL    HW2 4547   0.223   2.712   1.449
 1057SOL    HW3 4548   0.282   2.590   1.516
 1057SOL    MW4 4549   0.215   2.644   1.505
 1058SOL     OW 4550   1.738   2.734   0.633
 1058SOL    HW2 4551   1.832   2.723   0.621
 1058SOL    HW3 4552   1.714   2.806   0.574
 1058SOL    MW4 4553   1.748   2.742   0.624
 1059SOL     OW 4554   0.187   2.658   1.778
 1059SOL    HW2 4555   0.113   2.602   1.804
 1059SOL    HW3 4556   0.182   2.661   1.683
 1059SOL    MW4 4557   0.176   2.651   1.768
 1060SOL     OW 4558   0.353   1.945   1.228
 1060SOL    HW2 4559   0.396   2.029   1.248
 1060SOL    HW3 4560   0.426   1.883   1.221
 1060SOL    MW4 4561   0.368   1.948   1.229
 1061SOL     OW 4562   0.394   2.612   0.406
 1061SOL    HW2 4563   0.394   2.707   0.391
 1061SOL    HW3 4564   0.471   2.596   0.460
 1061SOL    MW4 4565   0.404   2.623   0.411
 1062SOL     OW 4566   1.170   2.471   1.470
 1062SOL    HW2 4567   1.206   2.444   1.386
 1062SOL    HW3 4568   1.083   2.505   1.449
 1062SOL    MW4 4569   1.164   2.472   1.457
 1063SOL     OW 4570   0.153   2.343   0.695
 1063SOL    HW2 4571   0.215   2.350   0.768
 1063SOL    HW3 4572   0.153   2.250   0.672
 1063SOL    MW4 4573   0.161   2.332   0.702
 1064SOL     OW 4574   1.700   3.683   0.227
 1064SOL    HW2 4575   1.767   3.716   0.167
 1064SOL    HW3 4576   1.657   3.762   0.261
 1064SOL    MW4 4577   1.702   3.698   0.223
 1065SOL     OW 4578   0.835   2.604   1.179
 1065SOL    HW2 4579   0.793   2.522   1.155
 1065SOL    HW3 4580   0.836   2.603   1.275
 1065SOL    MW4 4581   0.828   2.593   1.188
 1066SOL     OW 4582   1.506   3.737   1.578
 1066SOL    HW2 4583   1.509   3.643   1.561
 1066SOL    HW3 4584   1.529   3.745   1.670
 1066SOL    MW4 4585   1.509   3.725   1.588
 1067SOL     OW 4586   0.639   2.074   1.284
 1067SOL    HW2 4587   0.570   2.137   1.305
 1067SOL    HW3 4588   0.666   2.038   1.369
 1067SOL    MW4 4589   0.633   2.077   1.297
 1068SOL     OW 4590   0.022   2.915   0.153
 1068SOL    HW2 4591  -0.009   2.980   0.216
 1068SOL    HW3 4592  -0.029   2.837   0.172
 1068SOL    MW4 4593   0.012   2.912   0.163
 1069SOL     OW 4594   1.434   1.927   0.901
 1069SOL    HW2 4595   1.522   1.936   0.938
 1069SOL    HW3 4596   1.444   1.868   0.827
 1069SOL    MW4 4597   1.448   1.921   0.895
 1070SOL     OW 4598   1.466   2.666   0.745
 1070SOL    HW2 4599   1.546   2.681   0.694
 1070SOL    HW3 4600   1.459   2.571   0.751
 1070SOL    MW4 4601   1.475   2.655   0.740
 1071SOL     OW 4602   0.606   3.715   0.095
 1071SOL    HW2 4603   0.511   3.715   0.087
 1071SOL    HW3 4604   0.622   3.661   0.173
 1071SOL    MW4 4605   0.596   3.709   0.104
 1072SOL     OW 4606   0.916   2.592   1.442
 1072SOL    HW2 4607   0.985   2.659   1.439
 1072SOL    HW3 4608   0.849   2.630   1.498
 1072SOL    MW4 4609   0.917   2.605   1.449
 1073SOL     OW 4610   0.334   2.892   1.690
 1073SOL    HW2 4611   0.288   2.808   1.692
 1073SOL    HW3 4612   0.391   2.886   1.614
 1073SOL    MW4 4613   0.336   2.880   1.682
 1074SOL     OW 4614   1.451   2.535   0.011
 1074SOL    HW2 4615   1.379   2.511  -0.047
 1074SOL    HW3 4616   1.517   2.572  -0.047
 1074SOL    MW4 4617   1.450   2.537  -0.004
 1075SOL     OW 4618   0.585   3.267   0.691
 1075SOL    HW2 4619   0.650   3.200   0.712
 1075SOL    HW3 4620   0.637   3.344   0.668
 1075SOL    MW4 4621   0.600   3.269   0.690
 1076SOL     OW 4622   0.846   2.432   0.821
 1076SOL    HW2 4623   0.786   2.450   0.893
 1076SOL    HW3 4624   0.880   2.344   0.840
 1076SOL    MW4 4625   0.842   2.422   0.834
 1077SOL     OW 4626   1.787   1.931   1.490
 1077SOL    HW2 4627   1.708   1.977   1.518
 1077SOL    HW3 4628   1.822   1.985   1.419
 1077SOL    MW4 4629   1.781   1.944   1.484
 1078SOL     OW 4630   1.071   3.015   0.840
 1078SOL    HW2 4631   1.163   2.996   0.858
 1078SOL    HW3 4632   1.044   2.945   0.780
 1078SOL    MW4 4633   1.079   3.003   0.834
 1079SOL     OW 4634   0.864   2.835   0.195
 1079SOL    HW2 4635   0.850   2.747   0.160
 1079SOL    HW3 4636   0.815   2.892   0.136
 1079SOL    MW4 4637   0.856   2.830   0.183
 1080SOL     OW 4638   1.345   3.253   0.936
 1080SOL    HW2 4639   1.318   3.337   0.901
 1080SOL    HW3 4640   1.305   3.248   1.023
 1080SOL    MW4 4641   1.338   3.262   0.942
 1081SOL     OW 4642   1.264   3.201   1.204
 1081SOL    HW2 4643   1.275   3.168   1.293
 1081SOL    HW3 4644   1.183   3.160   1.173
 1081SOL    MW4 4645   1.254   3.193   1.210
 1082SOL     OW 4646   0.277   2.559   0.974
 1082SOL    HW2 4647   0.227   2.558   1.055
 1082SOL    HW3 4648   0.297   2.651   0.958
 1082SOL    MW4 4649   0.273   2.571   0.982
 1083SOL     OW 4650   1.344   3.323   1.736
 1083SOL    HW2 4651   1.344   3.417   1.752
 1083SOL    HW3 4652   1.389   3.313   1.652
 1083SOL    MW4 4653   1.350   3.333   1.727
 1084SOL     OW 4654   1.583   2.041   0.297
 1084SOL    HW2 4655   1.576   2.045   0.392
 1084SOL    HW3 4656   1.595   2.132   0.270
 1084SOL    MW4 4657   1.584   2.054   0.305
 1085SOL     OW 4658   0.872   2.604   0.411
 1085SOL    HW2 4659   0.852   2.590   0.318
 1085SOL    HW3 4660   0.965   2.583   0.418
 1085SOL    MW4 4661   0.882   2.599   0.400
 1086SOL     OW 4662   0.199   2.227   1.715
 1086SOL    HW2 4663   0.156   2.286   1.652
 1086SOL    HW3 4664   0.267   2.282   1.755
 1086SOL    MW4 4665   0.203   2.242   1.712
 1087SOL     OW 4666   1.311   2.847   1.260
 1087SOL    HW2 4667   1.374   2.844   1.333
 1087SOL    HW3 4668   1.227   2.865   1.302
 1087SOL    MW4 4669   1.307   2.849   1.275
 1088SOL     OW 4670   0.855   3.562   0.449
 1088SOL    HW2 4671   0.913   3.633   0.476
 1088SOL    HW3 4672   0.878   3.490   0.507
 1088SOL    MW4 4673   0.866   3.562   0.460
 1089SOL     OW 4674   1.650   2.024   1.039
 1089SOL    HW2 4675   1.695   1.942   1.058
 1089SOL    HW3 4676   1.670   2.080   1.115
 1089SOL    MW4 4677   1.660   2.020   1.051
 1090SOL     OW 4678   0.098   1.867   1.138
 1090SOL    HW2 4679   0.089   1.868   1.043
 1090SOL    HW3 4680   0.192   1.879   1.153
 1090SOL    MW4 4681   0.110   1.870   1.129
 1091SOL     OW 4682   1.735   3.060   0.758
 1091SOL    HW2 4683   1.714   3.006   0.681
 1091SOL    HW3 4684   1.831   3.058   0.762
 1091SOL    MW4 4685   1.744   3.053   0.747
 1092SOL     OW 4686   0.427   3.205   1.501
 1092SOL    HW2 4687   0.348   3.155   1.524
 1092SOL    HW3 4688   0.497   3.164   1.551
 1092SOL    MW4 4689   0.425   3.193   1.511
 1093SOL     OW 4690   0.311   1.994   0.184
 1093SOL    HW2 4691   0.240   2.049   0.152
 1093SOL    HW3 4692   0.353   1.960   0.105
 1093SOL    MW4 4693   0.307   1.996   0.170
 1094SOL     OW 4694   1.435   2.491   1.020
 1094SOL    HW2 4695   1.358   2.537   0.986
 1094SOL    HW3 4696   1.492   2.560   1.054
 1094SOL    MW4 4697   1.432   2.506   1.020
 1095SOL     OW 4698   0.067   2.093   0.033
 1095SOL    HW2 4699   0.034   2.172   0.077
 1095SOL    HW3 4700   0.122   2.126  -0.038
 1095SOL    MW4 4701   0.070   2.107   0.030
 1096SOL     OW 4702   0.101   3.350   0.222
 1096SOL    HW2 4703   0.118   3.434   0.264
 1096SOL    HW3 4704   0.136   3.359   0.134
 1096SOL    MW4 4705   0.106   3.363   0.216
 1097SOL     OW 4706   1.373   3.439   0.439
 1097SOL    HW2 4707   1.436   3.429   0.368
 1097SOL    HW3 4708   1.290   3.459   0.394
 1097SOL    MW4 4709   1.370   3.440   0.424
 1098SOL     OW 4710   1.736   2.707   2.125
 1098SOL    HW2 4711   1.777   2.649   2.190
 1098SOL    HW3 4712   1.643   2.699   2.142
 1098SOL    MW4 4713   1.730   2.699   2.135
 1099SOL     OW 4714   1.602   2.639   3.120
 1099SOL    HW2 4715   1.557   2.706   3.171
 1099SOL    HW3 4716   1.690   2.675   3.106
 1099SOL    MW4 4717   1.608   2.652   3.124
 1100SOL     OW 4718   0.530   2.890   2.354
 1100SOL    HW2 4719   0.620   2.865   2.338
 1100SOL    HW3 4720   0.526   2.983   2.331
 1100SOL    MW4 4721   0.542   2.899   2.349
 1101SOL     OW 4722   1.646   3.593   2.496
 1101SOL    HW2 4723   1.658   3.539   2.574
 1101SOL    HW3 4724   1.683   3.541   2.425
 1101SOL    MW4 4725   1.652   3.578   2.497
 1102SOL     OW 4726   1.025   3.478   3.497
 1102SOL    HW2 4727   1.066   3.514   3.418
 1102SOL    HW3 4728   1.060   3.389   3.504
 1102SOL    MW4 4729   1.036   3.471   3.488
 1103SOL     OW 4730   1.582   3.033   3.101
 1103SOL    HW2 4731   1.503   2.998   3.059
 1103SOL    HW3 4732   1.609   3.105   3.045
 1103SOL    MW4 4733   1.575   3.038   3.088
 1104SOL     OW 4734   0.814   2.346   2.367
 1104SOL    HW2 4735   0.789   2.434   2.395
 1104SOL    HW3 4736   0.811   2.349   2.271
 1104SOL    MW4 4737   0.810   2.358   2.359
 1105SOL     OW 4738   0.256   2.374   2.295
 1105SOL    HW2 4739   0.288   2.462   2.277
 1105SOL    HW3 4740   0.244   2.372   2.390
 1105SOL    MW4 4741   0.259   2.386   2.307
 1106SOL     OW 4742   0.334   2.787   3.196
 1106SOL    HW2 4743   0.397   2.734   3.147
 1106SOL    HW3 4744   0.315   2.861   3.139
 1106SOL    MW4 4745   0.340   2.789   3.183
 1107SOL     OW 4746   0.655   2.129   2.382
 1107SOL    HW2 4747   0.713   2.205   2.384
 1107SOL    HW3 4748   0.590   2.150   2.315
 1107SOL    MW4 4749   0.654   2.141   2.373
 1108SOL     OW 4750   0.742   3.056   2.557
 1108SOL    HW2 4751   0.822   3.059   2.609
 1108SOL    HW3 4752   0.770   3.023   2.471
 1108SOL    MW4 4753   0.756   3.052   2.552
 1109SOL     OW 4754   0.767   3.397   3.460
 1109SOL    HW2 4755   0.851   3.423   3.499
 1109SOL    HW3 4756   0.791   3.341   3.386
 1109SOL    MW4 4757   0.781   3.393   3.455
 1110SOL     OW 4758   0.519   2.560   2.548
 1110SOL    HW2 4759   0.504   2.480   2.599
 1110SOL    HW3 4760   0.601   2.595   2.582
 1110SOL    MW4 4761   0.527   2.552   2.560
 1111SOL     OW 4762   0.856   3.246   3.233
 1111SOL    HW2 4763   0.820   3.312   3.173
 1111SOL    HW3 4764   0.784   3.184   3.246
 1111SOL    MW4 4765   0.842   3.246   3.227
 1112SOL     OW 4766   0.661   2.386   2.925
 1112SOL    HW2 4767   0.567   2.382   2.943
 1112SOL    HW3 4768   0.691   2.295   2.934
 1112SOL    MW4 4769   0.652   2.374   2.928
 1113SOL     OW 4770   0.407   2.800   2.829
 1113SOL    HW2 4771   0.362   2.807   2.745
 1113SOL    HW3 4772   0.387   2.883   2.873
 1113SOL    MW4 4773   0.399   2.812   2.823
 1114SOL     OW 4774   0.104   3.646   2.704
 1114SOL    HW2 4775   0.193   3.638   2.739
 1114SOL    HW3 4776   0.068   3.558   2.709
 1114SOL    MW4 4777   0.111   3.633   2.709
 1115SOL     OW 4778   1.369   3.038   2.073
 1115SOL    HW2 4779   1.287   3.074   2.039
 1115SOL    HW3 4780   1.437   3.081   2.022
 1115SOL    MW4 4781   1.367   3.048   2.061
 1116SOL     OW 4782   0.368   3.173   2.739
 1116SOL    HW2 4783   0.344   3.226   2.815
 1116SOL    HW3 4784   0.424   3.231   2.687
 1116SOL    MW4 4785   0.372   3.188   2.742
 1117SOL     OW 4786   0.930   2.817   2.549
 1117SOL    HW2 4787   0.844   2.804   2.589
 1117SOL    HW3 4788   0.983   2.744   2.581
 1117SOL    MW4 4789   0.926   2.806   2.558
 1118SOL     OW 4790   0.338   3.469   3.334
 1118SOL    HW2 4791   0.246   3.445   3.319
 1118SOL    HW3 4792   0.382   3.386   3.351
 1118SOL    MW4 4793   0.332   3.454   3.333
 1119SOL     OW 4794   0.921   3.179   2.266
 1119SOL    HW2 4795   0.898   3.241   2.334
 1119SOL    HW3 4796   0.878   3.097   2.292
 1119SOL    MW4 4797   0.913   3.175   2.277
 1120SOL     OW 4798   1.794   2.180   2.722
 1120SOL    HW2 4799   1.731   2.160   2.791
 1120SOL    HW3 4800   1.784   2.109   2.659
 1120SOL    MW4 4801   1.784   2.167   2.723
 1121SOL     OW 4802   0.418   2.152   2.234
 1121SOL    HW2 4803   0.392   2.114   2.150
 1121SOL    HW3 4804   0.355   2.222   2.250
 1121SOL    MW4 4805   0.407   2.155   2.225
 1122SOL     OW 4806   0.253   3.113   2.271
 1122SOL    HW2 4807   0.201   3.181   2.227
 1122SOL    HW3 4808   0.250   3.039   2.211
 1122SOL    MW4 4809   0.245   3.112   2.258
 1123SOL     OW 4810   0.915   3.576   2.049
 1123SOL    HW2 4811   0.870   3.592   2.132
 1123SOL    HW3 4812   0.846   3.541   1.991
 1123SOL    MW4 4813   0.901   3.573   2.051
 1124SOL     OW 4814   1.850   2.349   2.024
 1124SOL    HW2 4815   1.759   2.351   2.052
 1124SOL    HW3 4816   1.895   2.411   2.082
 1124SOL    MW4 4817   1.843   2.357   2.034
 1125SOL     OW 4818   1.595   2.952   2.374
 1125SOL    HW2 4819   1.505   2.952   2.409
 1125SOL    HW3 4820   1.588   2.998   2.291
 1125SOL    MW4 4821   1.582   2.958   2.368
 1126SOL     OW 4822   1.395   2.587   3.446
 1126SOL    HW2 4823   1.464   2.525   3.423
 1126SOL    HW3 4824   1.320   2.561   3.393
 1126SOL    MW4 4825   1.395   2.574   3.437
 1127SOL     OW 4826   0.136   3.467   2.998
 1127SOL    HW2 4827   0.119   3.413   3.075
 1127SOL    HW3 4828   0.124   3.557   3.028
 1127SOL    MW4 4829   0.133   3.471   3.012
 1128SOL     OW 4830   1.131   2.974   3.438
 1128SOL    HW2 4831   1.116   3.067   3.423
 1128SOL    HW3 4832   1.226   2.964   3.438
 1128SOL    MW4 4833   1.140   2.984   3.435
 1129SOL     OW 4834   0.927   2.398   3.639
 1129SOL    HW2 4835   1.017   2.399   3.606
 1129SOL    HW3 4836   0.886   2.323   3.597
 1129SOL    MW4 4837   0.933   2.388   3.630
 1130SOL     OW 4838   1.502   2.930   2.766
 1130SOL    HW2 4839   1.505   2.864   2.697
 1130SOL    HW3 4840   1.587   2.973   2.762
 1130SOL    MW4 4841   1.514   2.926   2.757
 1131SOL     OW 4842   1.122   2.533   2.335
 1131SOL    HW2 4843   1.148   2.557   2.246
 1131SOL    HW3 4844   1.104   2.440   2.331
 1131SOL    MW4 4845   1.124   2.525   2.322
 1132SOL     OW 4846   1.787   3.153   2.186
 1132SOL    HW2 4847   1.743   3.194   2.261
 1132SOL    HW3 4848   1.844   3.221   2.151
 1132SOL    MW4 4849   1.789   3.167   2.191
 1133SOL     OW 4850   0.707   2.202   3.589
 1133SOL    HW2 4851   0.717   2.128   3.529
 1133SOL    HW3 4852   0.743   2.171   3.672
 1133SOL    MW4 4853   0.713   2.188   3.591
 1134SOL     OW 4854   0.443   3.569   2.504
 1134SOL    HW2 4855   0.475   3.657   2.482
 1134SOL    HW3 4856   0.396   3.541   2.426
 1134SOL    MW4 4857   0.442   3.577   2.491
 1135SOL     OW 4858   1.827   1.931   2.553
 1135SOL    HW2 4859   1.881   1.882   2.615
 1135SOL    HW3 4860   1.770   1.865   2.514
 1135SOL    MW4 4861   1.827   1.915   2.555
 1136SOL     OW 4862   0.159   3.629   2.081
 1136SOL    HW2 4863   0.188   3.719   2.073
 1136SOL    HW3 4864   0.109   3.612   2.002
 1136SOL    MW4 4865   0.157   3.637   2.070
 1137SOL     OW 4866   0.946   1.884   2.966
 1137SOL    HW2 4867   0.905   1.962   2.928
 1137SOL    HW3 4868   1.040   1.902   2.961
 1137SOL    MW4 4869   0.952   1.896   2.961
 1138SOL     OW 4870   1.563   3.437   2.052
 1138SOL    HW2 4871   1.611   3.506   2.098
 1138SOL    HW3 4872   1.484   3.481   2.021
 1138SOL    MW4 4873   1.558   3.451   2.055
 1139SOL     OW 4874   0.961   2.562   1.996
 1139SOL    HW2 4875   0.963   2.509   1.917
 1139SOL    HW3 4876   1.049   2.599   2.002
 1139SOL    MW4 4877   0.973   2.561   1.985
 1140SOL     OW 4878   1.575   2.488   2.332
 1140SOL    HW2 4879   1.614   2.488   2.419
 1140SOL    HW3 4880   1.516   2.564   2.332
 1140SOL    MW4 4881   1.572   2.499   2.343
 1141SOL     OW 4882   0.892   2.855   3.461
 1141SOL    HW2 4883   0.869   2.835   3.551
 1141SOL    HW3 4884   0.977   2.899   3.466
 1141SOL    MW4 4885   0.899   2.858   3.473
 1142SOL     OW 4886   0.972   1.992   3.221
 1142SOL    HW2 4887   0.978   1.954   3.134
 1142SOL    HW3 4888   0.961   2.086   3.206
 1142SOL    MW4 4889   0.973   2.000   3.209
 1143SOL     OW 4890   1.061   2.481   3.055
 1143SOL    HW2 4891   1.136   2.510   3.002
 1143SOL    HW3 4892   0.993   2.546   3.039
 1143SOL    MW4 4893   1.062   2.493   3.045
 1144SOL     OW 4894   1.611   2.449   3.332
 1144SOL    HW2 4895   1.592   2.358   3.311
 1144SOL    HW3 4896   1.589   2.498   3.253
 1144SOL    MW4 4897   1.606   2.442   3.319
 1145SOL     OW 4898   1.753   3.543   3.236
 1145SOL    HW2 4899   1.681   3.505   3.287
 1145SOL    HW3 4900   1.770   3.628   3.277
 1145SOL    MW4 4901   1.747   3.548   3.248
 1146SOL     OW 4902   1.058   2.187   3.438
 1146SOL    HW2 4903   1.024   2.226   3.357
 1146SOL    HW3 4904   1.036   2.095   3.431
 1146SOL    MW4 4905   1.051   2.180   3.428
 1147SOL     OW 4906   1.467   3.001   3.514
 1147SOL    HW2 4907   1.549   3.042   3.544
 1147SOL    HW3 4908   1.430   2.963   3.594
 1147SOL    MW4 4909   1.473   3.002   3.529
 1148SOL     OW 4910   1.762   2.374   2.498
 1148SOL    HW2 4911   1.851   2.343   2.515
 1148SOL    HW3 4912   1.705   2.314   2.546
 1148SOL    MW4 4913   1.765   2.362   2.507
 1149SOL     OW 4914   0.188   2.088   2.527
 1149SOL    HW2 4915   0.179   2.028   2.453
 1149SOL    HW3 4916   0.121   2.059   2.590
 1149SOL    MW4 4917   0.178   2.075   2.525
 1150SOL     OW 4918   1.131   3.181   2.088
 1150SOL    HW2 4919   1.081   3.183   2.170
 1150SOL    HW3 4920   1.065   3.199   2.020
 1150SOL    MW4 4921   1.117   3.183   2.090
 1151SOL     OW 4922   0.135   2.261   2.890
 1151SOL    HW2 4923   0.107   2.352   2.899
 1151SOL    HW3 4924   0.072   2.222   2.829
 1151SOL    MW4 4925   0.122   2.267   2.884
 1152SOL     OW 4926   0.594   3.599   2.196
 1152SOL    HW2 4927   0.515   3.557   2.229
 1152SOL    HW3 4928   0.660   3.582   2.263
 1152SOL    MW4 4929   0.593   3.591   2.209
 1153SOL     OW 4930   1.722   3.119   3.593
 1153SOL    HW2 4931   1.772   3.045   3.625
 1153SOL    HW3 4932   1.668   3.146   3.668
 1153SOL    MW4 4933   1.722   3.113   3.606
 1154SOL     OW 4934   0.730   3.014   1.903
 1154SOL    HW2 4935   0.652   2.960   1.890
 1154SOL    HW3 4936   0.701   3.087   1.956
 1154SOL    MW4 4937   0.716   3.016   1.908
 1155SOL     OW 4938   1.856   2.754   3.095
 1155SOL    HW2 4939   1.872   2.792   3.008
 1155SOL    HW3 4940   1.890   2.820   3.156
 1155SOL    MW4 4941   1.863   2.767   3.091
 1156SOL     OW 4942   1.648   3.463   2.764
 1156SOL    HW2 4943   1.677   3.530   2.825
 1156SOL    HW3 4944   1.629   3.387   2.819
 1156SOL    MW4 4945   1.650   3.463   2.779
 1157SOL     OW 4946   1.311   3.530   1.971
 1157SOL    HW2 4947   1.237   3.493   2.021
 1157SOL    HW3 4948   1.319   3.620   2.004
 1157SOL    MW4 4949   1.302   3.537   1.983
 1158SOL     OW 4950   0.119   2.536   3.060
 1158SOL    HW2 4951   0.181   2.566   3.126
 1158SOL    HW3 4952   0.053   2.605   3.054
 1158SOL    MW4 4953   0.118   2.549   3.067
 1159SOL     OW 4954   1.535   3.204   1.913
 1159SOL    HW2 4955   1.482   3.253   1.849
 1159SOL    HW3 4956   1.566   3.270   1.974
 1159SOL    MW4 4957   1.533   3.218   1.911
 1160SOL     OW 4958   0.760   2.093   1.968
 1160SOL    HW2 4959   0.708   2.013   1.956
 1160SOL    HW3 4960   0.847   2.070   1.936
 1160SOL    MW4 4961   0.763   2.079   1.962
 1161SOL     OW 4962   0.214   3.645   3.512
 1161SOL    HW2 4963   0.188   3.713   3.450
 1161SOL    HW3 4964   0.262   3.582   3.460
 1161SOL    MW4 4965   0.216   3.645   3.498
 1162SOL     OW 4966   0.266   2.964   3.019
 1162SOL    HW2 4967   0.319   3.039   3.044
 1162SOL    HW3 4968   0.185   3.002   2.985
 1162SOL    MW4 4969   0.262   2.979   3.019
 1163SOL     OW 4970   0.806   2.868   3.007
 1163SOL    HW2 4971   0.834   2.777   3.019
 1163SOL    HW3 4972   0.735   2.862   2.943
 1163SOL    MW4 4973   0.799   2.856   3.002
 1164SOL     OW 4974   0.121   2.733   2.425
 1164SOL    HW2 4975   0.212   2.748   2.452
 1164SOL    HW3 4976   0.124   2.654   2.371
 1164SOL    MW4 4977   0.133   2.725   2.423
 1165SOL     OW 4978   0.357   2.441   3.679
 1165SOL    HW2 4979   0.304   2.521   3.686
 1165SOL    HW3 4980   0.427   2.453   3.744
 1165SOL    MW4 4981   0.359   2.454   3.687
 1166SOL     OW 4982   0.743   1.991   3.386
 1166SOL    HW2 4983   0.720   1.899   3.388
 1166SOL    HW3 4984   0.829   1.993   3.343
 1166SOL    MW4 4985   0.750   1.981   3.382
 1167SOL     OW 4986   0.427   2.515   3.425
 1167SOL    HW2 4987   0.507   2.565   3.411
 1167SOL    HW3 4988   0.418   2.509   3.520
 1167SOL    MW4 4989   0.436   2.521   3.435
 1168SOL     OW 4990   0.748   3.665   2.799
 1168SOL    HW2 4991   0.837   3.680   2.829
 1168SOL    HW3 4992   0.743   3.712   2.715
 1168SOL    MW4 4993   0.758   3.673   2.792
 1169SOL     OW 4994   1.404   2.040   3.696
 1169SOL    HW2 4995   1.460   1.967   3.722
 1169SOL    HW3 4996   1.374   2.078   3.778
 1169SOL    MW4 4997   1.408   2.035   3.709
 1170SOL     OW 4998   0.129   3.345   2.464
 1170SOL    HW2 4999   0.101   3.384   2.546
 1170SOL    HW3 5000   0.149   3.254   2.486
 1170SOL    MW4 5001   0.127   3.337   2.477
 1171SOL     OW 5002   0.962   3.388   2.499
 1171SOL    HW2 5003   1.045   3.342   2.483
 1171SOL    HW3 5004   0.952   3.387   2.595
 1171SOL    MW4 5005   0.972   3.381   2.509
 1172SOL     OW 5006   1.794   2.533   2.813
 1172SOL    HW2 5007   1.883   2.563   2.795
 1172SOL    HW3 5008   1.774   2.473   2.742
 1172SOL    MW4 5009   1.803   2.530   2.802
 1173SOL     OW 5010   1.645   2.712   3.693
 1173SOL    HW2 5011   1.700   2.636   3.674
 1173SOL    HW3 5012   1.647   2.720   3.788
 1173SOL    MW4 5013   1.653   2.703   3.701
 1174SOL     OW 5014   0.695   3.445   1.904
 1174SOL    HW2 5015   0.635   3.514   1.874
 1174SOL    HW3 5016   0.640   3.387   1.957
 1174SOL    MW4 5017   0.679   3.447   1.906
 1175SOL     OW 5018   1.133   2.090   2.127
 1175SOL    HW2 5019   1.066   2.066   2.064
 1175SOL    HW3 5020   1.198   2.139   2.076
 1175SOL    MW4 5021   1.133   2.092   2.112
 1176SOL     OW 5022   0.940   2.274   3.212
 1176SOL    HW2 5023   0.859   2.315   3.240
 1176SOL    HW3 5024   0.987   2.342   3.164
 1176SOL    MW4 5025   0.935   2.289   3.210
 1177SOL     OW 5026   1.200   2.612   2.835
 1177SOL    HW2 5027   1.213   2.706   2.845
 1177SOL    HW3 5028   1.161   2.602   2.749
 1177SOL    MW4 5029   1.196   2.623   2.825
 1178SOL     OW 5030   0.652   2.807   2.639
 1178SOL    HW2 5031   0.563   2.798   2.672
 1178SOL    HW3 5032   0.656   2.897   2.607
 1178SOL    MW4 5033   0.641   2.818   2.639
 1179SOL     OW 5034   1.451   2.390   2.634
 1179SOL    HW2 5035   1.396   2.311   2.633
 1179SOL    HW3 5036   1.433   2.431   2.718
 1179SOL    MW4 5037   1.441   2.385   2.643
 1180SOL     OW 5038   0.422   2.077   3.451
 1180SOL    HW2 5039   0.343   2.095   3.503
 1180SOL    HW3 5040   0.417   2.139   3.378
 1180SOL    MW4 5041   0.412   2.087   3.448
 1181SOL     OW 5042   1.070   2.594   2.591
 1181SOL    HW2 5043   1.007   2.526   2.615
 1181SOL    HW3 5044   1.090   2.575   2.499
 1181SOL    MW4 5045   1.064   2.581   2.583
 1182SOL     OW 5046   0.326   3.489   2.293
 1182SOL    HW2 5047   0.287   3.536   2.219
 1182SOL    HW3 5048   0.260   3.424   2.318
 1182SOL    MW4 5049   0.313   3.487   2.287
 1183SOL     OW 5050   0.818   2.898   2.317
 1183SOL    HW2 5051   0.820   2.872   2.224
 1183SOL    HW3 5052   0.876   2.835   2.360
 1183SOL    MW4 5053   0.826   2.887   2.311
 1184SOL     OW 5054   1.371   3.458   3.089
 1184SOL    HW2 5055   1.296   3.504   3.127
 1184SOL    HW3 5056   1.353   3.365   3.106
 1184SOL    MW4 5057   1.360   3.452   3.097
 1185SOL     OW 5058   1.375   3.666   2.519
 1185SOL    HW2 5059   1.318   3.619   2.458
 1185SOL    HW3 5060   1.461   3.627   2.506
 1185SOL    MW4 5061   1.378   3.657   2.509
 1186SOL     OW 5062   1.328   2.142   2.650
 1186SOL    HW2 5063   1.356   2.074   2.711
 1186SOL    HW3 5064   1.242   2.113   2.620
 1186SOL    MW4 5065   1.321   2.129   2.654
 1187SOL     OW 5066   0.133   3.076   2.584
 1187SOL    HW2 5067   0.197   3.108   2.647
 1187SOL    HW3 5068   0.182   3.012   2.532
 1187SOL    MW4 5069   0.148   3.072   2.585
 1188SOL     OW 5070   0.633   3.152   3.566
 1188SOL    HW2 5071   0.681   3.235   3.553
 1188SOL    HW3 5072   0.690   3.100   3.622
 1188SOL    MW4 5073   0.647   3.156   3.572
 1189SOL     OW 5074   0.209   3.394   3.706
 1189SOL    HW2 5075   0.265   3.318   3.721
 1189SOL    HW3 5076   0.158   3.372   3.628
 1189SOL    MW4 5077   0.209   3.381   3.697
 1190SOL     OW 5078   1.308   2.246   1.985
 1190SOL    HW2 5079   1.281   2.312   1.921
 1190SOL    HW3 5080   1.378   2.289   2.035
 1190SOL    MW4 5081   1.313   2.259   1.982
 1191SOL     OW 5082   0.976   1.951   1.922
 1191SOL    HW2 5083   1.032   1.943   1.844
 1191SOL    HW3 5084   0.953   1.861   1.944
 1191SOL    MW4 5085   0.981   1.938   1.915
 1192SOL     OW 5086   1.481   2.802   2.127
 1192SOL    HW2 5087   1.448   2.891   2.117
 1192SOL    HW3 5088   1.446   2.773   2.212
 1192SOL    MW4 5089   1.471   2.811   2.138
 1193SOL     OW 5090   1.094   3.231   3.315
 1193SOL    HW2 5091   1.005   3.237   3.283
 1193SOL    HW3 5092   1.138   3.310   3.283
 1193SOL    MW4 5093   1.089   3.241   3.307
 1194SOL     OW 5094   0.387   1.899   3.657
 1194SOL    HW2 5095   0.315   1.864   3.605
 1194SOL    HW3 5096   0.445   1.940   3.592
 1194SOL    MW4 5097   0.385   1.900   3.642
 1195SOL     OW 5098   0.411   3.389   2.956
 1195SOL    HW2 5099   0.456   3.451   3.013
 1195SOL    HW3 5100   0.318   3.408   2.969
 1195SOL    MW4 5101   0.404   3.399   2.963
 1196SOL     OW 5102   1.851   2.918   3.310
 1196SOL    HW2 5103   1.766   2.931   3.269
 1196SOL    HW3 5104   1.831   2.882   3.397
 1196SOL    MW4 5105   1.838   2.914   3.315
 1197SOL     OW 5106   0.833   3.457   3.064
 1197SOL    HW2 5107   0.857   3.446   2.973
 1197SOL    HW3 5108   0.756   3.514   3.062
 1197SOL    MW4 5109   0.825   3.462   3.053
 1198SOL     OW 5110   0.475   2.840   1.919
 1198SOL    HW2 5111   0.398   2.853   1.975
 1198SOL    HW3 5112   0.439   2.804   1.838
 1198SOL    MW4 5113   0.461   2.836   1.916
 1199SOL     OW 5114   1.128   2.813   2.162
 1199SOL    HW2 5115   1.038   2.834   2.137
 1199SOL    HW3 5116   1.155   2.886   2.218
 1199SOL    MW4 5117   1.120   2.825   2.165
 1200SOL     OW 5118   0.628   3.162   2.854
 1200SOL    HW2 5119   0.621   3.141   2.948
 1200SOL    HW3 5120   0.546   3.130   2.817
 1200SOL    MW4 5121   0.616   3.156   2.861
 1201SOL     OW 5122   1.492   2.172   3.256
 1201SOL    HW2 5123   1.439   2.174   3.336
 1201SOL    HW3 5124   1.477   2.085   3.219
 1201SOL    MW4 5125   1.484   2.162   3.261
 1202SOL     OW 5126   1.828   2.096   3.129
 1202SOL    HW2 5127   1.809   2.163   3.064
 1202SOL    HW3 5128   1.885   2.034   3.084
 1202SOL    MW4 5129   1.832   2.097   3.115
 1203SOL     OW 5130   0.757   1.929   2.569
 1203SOL    HW2 5131   0.686   1.990   2.551
 1203SOL    HW3 5132   0.808   1.926   2.488
 1203SOL    MW4 5133   0.753   1.935   2.556
 1204SOL     OW 5134   0.515   3.169   2.318
 1204SOL    HW2 5135   0.508   3.201   2.408
 1204SOL    HW3 5136   0.425   3.153   2.290
 1204SOL    MW4 5137   0.503   3.171   2.325
 1205SOL     OW 5138   1.110   3.562   3.227
 1205SOL    HW2 5139   1.030   3.547   3.177
 1205SOL    HW3 5140   1.117   3.657   3.234
 1205SOL    MW4 5141   1.101   3.573   3.221
 1206SOL     OW 5142   1.224   3.527   2.717
 1206SOL    HW2 5143   1.271   3.600   2.676
 1206SOL    HW3 5144   1.145   3.566   2.753
 1206SOL    MW4 5145   1.219   3.542   2.716
 1207SOL     OW 5146   1.632   3.622   2.992
 1207SOL    HW2 5147   1.675   3.592   3.072
 1207SOL    HW3 5148   1.551   3.570   2.989
 1207SOL    MW4 5149   1.627   3.611   3.002
 1208SOL     OW 5150   0.717   2.586   3.699
 1208SOL    HW2 5151   0.787   2.528   3.671
 1208SOL    HW3 5152   0.660   2.531   3.754
 1208SOL    MW4 5153   0.719   2.573   3.703
 1209SOL     OW 5154   1.504   2.798   3.332
 1209SOL    HW2 5155   1.509   2.851   3.412
 1209SOL    HW3 5156   1.466   2.715   3.360
 1209SOL    MW4 5157   1.500   2.793   3.347
 1210SOL     OW 5158   1.144   1.933   3.578
 1210SOL    HW2 5159   1.139   1.840   3.559
 1210SOL    HW3 5160   1.227   1.944   3.624
 1210SOL    MW4 5161   1.152   1.922   3.582
 1211SOL     OW 5162   0.518   2.453   2.032
 1211SOL    HW2 5163   0.484   2.509   2.102
 1211SOL    HW3 5164   0.589   2.403   2.072
 1211SOL    MW4 5165   0.524   2.454   2.046
 1212SOL     OW 5166   1.614   3.204   2.854
 1212SOL    HW2 5167   1.649   3.186   2.767
 1212SOL    HW3 5168   1.519   3.205   2.841
 1212SOL    MW4 5169   1.606   3.201   2.841
 1213SOL     OW 5170   1.043   2.852   3.223
 1213SOL    HW2 5171   1.086   2.887   3.301
 1213SOL    HW3 5172   1.026   2.929   3.169
 1213SOL    MW4 5173   1.046   2.867   3.226
 1214SOL     OW 5174   1.574   2.339   2.096
 1214SOL    HW2 5175   1.566   2.410   2.033
 1214SOL    HW3 5176   1.592   2.383   2.179
 1214SOL    MW4 5177   1.575   2.353   2.098
 1215SOL     OW 5178   0.434   1.994   2.525
 1215SOL    HW2 5179   0.484   2.037   2.456
 1215SOL    HW3 5180   0.349   2.038   2.525
 1215SOL    MW4 5181   0.431   2.007   2.516
 1216SOL     OW 5182   0.193   3.056   3.385
 1216SOL    HW2 5183   0.221   3.009   3.463
 1216SOL    HW3 5184   0.114   3.011   3.356
 1216SOL    MW4 5185   0.186   3.045   3.391
 1217SOL     OW 5186   0.701   2.383   3.352
 1217SOL    HW2 5187   0.673   2.471   3.376
 1217SOL    HW3 5188   0.670   2.327   3.423
 1217SOL    MW4 5189   0.693   2.386   3.364
 1218SOL     OW 5190   1.243   2.601   2.071
 1218SOL    HW2 5191   1.290   2.619   1.990
 1218SOL    HW3 5192   1.209   2.685   2.099
 1218SOL    MW4 5193   1.245   2.615   2.064
 1219SOL     OW 5194   0.356   2.779   2.565
 1219SOL    HW2 5195   0.414   2.835   2.513
 1219SOL    HW3 5196   0.400   2.694   2.567
 1219SOL    MW4 5197   0.369   2.776   2.558
 1220SOL     OW 5198   1.496   2.131   2.402
 1220SOL    HW2 5199   1.418   2.081   2.427
 1220SOL    HW3 5200   1.467   2.222   2.402
 1220SOL    MW4 5201   1.482   2.135   2.405
 1221SOL     OW 5202   1.082   2.093   2.561
 1221SOL    HW2 5203   1.102   2.168   2.505
 1221SOL    HW3 5204   1.062   2.132   2.646
 1221SOL    MW4 5205   1.083   2.109   2.565
 1222SOL     OW 5206   0.978   3.343   1.893
 1222SOL    HW2 5207   1.005   3.421   1.845
 1222SOL    HW3 5208   0.885   3.358   1.912
 1222SOL    MW4 5209   0.969   3.356   1.889
 1223SOL     OW 5210   1.842   2.866   3.580
 1223SOL    HW2 5211   1.755   2.846   3.616
 1223SOL    HW3 5212   1.896   2.792   3.605
 1223SOL    MW4 5213   1.837   2.855   3.588
 1224SOL     OW 5214   0.063   3.379   2.737
 1224SOL    HW2 5215   0.095   3.383   2.828
 1224SOL    HW3 5216  -0.032   3.387   2.745
 1224SOL    MW4 5217   0.055   3.382   2.750
 1225SOL     OW 5218   0.018   2.505   2.284
 1225SOL    HW2 5219  -0.042   2.477   2.354
 1225SOL    HW3 5220   0.092   2.445   2.290
 1225SOL    MW4 5221   0.020   2.494   2.293
 1226SOL     OW 5222   1.586   3.717   3.718
 1226SOL    HW2 5223   1.631   3.641   3.683
 1226SOL    HW3 5224   1.624   3.730   3.805
 1226SOL    MW4 5225   1.596   3.710   3.724
 1227SOL     OW 5226   1.186   3.236   2.444
 1227SOL    HW2 5227   1.209   3.187   2.522
 1227SOL    HW3 5228   1.267   3.278   2.416
 1227SOL    MW4 5229   1.199   3.236   2.451
 1228SOL     OW 5230   0.444   2.244   3.173
 1228SOL    HW2 5231   0.477   2.325   3.213
 1228SOL    HW3 5232   0.417   2.270   3.085
 1228SOL    MW4 5233   0.443   2.258   3.167
 1229SOL     OW 5234   0.398   2.211   2.909
 1229SOL    HW2 5235   0.428   2.125   2.880
 1229SOL    HW3 5236   0.303   2.204   2.912
 1229SOL    MW4 5237   0.390   2.200   2.907
 1230SOL     OW 5238   1.227   2.420   3.600
 1230SOL    HW2 5239   1.279   2.355   3.553
 1230SOL    HW3 5240   1.185   2.471   3.530
 1230SOL    MW4 5241   1.228   2.417   3.583
 1231SOL     OW 5242   1.326   2.215   3.461
 1231SOL    HW2 5243   1.233   2.199   3.448
 1231SOL    HW3 5244   1.352   2.153   3.529
 1231SOL    MW4 5245   1.316   2.205   3.468
 1232SOL     OW 5246   0.541   1.989   2.800
 1232SOL    HW2 5247   0.551   1.898   2.826
 1232SOL    HW3 5248   0.497   1.985   2.715
 1232SOL    MW4 5249   0.537   1.977   2.792
 1233SOL     OW 5250   0.635   3.604   3.346
 1233SOL    HW2 5251   0.552   3.589   3.391
 1233SOL    HW3 5252   0.694   3.537   3.381
 1233SOL    MW4 5253   0.633   3.594   3.356
 1234SOL     OW 5254   1.692   2.311   2.971
 1234SOL    HW2 5255   1.625   2.344   3.031
 1234SOL    HW3 5256   1.735   2.389   2.937
 1234SOL    MW4 5257   1.690   2.326   2.975
 1235SOL     OW 5258   1.870   3.031   2.941
 1235SOL    HW2 5259   1.863   2.971   2.866
 1235SOL    HW3 5260   1.796   3.091   2.930
 1235SOL    MW4 5261   1.860   3.031   2.930
 1236SOL     OW 5262   1.252   2.893   2.859
 1236SOL    HW2 5263   1.266   2.865   2.950
 1236SOL    HW3 5264   1.338   2.924   2.831
 1236SOL    MW4 5265   1.265   2.894   2.868
 1237SOL     OW 5266   1.335   2.388   3.138
 1237SOL    HW2 5267   1.356   2.389   3.045
 1237SOL    HW3 5268   1.380   2.310   3.171
 1237SOL    MW4 5269   1.342   2.378   3.130
 1238SOL     OW 5270   1.828   2.519   3.680
 1238SOL    HW2 5271   1.865   2.464   3.749
 1238SOL    HW3 5272   1.853   2.476   3.598
 1238SOL    MW4 5273   1.835   2.507   3.679
 1239SOL     OW 5274   1.375   2.817   3.731
 1239SOL    HW2 5275   1.441   2.765   3.685
 1239SOL    HW3 5276   1.395   2.804   3.824
 1239SOL    MW4 5277   1.386   2.808   3.738
 1240SOL     OW 5278   1.326   1.903   2.080
 1240SOL    HW2 5279   1.400   1.947   2.123
 1240SOL    HW3 5280   1.250   1.957   2.102
 1240SOL    MW4 5281   1.326   1.915   2.088
 1241SOL     OW 5282   1.386   2.678   2.358
 1241SOL    HW2 5283   1.301   2.648   2.328
 1241SOL    HW3 5284   1.378   2.685   2.453
 1241SOL    MW4 5285   1.374   2.676   2.367
 1242SOL     OW 5286   0.462   3.141   3.089
 1242SOL    HW2 5287   0.474   3.168   3.180
 1242SOL    HW3 5288   0.443   3.222   3.042
 1242SOL    MW4 5289   0.461   3.156   3.094
 1243SOL     OW 5290   0.746   2.121   2.912
 1243SOL    HW2 5291   0.719   2.123   3.003
 1243SOL    HW3 5292   0.676   2.073   2.867
 1243SOL    MW4 5293   0.734   2.117   2.919
 1244SOL     OW 5294   0.600   3.613   3.074
 1244SOL    HW2 5295   0.652   3.690   3.051
 1244SOL    HW3 5296   0.609   3.605   3.169
 1244SOL    MW4 5297   0.609   3.620   3.085
 1245SOL     OW 5298   1.502   3.198   3.306
 1245SOL    HW2 5299   1.487   3.127   3.369
 1245SOL    HW3 5300   1.548   3.156   3.234
 1245SOL    MW4 5301   1.508   3.182   3.306
 1246SOL     OW 5302   0.576   2.929   3.423
 1246SOL    HW2 5303   0.613   2.934   3.335
 1246SOL    HW3 5304   0.615   3.002   3.470
 1246SOL    MW4 5305   0.586   2.939   3.418
 1247SOL     OW 5306   0.756   2.972   3.235
 1247SOL    HW2 5307   0.815   2.918   3.288
 1247SOL    HW3 5308   0.771   2.944   3.145
 1247SOL    MW4 5309   0.766   2.961   3.231
 1248SOL     OW 5310   0.759   2.344   2.084
 1248SOL    HW2 5311   0.832   2.393   2.047
 1248SOL    HW3 5312   0.775   2.253   2.058
 1248SOL    MW4 5313   0.771   2.339   2.077
 1249SOL     OW 5314   1.567   3.461   3.407
 1249SOL    HW2 5315   1.609   3.446   3.492
 1249SOL    HW3 5316   1.558   3.374   3.369
 1249SOL    MW4 5317   1.571   3.449   3.414
 1250SOL     OW 5318   1.227   1.940   2.998
 1250SOL    HW2 5319   1.282   1.949   2.920
 1250SOL    HW3 5320   1.282   1.974   3.069
 1250SOL    MW4 5321   1.241   1.945   2.997
 1251SOL     OW 5322   0.234   2.853   2.182
 1251SOL    HW2 5323   0.171   2.869   2.111
 1251SOL    HW3 5324   0.181   2.816   2.253
 1251SOL    MW4 5325   0.219   2.850   2.182
 1252SOL     OW 5326   0.590   3.207   2.041
 1252SOL    HW2 5327   0.605   3.183   2.133
 1252SOL    HW3 5328   0.498   3.185   2.025
 1252SOL    MW4 5329   0.580   3.200   2.051
 1253SOL     OW 5330   1.129   3.438   2.193
 1253SOL    HW2 5331   1.137   3.356   2.144
 1253SOL    HW3 5332   1.048   3.477   2.160
 1253SOL    MW4 5333   1.119   3.433   2.183
 1254SOL     OW 5334   0.388   3.596   2.762
 1254SOL    HW2 5335   0.392   3.507   2.797
 1254SOL    HW3 5336   0.414   3.587   2.671
 1254SOL    MW4 5337   0.391   3.584   2.754
 1255SOL     OW 5338   1.005   3.074   3.005
 1255SOL    HW2 5339   0.937   3.008   3.021
 1255SOL    HW3 5340   1.023   3.068   2.912
 1255SOL    MW4 5341   0.998   3.065   2.996
 1256SOL     OW 5342   0.094   3.349   3.256
 1256SOL    HW2 5343   0.084   3.307   3.342
 1256SOL    HW3 5344   0.015   3.402   3.246
 1256SOL    MW4 5345   0.083   3.350   3.267
 1257SOL     OW 5346   0.998   2.213   2.826
 1257SOL    HW2 5347   0.928   2.165   2.871
 1257SOL    HW3 5348   1.030   2.276   2.890
 1257SOL    MW4 5349   0.993   2.215   2.840
 1258SOL     OW 5350   0.649   2.649   3.446
 1258SOL    HW2 5351   0.642   2.744   3.434
 1258SOL    HW3 5352   0.658   2.638   3.541
 1258SOL    MW4 5353   0.650   2.661   3.456
 1259SOL     OW 5354   0.370   3.164   3.704
 1259SOL    HW2 5355   0.442   3.166   3.641
 1259SOL    HW3 5356   0.340   3.073   3.703
 1259SOL    MW4 5357   0.375   3.153   3.696
 1260SOL     OW 5358   1.454   1.927   3.171
 1260SOL    HW2 5359   1.525   1.873   3.135
 1260SOL    HW3 5360   1.453   1.906   3.264
 1260SOL    MW4 5361   1.463   1.918   3.179
 1261SOL     OW 5362   1.654   3.457   3.655
 1261SOL    HW2 5363   1.627   3.454   3.746
 1261SOL    HW3 5364   1.750   3.461   3.658
 1261SOL    MW4 5365   1.664   3.457   3.667
 1262SOL     OW 5366   0.465   2.319   2.639
 1262SOL    HW2 5367   0.536   2.267   2.602
 1262SOL    HW3 5368   0.451   2.284   2.726
 1262SOL    MW4 5369   0.473   2.308   2.646
 1263SOL     OW 5370   0.020   3.654   3.711
 1263SOL    HW2 5371   0.070   3.632   3.633
 1263SOL    HW3 5372   0.028   3.749   3.719
 1263SOL    MW4 5373   0.028   3.663   3.702
 1264SOL     OW 5374   0.781   3.412   2.715
 1264SOL    HW2 5375   0.709   3.349   2.728
 1264SOL    HW3 5376   0.742   3.497   2.733
 1264SOL    MW4 5377   0.765   3.415   2.718
 1265SOL     OW 5378   1.101   2.260   2.363
 1265SOL    HW2 5379   1.123   2.197   2.295
 1265SOL    HW3 5380   1.006   2.252   2.374
 1265SOL    MW4 5381   1.091   2.251   2.355
 1266SOL     OW 5382   0.186   1.950   2.295
 1266SOL    HW2 5383   0.257   1.971   2.234
 1266SOL    HW3 5384   0.140   1.878   2.253
 1266SOL    MW4 5385   0.190   1.944   2.281
 1267SOL     OW 5386   0.017   2.417   3.438
 1267SOL    HW2 5387   0.081   2.483   3.413
 1267SOL    HW3 5388  -0.064   2.444   3.395
 1267SOL    MW4 5389   0.015   2.429   3.430
 1268SOL     OW 5390   1.755   3.324   2.395
 1268SOL    HW2 5391   1.725   3.257   2.456
 1268SOL    HW3 5392   1.849   3.330   2.409
 1268SOL    MW4 5393   1.763   3.316   2.405
 1269SOL     OW 5394   1.311   3.001   2.325
 1269SOL    HW2 5395   1.283   3.087   2.358
 1269SOL    HW3 5396   1.339   3.017   2.235
 1269SOL    MW4 5397   1.311   3.015   2.317
 1270SOL     OW 5398   0.973   1.921   2.378
 1270SOL    HW2 5399   1.010   1.980   2.443
 1270SOL    HW3 5400   0.950   1.977   2.304
 1270SOL    MW4 5401   0.974   1.936   2.377
 1271SOL     OW 5402   1.826   2.803   2.800
 1271SOL    HW2 5403   1.817   2.835   2.711
 1271SOL    HW3 5404   1.779   2.719   2.800
 1271SOL    MW4 5405   1.819   2.796   2.790
 1272SOL     OW 5406   0.202   2.643   3.379
 1272SOL    HW2 5407   0.223   2.712   3.317
 1272SOL    HW3 5408   0.282   2.590   3.384
 1272SOL    MW4 5409   0.215   2.644   3.373
 1273SOL     OW 5410   1.738   2.734   2.501
 1273SOL    HW2 5411   1.832   2.723   2.489
 1273SOL    HW3 5412   1.714   2.806   2.442
 1273SOL    MW4 5413   1.748   2.742   2.492
 1274SOL     OW 5414   0.187   2.658   3.646
 1274SOL    HW2 5415   0.113   2.602   3.672
 1274SOL    HW3 5416   0.182   2.661   3.551
 1274SOL    MW4 5417   0.176   2.651   3.636
 1275SOL     OW 5418   0.353   1.945   3.096
 1275SOL    HW2 5419   0.396   2.029   3.116
 1275SOL    HW3 5420   0.426   1.883   3.089
 1275SOL    MW4 5421   0.368   1.948   3.097
 1276SOL     OW 5422   0.394   2.612   2.274
 1276SOL    HW2 5423   0.394   2.707   2.259
 1276SOL    HW3 5424   0.471   2.596   2.328
 1276SOL    MW4 5425   0.404   2.623   2.279
 1277SOL     OW 5426   1.170   2.471   3.338
 1277SOL    HW2 5427   1.206   2.444   3.254
 1277SOL    HW3 5428   1.083   2.505   3.317
 1277SOL    MW4 5429   1.164   2.472   3.325
 1278SOL     OW 5430   0.153   2.343   2.563
 1278SOL    HW2 5431   0.215   2.350   2.636
 1278SOL    HW3 5432   0.153   2.250   2.540
 1278SOL    MW4 5433   0.161   2.332   2.570
 1279SOL     OW 5434   1.700   3.683   2.095
 1279SOL    HW2 5435   1.767   3.716   2.035
 1279SOL    HW3 5436   1.657   3.762   2.129
 1279SOL    MW4 5437   1.702   3.698   2.091
 1280SOL     OW 5438   0.835   2.604   3.047
 1280SOL    HW2 5439   0.793   2.522   3.023
 1280SOL    HW3 5440   0.836   2.603   3.143
 1280SOL    MW4 5441   0.828   2.593   3.056
 1281SOL     OW 5442   1.506   3.737   3.446
 1281SOL    HW2 5443   1.509   3.643   3.429
 1281SOL    HW3 5444   1.529   3.745   3.538
 1281SOL    MW4 5445   1.509   3.725   3.456
 1282SOL     OW 5446   0.639   2.074   3.152
 1282SOL    HW2 5447   0.570   2.137   3.173
 1282SOL    HW3 5448   0.666   2.038   3.237
 1282SOL    MW4 5449   0.633   2.077   3.165
 1283SOL     OW 5450   0.022   2.915   2.021
 1283SOL    HW2 5451  -0.009   2.980   2.084
 1283SOL    HW3 5452  -0.029   2.837   2.040
 1283SOL    MW4 5453   0.012   2.912   2.031
 1284SOL     OW 5454   1.434   1.927   2.769
 1284SOL    HW2 5455   1.522   1.936   2.806
 1284SOL    HW3 5456   1.444   1.868   2.695
 1284SOL    MW4 5457   1.448   1.921   2.763
 1285SOL     OW 5458   1.466   2.666   2.613
 1285SOL    HW2 5459   1.546   2.681   2.562
 1285SOL    HW3 5460   1.459   2.571   2.619
 1285SOL    MW4 5461   1.475   2.655   2.608
 1286SOL     OW 5462   0.606   3.715   1.963
 1286SOL    HW2 5463   0.511   3.715   1.955
 1286SOL    HW3 5464   0.622   3.661   2.041
 1286SOL    MW4 5465   0.596   3.709   1.972
 1287SOL     OW 5466   0.916   2.592   3.310
 1287SOL    HW2 5467   0.985   2.659   3.307
 1287SOL    HW3 5468   0.849   2.630   3.366
 1287SOL    MW4 5469   0.917   2.605   3.317
 1288SOL     OW 5470   0.334   2.892   3.558
 1288SOL    HW2 5471   0.288   2.808   3.560
 1288SOL    HW3 5472   0.391   2.886   3.482
 1288SOL    MW4 5473   0.336   2.880   3.550
 1289SOL     OW 5474   1.451   2.535   1.879
 1289SOL    HW2 5475   1.379   2.511   1.821
 1289SOL    HW3 5476   1.517   2.572   1.821
 1289SOL    MW4 5477   1.450   2.537   1.864
 1290SOL     OW 5478   0.585   3.267   2.559
 1290SOL    HW2 5479   0.650   3.200   2.580
 1290SOL    HW3 5480   0.637   3.344   2.536
 1290SOL    MW4 5481   0.600   3.269   2.558
 1291SOL     OW 5482   0.846   2.432   2.689
 1291SOL    HW2 5483   0.786   2.450   2.761
 1291SOL    HW3 5484   0.880   2.344   2.708
 1291SOL    MW4 5485   0.842   2.422   2.702
 1292SOL     OW 5486   1.787   1.931   3.358
 1292SOL    HW2 5487   1.708   1.977   3.386
 1292SOL    HW3 5488   1.822   1.985   3.287
 1292SOL    MW4 5489   1.781   1.944   3.352
 1293SOL     OW 5490   1.071   3.015   2.708
 1293SOL    HW2 5491   1.163   2.996   2.726
 1293SOL    HW3 5492   1.044   2.945   2.648
 1293SOL    MW4 5493   1.079   3.003   2.702
 1294SOL     OW 5494   0.864   2.835   2.063
 1294SOL    HW2 5495   0.850   2.747   2.028
 1294SOL    HW3 5496   0.815   2.892   2.004
 1294SOL    MW4 5497   0.856   2.830   2.051
 1295SOL     OW 5498   1.345   3.253   2.804
 1295SOL    HW2 5499   1.318   3.337   2.769
 1295SOL    HW3 5500   1.305   3.248   2.891
 1295SOL    MW4 5501   1.338   3.262   2.810
 1296SOL     OW 5502   1.264   3.201   3.072
 1296SOL    HW2 5503   1.275   3.168   3.161
 1296SOL    HW3 5504   1.183   3.160   3.041
 1296SOL    MW4 5505   1.254   3.193   3.078
 1297SOL     OW 5506   0.277   2.559   2.842
 1297SOL    HW2 5507   0.227   2.558   2.923
 1297SOL    HW3 5508   0.297   2.651   2.826
 1297SOL    MW4 5509   0.273   2.571   2.850
 1298SOL     OW 5510   1.344   3.323   3.604
 1298SOL    HW2 5511   1.344   3.417   3.620
 1298SOL    HW3 5512   1.389   3.313   3.520
 1298SOL    MW4 5513   1.350   3.333   3.595
 1299SOL     OW 5514   1.583   2.041   2.165
 1299SOL    HW2 5515   1.576   2.045   2.260
 1299SOL    HW3 5516   1.595   2.132   2.138
 1299SOL    MW4 5517   1.584   2.054   2.173
 1300SOL     OW 5518   0.872   2.604   2.279
 1300SOL    HW2 5519   0.852   2.590   2.186
 1300SOL    HW3 5520   0.965   2.583   2.286
 1300SOL    MW4 5521   0.882   2.599   2.268
 1301SOL     OW 5522   0.199   2.227   3.583
 1301SOL    HW2 5523   0.156   2.286   3.520
 1301SOL    HW3 5524   0.267   2.282   3.623
 1301SOL    MW4 5525   0.203   2.242   3.580
 1302SOL     OW 5526   1.311   2.847   3.128
 1302SOL    HW2 5527   1.374   2.844   3.201
 1302SOL    HW3 5528   1.227   2.865   3.170
 1302SOL    MW4 5529   1.307   2.849   3.143
 1303SOL     OW 5530   0.855   3.562   2.317
 1303SOL    HW2 5531   0.913   3.633   2.344
 1303SOL    HW3 5532   0.878   3.490   2.375
 1303SOL    MW4 5533   0.866   3.562   2.328
 1304SOL     OW 5534   1.650   2.024   2.907
 1304SOL    HW2 5535   1.695   1.942   2.926
 1304SOL    HW3 5536   1.670   2.080   2.983
 1304SOL    MW4 5537   1.660   2.020   2.919
 1305SOL     OW 5538   0.098   1.867   3.006
 1305SOL    HW2 5539   0.089   1.868   2.911
 1305SOL    HW3 5540   0.192   1.879   3.021
 1305SOL    MW4 5541   0.110   1.870   2.997
 1306SOL     OW 5542   1.735   3.060   2.626
 1306SOL    HW2 5543   1.714   3.006   2.549
 1306SOL    HW3 5544   1.831   3.058   2.630
 1306SOL    MW4 5545   1.744   3.053   2.615
 1307SOL     OW 5546   0.427   3.205   3.369
 1307SOL    HW2 5547   0.348   3.155   3.392
 1307SOL    HW3 5548   0.497   3.164   3.419
 1307SOL    MW4 5549   0.425   3.193   3.379
 1308SOL     OW 5550   0.311   1.994   2.052
 1308SOL    HW2 5551   0.240   2.049   2.020
 1308SOL    HW3 5552   0.353   1.960   1.973
 1308SOL    MW4 5553   0.307   1.996   2.038
 1309SOL     OW 5554   1.435   2.491   2.888
 1309SOL    HW2 5555   1.358   2.537   2.854
 1309SOL    HW3 5556   1.492   2.560   2.922
 1309SOL    MW4 5557   1.432   2.506   2.888
 1310SOL     OW 5558   0.067   2.093   1.901
 1310SOL    HW2 5559   0.034   2.172   1.945
 1310SOL    HW3 5560   0.122   2.126   1.830
 1310SOL    MW4 5561   0.070   2.107   1.898
 1311SOL     OW 5562   0.101   3.350   2.090
 1311SOL    HW2 5563   0.118   3.434   2.132
 1311SOL    HW3 5564   0.136   3.359   2.002
 1311SOL    MW4 5565   0.106   3.363   2.084
 1312SOL     OW 5566   1.373   3.439   2.307
 1312SOL    HW2 5567   1.436   3.429   2.236
 1312SOL    HW3 5568   1.290   3.459   2.262
 1312SOL    MW4 5569   1.370   3.440   2.292
 1313SOL     OW 5570   1.736   2.707   3.993
 1313SOL    HW2 5571   1.777   2.649   4.058
 1313SOL    HW3 5572   1.643   2.699   4.010
 1313SOL    MW4 5573   1.730   2.699   4.003
 1314SOL     OW 5574   1.602   2.639   4.988
 1314SOL    HW2 5575   1.557   2.706   5.039
 1314SOL    HW3 5576   1.690   2.675   4.974
 1314SOL    MW4 5577   1.608   2.652   4.992
 1315SOL     OW 5578   0.530   2.890   4.222
 1315SOL    HW2 5579   0.620   2.865   4.206
 1315SOL    HW3 5580   0.526   2.983   4.199
 1315SOL    MW4 5581   0.542   2.899   4.217
 1316SOL     OW 5582   1.646   3.593   4.364
 1316SOL    HW2 5583   1.658   3.539   4.442
 1316SOL    HW3 5584   1.683   3.541   4.293
 1316SOL    MW4 5585   1.652   3.578   4.365
 1317SOL     OW 5586   1.025   3.478   5.365
 1317SOL    HW2 5587   1.066   3.514   5.286
 1317SOL    HW3 5588   1.060   3.389   5.372
 1317SOL    MW4 5589   1.036   3.471   5.356
 1318SOL     OW 5590   1.582   3.033   4.969
 1318SOL    HW2 5591   1.503   2.998   4.927
 1318SOL    HW3 5592   1.609   3.105   4.913
 1318SOL    MW4 5593   1.575   3.038   4.956
 1319SOL     OW 5594   0.814   2.346   4.235
 1319SOL    HW2 5595   0.789   2.434   4.263
 1319SOL    HW3 5596   0.811   2.349   4.139
 1319SOL    MW4 5597   0.810   2.358   4.227
 1320SOL     OW 5598   0.256   2.374   4.163
 1320SOL    HW2 5599   0.288   2.462   4.145
 1320SOL    HW3 5600   0.244   2.372   4.258
 1320SOL    MW4 5601   0.259   2.386   4.175
 1321SOL     OW 5602   0.334   2.787   5.064
 1321SOL    HW2 5603   0.397   2.734   5.015
 1321SOL    HW3 5604   0.315   2.861   5.007
 1321SOL    MW4 5605   0.340   2.789   5.051
 1322SOL     OW 5606   0.655   2.129   4.250
 1322SOL    HW2 5607   0.713   2.205   4.252
 1322SOL    HW3 5608   0.590   2.150   4.183
 1322SOL    MW4 5609   0.654   2.141   4.241
 1323SOL     OW 5610   0.742   3.056   4.425
 1323SOL    HW2 5611   0.822   3.059   4.477
 1323SOL    HW3 5612   0.770   3.023   4.339
 1323SOL    MW4 5613   0.756   3.052   4.420
 1324SOL     OW 5614   0.767   3.397   5.328
 1324SOL    HW2 5615   0.851   3.423   5.367
 1324SOL    HW3 5616   0.791   3.341   5.254
 1324SOL    MW4 5617   0.781   3.393   5.323
 1325SOL     OW 5618   0.519   2.560   4.416
 1325SOL    HW2 5619   0.504   2.480   4.467
 1325SOL    HW3 5620   0.601   2.595   4.450
 1325SOL    MW4 5621   0.527   2.552   4.428
 1326SOL     OW 5622   0.856   3.246   5.101
 1326SOL    HW2 5623   0.820   3.312   5.041
 1326SOL    HW3 5624   0.784   3.184   5.114
 1326SOL    MW4 5625   0.842   3.246   5.095
 1327SOL     OW 5626   0.661   2.386   4.793
 1327SOL    HW2 5627   0.567   2.382   4.811
 1327SOL    HW3 5628   0.691   2.295   4.802
 1327SOL    MW4 5629   0.652   2.374   4.796
 1328SOL     OW 5630   0.407   2.800   4.697
 1328SOL    HW2 5631   0.362   2.807   4.613
 1328SOL    HW3 5632   0.387   2.883   4.741
 1328SOL    MW4 5633   0.399   2.812   4.691
 1329SOL     OW 5634   0.104   3.646   4.572
 1329SOL    HW2 5635   0.193   3.638   4.607
 1329SOL    HW3 5636   0.068   3.558   4.577
 1329SOL    MW4 5637   0.111   3.633   4.577
 1330SOL     OW 5638   1.369   3.038   3.941
 1330SOL    HW2 5639   1.287   3.074   3.907
 1330SOL    HW3 5640   1.437   3.081   3.890
 1330SOL    MW4 5641   1.367   3.048   3.929
 1331SOL     OW 5642   0.368   3.173   4.607
 1331SOL    HW2 5643   0.344   3.226   4.683
 1331SOL    HW3 5644   0.424   3.231   4.555
 1331SOL    MW4 5645   0.372   3.188   4.610
 1332SOL     OW 5646   0.930   2.817   4.417
 1332SOL    HW2 5647   0.844   2.804   4.457
 1332SOL    HW3 5648   0.983   2.744   4.449
 1332SOL    MW4 5649   0.926   2.806   4.426
 1333SOL     OW 5650   0.338   3.469   5.202
 1333SOL    HW2 5651   0.246   3.445   5.187
 1333SOL    HW3 5652   0.382   3.386   5.219
 1333SOL    MW4 5653   0.332   3.454   5.201
 1334SOL     OW 5654   0.921   3.179   4.134
 1334SOL    HW2 5655   0.898   3.241   4.202
 1334SOL    HW3 5656   0.878   3.097   4.160
 1334SOL    MW4 5657   0.913   3.175   4.145
 1335SOL     OW 5658   1.794   2.180   4.590
 1335SOL    HW2 5659   1.731   2.160   4.659
 1335SOL    HW3 5660   1.784   2.109   4.527
 1335SOL    MW4 5661   1.784   2.167   4.591
 1336SOL     OW 5662   0.418   2.152   4.102
 1336SOL    HW2 5663   0.392   2.114   4.018
 1336SOL    HW3 5664   0.355   2.222   4.118
 1336SOL    MW4 5665   0.407   2.155   4.093
 1337SOL     OW 5666   0.253   3.113   4.139
 1337SOL    HW2 5667   0.201   3.181   4.095
 1337SOL    HW3 5668   0.250   3.039   4.079
 1337SOL    MW4 5669   0.245   3.112   4.126
 1338SOL     OW 5670   0.915   3.576   3.917
 1338SOL    HW2 5671   0.870   3.592   4.000
 1338SOL    HW3 5672   0.846   3.541   3.859
 1338SOL    MW4 5673   0.901   3.573   3.919
 1339SOL     OW 5674   1.850   2.349   3.892
 1339SOL    HW2 5675   1.759   2.351   3.920
 1339SOL    HW3 5676   1.895   2.411   3.950
 1339SOL    MW4 5677   1.843   2.357   3.902
 1340SOL     OW 5678   1.595   2.952   4.242
 1340SOL    HW2 5679   1.505   2.952   4.277
 1340SOL    HW3 5680   1.588   2.998   4.159
 1340SOL    MW4 5681   1.582   2.958   4.236
 1341SOL     OW 5682   1.395   2.587   5.314
 1341SOL    HW2 5683   1.464   2.525   5.291
 1341SOL    HW3 5684   1.320   2.561   5.261
 1341SOL    MW4 5685   1.395   2.574   5.305
 1342SOL     OW 5686   0.136   3.467   4.866
 1342SOL    HW2 5687   0.119   3.413   4.943
 1342SOL    HW3 5688   0.124   3.557   4.896
 1342SOL    MW4 5689   0.133   3.471   4.880
 1343SOL     OW 5690   1.131   2.974   5.306
 1343SOL    HW2 5691   1.116   3.067   5.291
 1343SOL    HW3 5692   1.226   2.964   5.306
 1343SOL    MW4 5693   1.140   2.984   5.303
 1344SOL     OW 5694   0.927   2.398   5.507
 1344SOL    HW2 5695   1.017   2.399   5.474
 1344SOL    HW3 5696   0.886   2.323   5.465
 1344SOL    MW4 5697   0.933   2.388   5.498
 1345SOL     OW 5698   1.502   2.930   4.634
 1345SOL    HW2 5699   1.505   2.864   4.565
 1345SOL    HW3 5700   1.587   2.973   4.630
 1345SOL    MW4 5701   1.514   2.926   4.625
 1346SOL     OW 5702   1.122   2.533   4.203
 1346SOL    HW2 5703   1.148   2.557   4.114
 1346SOL    HW3 5704   1.104   2.440   4.199
 1346SOL    MW4 5705   1.124   2.525   4.190
 1347SOL     OW 5706   1.787   3.153   4.054
 1347SOL    HW2 5707   1.743   3.194   4.129
 1347SOL    HW3 5708   1.844   3.221   4.019
 1347SOL    MW4 5709   1.789   3.167   4.059
 1348SOL     OW 5710   0.707   2.202   5.457
 1348SOL    HW2 5711   0.717   2.128   5.397
 1348SOL    HW3 5712   0.743   2.171   5.540
 1348SOL    MW4 5713   0.713   2.188   5.459
 1349SOL     OW 5714   0.443   3.569   4.372
 1349SOL    HW2 5715   0.475   3.657   4.350
 1349SOL    HW3 5716   0.396   3.541   4.294
 1349SOL    MW4 5717   0.442   3.577   4.359
 1350SOL     OW 5718   1.827   1.931   4.421
 1350SOL    HW2 5719   1.881   1.882   4.483
 1350SOL    HW3 5720   1.770   1.865   4.382
 1350SOL    MW4 5721   1.827   1.915   4.423
 1351SOL     OW 5722   0.159   3.629   3.949
 1351SOL    HW2 5723   0.188   3.719   3.941
 1351SOL    HW3 5724   0.109   3.612   3.870
 1351SOL    MW4 5725   0.157   3.637   3.938
 1352SOL     OW 5726   0.946   1.884   4.834
 1352SOL    HW2 5727   0.905   1.962   4.796
 1352SOL    HW3 5728   1.040   1.902   4.829
 1352SOL    MW4 5729   0.952   1.896   4.829
 1353SOL     OW 5730   1.563   3.437   3.920
 1353SOL    HW2 5731   1.611   3.506   3.966
 1353SOL    HW3 5732   1.484   3.481   3.889
 1353SOL    MW4 5733   1.558   3.451   3.923
 1354SOL     OW 5734   0.961   2.562   3.864
 1354SOL    HW2 5735   0.963   2.509   3.785
 1354SOL    HW3 5736   1.049   2.599   3.870
 1354SOL    MW4 5737   0.973   2.561   3.853
 1355SOL     OW 5738   1.575   2.488   4.200
 1355SOL    HW2 5739   1.614   2.488   4.287
 1355SOL    HW3 5740   1.516   2.564   4.200
 1355SOL    MW4 5741   1.572   2.499   4.211
 1356SOL     OW 5742   0.892   2.855   5.329
 1356SOL    HW2 5743   0.869   2.835   5.419
 1356SOL    HW3 5744   0.977   2.899   5.334
 1356SOL    MW4 5745   0.899   2.858   5.341
 1357SOL     OW 5746   0.972   1.992   5.089
 1357SOL    HW2 5747   0.978   1.954   5.002
 1357SOL    HW3 5748   0.961   2.086   5.074
 1357SOL    MW4 5749   0.973   2.000   5.077
 1358SOL     OW 5750   1.061   2.481   4.923
 1358SOL    HW2 5751   1.136   2.510   4.870
 1358SOL    HW3 5752   0.993   2.546   4.907
 1358SOL    MW4 5753   1.062   2.493   4.913
 1359SOL     OW 5754   1.611   2.449   5.200
 1359SOL    HW2 5755   1.592   2.358   5.179
 1359SOL    HW3 5756   1.589   2.498   5.121
 1359SOL    MW4 5757   1.606   2.442   5.187
 1360SOL     OW 5758   1.753   3.543   5.104
 1360SOL    HW2 5759   1.681   3.505   5.155
 1360SOL    HW3 5760   1.770   3.628   5.145
 1360SOL    MW4 5761   1.747   3.548   5.116
 1361SOL     OW 5762   1.058   2.187   5.306
 1361SOL    HW2 5763   1.024   2.226   5.225
 1361SOL    HW3 5764   1.036   2.095   5.299
 1361SOL    MW4 5765   1.051   2.180   5.296
 1362SOL     OW 5766   1.467   3.001   5.382
 1362SOL    HW2 5767   1.549   3.042   5.412
 1362SOL    HW3 5768   1.430   2.963   5.462
 1362SOL    MW4 5769   1.473   3.002   5.397
 1363SOL     OW 5770   1.762   2.374   4.366
 1363SOL    HW2 5771   1.851   2.343   4.383
 1363SOL    HW3 5772   1.705   2.314   4.414
 1363SOL    MW4 5773   1.765   2.362   4.375
 1364SOL     OW 5774   0.188   2.088   4.395
 1364SOL    HW2 5775   0.179   2.028   4.321
 1364SOL    HW3 5776   0.121   2.059   4.458
 1364SOL    MW4 5777   0.178   2.075   4.393
 1365SOL     OW 5778   1.131   3.181   3.956
 1365SOL    HW2 5779   1.081   3.183   4.038
 1365SOL    HW3 5780   1.065   3.199   3.888
 1365SOL    MW4 5781   1.117   3.183   3.958
 1366SOL     OW 5782   0.135   2.261   4.758
 1366SOL    HW2 5783   0.107   2.352   4.767
 1366SOL    HW3 5784   0.072   2.222   4.697
 1366SOL    MW4 5785   0.122   2.267   4.752
 1367SOL     OW 5786   0.594   3.599   4.064
 1367SOL    HW2 5787   0.515   3.557   4.097
 1367SOL    HW3 5788   0.660   3.582   4.131
 1367SOL    MW4 5789   0.593   3.591   4.077
 1368SOL     OW 5790   1.722   3.119   5.461
 1368SOL    HW2 5791   1.772   3.045   5.493
 1368SOL    HW3 5792   1.668   3.146   5.536
 1368SOL    MW4 5793   1.722   3.113   5.474
 1369SOL     OW 5794   0.730   3.014   3.771
 1369SOL    HW2 5795   0.652   2.960   3.758
 1369SOL    HW3 5796   0.701   3.087   3.824
 1369SOL    MW4 5797   0.716   3.016   3.776
 1370SOL     OW 5798   1.856   2.754   4.963
 1370SOL    HW2 5799   1.872   2.792   4.876
 1370SOL    HW3 5800   1.890   2.820   5.024
 1370SOL    MW4 5801   1.863   2.767   4.959
 1371SOL     OW 5802   1.648   3.463   4.632
 1371SOL    HW2 5803   1.677   3.530   4.693
 1371SOL    HW3 5804   1.629   3.387   4.687
 1371SOL    MW4 5805   1.650   3.463   4.647
 1372SOL     OW 5806   1.311   3.530   3.839
 1372SOL    HW2 5807   1.237   3.493   3.889
 1372SOL    HW3 5808   1.319   3.620   3.872
 1372SOL    MW4 5809   1.302   3.537   3.851
 1373SOL     OW 5810   0.119   2.536   4.928
 1373SOL    HW2 5811   0.181   2.566   4.994
 1373SOL    HW3 5812   0.053   2.605   4.922
 1373SOL    MW4 5813   0.118   2.549   4.935
 1374SOL     OW 5814   1.535   3.204   3.781
 1374SOL    HW2 5815   1.482   3.253   3.717
 1374SOL    HW3 5816   1.566   3.270   3.842
 1374SOL    MW4 5817   1.533   3.218   3.779
 1375SOL     OW 5818   0.760   2.093   3.836
 1375SOL    HW2 5819   0.708   2.013   3.824
 1375SOL    HW3 5820   0.847   2.070   3.804
 1375SOL    MW4 5821   0.763   2.079   3.830
 1376SOL     OW 5822   0.214   3.645   5.380
 1376SOL    HW2 5823   0.188   3.713   5.318
 1376SOL    HW3 5824   0.262   3.582   5.328
 1376SOL    MW4 5825   0.216   3.645   5.366
 1377SOL     OW 5826   0.266   2.964   4.887
 1377SOL    HW2 5827   0.319   3.039   4.912
 1377SOL    HW3 5828   0.185   3.002   4.853
 1377SOL    MW4 5829   0.262   2.979   4.887
 1378SOL     OW 5830   0.806   2.868   4.875
 1378SOL    HW2 5831   0.834   2.777   4.887
 1378SOL    HW3 5832   0.735   2.862   4.811
 1378SOL    MW4 5833   0.799   2.856   4.870
 1379SOL     OW 5834   0.121   2.733   4.293
 1379SOL    HW2 5835   0.212   2.748   4.320
 1379SOL    HW3 5836   0.124   2.654   4.239
 1379SOL    MW4 5837   0.133   2.725   4.291
 1380SOL     OW 5838   0.357   2.441   5.547
 1380SOL    HW2 5839   0.304   2.521   5.554
 1380SOL    HW3 5840   0.427   2.453   5.612
 1380SOL    MW4 5841   0.359   2.454   5.555
 1381SOL     OW 5842   0.743   1.991   5.254
 1381SOL    HW2 5843   0.720   1.899   5.256
 1381SOL    HW3 5844   0.829   1.993   5.211
 1381SOL    MW4 5845   0.750   1.981   5.250
 1382SOL     OW 5846   0.427   2.515   5.293
 1382SOL    HW2 5847   0.507   2.565   5.279
 1382SOL    HW3 5848   0.418   2.509   5.388
 1382SOL    MW4 5849   0.436   2.521   5.303
 1383SOL     OW 5850   0.748   3.665   4.667
 1383SOL    HW2 5851   0.837   3.680   4.697
 1383SOL    HW3 5852   0.743   3.712   4.583
 1383SOL    MW4 5853   0.758   3.673   4.660
 1384SOL     OW 5854   1.404   2.040   5.564
 1384SOL    HW2 5855   1.460   1.967   5.590
 1384SOL    HW3 5856   1.374   2.078   5.646
 1384SOL    MW4 5857   1.408   2.035   5.577
 1385SOL     OW 5858   0.129   3.345   4.332
 1385SOL    HW2 5859   0.101   3.384   4.414
 1385SOL    HW3 5860   0.149   3.254   4.354
 1385SOL    MW4 5861   0.127   3.337   4.345
 1386SOL     OW 5862   0.962   3.388   4.367
 1386SOL    HW2 5863   1.045   3.342   4.351
 1386SOL    HW3 5864   0.952   3.387   4.463
 1386SOL    MW4 5865   0.972   3.381   4.377
 1387SOL     OW 5866   1.794   2.533   4.681
 1387SOL    HW2 5867   1.883   2.563   4.663
 1387SOL    HW3 5868   1.774   2.473   4.610
 1387SOL    MW4 5869   1.803   2.530   4.670
 1388SOL     OW 5870   1.645   2.712   5.561
 1388SOL    HW2 5871   1.700   2.636   5.542
 1388SOL    HW3 5872   1.647   2.720   5.656
 1388SOL    MW4 5873   1.653   2.703   5.569
 1389SOL     OW 5874   0.695   3.445   3.772
 1389SOL    HW2 5875   0.635   3.514   3.742
 1389SOL    HW3 5876   0.640   3.387   3.825
 1389SOL    MW4 5877   0.679   3.447   3.774
 1390SOL     OW 5878   1.133   2.090   3.995
 1390SOL    HW2 5879   1.066   2.066   3.932
 1390SOL    HW3 5880   1.198   2.139   3.944
 1390SOL    MW4 5881   1.133   2.092   3.980
 1391SOL     OW 5882   0.940   2.274   5.080
 1391SOL    HW2 5883   0.859   2.315   5.108
 1391SOL    HW3 5884   0.987   2.342   5.032
 1391SOL    MW4 5885   0.935   2.289   5.078
 1392SOL     OW 5886   1.200   2.612   4.703
 1392SOL    HW2 5887   1.213   2.706   4.713
 1392SOL    HW3 5888   1.161   2.602   4.617
 1392SOL    MW4 5889   1.196   2.623   4.693
 1393SOL     OW 5890   0.652   2.807   4.507
 1393SOL    HW2 5891   0.563   2.798   4.540
 1393SOL    HW3 5892   0.656   2.897   4.475
 1393SOL    MW4 5893   0.641   2.818   4.507
 1394SOL     OW 5894   1.451   2.390   4.502
 1394SOL    HW2 5895   1.396   2.311   4.501
 1394SOL    HW3 5896   1.433   2.431   4.586
 1394SOL    MW4 5897   1.441   2.385   4.511
 1395SOL     OW 5898   0.422   2.077   5.319
 1395SOL    HW2 5899   0.343   2.095   5.371
 1395SOL    HW3 5900   0.417   2.139   5.246
 1395SOL    MW4 5901   0.412   2.087   5.316
 1396SOL     OW 5902   1.070   2.594   4.459
 1396SOL    HW2 5903   1.007   2.526   4.483
 1396SOL    HW3 5904   1.090   2.575   4.367
 1396SOL    MW4 5905   1.064   2.581   4.451
 1397SOL     OW 5906   0.326   3.489   4.161
 1397SOL    HW2 5907   0.287   3.536   4.087
 1397SOL    HW3 5908   0.260   3.424   4.186
 1397SOL    MW4 5909   0.313   3.487   4.155
 1398SOL     OW 5910   0.818   2.898   4.185
 1398SOL    HW2 5911   0.820   2.872   4.092
 1398SOL    HW3 5912   0.876   2.835   4.228
 1398SOL    MW4 5913   0.826   2.887   4.179
 1399SOL     OW 5914   1.371   3.458   4.957
 1399SOL    HW2 5915   1.296   3.504   4.995
 1399SOL    HW3 5916   1.353   3.365   4.974
 1399SOL    MW4 5917   1.360   3.452   4.965
 1400SOL     OW 5918   1.375   3.666   4.387
 1400SOL    HW2 5919   1.318   3.619   4.326
 1400SOL    HW3 5920   1.461   3.627   4.374
 1400SOL    MW4 5921   1.378   3.657   4.377
 1401SOL     OW 5922   1.328   2.142   4.518
 1401SOL    HW2 5923   1.356   2.074   4.579
 1401SOL    HW3 5924   1.242   2.113   4.488
 1401SOL    MW4 5925   1.321   2.129   4.522
 1402SOL     OW 5926   0.133   3.076   4.452
 1402SOL    HW2 5927   0.197   3.108   4.515
 1402SOL    HW3 5928   0.182   3.012   4.400
 1402SOL    MW4 5929   0.148   3.072   4.453
 1403SOL     OW 5930   0.633   3.152   5.434
 1403SOL    HW2 5931   0.681   3.235   5.421
 1403SOL    HW3 5932   0.690   3.100   5.490
 1403SOL    MW4 5933   0.647   3.156   5.440
 1404SOL     OW 5934   0.209   3.394   5.574
 1404SOL    HW2 5935   0.265   3.318   5.589
 1404SOL    HW3 5936   0.158   3.372   5.496
 1404SOL    MW4 5937   0.209   3.381   5.565
 1405SOL     OW 5938   1.308   2.246   3.853
 1405SOL    HW2 5939   1.281   2.312   3.789
 1405SOL    HW3 5940   1.378   2.289   3.903
 1405SOL    MW4 5941   1.313   2.259   3.850
 1406SOL     OW 5942   0.976   1.951   3.790
 1406SOL    HW2 5943   1.032   1.943   3.712
 1406SOL    HW3 5944   0.953   1.861   3.812
 1406SOL    MW4 5945   0.981   1.938   3.783
 1407SOL     OW 5946   1.481   2.802   3.995
 1407SOL    HW2 5947   1.448   2.891   3.985
 1407SOL    HW3 5948   1.446   2.773   4.080
 1407SOL    MW4 5949   1.471   2.811   4.006
 1408SOL     OW 5950   1.094   3.231   5.183
 1408SOL    HW2 5951   1.005   3.237   5.151
 1408SOL    HW3 5952   1.138   3.310   5.151
 1408SOL    MW4 5953   1.089   3.241   5.175
 1409SOL     OW 5954   0.387   1.899   5.525
 1409SOL    HW2 5955   0.315   1.864   5.473
 1409SOL    HW3 5956   0.445   1.940   5.460
 1409SOL    MW4 5957   0.385   1.900   5.510
 1410SOL     OW 5958   0.411   3.389   4.824
 1410SOL    HW2 5959   0.456   3.451   4.881
 1410SOL    HW3 5960   0.318   3.408   4.837
 1410SOL    MW4 5961   0.404   3.399   4.831
 1411SOL     OW 5962   1.851   2.918   5.178
 1411SOL    HW2 5963   1.766   2.931   5.137
 1411SOL    HW3 5964   1.831   2.882   5.265
 1411SOL    MW4 5965   1.838   2.914   5.183
 1412SOL     OW 5966   0.833   3.457   4.932
 1412SOL    HW2 5967   0.857   3.446   4.841
 1412SOL    HW3 5968   0.756   3.514   4.930
 1412SOL    MW4 5969   0.825   3.462   4.921
 1413SOL     OW 5970   0.475   2.840   3.787
 1413SOL    HW2 5971   0.398   2.853   3.843
 1413SOL    HW3 5972   0.439   2.804   3.706
 1413SOL    MW4 5973   0.461   2.836   3.784
 1414SOL     OW 5974   1.128   2.813   4.030
 1414SOL    HW2 5975   1.038   2.834   4.005
 1414SOL    HW3 5976   1.155   2.886   4.086
 1414SOL    MW4 5977   1.120   2.825   4.033
 1415SOL     OW 5978   1.492   2.172   5.124
 1415SOL    HW2 5979   1.439   2.174   5.204
 1415SOL    HW3 5980   1.477   2.085   5.087
 1415SOL    MW4 5981   1.484   2.162   5.129
 1416SOL     OW 5982   1.828   2.096   4.997
 1416SOL    HW2 5983   1.809   2.163   4.932
 1416SOL    HW3 5984   1.885   2.034   4.952
 1416SOL    MW4 5985   1.832   2.097   4.983
 1417SOL     OW 5986   0.074   3.254   5.385
 1417SOL    HW2 5987   0.118   3.187   5.331
 1417SOL    HW3 5988  -0.011   3.216   5.405
 1417SOL    MW4 5989   0.069   3.240   5.381
 1418SOL     OW 5990   0.757   1.929   4.437
 1418SOL    HW2 5991   0.686   1.990   4.419
 1418SOL    HW3 5992   0.808   1.926   4.356
 1418SOL    MW4 5993   0.753   1.935   4.424
 1419SOL     OW 5994   0.515   3.169   4.186
 1419SOL    HW2 5995   0.508   3.201   4.276
 1419SOL    HW3 5996   0.425   3.153   4.158
 1419SOL    MW4 5997   0.503   3.171   4.193
 1420SOL     OW 5998   1.110   3.562   5.095
 1420SOL    HW2 5999   1.030   3.547   5.045
 1420SOL    HW3 6000   1.117   3.657   5.102
 1420SOL    MW4 6001   1.101   3.573   5.089
 1421SOL     OW 6002   1.224   3.527   4.585
 1421SOL    HW2 6003   1.271   3.600   4.544
 1421SOL    HW3 6004   1.145   3.566   4.621
 1421SOL    MW4 6005   1.219   3.542   4.584
 1422SOL     OW 6006   1.632   3.622   4.860
 1422SOL    HW2 6007   1.675   3.592   4.940
 1422SOL    HW3 6008   1.551   3.570   4.857
 1422SOL    MW4 6009   1.627   3.611   4.870
 1423SOL     OW 6010   0.717   2.586   5.567
 1423SOL    HW2 6011   0.787   2.528   5.539
 1423SOL    HW3 6012   0.660   2.531   5.622
 1423SOL    MW4 6013   0.719   2.573   5.571
 1424SOL     OW 6014   1.504   2.798   5.200
 1424SOL    HW2 6015   1.509   2.851   5.280
 1424SOL    HW3 6016   1.466   2.715   5.228
 1424SOL    MW4 6017   1.500   2.793   5.215
 1425SOL     OW 6018   1.144   1.933   5.446
 1425SOL    HW2 6019   1.139   1.840   5.427
 1425SOL    HW3 6020   1.227   1.944   5.492
 1425SOL    MW4 6021   1.152   1.922   5.450
 1426SOL     OW 6022   0.518   2.453   3.900
 1426SOL    HW2 6023   0.484   2.509   3.970
 1426SOL    HW3 6024   0.589   2.403   3.940
 1426SOL    MW4 6025   0.524   2.454   3.914
 1427SOL     OW 6026   1.614   3.204   4.722
 1427SOL    HW2 6027   1.649   3.186   4.635
 1427SOL    HW3 6028   1.519   3.205   4.709
 1427SOL    MW4 6029   1.606   3.201   4.709
 1428SOL     OW 6030   1.043   2.852   5.091
 1428SOL    HW2 6031   1.086   2.887   5.169
 1428SOL    HW3 6032   1.026   2.929   5.037
 1428SOL    MW4 6033   1.046   2.867   5.094
 1429SOL     OW 6034   1.574   2.339   3.964
 1429SOL    HW2 6035   1.566   2.410   3.901
 1429SOL    HW3 6036   1.592   2.383   4.047
 1429SOL    MW4 6037   1.575   2.353   3.966
 1430SOL     OW 6038   0.434   1.994   4.393
 1430SOL    HW2 6039   0.484   2.037   4.324
 1430SOL    HW3 6040   0.349   2.038   4.393
 1430SOL    MW4 6041   0.431   2.007   4.384
 1431SOL     OW 6042   0.193   3.056   5.253
 1431SOL    HW2 6043   0.221   3.009   5.331
 1431SOL    HW3 6044   0.114   3.011   5.224
 1431SOL    MW4 6045   0.186   3.045   5.259
 1432SOL     OW 6046   0.701   2.383   5.220
 1432SOL    HW2 6047   0.673   2.471   5.244
 1432SOL    HW3 6048   0.670   2.327   5.291
 1432SOL    MW4 6049   0.693   2.386   5.232
 1433SOL     OW 6050   1.243   2.601   3.939
 1433SOL    HW2 6051   1.290   2.619   3.858
 1433SOL    HW3 6052   1.209   2.685   3.967
 1433SOL    MW4 6053   1.245   2.615   3.932
 1434SOL     OW 6054   0.356   2.779   4.433
 1434SOL    HW2 6055   0.414   2.835   4.381
 1434SOL    HW3 6056   0.400   2.694   4.435
 1434SOL    MW4 6057   0.369   2.776   4.426
 1435SOL     OW 6058   1.496   2.131   4.270
 1435SOL    HW2 6059   1.418   2.081   4.295
 1435SOL    HW3 6060   1.467   2.222   4.270
 1435SOL    MW4 6061   1.482   2.135   4.273
 1436SOL     OW 6062   1.082   2.093   4.429
 1436SOL    HW2 6063   1.102   2.168   4.373
 1436SOL    HW3 6064   1.062   2.132   4.514
 1436SOL    MW4 6065   1.083   2.109   4.433
 1437SOL     OW 6066   0.978   3.343   3.761
 1437SOL    HW2 6067   1.005   3.421   3.713
 1437SOL    HW3 6068   0.885   3.358   3.780
 1437SOL    MW4 6069   0.969   3.356   3.757
 1438SOL     OW 6070   1.842   2.866   5.448
 1438SOL    HW2 6071   1.755   2.846   5.484
 1438SOL    HW3 6072   1.896   2.792   5.473
 1438SOL    MW4 6073   1.837   2.855   5.456
 1439SOL     OW 6074   0.063   3.379   4.605
 1439SOL    HW2 6075   0.095   3.383   4.696
 1439SOL    HW3 6076  -0.032   3.387   4.613
 1439SOL    MW4 6077   0.055   3.382   4.618
 1440SOL     OW 6078   0.018   2.505   4.152
 1440SOL    HW2 6079  -0.042   2.477   4.222
 1440SOL    HW3 6080   0.092   2.445   4.158
 1440SOL    MW4 6081   0.020   2.494   4.161
 1441SOL     OW 6082   1.586   3.717   5.586
 1441SOL    HW2 6083   1.631   3.641   5.551
 1441SOL    HW3 6084   1.624   3.730   5.673
 1441SOL    MW4 6085   1.596   3.710   5.592
 1442SOL     OW 6086   1.186   3.236   4.312
 1442SOL    HW2 6087   1.209   3.187   4.390
 1442SOL    HW3 6088   1.267   3.278   4.284
 1442SOL    MW4 6089   1.199   3.236   4.319
 1443SOL     OW 6090   0.444   2.244   5.041
 1443SOL    HW2 6091   0.477   2.325   5.081
 1443SOL    HW3 6092   0.417   2.270   4.953
 1443SOL    MW4 6093   0.443   2.258   5.035
 1444SOL     OW 6094   0.398   2.211   4.777
 1444SOL    HW2 6095   0.428   2.125   4.748
 1444SOL    HW3 6096   0.303   2.204   4.780
 1444SOL    MW4 6097   0.390   2.200   4.775
 1445SOL     OW 6098   1.227   2.420   5.468
 1445SOL    HW2 6099   1.279   2.355   5.421
 1445SOL    HW3 6100   1.185   2.471   5.398
 1445SOL    MW4 6101   1.228   2.417   5.451
 1446SOL     OW 6102   1.326   2.215   5.329
 1446SOL    HW2 6103   1.233   2.199   5.316
 1446SOL    HW3 6104   1.352   2.153   5.397
 1446SOL    MW4 6105   1.316   2.205   5.336
 1447SOL     OW 6106   0.541   1.989   4.668
 1447SOL    HW2 6107   0.551   1.898   4.694
 1447SOL    HW3 6108   0.497   1.985   4.583
 1447SOL    MW4 6109   0.537   1.977   4.660
 1448SOL     OW 6110   0.635   3.604   5.214
 1448SOL    HW2 6111   0.552   3.589   5.259
 1448SOL    HW3 6112   0.694   3.537   5.249
 1448SOL    MW4 6113   0.633   3.594   5.224
 1449SOL     OW 6114   1.692   2.311   4.839
 1449SOL    HW2 6115   1.625   2.344   4.899
 1449SOL    HW3 6116   1.735   2.389   4.805
 1449SOL    MW4 6117   1.690   2.326   4.843
 1450SOL     OW 6118   1.870   3.031   4.809
 1450SOL    HW2 6119   1.863   2.971   4.734
 1450SOL    HW3 6120   1.796   3.091   4.798
 1450SOL    MW4 6121   1.860   3.031   4.798
 1451SOL     OW 6122   1.252   2.893   4.727
 1451SOL    HW2 6123   1.266   2.865   4.818
 1451SOL    HW3 6124   1.338   2.924   4.699
 1451SOL    MW4 6125   1.265   2.894   4.736
 1452SOL     OW 6126   1.335   2.388   5.006
 1452SOL    HW2 6127   1.356   2.389   4.913
 1452SOL    HW3 6128   1.380   2.310   5.039
 1452SOL    MW4 6129   1.342   2.378   4.998
 1453SOL     OW 6130   1.828   2.519   5.548
 1453SOL    HW2 6131   1.865   2.464   5.617
 1453SOL    HW3 6132   1.853   2.476   5.466
 1453SOL    MW4 6133   1.835   2.507   5.547
 1454SOL     OW 6134   1.375   2.817   5.600
 1454SOL    HW2 6135   1.441   2.765   5.554
 1454SOL    HW3 6136   1.395   2.804   5.693
 1454SOL    MW4 6137   1.386   2.808   5.607
 1455SOL     OW 6138   1.326   1.903   3.948
 1455SOL    HW2 6139   1.400   1.947   3.991
 1455SOL    HW3 6140   1.250   1.957   3.970
 1455SOL    MW4 6141   1.326   1.915   3.956
 1456SOL     OW 6142   1.386   2.678   4.226
 1456SOL    HW2 6143   1.301   2.648   4.196
 1456SOL    HW3 6144   1.378   2.685   4.321
 1456SOL    MW4 6145   1.374   2.676   4.235
 1457SOL     OW 6146   0.462   3.141   4.957
 1457SOL    HW2 6147   0.474   3.168   5.048
 1457SOL    HW3 6148   0.443   3.222   4.910
 1457SOL    MW4 6149   0.461   3.156   4.962
 1458SOL     OW 6150   0.746   2.121   4.780
 1458SOL    HW2 6151   0.719   2.123   4.871
 1458SOL    HW3 6152   0.676   2.073   4.735
 1458SOL    MW4 6153   0.734   2.117   4.787
 1459SOL     OW 6154   0.600   3.613   4.942
 1459SOL    HW2 6155   0.652   3.690   4.919
 1459SOL    HW3 6156   0.609   3.605   5.037
 1459SOL    MW4 6157   0.609   3.620   4.953
 1460SOL     OW 6158   1.502   3.198   5.174
 1460SOL    HW2 6159   1.487   3.127   5.237
 1460SOL    HW3 6160   1.548   3.156   5.102
 1460SOL    MW4 6161   1.508   3.182   5.174
 1461SOL     OW 6162   0.576   2.929   5.291
 1461SOL    HW2 6163   0.613   2.934   5.203
 1461SOL    HW3 6164   0.615   3.002   5.338
 1461SOL    MW4 6165   0.586   2.939   5.286
 1462SOL     OW 6166   0.756   2.972   5.103
 1462SOL    HW2 6167   0.815   2.918   5.156
 1462SOL    HW3 6168   0.771   2.944   5.013
 1462SOL    MW4 6169   0.766   2.961   5.099
 1463SOL     OW 6170   0.759   2.344   3.952
 1463SOL    HW2 6171   0.832   2.393   3.915
 1463SOL    HW3 6172   0.775   2.253   3.926
 1463SOL    MW4 6173   0.771   2.339   3.945
 1464SOL     OW 6174   1.567   3.461   5.275
 1464SOL    HW2 6175   1.609   3.446   5.360
 1464SOL    HW3 6176   1.558   3.374   5.237
 1464SOL    MW4 6177   1.571   3.449   5.282
 1465SOL     OW 6178   1.227   1.940   4.866
 1465SOL    HW2 6179   1.282   1.949   4.788
 1465SOL    HW3 6180   1.282   1.974   4.937
 1465SOL    MW4 6181   1.241   1.945   4.865
 1466SOL     OW 6182   0.234   2.853   4.050
 1466SOL    HW2 6183   0.171   2.869   3.979
 1466SOL    HW3 6184   0.181   2.816   4.121
 1466SOL    MW4 6185   0.219   2.850   4.050
 1467SOL     OW 6186   0.590   3.207   3.909
 1467SOL    HW2 6187   0.605   3.183   4.001
 1467SOL    HW3 6188   0.498   3.185   3.893
 1467SOL    MW4 6189   0.580   3.200   3.919
 1468SOL     OW 6190   1.129   3.438   4.061
 1468SOL    HW2 6191   1.137   3.356   4.012
 1468SOL    HW3 6192   1.048   3.477   4.028
 1468SOL    MW4 6193   1.119   3.433   4.051
 1469SOL     OW 6194   0.388   3.596   4.630
 1469SOL    HW2 6195   0.392   3.507   4.665
 1469SOL    HW3 6196   0.414   3.587   4.539
 1469SOL    MW4 6197   0.391   3.584   4.622
 1470SOL     OW 6198   1.005   3.074   4.873
 1470SOL    HW2 6199   0.937   3.008   4.889
 1470SOL    HW3 6200   1.023   3.068   4.780
 1470SOL    MW4 6201   0.998   3.065   4.864
 1471SOL     OW 6202   0.094   3.349   5.124
 1471SOL    HW2 6203   0.084   3.307   5.210
 1471SOL    HW3 6204   0.015   3.402   5.114
 1471SOL    MW4 6205   0.083   3.350   5.135
 1472SOL     OW 6206   0.998   2.213   4.694
 1472SOL    HW2 6207   0.928   2.165   4.739
 1472SOL    HW3 6208   1.030   2.276   4.758
 1472SOL    MW4 6209   0.993   2.215   4.708
 1473SOL     OW 6210   0.649   2.649   5.314
 1473SOL    HW2 6211   0.642   2.744   5.302
 1473SOL    HW3 6212   0.658   2.638   5.409
 1473SOL    MW4 6213   0.650   2.661   5.324
 1474SOL     OW 6214   0.370   3.164   5.572
 1474SOL    HW2 6215   0.442   3.166   5.509
 1474SOL    HW3 6216   0.340   3.073   5.571
 1474SOL    MW4 6217   0.375   3.153   5.564
 1475SOL     OW 6218   1.454   1.927   5.039
 1475SOL    HW2 6219   1.525   1.873   5.003
 1475SOL    HW3 6220   1.453   1.906   5.132
 1475SOL    MW4 6221   1.463   1.918   5.047
 1476SOL     OW 6222   1.654   3.457   5.523
 1476SOL    HW2 6223   1.627   3.454   5.614
 1476SOL    HW3 6224   1.750   3.461   5.526
 1476SOL    MW4 6225   1.664   3.457   5.535
 1477SOL     OW 6226   0.465   2.319   4.507
 1477SOL    HW2 6227   0.536   2.267   4.470
 1477SOL    HW3 6228   0.451   2.284   4.594
 1477SOL    MW4 6229   0.473   2.308   4.514
 1478SOL     OW 6230   0.020   3.654   5.579
 1478SOL    HW2 6231   0.070   3.632   5.501
 1478SOL    HW3 6232   0.028   3.749   5.587
 1478SOL    MW4 6233   0.028   3.663   5.570
 1479SOL     OW 6234   0.781   3.412   4.583
 1479SOL    HW2 6235   0.709   3.349   4.596
 1479SOL    HW3 6236   0.742   3.497   4.601
 1479SOL    MW4 6237   0.765   3.415   4.586
 1480SOL     OW 6238   1.101   2.260   4.231
 1480SOL    HW2 6239   1.123   2.197   4.163
 1480SOL    HW3 6240   1.006   2.252   4.242
 1480SOL    MW4 6241   1.091   2.251   4.223
 1481SOL     OW 6242   0.186   1.950   4.163
 1481SOL    HW2 6243   0.257   1.971   4.102
 1481SOL    HW3 6244   0.140   1.878   4.121
 1481SOL    MW4 6245   0.190   1.944   4.149
 1482SOL     OW 6246   0.017   2.417   5.306
 1482SOL    HW2 6247   0.081   2.483   5.281
 1482SOL    HW3 6248  -0.064   2.444   5.263
 1482SOL    MW4 6249   0.015   2.429   5.298
 1483SOL     OW 6250   1.755   3.324   4.263
 1483SOL    HW2 6251   1.725   3.257   4.324
 1483SOL    HW3 6252   1.849   3.330   4.277
 1483SOL    MW4 6253   1.763   3.316   4.273
 1484SOL     OW 6254   1.311   3.001   4.193
 1484SOL    HW2 6255   1.283   3.087   4.226
 1484SOL    HW3 6256   1.339   3.017   4.103
 1484SOL    MW4 6257   1.311   3.015   4.185
 1485SOL     OW 6258   0.973   1.921   4.246
 1485SOL    HW2 6259   1.010   1.980   4.311
 1485SOL    HW3 6260   0.950   1.977   4.172
 1485SOL    MW4 6261   0.974   1.936   4.245
 1486SOL     OW 6262   1.826   2.803   4.668
 1486SOL    HW2 6263   1.817   2.835   4.579
 1486SOL    HW3 6264   1.779   2.719   4.668
 1486SOL    MW4 6265   1.819   2.796   4.658
 1487SOL     OW 6266   0.202   2.643   5.247
 1487SOL    HW2 6267   0.223   2.712   5.185
 1487SOL    HW3 6268   0.282   2.590   5.252
 1487SOL    MW4 6269   0.215   2.644   5.241
 1488SOL     OW 6270   1.738   2.734   4.369
 1488SOL    HW2 6271   1.832   2.723   4.357
 1488SOL    HW3 6272   1.714   2.806   4.310
 1488SOL    MW4 6273   1.748   2.742   4.360
 1489SOL     OW 6274   0.187   2.658   5.514
 1489SOL    HW2 6275   0.113   2.602   5.540
 1489SOL    HW3 6276   0.182   2.661   5.419
 1489SOL    MW4 6277   0.176   2.651   5.504
 1490SOL     OW 6278   0.353   1.945   4.964
 1490SOL    HW2 6279   0.396   2.029   4.984
 1490SOL    HW3 6280   0.426   1.883   4.957
 1490SOL    MW4 6281   0.368   1.948   4.965
 1491SOL     OW 6282   0.394   2.612   4.142
 1491SOL    HW2 6283   0.394   2.707   4.127
 1491SOL    HW3 6284   0.471   2.596   4.196
 1491SOL    MW4 6285   0.404   2.623   4.147
 1492SOL     OW 6286   1.170   2.471   5.206
 1492SOL    HW2 6287   1.206   2.444   5.122
 1492SOL    HW3 6288   1.083   2.505   5.185
 1492SOL    MW4 6289   1.164   2.472   5.193
 1493SOL     OW 6290   0.153   2.343   4.431
 1493SOL    HW2 6291   0.215   2.350   4.504
 1493SOL    HW3 6292   0.153   2.250   4.408
 1493SOL    MW4 6293   0.161   2.332   4.438
 1494SOL     OW 6294   1.700   3.683   3.963
 1494SOL    HW2 6295   1.767   3.716   3.903
 1494SOL    HW3 6296   1.657   3.762   3.997
 1494SOL    MW4 6297   1.702   3.698   3.959
 1495SOL     OW 6298   0.835   2.604   4.915
 1495SOL    HW2 6299   0.793   2.522   4.891
 1495SOL    HW3 6300   0.836   2.603   5.011
 1495SOL    MW4 6301   0.828   2.593   4.924
 1496SOL     OW 6302   1.506   3.737   5.314
 1496SOL    HW2 6303   1.509   3.643   5.297
 1496SOL    HW3 6304   1.529   3.745   5.406
 1496SOL    MW4 6305   1.509   3.725   5.324
 1497SOL     OW 6306   0.639   2.074   5.020
 1497SOL    HW2 6307   0.570   2.137   5.041
 1497SOL    HW3 6308   0.666   2.038   5.105
 1497SOL    MW4 6309   0.633   2.077   5.033
 1498SOL     OW 6310   0.022   2.915   3.889
 1498SOL    HW2 6311  -0.009   2.980   3.952
 1498SOL    HW3 6312  -0.029   2.837   3.908
 1498SOL    MW4 6313   0.012   2.912   3.899
 1499SOL     OW 6314   1.434   1.927   4.637
 1499SOL    HW2 6315   1.522   1.936   4.674
 1499SOL    HW3 6316   1.444   1.868   4.563
 1499SOL    MW4 6317   1.448   1.921   4.631
 1500SOL     OW 6318   1.466   2.666   4.481
 1500SOL    HW2 6319   1.546   2.681   4.430
 1500SOL    HW3 6320   1.459   2.571   4.487
 1500SOL    MW4 6321   1.475   2.655   4.476
 1501SOL     OW 6322   0.606   3.715   3.831
 1501SOL    HW2 6323   0.511   3.715   3.823
 1501SOL    HW3 6324   0.622   3.661   3.909
 1501SOL    MW4 6325   0.596   3.709   3.840
 1502SOL     OW 6326   0.916   2.592   5.178
 1502SOL    HW2 6327   0.985   2.659   5.175
 1502SOL    HW3 6328   0.849   2.630   5.234
 1502SOL    MW4 6329   0.917   2.605   5.185
 1503SOL     OW 6330   0.334   2.892   5.426
 1503SOL    HW2 6331   0.288   2.808   5.428
 1503SOL    HW3 6332   0.391   2.886   5.350
 1503SOL    MW4 6333   0.336   2.880   5.418
 1504SOL     OW 6334   1.451   2.535   3.747
 1504SOL    HW2 6335   1.379   2.511   3.689
 1504SOL    HW3 6336   1.517   2.572   3.689
 1504SOL    MW4 6337   1.450   2.537   3.732
 1505SOL     OW 6338   0.585   3.267   4.427
 1505SOL    HW2 6339   0.650   3.200   4.448
 1505SOL    HW3 6340   0.637   3.344   4.404
 1505SOL    MW4 6341   0.600   3.269   4.426
 1506SOL     OW 6342   0.846   2.432   4.557
 1506SOL    HW2 6343   0.786   2.450   4.629
 1506SOL    HW3 6344   0.880   2.344   4.576
 1506SOL    MW4 6345   0.842   2.422   4.570
 1507SOL     OW 6346   1.787   1.931   5.226
 1507SOL    HW2 6347   1.708   1.977   5.254
 1507SOL    HW3 6348   1.822   1.985   5.155
 1507SOL    MW4 6349   1.781   1.944   5.220
 1508SOL     OW 6350   1.071   3.015   4.576
 1508SOL    HW2 6351   1.163   2.996   4.594
 1508SOL    HW3 6352   1.044   2.945   4.516
 1508SOL    MW4 6353   1.079   3.003   4.570
 1509SOL     OW 6354   0.864   2.835   3.931
 1509SOL    HW2 6355   0.850   2.747   3.896
 1509SOL    HW3 6356   0.815   2.892   3.872
 1509SOL    MW4 6357   0.856   2.830   3.919
 1510SOL     OW 6358   1.345   3.253   4.672
 1510SOL    HW2 6359   1.318   3.337   4.637
 1510SOL    HW3 6360   1.305   3.248   4.759
 1510SOL    MW4 6361   1.338   3.262   4.678
 1511SOL     OW 6362   1.264   3.201   4.940
 1511SOL    HW2 6363   1.275   3.168   5.029
 1511SOL    HW3 6364   1.183   3.160   4.909
 1511SOL    MW4 6365   1.254   3.193   4.946
 1512SOL     OW 6366   0.277   2.559   4.710
 1512SOL    HW2 6367   0.227   2.558   4.791
 1512SOL    HW3 6368   0.297   2.651   4.694
 1512SOL    MW4 6369   0.273   2.571   4.718
 1513SOL     OW 6370   1.344   3.323   5.472
 1513SOL    HW2 6371   1.344   3.417   5.488
 1513SOL    HW3 6372   1.389   3.313   5.388
 1513SOL    MW4 6373   1.350   3.333   5.463
 1514SOL     OW 6374   1.583   2.041   4.033
 1514SOL    HW2 6375   1.576   2.045   4.128
 1514SOL    HW3 6376   1.595   2.132   4.006
 1514SOL    MW4 6377   1.584   2.054   4.041
 1515SOL     OW 6378   0.872   2.604   4.147
 1515SOL    HW2 6379   0.852   2.590   4.054
 1515SOL    HW3 6380   0.965   2.583   4.154
 1515SOL    MW4 6381   0.882   2.599   4.136
 1516SOL     OW 6382   0.199   2.227   5.451
 1516SOL    HW2 6383   0.156   2.286   5.388
 1516SOL    HW3 6384   0.267   2.282   5.491
 1516SOL    MW4 6385   0.203   2.242   5.448
 1517SOL     OW 6386   1.311   2.847   4.996
 1517SOL    HW2 6387   1.374   2.844   5.069
 1517SOL    HW3 6388   1.227   2.865   5.038
 1517SOL    MW4 6389   1.307   2.849   5.011
 1518SOL     OW 6390   0.855   3.562   4.185
 1518SOL    HW2 6391   0.913   3.633   4.212
 1518SOL    HW3 6392   0.878   3.490   4.243
 1518SOL    MW4 6393   0.866   3.562   4.196
 1519SOL     OW 6394   1.650   2.024   4.775
 1519SOL    HW2 6395   1.695   1.942   4.794
 1519SOL    HW3 6396   1.670   2.080   4.851
 1519SOL    MW4 6397   1.660   2.020   4.787
 1520SOL     OW 6398   0.098   1.867   4.874
 1520SOL    HW2 6399   0.089   1.868   4.779
 1520SOL    HW3 6400   0.192   1.879   4.889
 1520SOL    MW4 6401   0.110   1.870   4.865
 1521SOL     OW 6402   1.735   3.060   4.494
 1521SOL    HW2 6403   1.714   3.006   4.417
 1521SOL    HW3 6404   1.831   3.058   4.498
 1521SOL    MW4 6405   1.744   3.053   4.483
 1522SOL     OW 6406   0.427   3.205   5.237
 1522SOL    HW2 6407   0.348   3.155   5.260
 1522SOL    HW3 6408   0.497   3.164   5.287
 1522SOL    MW4 6409   0.425   3.193   5.247
 1523SOL     OW 6410   0.311   1.994   3.920
 1523SOL    HW2 6411   0.240   2.049   3.888
 1523SOL    HW3 6412   0.353   1.960   3.841
 1523SOL    MW4 6413   0.307   1.996   3.906
 1524SOL     OW 6414   1.435   2.491   4.756
 1524SOL    HW2 6415   1.358   2.537   4.722
 1524SOL    HW3 6416   1.492   2.560   4.790
 1524SOL    MW4 6417   1.432   2.506   4.756
 1525SOL     OW 6418   0.067   2.093   3.769
 1525SOL    HW2 6419   0.034   2.172   3.813
 1525SOL    HW3 6420   0.122   2.126   3.698
 1525SOL    MW4 6421   0.070   2.107   3.766
 1526SOL     OW 6422   0.101   3.350   3.958
 1526SOL    HW2 6423   0.118   3.434   4.000
 1526SOL    HW3 6424   0.136   3.359   3.870
 1526SOL    MW4 6425   0.106   3.363   3.952
 1527SOL     OW 6426   1.373   3.439   4.175
 1527SOL    HW2 6427   1.436   3.429   4.104
 1527SOL    HW3 6428   1.290   3.459   4.130
 1527SOL    MW4 6429   1.370   3.440   4.160
 1528SOL     OW 6430   1.736   2.707   5.862
 1528SOL    HW2 6431   1.777   2.649   5.927
 1528SOL    HW3 6432   1.643   2.699   5.879
 1528SOL    MW4 6433   1.730   2.699   5.872
 1529SOL     OW 6434   1.602   2.639   6.857
 1529SOL    HW2 6435   1.557   2.706   6.908
 1529SOL    HW3 6436   1.690   2.675   6.843
 1529SOL    MW4 6437   1.608   2.652   6.861
 1530SOL     OW 6438   0.530   2.890   6.091
 1530SOL    HW2 6439   0.620   2.865   6.075
 1530SOL    HW3 6440   0.526   2.983   6.068
 1530SOL    MW4 6441   0.542   2.899   6.086
 1531SOL     OW 6442   1.646   3.593   6.233
 1531SOL    HW2 6443   1.658   3.539   6.311
 1531SOL    HW3 6444   1.683   3.541   6.162
 1531SOL    MW4 6445   1.652   3.578   6.234
 1532SOL     OW 6446   1.025   3.478   7.234
 1532SOL    HW2 6447   1.066   3.514   7.155
 1532SOL    HW3 6448   1.060   3.389   7.241
 1532SOL    MW4 6449   1.036   3.471   7.225
 1533SOL     OW 6450   1.582   3.033   6.838
 1533SOL    HW2 6451   1.503   2.998   6.796
 1533SOL    HW3 6452   1.609   3.105   6.782
 1533SOL    MW4 6453   1.575   3.038   6.825
 1534SOL     OW 6454   0.814   2.346   6.104
 1534SOL    HW2 6455   0.789   2.434   6.132
 1534SOL    HW3 6456   0.811   2.349   6.008
 1534SOL    MW4 6457   0.810   2.358   6.096
 1535SOL     OW 6458   0.256   2.374   6.032
 1535SOL    HW2 6459   0.288   2.462   6.014
 1535SOL    HW3 6460   0.244   2.372   6.127
 1535SOL    MW4 6461   0.259   2.386   6.044
 1536SOL     OW 6462   0.334   2.787   6.933
 1536SOL    HW2 6463   0.397   2.734   6.884
 1536SOL    HW3 6464   0.315   2.861   6.876
 1536SOL    MW4 6465   0.340   2.789   6.920
 1537SOL     OW 6466   0.655   2.129   6.119
 1537SOL    HW2 6467   0.713   2.205   6.121
 1537SOL    HW3 6468   0.590   2.150   6.052
 1537SOL    MW4 6469   0.654   2.141   6.110
 1538SOL     OW 6470   0.742   3.056   6.294
 1538SOL    HW2 6471   0.822   3.059   6.346
 1538SOL    HW3 6472   0.770   3.023   6.208
 1538SOL    MW4 6473   0.756   3.052   6.289
 1539SOL     OW 6474   0.767   3.397   7.197
 1539SOL    HW2 6475   0.851   3.423   7.236
 1539SOL    HW3 6476   0.791   3.341   7.123
 1539SOL    MW4 6477   0.781   3.393   7.192
 1540SOL     OW 6478   0.519   2.560   6.285
 1540SOL    HW2 6479   0.504   2.480   6.336
 1540SOL    HW3 6480   0.601   2.595   6.319
 1540SOL    MW4 6481   0.527   2.552   6.297
 1541SOL     OW 6482   0.856   3.246   6.970
 1541SOL    HW2 6483   0.820   3.312   6.910
 1541SOL    HW3 6484   0.784   3.184   6.983
 1541SOL    MW4 6485   0.842   3.246   6.964
 1542SOL     OW 6486   0.661   2.386   6.662
 1542SOL    HW2 6487   0.567   2.382   6.680
 1542SOL    HW3 6488   0.691   2.295   6.671
 1542SOL    MW4 6489   0.652   2.374   6.665
 1543SOL     OW 6490   0.407   2.800   6.566
 1543SOL    HW2 6491   0.362   2.807   6.482
 1543SOL    HW3 6492   0.387   2.883   6.610
 1543SOL    MW4 6493   0.399   2.812   6.560
 1544SOL     OW 6494   0.104   3.646   6.441
 1544SOL    HW2 6495   0.193   3.638   6.476
 1544SOL    HW3 6496   0.068   3.558   6.446
 1544SOL    MW4 6497   0.111   3.633   6.446
 1545SOL     OW 6498   1.369   3.038   5.810
 1545SOL    HW2 6499   1.287   3.074   5.776
 1545SOL    HW3 6500   1.437   3.081   5.759
 1545SOL    MW4 6501   1.367   3.048   5.798
 1546SOL     OW 6502   0.368   3.173   6.476
 1546SOL    HW2 6503   0.344   3.226   6.552
 1546SOL    HW3 6504   0.424   3.231   6.424
 1546SOL    MW4 6505   0.372   3.188   6.479
 1547SOL     OW 6506   0.930   2.817   6.286
 1547SOL    HW2 6507   0.844   2.804   6.326
 1547SOL    HW3 6508   0.983   2.744   6.318
 1547SOL    MW4 6509   0.926   2.806   6.295
 1548SOL     OW 6510   0.338   3.469   7.071
 1548SOL    HW2 6511   0.246   3.445   7.056
 1548SOL    HW3 6512   0.382   3.386   7.088
 1548SOL    MW4 6513   0.332   3.454   7.070
 1549SOL     OW 6514   0.921   3.179   6.003
 1549SOL    HW2 6515   0.898   3.241   6.071
 1549SOL    HW3 6516   0.878   3.097   6.029
 1549SOL    MW4 6517   0.913   3.175   6.014
 1550SOL     OW 6518   1.794   2.180   6.459
 1550SOL    HW2 6519   1.731   2.160   6.528
 1550SOL    HW3 6520   1.784   2.109   6.396
 1550SOL    MW4 6521   1.784   2.167   6.460
 1551SOL     OW 6522   0.418   2.152   5.971
 1551SOL    HW2 6523   0.392   2.114   5.887
 1551SOL    HW3 6524   0.355   2.222   5.987
 1551SOL    MW4 6525   0.407   2.155   5.962
 1552SOL     OW 6526   0.253   3.113   6.008
 1552SOL    HW2 6527   0.201   3.181   5.964
 1552SOL    HW3 6528   0.250   3.039   5.948
 1552SOL    MW4 6529   0.245   3.112   5.995
 1553SOL     OW 6530   0.915   3.576   5.786
 1553SOL    HW2 6531   0.870   3.592   5.869
 1553SOL    HW3 6532   0.846   3.541   5.728
 1553SOL    MW4 6533   0.901   3.573   5.788
 1554SOL     OW 6534   1.850   2.349   5.761
 1554SOL    HW2 6535   1.759   2.351   5.789
 1554SOL    HW3 6536   1.895   2.411   5.819
 1554SOL    MW4 6537   1.843   2.357   5.771
 1555SOL     OW 6538   1.595   2.952   6.111
 1555SOL    HW2 6539   1.505   2.952   6.146
 1555SOL    HW3 6540   1.588   2.998   6.028
 1555SOL    MW4 6541   1.582   2.958   6.105
 1556SOL     OW 6542   1.395   2.587   7.183
 1556SOL    HW2 6543   1.464   2.525   7.160
 1556SOL    HW3 6544   1.320   2.561   7.130
 1556SOL    MW4 6545   1.395   2.574   7.174
 1557SOL     OW 6546   0.136   3.467   6.735
 1557SOL    HW2 6547   0.119   3.413   6.812
 1557SOL    HW3 6548   0.124   3.557   6.765
 1557SOL    MW4 6549   0.133   3.471   6.749
 1558SOL     OW 6550   1.131   2.974   7.175
 1558SOL    HW2 6551   1.116   3.067   7.160
 1558SOL    HW3 6552   1.226   2.964   7.175
 1558SOL    MW4 6553   1.140   2.984   7.172
 1559SOL     OW 6554   0.927   2.398   7.376
 1559SOL    HW2 6555   1.017   2.399   7.343
 1559SOL    HW3 6556   0.886   2.323   7.334
 1559SOL    MW4 6557   0.933   2.388   7.367
 1560SOL     OW 6558   1.502   2.930   6.503
 1560SOL    HW2 6559   1.505   2.864   6.434
 1560SOL    HW3 6560   1.587   2.973   6.499
 1560SOL    MW4 6561   1.514   2.926   6.494
 1561SOL     OW 6562   1.122   2.533   6.072
 1561SOL    HW2 6563   1.148   2.557   5.983
 1561SOL    HW3 6564   1.104   2.440   6.068
 1561SOL    MW4 6565   1.124   2.525   6.059
 1562SOL     OW 6566   1.787   3.153   5.923
 1562SOL    HW2 6567   1.743   3.194   5.998
 1562SOL    HW3 6568   1.844   3.221   5.888
 1562SOL    MW4 6569   1.789   3.167   5.928
 1563SOL     OW 6570   0.707   2.202   7.326
 1563SOL    HW2 6571   0.717   2.128   7.266
 1563SOL    HW3 6572   0.743   2.171   7.409
 1563SOL    MW4 6573   0.713   2.188   7.328
 1564SOL     OW 6574   0.443   3.569   6.241
 1564SOL    HW2 6575   0.475   3.657   6.219
 1564SOL    HW3 6576   0.396   3.541   6.163
 1564SOL    MW4 6577   0.442   3.577   6.228
 1565SOL     OW 6578   1.827   1.931   6.290
 1565SOL    HW2 6579   1.881   1.882   6.352
 1565SOL    HW3 6580   1.770   1.865   6.251
 1565SOL    MW4 6581   1.827   1.915   6.292
 1566SOL     OW 6582   0.159   3.629   5.818
 1566SOL    HW2 6583   0.188   3.719   5.810
 1566SOL    HW3 6584   0.109   3.612   5.739
 1566SOL    MW4 6585   0.157   3.637   5.807
 1567SOL     OW 6586   0.946   1.884   6.703
 1567SOL    HW2 6587   0.905   1.962   6.665
 1567SOL    HW3 6588   1.040   1.902   6.698
 1567SOL    MW4 6589   0.952   1.896   6.698
 1568SOL     OW 6590   1.563   3.437   5.789
 1568SOL    HW2 6591   1.611   3.506   5.835
 1568SOL    HW3 6592   1.484   3.481   5.758
 1568SOL    MW4 6593   1.558   3.451   5.792
 1569SOL     OW 6594   0.961   2.562   5.733
 1569SOL    HW2 6595   0.963   2.509   5.654
 1569SOL    HW3 6596   1.049   2.599   5.739
 1569SOL    MW4 6597   0.973   2.561   5.722
 1570SOL     OW 6598   1.575   2.488   6.069
 1570SOL    HW2 6599   1.614   2.488   6.156
 1570SOL    HW3 6600   1.516   2.564   6.069
 1570SOL    MW4 6601   1.572   2.499   6.080
 1571SOL     OW 6602   0.892   2.855   7.198
 1571SOL    HW2 6603   0.869   2.835   7.288
 1571SOL    HW3 6604   0.977   2.899   7.203
 1571SOL    MW4 6605   0.899   2.858   7.210
 1572SOL     OW 6606   0.972   1.992   6.958
 1572SOL    HW2 6607   0.978   1.954   6.871
 1572SOL    HW3 6608   0.961   2.086   6.943
 1572SOL    MW4 6609   0.973   2.000   6.946
 1573SOL     OW 6610   1.061   2.481   6.792
 1573SOL    HW2 6611   1.136   2.510   6.739
 1573SOL    HW3 6612   0.993   2.546   6.776
 1573SOL    MW4 6613   1.062   2.493   6.782
 1574SOL     OW 6614   1.611   2.449   7.069
 1574SOL    HW2 6615   1.592   2.358   7.048
 1574SOL    HW3 6616   1.589   2.498   6.990
 1574SOL    MW4 6617   1.606   2.442   7.056
 1575SOL     OW 6618   1.753   3.543   6.973
 1575SOL    HW2 6619   1.681   3.505   7.024
 1575SOL    HW3 6620   1.770   3.628   7.014
 1575SOL    MW4 6621   1.747   3.548   6.985
 1576SOL     OW 6622   1.058   2.187   7.175
 1576SOL    HW2 6623   1.024   2.226   7.094
 1576SOL    HW3 6624   1.036   2.095   7.168
 1576SOL    MW4 6625   1.051   2.180   7.165
 1577SOL     OW 6626   1.467   3.001   7.251
 1577SOL    HW2 6627   1.549   3.042   7.281
 1577SOL    HW3 6628   1.430   2.963   7.331
 1577SOL    MW4 6629   1.473   3.002   7.266
 1578SOL     OW 6630   1.762   2.374   6.235
 1578SOL    HW2 6631   1.851   2.343   6.252
 1578SOL    HW3 6632   1.705   2.314   6.283
 1578SOL    MW4 6633   1.765   2.362   6.244
 1579SOL     OW 6634   0.188   2.088   6.264
 1579SOL    HW2 6635   0.179   2.028   6.190
 1579SOL    HW3 6636   0.121   2.059   6.327
 1579SOL    MW4 6637   0.178   2.075   6.262
 1580SOL     OW 6638   1.131   3.181   5.825
 1580SOL    HW2 6639   1.081   3.183   5.907
 1580SOL    HW3 6640   1.065   3.199   5.757
 1580SOL    MW4 6641   1.117   3.183   5.827
 1581SOL     OW 6642   0.135   2.261   6.627
 1581SOL    HW2 6643   0.107   2.352   6.636
 1581SOL    HW3 6644   0.072   2.222   6.566
 1581SOL    MW4 6645   0.122   2.267   6.621
 1582SOL     OW 6646   0.594   3.599   5.933
 1582SOL    HW2 6647   0.515   3.557   5.966
 1582SOL    HW3 6648   0.660   3.582   6.000
 1582SOL    MW4 6649   0.593   3.591   5.946
 1583SOL     OW 6650   1.722   3.119   7.330
 1583SOL    HW2 6651   1.772   3.045   7.362
 1583SOL    HW3 6652   1.668   3.146   7.405
 1583SOL    MW4 6653   1.722   3.113   7.343
 1584SOL     OW 6654   0.730   3.014   5.640
 1584SOL    HW2 6655   0.652   2.960   5.627
 1584SOL    HW3 6656   0.701   3.087   5.693
 1584SOL    MW4 6657   0.716   3.016   5.645
 1585SOL     OW 6658   1.856   2.754   6.832
 1585SOL    HW2 6659   1.872   2.792   6.745
 1585SOL    HW3 6660   1.890   2.820   6.893
 1585SOL    MW4 6661   1.863   2.767   6.828
 1586SOL     OW 6662   1.648   3.463   6.501
 1586SOL    HW2 6663   1.677   3.530   6.562
 1586SOL    HW3 6664   1.629   3.387   6.556
 1586SOL    MW4 6665   1.650   3.463   6.516
 1587SOL     OW 6666   1.311   3.530   5.708
 1587SOL    HW2 6667   1.237   3.493   5.758
 1587SOL    HW3 6668   1.319   3.620   5.741
 1587SOL    MW4 6669   1.302   3.537   5.720
 1588SOL     OW 6670   0.119   2.536   6.797
 1588SOL    HW2 6671   0.181   2.566   6.863
 1588SOL    HW3 6672   0.053   2.605   6.791
 1588SOL    MW4 6673   0.118   2.549   6.804
 1589SOL     OW 6674   1.535   3.204   5.650
 1589SOL    HW2 6675   1.482   3.253   5.586
 1589SOL    HW3 6676   1.566   3.270   5.711
 1589SOL    MW4 6677   1.533   3.218   5.648
 1590SOL     OW 6678   0.760   2.093   5.705
 1590SOL    HW2 6679   0.708   2.013   5.693
 1590SOL    HW3 6680   0.847   2.070   5.673
 1590SOL    MW4 6681   0.763   2.079   5.699
 1591SOL     OW 6682   0.214   3.645   7.249
 1591SOL    HW2 6683   0.188   3.713   7.187
 1591SOL    HW3 6684   0.262   3.582   7.197
 1591SOL    MW4 6685   0.216   3.645   7.235
 1592SOL     OW 6686   0.266   2.964   6.756
 1592SOL    HW2 6687   0.319   3.039   6.781
 1592SOL    HW3 6688   0.185   3.002   6.722
 1592SOL    MW4 6689   0.262   2.979   6.756
 1593SOL     OW 6690   0.806   2.868   6.744
 1593SOL    HW2 6691   0.834   2.777   6.756
 1593SOL    HW3 6692   0.735   2.862   6.680
 1593SOL    MW4 6693   0.799   2.856   6.739
 1594SOL     OW 6694   0.121   2.733   6.162
 1594SOL    HW2 6695   0.212   2.748   6.189
 1594SOL    HW3 6696   0.124   2.654   6.108
 1594SOL    MW4 6697   0.133   2.725   6.160
 1595SOL     OW 6698   0.357   2.441   7.416
 1595SOL    HW2 6699   0.304   2.521   7.423
 1595SOL    HW3 6700   0.427   2.453   7.481
 1595SOL    MW4 6701   0.359   2.454   7.424
 1596SOL     OW 6702   0.743   1.991   7.123
 1596SOL    HW2 6703   0.720   1.899   7.125
 1596SOL    HW3 6704   0.829   1.993   7.080
 1596SOL    MW4 6705   0.750   1.981   7.119
 1597SOL     OW 6706   0.427   2.515   7.162
 1597SOL    HW2 6707   0.507   2.565   7.148
 1597SOL    HW3 6708   0.418   2.509   7.257
 1597SOL    MW4 6709   0.436   2.521   7.172
 1598SOL     OW 6710   0.748   3.665   6.536
 1598SOL    HW2 6711   0.837   3.680   6.566
 1598SOL    HW3 6712   0.743   3.712   6.452
 1598SOL    MW4 6713   0.758   3.673   6.529
 1599SOL     OW 6714   1.404   2.040   7.433
 1599SOL    HW2 6715   1.460   1.967   7.459
 1599SOL    HW3 6716   1.374   2.078   7.515
 1599SOL    MW4 6717   1.408   2.035   7.446
 1600SOL     OW 6718   0.129   3.345   6.201
 1600SOL    HW2 6719   0.101   3.384   6.283
 1600SOL    HW3 6720   0.149   3.254   6.223
 1600SOL    MW4 6721   0.127   3.337   6.214
 1601SOL     OW 6722   0.962   3.388   6.236
 1601SOL    HW2 6723   1.045   3.342   6.220
 1601SOL    HW3 6724   0.952   3.387   6.332
 1601SOL    MW4 6725   0.972   3.381   6.246
 1602SOL     OW 6726   1.794   2.533   6.550
 1602SOL    HW2 6727   1.883   2.563   6.532
 1602SOL    HW3 6728   1.774   2.473   6.479
 1602SOL    MW4 6729   1.803   2.530   6.539
 1603SOL     OW 6730   1.645   2.712   7.430
 1603SOL    HW2 6731   1.700   2.636   7.411
 1603SOL    HW3 6732   1.647   2.720   7.525
 1603SOL    MW4 6733   1.653   2.703   7.438
 1604SOL     OW 6734   0.695   3.445   5.641
 1604SOL    HW2 6735   0.635   3.514   5.611
 1604SOL    HW3 6736   0.640   3.387   5.694
 1604SOL    MW4 6737   0.679   3.447   5.643
 1605SOL     OW 6738   1.133   2.090   5.864
 1605SOL    HW2 6739   1.066   2.066   5.801
 1605SOL    HW3 6740   1.198   2.139   5.813
 1605SOL    MW4 6741   1.133   2.092   5.849
 1606SOL     OW 6742   0.940   2.274   6.949
 1606SOL    HW2 6743   0.859   2.315   6.977
 1606SOL    HW3 6744   0.987   2.342   6.901
 1606SOL    MW4 6745   0.935   2.289   6.947
 1607SOL     OW 6746   1.200   2.612   6.572
 1607SOL    HW2 6747   1.213   2.706   6.582
 1607SOL    HW3 6748   1.161   2.602   6.486
 1607SOL    MW4 6749   1.196   2.623   6.562
 1608SOL     OW 6750   0.652   2.807   6.376
 1608SOL    HW2 6751   0.563   2.798   6.409
 1608SOL    HW3 6752   0.656   2.897   6.344
 1608SOL    MW4 6753   0.641   2.818   6.376
 1609SOL     OW 6754   1.451   2.390   6.371
 1609SOL    HW2 6755   1.396   2.311   6.370
 1609SOL    HW3 6756   1.433   2.431   6.455
 1609SOL    MW4 6757   1.441   2.385   6.380
 1610SOL     OW 6758   0.422   2.077   7.188
 1610SOL    HW2 6759   0.343   2.095   7.240
 1610SOL    HW3 6760   0.417   2.139   7.115
 1610SOL    MW4 6761   0.412   2.087   7.185
 1611SOL     OW 6762   1.070   2.594   6.328
 1611SOL    HW2 6763   1.007   2.526   6.352
 1611SOL    HW3 6764   1.090   2.575   6.236
 1611SOL    MW4 6765   1.064   2.581   6.320
 1612SOL     OW 6766   0.326   3.489   6.030
 1612SOL    HW2 6767   0.287   3.536   5.956
 1612SOL    HW3 6768   0.260   3.424   6.055
 1612SOL    MW4 6769   0.313   3.487   6.024
 1613SOL     OW 6770   0.818   2.898   6.054
 1613SOL    HW2 6771   0.820   2.872   5.961
 1613SOL    HW3 6772   0.876   2.835   6.097
 1613SOL    MW4 6773   0.826   2.887   6.048
 1614SOL     OW 6774   1.371   3.458   6.826
 1614SOL    HW2 6775   1.296   3.504   6.864
 1614SOL    HW3 6776   1.353   3.365   6.843
 1614SOL    MW4 6777   1.360   3.452   6.834
 1615SOL     OW 6778   1.375   3.666   6.256
 1615SOL    HW2 6779   1.318   3.619   6.195
 1615SOL    HW3 6780   1.461   3.627   6.243
 1615SOL    MW4 6781   1.378   3.657   6.246
 1616SOL     OW 6782   1.328   2.142   6.387
 1616SOL    HW2 6783   1.356   2.074   6.448
 1616SOL    HW3 6784   1.242   2.113   6.357
 1616SOL    MW4 6785   1.321   2.129   6.391
 1617SOL     OW 6786   0.133   3.076   6.321
 1617SOL    HW2 6787   0.197   3.108   6.384
 1617SOL    HW3 6788   0.182   3.012   6.269
 1617SOL    MW4 6789   0.148   3.072   6.322
 1618SOL     OW 6790   0.633   3.152   7.303
 1618SOL    HW2 6791   0.681   3.235   7.290
 1618SOL    HW3 6792   0.690   3.100   7.359
 1618SOL    MW4 6793   0.647   3.156   7.309
 1619SOL     OW 6794   0.209   3.394   7.443
 1619SOL    HW2 6795   0.265   3.318   7.458
 1619SOL    HW3 6796   0.158   3.372   7.365
 1619SOL    MW4 6797   0.209   3.381   7.434
 1620SOL     OW 6798   1.308   2.246   5.722
 1620SOL    HW2 6799   1.281   2.312   5.658
 1620SOL    HW3 6800   1.378   2.289   5.772
 1620SOL    MW4 6801   1.313   2.259   5.719
 1621SOL     OW 6802   0.976   1.951   5.659
 1621SOL    HW2 6803   1.032   1.943   5.581
 1621SOL    HW3 6804   0.953   1.861   5.681
 1621SOL    MW4 6805   0.981   1.938   5.652
 1622SOL     OW 6806   1.481   2.802   5.864
 1622SOL    HW2 6807   1.448   2.891   5.854
 1622SOL    HW3 6808   1.446   2.773   5.949
 1622SOL    MW4 6809   1.471   2.811   5.875
 1623SOL     OW 6810   1.094   3.231   7.052
 1623SOL    HW2 6811   1.005   3.237   7.020
 1623SOL    HW3 6812   1.138   3.310   7.020
 1623SOL    MW4 6813   1.089   3.241   7.044
 1624SOL     OW 6814   0.387   1.899   7.394
 1624SOL    HW2 6815   0.315   1.864   7.342
 1624SOL    HW3 6816   0.445   1.940   7.329
 1624SOL    MW4 6817   0.385   1.900   7.379
 1625SOL     OW 6818   0.411   3.389   6.693
 1625SOL    HW2 6819   0.456   3.451   6.750
 1625SOL    HW3 6820   0.318   3.408   6.706
 1625SOL    MW4 6821   0.404   3.399   6.700
 1626SOL     OW 6822   1.851   2.918   7.047
 1626SOL    HW2 6823   1.766   2.931   7.006
 1626SOL    HW3 6824   1.831   2.882   7.134
 1626SOL    MW4 6825   1.838   2.914   7.052
 1627SOL     OW 6826   0.833   3.457   6.801
 1627SOL    HW2 6827   0.857   3.446   6.710
 1627SOL    HW3 6828   0.756   3.514   6.799
 1627SOL    MW4 6829   0.825   3.462   6.790
 1628SOL     OW 6830   0.475   2.840   5.656
 1628SOL    HW2 6831   0.398   2.853   5.712
 1628SOL    HW3 6832   0.439   2.804   5.575
 1628SOL    MW4 6833   0.461   2.836   5.653
 1629SOL     OW 6834   1.128   2.813   5.899
 1629SOL    HW2 6835   1.038   2.834   5.874
 1629SOL    HW3 6836   1.155   2.886   5.955
 1629SOL    MW4 6837   1.120   2.825   5.902
 1630SOL     OW 6838   0.628   3.162   6.591
 1630SOL    HW2 6839   0.621   3.141   6.685
 1630SOL    HW3 6840   0.546   3.130   6.554
 1630SOL    MW4 6841   0.616   3.156   6.598
 1631SOL     OW 6842   1.492   2.172   6.993
 1631SOL    HW2 6843   1.439   2.174   7.073
 1631SOL    HW3 6844   1.477   2.085   6.956
 1631SOL    MW4 6845   1.484   2.162   6.998
 1632SOL     OW 6846   1.828   2.096   6.866
 1632SOL    HW2 6847   1.809   2.163   6.801
 1632SOL    HW3 6848   1.885   2.034   6.821
 1632SOL    MW4 6849   1.832   2.097   6.852
 1633SOL     OW 6850   0.074   3.254   7.254
 1633SOL    HW2 6851   0.118   3.187   7.200
 1633SOL    HW3 6852  -0.011   3.216   7.274
 1633SOL    MW4 6853   0.069   3.240   7.250
 1634SOL     OW 6854   0.757   1.929   6.306
 1634SOL    HW2 6855   0.686   1.990   6.288
 1634SOL    HW3 6856   0.808   1.926   6.225
 1634SOL    MW4 6857   0.753   1.935   6.293
 1635SOL     OW 6858   0.515   3.169   6.055
 1635SOL    HW2 6859   0.508   3.201   6.145
 1635SOL    HW3 6860   0.425   3.153   6.027
 1635SOL    MW4 6861   0.503   3.171   6.062
 1636SOL     OW 6862   1.110   3.562   6.964
 1636SOL    HW2 6863   1.030   3.547   6.914
 1636SOL    HW3 6864   1.117   3.657   6.971
 1636SOL    MW4 6865   1.101   3.573   6.958
 1637SOL     OW 6866   1.224   3.527   6.454
 1637SOL    HW2 6867   1.271   3.600   6.413
 1637SOL    HW3 6868   1.145   3.566   6.490
 1637SOL    MW4 6869   1.219   3.542   6.453
 1638SOL     OW 6870   1.632   3.622   6.729
 1638SOL    HW2 6871   1.675   3.592   6.809
 1638SOL    HW3 6872   1.551   3.570   6.726
 1638SOL    MW4 6873   1.627   3.611   6.739
 1639SOL     OW 6874   0.717   2.586   7.436
 1639SOL    HW2 6875   0.787   2.528   7.408
 1639SOL    HW3 6876   0.660   2.531   7.491
 1639SOL    MW4 6877   0.719   2.573   7.440
 1640SOL     OW 6878   1.504   2.798   7.069
 1640SOL    HW2 6879   1.509   2.851   7.149
 1640SOL    HW3 6880   1.466   2.715   7.097
 1640SOL    MW4 6881   1.500   2.793   7.084
 1641SOL     OW 6882   1.144   1.933   7.315
 1641SOL    HW2 6883   1.139   1.840   7.296
 1641SOL    HW3 6884   1.227   1.944   7.361
 1641SOL    MW4 6885   1.152   1.922   7.319
 1642SOL     OW 6886   0.518   2.453   5.769
 1642SOL    HW2 6887   0.484   2.509   5.839
 1642SOL    HW3 6888   0.589   2.403   5.809
 1642SOL    MW4 6889   0.524   2.454   5.783
 1643SOL     OW 6890   1.614   3.204   6.591
 1643SOL    HW2 6891   1.649   3.186   6.504
 1643SOL    HW3 6892   1.519   3.205   6.578
 1643SOL    MW4 6893   1.606   3.201   6.578
 1644SOL     OW 6894   1.043   2.852   6.960
 1644SOL    HW2 6895   1.086   2.887   7.038
 1644SOL    HW3 6896   1.026   2.929   6.906
 1644SOL    MW4 6897   1.046   2.867   6.963
 1645SOL     OW 6898   1.574   2.339   5.833
 1645SOL    HW2 6899   1.566   2.410   5.770
 1645SOL    HW3 6900   1.592   2.383   5.916
 1645SOL    MW4 6901   1.575   2.353   5.835
 1646SOL     OW 6902   0.434   1.994   6.262
 1646SOL    HW2 6903   0.484   2.037   6.193
 1646SOL    HW3 6904   0.349   2.038   6.262
 1646SOL    MW4 6905   0.431   2.007   6.253
 1647SOL     OW 6906   0.193   3.056   7.122
 1647SOL    HW2 6907   0.221   3.009   7.200
 1647SOL    HW3 6908   0.114   3.011   7.093
 1647SOL    MW4 6909   0.186   3.045   7.128
 1648SOL     OW 6910   0.701   2.383   7.089
 1648SOL    HW2 6911   0.673   2.471   7.113
 1648SOL    HW3 6912   0.670   2.327   7.160
 1648SOL    MW4 6913   0.693   2.386   7.101
 1649SOL     OW 6914   1.243   2.601   5.808
 1649SOL    HW2 6915   1.290   2.619   5.727
 1649SOL    HW3 6916   1.209   2.685   5.836
 1649SOL    MW4 6917   1.245   2.615   5.801
 1650SOL     OW 6918   0.356   2.779   6.302
 1650SOL    HW2 6919   0.414   2.835   6.250
 1650SOL    HW3 6920   0.400   2.694   6.304
 1650SOL    MW4 6921   0.369   2.776   6.295
 1651SOL     OW 6922   1.496   2.131   6.139
 1651SOL    HW2 6923   1.418   2.081   6.164
 1651SOL    HW3 6924   1.467   2.222   6.139
 1651SOL    MW4 6925   1.482   2.135   6.142
 1652SOL     OW 6926   1.082   2.093   6.298
 1652SOL    HW2 6927   1.102   2.168   6.242
 1652SOL    HW3 6928   1.062   2.132   6.383
 1652SOL    MW4 6929   1.083   2.109   6.302
 1653SOL     OW 6930   0.978   3.343   5.630
 1653SOL    HW2 6931   1.005   3.421   5.582
 1653SOL    HW3 6932   0.885   3.358   5.649
 1653SOL    MW4 6933   0.969   3.356   5.626
 1654SOL     OW 6934   1.842   2.866   7.317
 1654SOL    HW2 6935   1.755   2.846   7.353
 1654SOL    HW3 6936   1.896   2.792   7.342
 1654SOL    MW4 6937   1.837   2.855   7.325
 1655SOL     OW 6938   0.063   3.379   6.474
 1655SOL    HW2 6939   0.095   3.383   6.565
 1655SOL    HW3 6940  -0.032   3.387   6.482
 1655SOL    MW4 6941   0.055   3.382   6.487
 1656SOL     OW 6942   0.018   2.505   6.021
 1656SOL    HW2 6943  -0.042   2.477   6.091
 1656SOL    HW3 6944   0.092   2.445   6.027
 1656SOL    MW4 6945   0.020   2.494   6.030
 1657SOL     OW 6946   1.586   3.717   7.455
 1657SOL    HW2 6947   1.631   3.641   7.420
 1657SOL    HW3 6948   1.624   3.730   7.542
 1657SOL    MW4 6949   1.596   3.710   7.461
 1658SOL     OW 6950   1.186   3.236   6.181
 1658SOL    HW2 6951   1.209   3.187   6.259
 1658SOL    HW3 6952   1.267   3.278   6.153
 1658SOL    MW4 6953   1.199   3.236   6.188
 1659SOL     OW 6954   0.444   2.244   6.910
 1659SOL    HW2 6955   0.477   2.325   6.950
 1659SOL    HW3 6956   0.417   2.270   6.822
 1659SOL    MW4 6957   0.443   2.258   6.904
 1660SOL     OW 6958   0.398   2.211   6.646
 1660SOL    HW2 6959   0.428   2.125   6.617
 1660SOL    HW3 6960   0.303   2.204   6.649
 1660SOL    MW4 6961   0.390   2.200   6.644
 1661SOL     OW 6962   1.227   2.420   7.337
 1661SOL    HW2 6963   1.279   2.355   7.290
 1661SOL    HW3 6964   1.185   2.471   7.267
 1661SOL    MW4 6965   1.228   2.417   7.320
 1662SOL     OW 6966   1.326   2.215   7.198
 1662SOL    HW2 6967   1.233   2.199   7.185
 1662SOL    HW3 6968   1.352   2.153   7.266
 1662SOL    MW4 6969   1.316   2.205   7.205
 1663SOL     OW 6970   0.541   1.989   6.537
 1663SOL    HW2 6971   0.551   1.898   6.563
 1663SOL    HW3 6972   0.497   1.985   6.452
 1663SOL    MW4 6973   0.537   1.977   6.529
 1664SOL     OW 6974   1.692   2.311   6.708
 1664SOL    HW2 6975   1.625   2.344   6.768
 1664SOL    HW3 6976   1.735   2.389   6.674
 1664SOL    MW4 6977   1.690   2.326   6.712
 1665SOL     OW 6978   1.870   3.031   6.678
 1665SOL    HW2 6979   1.863   2.971   6.603
 1665SOL    HW3 6980   1.796   3.091   6.667
 1665SOL    MW4 6981   1.860   3.031   6.667
 1666SOL     OW 6982   1.252   2.893   6.596
 1666SOL    HW2 6983   1.266   2.865   6.687
 1666SOL    HW3 6984   1.338   2.924   6.568
 1666SOL    MW4 6985   1.265   2.894   6.605
 1667SOL     OW 6986   1.335   2.388   6.875
 1667SOL    HW2 6987   1.356   2.389   6.782
 1667SOL    HW3 6988   1.380   2.310   6.908
 1667SOL    MW4 6989   1.342   2.378   6.867
 1668SOL     OW 6990   1.828   2.519   7.417
 1668SOL    HW2 6991   1.865   2.464   7.486
 1668SOL    HW3 6992   1.853   2.476   7.335
 1668SOL    MW4 6993   1.835   2.507   7.416
 1669SOL     OW 6994   1.375   2.817   7.468
 1669SOL    HW2 6995   1.441   2.765   7.422
 1669SOL    HW3 6996   1.395   2.804   7.561
 1669SOL    MW4 6997   1.386   2.808   7.475
 1670SOL     OW 6998   1.326   1.903   5.817
 1670SOL    HW2 6999   1.400   1.947   5.860
 1670SOL    HW3 7000   1.250   1.957   5.839
 1670SOL    MW4 7001   1.326   1.915   5.825
 1671SOL     OW 7002   1.386   2.678   6.095
 1671SOL    HW2 7003   1.301   2.648   6.065
 1671SOL    HW3 7004   1.378   2.685   6.190
 1671SOL    MW4 7005   1.374   2.676   6.104
 1672SOL     OW 7006   0.462   3.141   6.826
 1672SOL    HW2 7007   0.474   3.168   6.917
 1672SOL    HW3 7008   0.443   3.222   6.779
 1672SOL    MW4 7009   0.461   3.156   6.831
 1673SOL     OW 7010   0.746   2.121   6.649
 1673SOL    HW2 7011   0.719   2.123   6.740
 1673SOL    HW3 7012   0.676   2.073   6.604
 1673SOL    MW4 7013   0.734   2.117   6.656
 1674SOL     OW 7014   0.600   3.613   6.811
 1674SOL    HW2 7015   0.652   3.690   6.788
 1674SOL    HW3 7016   0.609   3.605   6.906
 1674SOL    MW4 7017   0.609   3.620   6.822
 1675SOL     OW 7018   1.502   3.198   7.043
 1675SOL    HW2 7019   1.487   3.127   7.106
 1675SOL    HW3 7020   1.548   3.156   6.971
 1675SOL    MW4 7021   1.508   3.182   7.043
 1676SOL     OW 7022   0.576   2.929   7.160
 1676SOL    HW2 7023   0.613   2.934   7.072
 1676SOL    HW3 7024   0.615   3.002   7.207
 1676SOL    MW4 7025   0.586   2.939   7.155
 1677SOL     OW 7026   0.756   2.972   6.972
 1677SOL    HW2 7027   0.815   2.918   7.025
 1677SOL    HW3 7028   0.771   2.944   6.882
 1677SOL    MW4 7029   0.766   2.961   6.968
 1678SOL     OW 7030   0.759   2.344   5.821
 1678SOL    HW2 7031   0.832   2.393   5.784
 1678SOL    HW3 7032   0.775   2.253   5.795
 1678SOL    MW4 7033   0.771   2.339   5.814
 1679SOL     OW 7034   1.567   3.461   7.144
 1679SOL    HW2 7035   1.609   3.446   7.229
 1679SOL    HW3 7036   1.558   3.374   7.106
 1679SOL    MW4 7037   1.571   3.449   7.151
 1680SOL     OW 7038   1.227   1.940   6.735
 1680SOL    HW2 7039   1.282   1.949   6.657
 1680SOL    HW3 7040   1.282   1.974   6.806
 1680SOL    MW4 7041   1.241   1.945   6.734
 1681SOL     OW 7042   0.234   2.853   5.919
 1681SOL    HW2 7043   0.171   2.869   5.848
 1681SOL    HW3 7044   0.181   2.816   5.990
 1681SOL    MW4 7045   0.219   2.850   5.919
 1682SOL     OW 7046   0.590   3.207   5.778
 1682SOL    HW2 7047   0.605   3.183   5.870
 1682SOL    HW3 7048   0.498   3.185   5.762
 1682SOL    MW4 7049   0.580   3.200   5.788
 1683SOL     OW 7050   1.129   3.438   5.930
 1683SOL    HW2 7051   1.137   3.356   5.881
 1683SOL    HW3 7052   1.048   3.477   5.897
 1683SOL    MW4 7053   1.119   3.433   5.920
 1684SOL     OW 7054   0.388   3.596   6.499
 1684SOL    HW2 7055   0.392   3.507   6.534
 1684SOL    HW3 7056   0.414   3.587   6.408
 1684SOL    MW4 7057   0.391   3.584   6.491
 1685SOL     OW 7058   1.005   3.074   6.742
 1685SOL    HW2 7059   0.937   3.008   6.758
 1685SOL    HW3 7060   1.023   3.068   6.649
 1685SOL    MW4 7061   0.998   3.065   6.733
 1686SOL     OW 7062   0.094   3.349   6.993
 1686SOL    HW2 7063   0.084   3.307   7.079
 1686SOL    HW3 7064   0.015   3.402   6.983
 1686SOL    MW4 7065   0.083   3.350   7.004
 1687SOL     OW 7066   0.998   2.213   6.563
 1687SOL    HW2 7067   0.928   2.165   6.608
 1687SOL    HW3 7068   1.030   2.276   6.627
 1687SOL    MW4 7069   0.993   2.215   6.577
 1688SOL     OW 7070   0.649   2.649   7.183
 1688SOL    HW2 7071   0.642   2.744   7.171
 1688SOL    HW3 7072   0.658   2.638   7.278
 1688SOL    MW4 7073   0.650   2.661   7.193
 1689SOL     OW 7074   0.370   3.164   7.441
 1689SOL    HW2 7075   0.442   3.166   7.378
 1689SOL    HW3 7076   0.340   3.073   7.440
 1689SOL    MW4 7077   0.375   3.153   7.433
 1690SOL     OW 7078   1.454   1.927   6.908
 1690SOL    HW2 7079   1.525   1.873   6.872
 1690SOL    HW3 7080   1.453   1.906   7.001
 1690SOL    MW4 7081   1.463   1.918   6.916
 1691SOL     OW 7082   1.654   3.457   7.392
 1691SOL    HW2 7083   1.627   3.454   7.483
 1691SOL    HW3 7084   1.750   3.461   7.395
 1691SOL    MW4 7085   1.664   3.457   7.404
 1692SOL     OW 7086   0.465   2.319   6.376
 1692SOL    HW2 7087   0.536   2.267   6.339
 1692SOL    HW3 7088   0.451   2.284   6.463
 1692SOL    MW4 7089   0.473   2.308   6.383
 1693SOL     OW 7090   0.020   3.654   7.448
 1693SOL    HW2 7091   0.070   3.632   7.370
 1693SOL    HW3 7092   0.028   3.749   7.456
 1693SOL    MW4 7093   0.028   3.663   7.439
 1694SOL     OW 7094   0.781   3.412   6.452
 1694SOL    HW2 7095   0.709   3.349   6.465
 1694SOL    HW3 7096   0.742   3.497   6.470
 1694SOL    MW4 7097   0.765   3.415   6.455
 1695SOL     OW 7098   1.101   2.260   6.100
 1695SOL    HW2 7099   1.123   2.197   6.032
 1695SOL    HW3 7100   1.006   2.252   6.111
 1695SOL    MW4 7101   1.091   2.251   6.092
 1696SOL     OW 7102   0.186   1.950   6.032
 1696SOL    HW2 7103   0.257   1.971   5.971
 1696SOL    HW3 7104   0.140   1.878   5.990
 1696SOL    MW4 7105   0.190   1.944   6.018
 1697SOL     OW 7106   0.017   2.417   7.175
 1697SOL    HW2 7107   0.081   2.483   7.150
 1697SOL    HW3 7108  -0.064   2.444   7.132
 1697SOL    MW4 7109   0.015   2.429   7.167
 1698SOL     OW 7110   1.755   3.324   6.132
 1698SOL    HW2 7111   1.725   3.257   6.193
 1698SOL    HW3 7112   1.849   3.330   6.146
 1698SOL    MW4 7113   1.763   3.316   6.142
 1699SOL     OW 7114   1.311   3.001   6.062
 1699SOL    HW2 7115   1.283   3.087   6.095
 1699SOL    HW3 7116   1.339   3.017   5.972
 1699SOL    MW4 7117   1.311   3.015   6.054
 1700SOL     OW 7118   0.973   1.921   6.115
 1700SOL    HW2 7119   1.010   1.980   6.180
 1700SOL    HW3 7120   0.950   1.977   6.041
 1700SOL    MW4 7121   0.974   1.936   6.114
 1701SOL     OW 7122   1.826   2.803   6.537
 1701SOL    HW2 7123   1.817   2.835   6.448
 1701SOL    HW3 7124   1.779   2.719   6.537
 1701SOL    MW4 7125   1.819   2.796   6.527
 1702SOL     OW 7126   0.202   2.643   7.116
 1702SOL    HW2 7127   0.223   2.712   7.054
 1702SOL    HW3 7128   0.282   2.590   7.121
 1702SOL    MW4 7129   0.215   2.644   7.110
 1703SOL     OW 7130   1.738   2.734   6.238
 1703SOL    HW2 7131   1.832   2.723   6.226
 1703SOL    HW3 7132   1.714   2.806   6.179
 1703SOL    MW4 7133   1.748   2.742   6.229
 1704SOL     OW 7134   0.187   2.658   7.383
 1704SOL    HW2 7135   0.113   2.602   7.409
 1704SOL    HW3 7136   0.182   2.661   7.288
 1704SOL    MW4 7137   0.176   2.651   7.373
 1705SOL     OW 7138   0.353   1.945   6.833
 1705SOL    HW2 7139   0.396   2.029   6.853
 1705SOL    HW3 7140   0.426   1.883   6.826
 1705SOL    MW4 7141   0.368   1.948   6.834
 1706SOL     OW 7142   0.394   2.612   6.011
 1706SOL    HW2 7143   0.394   2.707   5.996
 1706SOL    HW3 7144   0.471   2.596   6.065
 1706SOL    MW4 7145   0.404   2.623   6.016
 1707SOL     OW 7146   1.170   2.471   7.075
 1707SOL    HW2 7147   1.206   2.444   6.991
 1707SOL    HW3 7148   1.083   2.505   7.054
 1707SOL    MW4 7149   1.164   2.472   7.062
 1708SOL     OW 7150   0.153   2.343   6.300
 1708SOL    HW2 7151   0.215   2.350   6.373
 1708SOL    HW3 7152   0.153   2.250   6.277
 1708SOL    MW4 7153   0.161   2.332   6.307
 1709SOL     OW 7154   1.700   3.683   5.832
 1709SOL    HW2 7155   1.767   3.716   5.772
 1709SOL    HW3 7156   1.657   3.762   5.866
 1709SOL    MW4 7157   1.702   3.698   5.828
 1710SOL     OW 7158   0.835   2.604   6.784
 1710SOL    HW2 7159   0.793   2.522   6.760
 1710SOL    HW3 7160   0.836   2.603   6.880
 1710SOL    MW4 7161   0.828   2.593   6.793
 1711SOL     OW 7162   1.506   3.737   7.183
 1711SOL    HW2 7163   1.509   3.643   7.166
 1711SOL    HW3 7164   1.529   3.745   7.275
 1711SOL    MW4 7165   1.509   3.725   7.193
 1712SOL     OW 7166   0.639   2.074   6.889
 1712SOL    HW2 7167   0.570   2.137   6.910
 1712SOL    HW3 7168   0.666   2.038   6.974
 1712SOL    MW4 7169   0.633   2.077   6.902
 1713SOL     OW 7170   0.022   2.915   5.758
 1713SOL    HW2 7171  -0.009   2.980   5.821
 1713SOL    HW3 7172  -0.029   2.837   5.777
 1713SOL    MW4 7173   0.012   2.912   5.768
 1714SOL     OW 7174   1.434   1.927   6.506
 1714SOL    HW2 7175   1.522   1.936   6.543
 1714SOL    HW3 7176   1.444   1.868   6.432
 1714SOL    MW4 7177   1.448   1.921   6.500
 1715SOL     OW 7178   1.466   2.666   6.350
 1715SOL    HW2 7179   1.546   2.681   6.299
 1715SOL    HW3 7180   1.459   2.571   6.356
 1715SOL    MW4 7181   1.475   2.655   6.345
 1716SOL     OW 7182   0.606   3.715   5.700
 1716SOL    HW2 7183   0.511   3.715   5.692
 1716SOL    HW3 7184   0.622   3.661   5.778
 1716SOL    MW4 7185   0.596   3.709   5.709
 1717SOL     OW 7186   0.916   2.592   7.047
 1717SOL    HW2 7187   0.985   2.659   7.044
 1717SOL    HW3 7188   0.849   2.630   7.103
 1717SOL    MW4 7189   0.917   2.605   7.054
 1718SOL     OW 7190   0.334   2.892   7.295
 1718SOL    HW2 7191   0.288   2.808   7.297
 1718SOL    HW3 7192   0.391   2.886   7.219
 1718SOL    MW4 7193   0.336   2.880   7.287
 1719SOL     OW 7194   1.451   2.535   5.615
 1719SOL    HW2 7195   1.379   2.511   5.557
 1719SOL    HW3 7196   1.517   2.572   5.557
 1719SOL    MW4 7197   1.450   2.537   5.600
 1720SOL     OW 7198   0.585   3.267   6.296
 1720SOL    HW2 7199   0.650   3.200   6.317
 1720SOL    HW3 7200   0.637   3.344   6.273
 1720SOL    MW4 7201   0.600   3.269   6.295
 1721SOL     OW 7202   0.846   2.432   6.426
 1721SOL    HW2 7203   0.786   2.450   6.498
 1721SOL    HW3 7204   0.880   2.344   6.445
 1721SOL    MW4 7205   0.842   2.422   6.439
 1722SOL     OW 7206   1.787   1.931   7.095
 1722SOL    HW2 7207   1.708   1.977   7.123
 1722SOL    HW3 7208   1.822   1.985   7.024
 1722SOL    MW4 7209   1.781   1.944   7.089
 1723SOL     OW 7210   1.071   3.015   6.445
 1723SOL    HW2 7211   1.163   2.996   6.463
 1723SOL    HW3 7212   1.044   2.945   6.385
 1723SOL    MW4 7213   1.079   3.003   6.439
 1724SOL     OW 7214   0.864   2.835   5.800
 1724SOL    HW2 7215   0.850   2.747   5.765
 1724SOL    HW3 7216   0.815   2.892   5.741
 1724SOL    MW4 7217   0.856   2.830   5.788
 1725SOL     OW 7218   1.345   3.253   6.541
 1725SOL    HW2 7219   1.318   3.337   6.506
 1725SOL    HW3 7220   1.305   3.248   6.628
 1725SOL    MW4 7221   1.338   3.262   6.547
 1726SOL     OW 7222   1.264   3.201   6.809
 1726SOL    HW2 7223   1.275   3.168   6.898
 1726SOL    HW3 7224   1.183   3.160   6.778
 1726SOL    MW4 7225   1.254   3.193   6.815
 1727SOL     OW 7226   0.277   2.559   6.579
 1727SOL    HW2 7227   0.227   2.558   6.660
 1727SOL    HW3 7228   0.297   2.651   6.563
 1727SOL    MW4 7229   0.273   2.571   6.587
 1728SOL     OW 7230   1.344   3.323   7.341
 1728SOL    HW2 7231   1.344   3.417   7.357
 1728SOL    HW3 7232   1.389   3.313   7.257
 1728SOL    MW4 7233   1.350   3.333   7.332
 1729SOL     OW 7234   1.583   2.041   5.902
 1729SOL    HW2 7235   1.576   2.045   5.997
 1729SOL    HW3 7236   1.595   2.132   5.875
 1729SOL    MW4 7237   1.584   2.054   5.910
 1730SOL     OW 7238   0.872   2.604   6.016
 1730SOL    HW2 7239   0.852   2.590   5.923
 1730SOL    HW3 7240   0.965   2.583   6.023
 1730SOL    MW4 7241   0.882   2.599   6.005
 1731SOL     OW 7242   0.199   2.227   7.320
 1731SOL    HW2 7243   0.156   2.286   7.257
 1731SOL    HW3 7244   0.267   2.282   7.360
 1731SOL    MW4 7245   0.203   2.242   7.317
 1732SOL     OW 7246   1.311   2.847   6.865
 1732SOL    HW2 7247   1.374   2.844   6.938
 1732SOL    HW3 7248   1.227   2.865   6.907
 1732SOL    MW4 7249   1.307   2.849   6.880
 1733SOL     OW 7250   0.855   3.562   6.054
 1733SOL    HW2 7251   0.913   3.633   6.081
 1733SOL    HW3 7252   0.878   3.490   6.112
 1733SOL    MW4 7253   0.866   3.562   6.065
 1734SOL     OW 7254   1.650   2.024   6.644
 1734SOL    HW2 7255   1.695   1.942   6.663
 1734SOL    HW3 7256   1.670   2.080   6.720
 1734SOL    MW4 7257   1.660   2.020   6.656
 1735SOL     OW 7258   0.098   1.867   6.743
 1735SOL    HW2 7259   0.089   1.868   6.648
 1735SOL    HW3 7260   0.192   1.879   6.758
 1735SOL    MW4 7261   0.110   1.870   6.734
 1736SOL     OW 7262   1.735   3.060   6.363
 1736SOL    HW2 7263   1.714   3.006   6.286
 1736SOL    HW3 7264   1.831   3.058   6.367
 1736SOL    MW4 7265   1.744   3.053   6.352
 1737SOL     OW 7266   0.427   3.205   7.106
 1737SOL    HW2 7267   0.348   3.155   7.129
 1737SOL    HW3 7268   0.497   3.164   7.156
 1737SOL    MW4 7269   0.425   3.193   7.116
 1738SOL     OW 7270   0.311   1.994   5.789
 1738SOL    HW2 7271   0.240   2.049   5.757
 1738SOL    HW3 7272   0.353   1.960   5.710
 1738SOL    MW4 7273   0.307   1.996   5.775
 1739SOL     OW 7274   1.435   2.491   6.625
 1739SOL    HW2 7275   1.358   2.537   6.591
 1739SOL    HW3 7276   1.492   2.560   6.659
 1739SOL    MW4 7277   1.432   2.506   6.625
 1740SOL     OW 7278   0.067   2.093   5.638
 1740SOL    HW2 7279   0.034   2.172   5.682
 1740SOL    HW3 7280   0.122   2.126   5.567
 1740SOL    MW4 7281   0.070   2.107   5.635
 1741SOL     OW 7282   0.101   3.350   5.827
 1741SOL    HW2 7283   0.118   3.434   5.869
 1741SOL    HW3 7284   0.136   3.359   5.739
 1741SOL    MW4 7285   0.106   3.363   5.821
 1742SOL     OW 7286   1.373   3.439   6.044
 1742SOL    HW2 7287   1.436   3.429   5.973
 1742SOL    HW3 7288   1.290   3.459   5.999
 1742SOL    MW4 7289   1.370   3.440   6.029
 1743SOL     OW 7290   1.736   4.575   0.257
 1743SOL    HW2 7291   1.777   4.517   0.322
 1743SOL    HW3 7292   1.643   4.567   0.274
 1743SOL    MW4 7293   1.730   4.567   0.267
 1744SOL     OW 7294   1.602   4.507   1.252
 1744SOL    HW2 7295   1.557   4.574   1.303
 1744SOL    HW3 7296   1.690   4.543   1.238
 1744SOL    MW4 7297   1.608   4.520   1.256
 1745SOL     OW 7298   0.530   4.758   0.486
 1745SOL    HW2 7299   0.620   4.733   0.470
 1745SOL    HW3 7300   0.526   4.851   0.463
 1745SOL    MW4 7301   0.542   4.767   0.481
 1746SOL     OW 7302   1.646   5.461   0.628
 1746SOL    HW2 7303   1.658   5.407   0.706
 1746SOL    HW3 7304   1.683   5.409   0.557
 1746SOL    MW4 7305   1.652   5.446   0.629
 1747SOL     OW 7306   1.025   5.346   1.629
 1747SOL    HW2 7307   1.066   5.382   1.550
 1747SOL    HW3 7308   1.060   5.257   1.636
 1747SOL    MW4 7309   1.036   5.339   1.620
 1748SOL     OW 7310   1.582   4.901   1.233
 1748SOL    HW2 7311   1.503   4.866   1.191
 1748SOL    HW3 7312   1.609   4.973   1.177
 1748SOL    MW4 7313   1.575   4.906   1.220
 1749SOL     OW 7314   0.814   4.214   0.499
 1749SOL    HW2 7315   0.789   4.302   0.527
 1749SOL    HW3 7316   0.811   4.217   0.403
 1749SOL    MW4 7317   0.810   4.226   0.491
 1750SOL     OW 7318   0.256   4.242   0.427
 1750SOL    HW2 7319   0.288   4.330   0.409
 1750SOL    HW3 7320   0.244   4.240   0.522
 1750SOL    MW4 7321   0.259   4.254   0.439
 1751SOL     OW 7322   0.334   4.655   1.328
 1751SOL    HW2 7323   0.397   4.602   1.279
 1751SOL    HW3 7324   0.315   4.729   1.271
 1751SOL    MW4 7325   0.340   4.657   1.315
 1752SOL     OW 7326   0.655   3.997   0.514
 1752SOL    HW2 7327   0.713   4.073   0.516
 1752SOL    HW3 7328   0.590   4.018   0.447
 1752SOL    MW4 7329   0.654   4.009   0.505
 1753SOL     OW 7330   0.742   4.924   0.689
 1753SOL    HW2 7331   0.822   4.927   0.741
 1753SOL    HW3 7332   0.770   4.891   0.603
 1753SOL    MW4 7333   0.756   4.920   0.684
 1754SOL     OW 7334   0.767   5.265   1.592
 1754SOL    HW2 7335   0.851   5.291   1.631
 1754SOL    HW3 7336   0.791   5.209   1.518
 1754SOL    MW4 7337   0.781   5.261   1.587
 1755SOL     OW 7338   0.519   4.428   0.680
 1755SOL    HW2 7339   0.504   4.348   0.731
 1755SOL    HW3 7340   0.601   4.463   0.714
 1755SOL    MW4 7341   0.527   4.420   0.692
 1756SOL     OW 7342   0.856   5.114   1.365
 1756SOL    HW2 7343   0.820   5.180   1.305
 1756SOL    HW3 7344   0.784   5.052   1.378
 1756SOL    MW4 7345   0.842   5.114   1.359
 1757SOL     OW 7346   0.661   4.254   1.057
 1757SOL    HW2 7347   0.567   4.250   1.075
 1757SOL    HW3 7348   0.691   4.163   1.066
 1757SOL    MW4 7349   0.652   4.242   1.060
 1758SOL     OW 7350   0.407   4.668   0.961
 1758SOL    HW2 7351   0.362   4.675   0.877
 1758SOL    HW3 7352   0.387   4.751   1.005
 1758SOL    MW4 7353   0.399   4.680   0.955
 1759SOL     OW 7354   0.104   5.514   0.836
 1759SOL    HW2 7355   0.193   5.506   0.871
 1759SOL    HW3 7356   0.068   5.426   0.841
 1759SOL    MW4 7357   0.111   5.501   0.841
 1760SOL     OW 7358   1.369   4.906   0.205
 1760SOL    HW2 7359   1.287   4.942   0.171
 1760SOL    HW3 7360   1.437   4.949   0.154
 1760SOL    MW4 7361   1.367   4.916   0.193
 1761SOL     OW 7362   0.368   5.041   0.871
 1761SOL    HW2 7363   0.344   5.094   0.947
 1761SOL    HW3 7364   0.424   5.099   0.819
 1761SOL    MW4 7365   0.372   5.056   0.874
 1762SOL     OW 7366   0.930   4.685   0.681
 1762SOL    HW2 7367   0.844   4.672   0.721
 1762SOL    HW3 7368   0.983   4.612   0.713
 1762SOL    MW4 7369   0.926   4.674   0.690
 1763SOL     OW 7370   0.338   5.337   1.466
 1763SOL    HW2 7371   0.246   5.313   1.451
 1763SOL    HW3 7372   0.382   5.254   1.483
 1763SOL    MW4 7373   0.332   5.322   1.465
 1764SOL     OW 7374   0.921   5.047   0.398
 1764SOL    HW2 7375   0.898   5.109   0.466
 1764SOL    HW3 7376   0.878   4.965   0.424
 1764SOL    MW4 7377   0.913   5.043   0.409
 1765SOL     OW 7378   1.794   4.048   0.854
 1765SOL    HW2 7379   1.731   4.028   0.923
 1765SOL    HW3 7380   1.784   3.977   0.791
 1765SOL    MW4 7381   1.784   4.035   0.855
 1766SOL     OW 7382   0.418   4.020   0.366
 1766SOL    HW2 7383   0.392   3.982   0.282
 1766SOL    HW3 7384   0.355   4.090   0.382
 1766SOL    MW4 7385   0.407   4.023   0.357
 1767SOL     OW 7386   0.253   4.981   0.403
 1767SOL    HW2 7387   0.201   5.049   0.359
 1767SOL    HW3 7388   0.250   4.907   0.343
 1767SOL    MW4 7389   0.245   4.980   0.390
 1768SOL     OW 7390   0.915   5.444   0.181
 1768SOL    HW2 7391   0.870   5.460   0.264
 1768SOL    HW3 7392   0.846   5.409   0.123
 1768SOL    MW4 7393   0.901   5.441   0.183
 1769SOL     OW 7394   1.850   4.217   0.156
 1769SOL    HW2 7395   1.759   4.219   0.184
 1769SOL    HW3 7396   1.895   4.279   0.214
 1769SOL    MW4 7397   1.843   4.225   0.166
 1770SOL     OW 7398   1.595   4.820   0.506
 1770SOL    HW2 7399   1.505   4.820   0.541
 1770SOL    HW3 7400   1.588   4.866   0.423
 1770SOL    MW4 7401   1.582   4.826   0.500
 1771SOL     OW 7402   1.395   4.455   1.578
 1771SOL    HW2 7403   1.464   4.393   1.555
 1771SOL    HW3 7404   1.320   4.429   1.525
 1771SOL    MW4 7405   1.395   4.442   1.569
 1772SOL     OW 7406   0.136   5.335   1.130
 1772SOL    HW2 7407   0.119   5.281   1.207
 1772SOL    HW3 7408   0.124   5.425   1.160
 1772SOL    MW4 7409   0.133   5.339   1.144
 1773SOL     OW 7410   1.131   4.842   1.570
 1773SOL    HW2 7411   1.116   4.935   1.555
 1773SOL    HW3 7412   1.226   4.832   1.570
 1773SOL    MW4 7413   1.140   4.852   1.567
 1774SOL     OW 7414   0.927   4.266   1.771
 1774SOL    HW2 7415   1.017   4.267   1.738
 1774SOL    HW3 7416   0.886   4.191   1.729
 1774SOL    MW4 7417   0.933   4.256   1.762
 1775SOL     OW 7418   1.502   4.798   0.898
 1775SOL    HW2 7419   1.505   4.732   0.829
 1775SOL    HW3 7420   1.587   4.841   0.894
 1775SOL    MW4 7421   1.514   4.794   0.889
 1776SOL     OW 7422   1.122   4.401   0.467
 1776SOL    HW2 7423   1.148   4.425   0.378
 1776SOL    HW3 7424   1.104   4.308   0.463
 1776SOL    MW4 7425   1.124   4.393   0.454
 1777SOL     OW 7426   1.787   5.021   0.318
 1777SOL    HW2 7427   1.743   5.062   0.393
 1777SOL    HW3 7428   1.844   5.089   0.283
 1777SOL    MW4 7429   1.789   5.035   0.323
 1778SOL     OW 7430   0.707   4.070   1.721
 1778SOL    HW2 7431   0.717   3.996   1.661
 1778SOL    HW3 7432   0.743   4.039   1.804
 1778SOL    MW4 7433   0.713   4.056   1.723
 1779SOL     OW 7434   0.443   5.437   0.636
 1779SOL    HW2 7435   0.475   5.525   0.614
 1779SOL    HW3 7436   0.396   5.409   0.558
 1779SOL    MW4 7437   0.442   5.445   0.623
 1780SOL     OW 7438   1.827   3.799   0.685
 1780SOL    HW2 7439   1.881   3.750   0.747
 1780SOL    HW3 7440   1.770   3.733   0.646
 1780SOL    MW4 7441   1.827   3.783   0.687
 1781SOL     OW 7442   0.159   5.497   0.213
 1781SOL    HW2 7443   0.188   5.587   0.205
 1781SOL    HW3 7444   0.109   5.480   0.134
 1781SOL    MW4 7445   0.157   5.505   0.202
 1782SOL     OW 7446   0.946   3.752   1.098
 1782SOL    HW2 7447   0.905   3.830   1.060
 1782SOL    HW3 7448   1.040   3.770   1.093
 1782SOL    MW4 7449   0.952   3.764   1.093
 1783SOL     OW 7450   1.563   5.305   0.184
 1783SOL    HW2 7451   1.611   5.374   0.230
 1783SOL    HW3 7452   1.484   5.349   0.153
 1783SOL    MW4 7453   1.558   5.319   0.187
 1784SOL     OW 7454   0.961   4.430   0.128
 1784SOL    HW2 7455   0.963   4.377   0.049
 1784SOL    HW3 7456   1.049   4.467   0.134
 1784SOL    MW4 7457   0.973   4.429   0.117
 1785SOL     OW 7458   1.575   4.356   0.464
 1785SOL    HW2 7459   1.614   4.356   0.551
 1785SOL    HW3 7460   1.516   4.432   0.464
 1785SOL    MW4 7461   1.572   4.367   0.475
 1786SOL     OW 7462   0.892   4.723   1.593
 1786SOL    HW2 7463   0.869   4.703   1.683
 1786SOL    HW3 7464   0.977   4.767   1.598
 1786SOL    MW4 7465   0.899   4.726   1.605
 1787SOL     OW 7466   0.972   3.860   1.353
 1787SOL    HW2 7467   0.978   3.822   1.266
 1787SOL    HW3 7468   0.961   3.954   1.338
 1787SOL    MW4 7469   0.973   3.868   1.341
 1788SOL     OW 7470   1.061   4.349   1.187
 1788SOL    HW2 7471   1.136   4.378   1.134
 1788SOL    HW3 7472   0.993   4.414   1.171
 1788SOL    MW4 7473   1.062   4.361   1.177
 1789SOL     OW 7474   1.611   4.317   1.464
 1789SOL    HW2 7475   1.592   4.226   1.443
 1789SOL    HW3 7476   1.589   4.366   1.385
 1789SOL    MW4 7477   1.606   4.310   1.451
 1790SOL     OW 7478   1.753   5.411   1.368
 1790SOL    HW2 7479   1.681   5.373   1.419
 1790SOL    HW3 7480   1.770   5.496   1.409
 1790SOL    MW4 7481   1.747   5.416   1.380
 1791SOL     OW 7482   1.058   4.055   1.570
 1791SOL    HW2 7483   1.024   4.094   1.489
 1791SOL    HW3 7484   1.036   3.963   1.563
 1791SOL    MW4 7485   1.051   4.048   1.560
 1792SOL     OW 7486   1.467   4.869   1.646
 1792SOL    HW2 7487   1.549   4.910   1.676
 1792SOL    HW3 7488   1.430   4.831   1.726
 1792SOL    MW4 7489   1.473   4.870   1.661
 1793SOL     OW 7490   1.762   4.242   0.630
 1793SOL    HW2 7491   1.851   4.211   0.647
 1793SOL    HW3 7492   1.705   4.182   0.678
 1793SOL    MW4 7493   1.765   4.230   0.639
 1794SOL     OW 7494   0.188   3.956   0.659
 1794SOL    HW2 7495   0.179   3.896   0.585
 1794SOL    HW3 7496   0.121   3.927   0.722
 1794SOL    MW4 7497   0.178   3.943   0.657
 1795SOL     OW 7498   1.131   5.049   0.220
 1795SOL    HW2 7499   1.081   5.051   0.302
 1795SOL    HW3 7500   1.065   5.067   0.152
 1795SOL    MW4 7501   1.117   5.051   0.222
 1796SOL     OW 7502   0.135   4.129   1.022
 1796SOL    HW2 7503   0.107   4.220   1.031
 1796SOL    HW3 7504   0.072   4.090   0.961
 1796SOL    MW4 7505   0.122   4.135   1.016
 1797SOL     OW 7506   0.594   5.467   0.328
 1797SOL    HW2 7507   0.515   5.425   0.361
 1797SOL    HW3 7508   0.660   5.450   0.395
 1797SOL    MW4 7509   0.593   5.459   0.341
 1798SOL     OW 7510   1.722   4.987   1.725
 1798SOL    HW2 7511   1.772   4.913   1.757
 1798SOL    HW3 7512   1.668   5.014   1.800
 1798SOL    MW4 7513   1.722   4.981   1.738
 1799SOL     OW 7514   0.730   4.882   0.035
 1799SOL    HW2 7515   0.652   4.828   0.022
 1799SOL    HW3 7516   0.701   4.955   0.088
 1799SOL    MW4 7517   0.716   4.884   0.040
 1800SOL     OW 7518   1.856   4.622   1.227
 1800SOL    HW2 7519   1.872   4.660   1.140
 1800SOL    HW3 7520   1.890   4.688   1.288
 1800SOL    MW4 7521   1.863   4.635   1.223
 1801SOL     OW 7522   1.648   5.331   0.896
 1801SOL    HW2 7523   1.677   5.398   0.957
 1801SOL    HW3 7524   1.629   5.255   0.951
 1801SOL    MW4 7525   1.650   5.331   0.911
 1802SOL     OW 7526   1.311   5.398   0.103
 1802SOL    HW2 7527   1.237   5.361   0.153
 1802SOL    HW3 7528   1.319   5.488   0.136
 1802SOL    MW4 7529   1.302   5.405   0.115
 1803SOL     OW 7530   0.119   4.404   1.192
 1803SOL    HW2 7531   0.181   4.434   1.258
 1803SOL    HW3 7532   0.053   4.473   1.186
 1803SOL    MW4 7533   0.118   4.417   1.199
 1804SOL     OW 7534   1.535   5.072   0.045
 1804SOL    HW2 7535   1.482   5.121  -0.019
 1804SOL    HW3 7536   1.566   5.138   0.106
 1804SOL    MW4 7537   1.533   5.086   0.043
 1805SOL     OW 7538   0.760   3.961   0.100
 1805SOL    HW2 7539   0.708   3.881   0.088
 1805SOL    HW3 7540   0.847   3.938   0.068
 1805SOL    MW4 7541   0.763   3.947   0.094
 1806SOL     OW 7542   0.214   5.513   1.644
 1806SOL    HW2 7543   0.188   5.581   1.582
 1806SOL    HW3 7544   0.262   5.450   1.592
 1806SOL    MW4 7545   0.216   5.513   1.630
 1807SOL     OW 7546   0.266   4.832   1.151
 1807SOL    HW2 7547   0.319   4.907   1.176
 1807SOL    HW3 7548   0.185   4.870   1.117
 1807SOL    MW4 7549   0.262   4.847   1.151
 1808SOL     OW 7550   0.806   4.736   1.139
 1808SOL    HW2 7551   0.834   4.645   1.151
 1808SOL    HW3 7552   0.735   4.730   1.075
 1808SOL    MW4 7553   0.799   4.724   1.134
 1809SOL     OW 7554   0.121   4.601   0.557
 1809SOL    HW2 7555   0.212   4.616   0.584
 1809SOL    HW3 7556   0.124   4.522   0.503
 1809SOL    MW4 7557   0.133   4.593   0.555
 1810SOL     OW 7558   0.357   4.309   1.811
 1810SOL    HW2 7559   0.304   4.389   1.818
 1810SOL    HW3 7560   0.427   4.321   1.876
 1810SOL    MW4 7561   0.359   4.322   1.819
 1811SOL     OW 7562   0.743   3.859   1.518
 1811SOL    HW2 7563   0.720   3.767   1.520
 1811SOL    HW3 7564   0.829   3.861   1.475
 1811SOL    MW4 7565   0.750   3.849   1.514
 1812SOL     OW 7566   0.427   4.383   1.557
 1812SOL    HW2 7567   0.507   4.433   1.543
 1812SOL    HW3 7568   0.418   4.377   1.652
 1812SOL    MW4 7569   0.436   4.389   1.567
 1813SOL     OW 7570   0.748   5.533   0.931
 1813SOL    HW2 7571   0.837   5.548   0.961
 1813SOL    HW3 7572   0.743   5.580   0.847
 1813SOL    MW4 7573   0.758   5.541   0.924
 1814SOL     OW 7574   1.404   3.908   1.828
 1814SOL    HW2 7575   1.460   3.835   1.854
 1814SOL    HW3 7576   1.374   3.946   1.910
 1814SOL    MW4 7577   1.408   3.903   1.841
 1815SOL     OW 7578   0.129   5.213   0.596
 1815SOL    HW2 7579   0.101   5.252   0.678
 1815SOL    HW3 7580   0.149   5.122   0.618
 1815SOL    MW4 7581   0.127   5.205   0.609
 1816SOL     OW 7582   0.962   5.256   0.631
 1816SOL    HW2 7583   1.045   5.210   0.615
 1816SOL    HW3 7584   0.952   5.255   0.727
 1816SOL    MW4 7585   0.972   5.249   0.641
 1817SOL     OW 7586   1.794   4.401   0.945
 1817SOL    HW2 7587   1.883   4.431   0.927
 1817SOL    HW3 7588   1.774   4.341   0.874
 1817SOL    MW4 7589   1.803   4.398   0.934
 1818SOL     OW 7590   1.645   4.580   1.825
 1818SOL    HW2 7591   1.700   4.504   1.806
 1818SOL    HW3 7592   1.647   4.588   1.920
 1818SOL    MW4 7593   1.653   4.571   1.833
 1819SOL     OW 7594   0.695   5.313   0.036
 1819SOL    HW2 7595   0.635   5.382   0.006
 1819SOL    HW3 7596   0.640   5.255   0.089
 1819SOL    MW4 7597   0.679   5.315   0.038
 1820SOL     OW 7598   1.133   3.958   0.259
 1820SOL    HW2 7599   1.066   3.934   0.196
 1820SOL    HW3 7600   1.198   4.007   0.208
 1820SOL    MW4 7601   1.133   3.960   0.244
 1821SOL     OW 7602   0.940   4.142   1.344
 1821SOL    HW2 7603   0.859   4.183   1.372
 1821SOL    HW3 7604   0.987   4.210   1.296
 1821SOL    MW4 7605   0.935   4.157   1.342
 1822SOL     OW 7606   1.200   4.480   0.967
 1822SOL    HW2 7607   1.213   4.574   0.977
 1822SOL    HW3 7608   1.161   4.470   0.881
 1822SOL    MW4 7609   1.196   4.491   0.957
 1823SOL     OW 7610   0.652   4.675   0.771
 1823SOL    HW2 7611   0.563   4.666   0.804
 1823SOL    HW3 7612   0.656   4.765   0.739
 1823SOL    MW4 7613   0.641   4.686   0.771
 1824SOL     OW 7614   1.451   4.258   0.766
 1824SOL    HW2 7615   1.396   4.179   0.765
 1824SOL    HW3 7616   1.433   4.299   0.850
 1824SOL    MW4 7617   1.441   4.253   0.775
 1825SOL     OW 7618   0.422   3.945   1.583
 1825SOL    HW2 7619   0.343   3.963   1.635
 1825SOL    HW3 7620   0.417   4.007   1.510
 1825SOL    MW4 7621   0.412   3.955   1.580
 1826SOL     OW 7622   1.070   4.462   0.723
 1826SOL    HW2 7623   1.007   4.394   0.747
 1826SOL    HW3 7624   1.090   4.443   0.631
 1826SOL    MW4 7625   1.064   4.449   0.715
 1827SOL     OW 7626   0.326   5.357   0.425
 1827SOL    HW2 7627   0.287   5.404   0.351
 1827SOL    HW3 7628   0.260   5.292   0.450
 1827SOL    MW4 7629   0.313   5.355   0.419
 1828SOL     OW 7630   0.818   4.766   0.449
 1828SOL    HW2 7631   0.820   4.740   0.356
 1828SOL    HW3 7632   0.876   4.703   0.492
 1828SOL    MW4 7633   0.826   4.755   0.443
 1829SOL     OW 7634   1.371   5.326   1.221
 1829SOL    HW2 7635   1.296   5.372   1.259
 1829SOL    HW3 7636   1.353   5.233   1.238
 1829SOL    MW4 7637   1.360   5.320   1.229
 1830SOL     OW 7638   1.375   5.534   0.651
 1830SOL    HW2 7639   1.318   5.487   0.590
 1830SOL    HW3 7640   1.461   5.495   0.638
 1830SOL    MW4 7641   1.378   5.525   0.641
 1831SOL     OW 7642   1.328   4.010   0.782
 1831SOL    HW2 7643   1.356   3.942   0.843
 1831SOL    HW3 7644   1.242   3.981   0.752
 1831SOL    MW4 7645   1.321   3.997   0.786
 1832SOL     OW 7646   0.133   4.944   0.716
 1832SOL    HW2 7647   0.197   4.976   0.779
 1832SOL    HW3 7648   0.182   4.880   0.664
 1832SOL    MW4 7649   0.148   4.940   0.717
 1833SOL     OW 7650   0.633   5.020   1.698
 1833SOL    HW2 7651   0.681   5.103   1.685
 1833SOL    HW3 7652   0.690   4.968   1.754
 1833SOL    MW4 7653   0.647   5.024   1.704
 1834SOL     OW 7654   0.209   5.262   1.838
 1834SOL    HW2 7655   0.265   5.186   1.853
 1834SOL    HW3 7656   0.158   5.240   1.760
 1834SOL    MW4 7657   0.209   5.249   1.829
 1835SOL     OW 7658   1.308   4.114   0.117
 1835SOL    HW2 7659   1.281   4.180   0.053
 1835SOL    HW3 7660   1.378   4.157   0.167
 1835SOL    MW4 7661   1.313   4.127   0.114
 1836SOL     OW 7662   0.976   3.819   0.054
 1836SOL    HW2 7663   1.032   3.811  -0.024
 1836SOL    HW3 7664   0.953   3.729   0.076
 1836SOL    MW4 7665   0.981   3.806   0.047
 1837SOL     OW 7666   1.481   4.670   0.259
 1837SOL    HW2 7667   1.448   4.759   0.249
 1837SOL    HW3 7668   1.446   4.641   0.344
 1837SOL    MW4 7669   1.471   4.679   0.270
 1838SOL     OW 7670   1.094   5.099   1.447
 1838SOL    HW2 7671   1.005   5.105   1.415
 1838SOL    HW3 7672   1.138   5.178   1.415
 1838SOL    MW4 7673   1.089   5.109   1.439
 1839SOL     OW 7674   0.387   3.767   1.789
 1839SOL    HW2 7675   0.315   3.732   1.737
 1839SOL    HW3 7676   0.445   3.808   1.724
 1839SOL    MW4 7677   0.385   3.768   1.774
 1840SOL     OW 7678   0.411   5.257   1.088
 1840SOL    HW2 7679   0.456   5.319   1.145
 1840SOL    HW3 7680   0.318   5.276   1.101
 1840SOL    MW4 7681   0.404   5.267   1.095
 1841SOL     OW 7682   1.851   4.786   1.442
 1841SOL    HW2 7683   1.766   4.799   1.401
 1841SOL    HW3 7684   1.831   4.750   1.529
 1841SOL    MW4 7685   1.838   4.782   1.447
 1842SOL     OW 7686   0.833   5.325   1.196
 1842SOL    HW2 7687   0.857   5.314   1.105
 1842SOL    HW3 7688   0.756   5.382   1.194
 1842SOL    MW4 7689   0.825   5.330   1.185
 1843SOL     OW 7690   0.475   4.708   0.051
 1843SOL    HW2 7691   0.398   4.721   0.107
 1843SOL    HW3 7692   0.439   4.672  -0.030
 1843SOL    MW4 7693   0.461   4.704   0.048
 1844SOL     OW 7694   1.128   4.681   0.294
 1844SOL    HW2 7695   1.038   4.702   0.269
 1844SOL    HW3 7696   1.155   4.754   0.350
 1844SOL    MW4 7697   1.120   4.693   0.297
 1845SOL     OW 7698   0.628   5.030   0.986
 1845SOL    HW2 7699   0.621   5.009   1.080
 1845SOL    HW3 7700   0.546   4.998   0.949
 1845SOL    MW4 7701   0.616   5.024   0.993
 1846SOL     OW 7702   1.492   4.040   1.388
 1846SOL    HW2 7703   1.439   4.042   1.468
 1846SOL    HW3 7704   1.477   3.953   1.351
 1846SOL    MW4 7705   1.484   4.030   1.393
 1847SOL     OW 7706   1.828   3.964   1.261
 1847SOL    HW2 7707   1.809   4.031   1.196
 1847SOL    HW3 7708   1.885   3.902   1.216
 1847SOL    MW4 7709   1.832   3.965   1.247
 1848SOL     OW 7710   0.074   5.122   1.649
 1848SOL    HW2 7711   0.118   5.055   1.595
 1848SOL    HW3 7712  -0.011   5.084   1.669
 1848SOL    MW4 7713   0.069   5.108   1.645
 1849SOL     OW 7714   0.757   3.797   0.701
 1849SOL    HW2 7715   0.686   3.858   0.683
 1849SOL    HW3 7716   0.808   3.794   0.620
 1849SOL    MW4 7717   0.753   3.803   0.688
 1850SOL     OW 7718   0.515   5.037   0.450
 1850SOL    HW2 7719   0.508   5.069   0.540
 1850SOL    HW3 7720   0.425   5.021   0.422
 1850SOL    MW4 7721   0.503   5.039   0.457
 1851SOL     OW 7722   1.110   5.430   1.359
 1851SOL    HW2 7723   1.030   5.415   1.309
 1851SOL    HW3 7724   1.117   5.525   1.366
 1851SOL    MW4 7725   1.101   5.441   1.353
 1852SOL     OW 7726   1.224   5.395   0.849
 1852SOL    HW2 7727   1.271   5.468   0.808
 1852SOL    HW3 7728   1.145   5.434   0.885
 1852SOL    MW4 7729   1.219   5.410   0.848
 1853SOL     OW 7730   1.632   5.490   1.124
 1853SOL    HW2 7731   1.675   5.460   1.204
 1853SOL    HW3 7732   1.551   5.438   1.121
 1853SOL    MW4 7733   1.627   5.479   1.134
 1854SOL     OW 7734   0.717   4.454   1.831
 1854SOL    HW2 7735   0.787   4.396   1.803
 1854SOL    HW3 7736   0.660   4.399   1.886
 1854SOL    MW4 7737   0.719   4.441   1.835
 1855SOL     OW 7738   1.504   4.666   1.464
 1855SOL    HW2 7739   1.509   4.719   1.544
 1855SOL    HW3 7740   1.466   4.583   1.492
 1855SOL    MW4 7741   1.500   4.661   1.479
 1856SOL     OW 7742   1.144   3.801   1.710
 1856SOL    HW2 7743   1.139   3.708   1.691
 1856SOL    HW3 7744   1.227   3.812   1.756
 1856SOL    MW4 7745   1.152   3.790   1.714
 1857SOL     OW 7746   0.518   4.321   0.164
 1857SOL    HW2 7747   0.484   4.377   0.234
 1857SOL    HW3 7748   0.589   4.271   0.204
 1857SOL    MW4 7749   0.524   4.322   0.178
 1858SOL     OW 7750   1.614   5.072   0.986
 1858SOL    HW2 7751   1.649   5.054   0.899
 1858SOL    HW3 7752   1.519   5.073   0.973
 1858SOL    MW4 7753   1.606   5.069   0.973
 1859SOL     OW 7754   1.043   4.720   1.355
 1859SOL    HW2 7755   1.086   4.755   1.433
 1859SOL    HW3 7756   1.026   4.797   1.301
 1859SOL    MW4 7757   1.046   4.735   1.358
 1860SOL     OW 7758   1.574   4.207   0.228
 1860SOL    HW2 7759   1.566   4.278   0.165
 1860SOL    HW3 7760   1.592   4.251   0.311
 1860SOL    MW4 7761   1.575   4.221   0.230
 1861SOL     OW 7762   0.434   3.862   0.657
 1861SOL    HW2 7763   0.484   3.905   0.588
 1861SOL    HW3 7764   0.349   3.906   0.657
 1861SOL    MW4 7765   0.431   3.875   0.648
 1862SOL     OW 7766   0.193   4.924   1.517
 1862SOL    HW2 7767   0.221   4.877   1.595
 1862SOL    HW3 7768   0.114   4.879   1.488
 1862SOL    MW4 7769   0.186   4.913   1.523
 1863SOL     OW 7770   0.701   4.251   1.484
 1863SOL    HW2 7771   0.673   4.339   1.508
 1863SOL    HW3 7772   0.670   4.195   1.555
 1863SOL    MW4 7773   0.693   4.254   1.496
 1864SOL     OW 7774   1.243   4.469   0.203
 1864SOL    HW2 7775   1.290   4.487   0.122
 1864SOL    HW3 7776   1.209   4.553   0.231
 1864SOL    MW4 7777   1.245   4.483   0.196
 1865SOL     OW 7778   0.356   4.647   0.697
 1865SOL    HW2 7779   0.414   4.703   0.645
 1865SOL    HW3 7780   0.400   4.562   0.699
 1865SOL    MW4 7781   0.369   4.644   0.690
 1866SOL     OW 7782   1.496   3.999   0.534
 1866SOL    HW2 7783   1.418   3.949   0.559
 1866SOL    HW3 7784   1.467   4.090   0.534
 1866SOL    MW4 7785   1.482   4.003   0.537
 1867SOL     OW 7786   1.082   3.961   0.693
 1867SOL    HW2 7787   1.102   4.036   0.637
 1867SOL    HW3 7788   1.062   4.000   0.778
 1867SOL    MW4 7789   1.083   3.977   0.697
 1868SOL     OW 7790   0.978   5.211   0.025
 1868SOL    HW2 7791   1.005   5.289  -0.023
 1868SOL    HW3 7792   0.885   5.226   0.044
 1868SOL    MW4 7793   0.969   5.224   0.021
 1869SOL     OW 7794   1.842   4.734   1.712
 1869SOL    HW2 7795   1.755   4.714   1.748
 1869SOL    HW3 7796   1.896   4.660   1.737
 1869SOL    MW4 7797   1.837   4.723   1.720
 1870SOL     OW 7798   0.063   5.247   0.869
 1870SOL    HW2 7799   0.095   5.251   0.960
 1870SOL    HW3 7800  -0.032   5.255   0.877
 1870SOL    MW4 7801   0.055   5.250   0.882
 1871SOL     OW 7802   0.018   4.373   0.416
 1871SOL    HW2 7803  -0.042   4.345   0.486
 1871SOL    HW3 7804   0.092   4.313   0.422
 1871SOL    MW4 7805   0.020   4.362   0.425
 1872SOL     OW 7806   1.586   5.585   1.850
 1872SOL    HW2 7807   1.631   5.509   1.815
 1872SOL    HW3 7808   1.624   5.598   1.937
 1872SOL    MW4 7809   1.596   5.578   1.856
 1873SOL     OW 7810   1.186   5.104   0.576
 1873SOL    HW2 7811   1.209   5.055   0.654
 1873SOL    HW3 7812   1.267   5.146   0.548
 1873SOL    MW4 7813   1.199   5.104   0.583
 1874SOL     OW 7814   0.444   4.112   1.305
 1874SOL    HW2 7815   0.477   4.193   1.345
 1874SOL    HW3 7816   0.417   4.138   1.217
 1874SOL    MW4 7817   0.443   4.126   1.299
 1875SOL     OW 7818   0.398   4.079   1.041
 1875SOL    HW2 7819   0.428   3.993   1.012
 1875SOL    HW3 7820   0.303   4.072   1.044
 1875SOL    MW4 7821   0.390   4.068   1.039
 1876SOL     OW 7822   1.227   4.288   1.732
 1876SOL    HW2 7823   1.279   4.223   1.685
 1876SOL    HW3 7824   1.185   4.339   1.662
 1876SOL    MW4 7825   1.228   4.285   1.715
 1877SOL     OW 7826   1.326   4.083   1.593
 1877SOL    HW2 7827   1.233   4.067   1.580
 1877SOL    HW3 7828   1.352   4.021   1.661
 1877SOL    MW4 7829   1.316   4.073   1.600
 1878SOL     OW 7830   0.541   3.857   0.932
 1878SOL    HW2 7831   0.551   3.766   0.958
 1878SOL    HW3 7832   0.497   3.853   0.847
 1878SOL    MW4 7833   0.537   3.845   0.924
 1879SOL     OW 7834   0.635   5.472   1.478
 1879SOL    HW2 7835   0.552   5.457   1.523
 1879SOL    HW3 7836   0.694   5.405   1.513
 1879SOL    MW4 7837   0.633   5.462   1.488
 1880SOL     OW 7838   1.692   4.179   1.103
 1880SOL    HW2 7839   1.625   4.212   1.163
 1880SOL    HW3 7840   1.735   4.257   1.069
 1880SOL    MW4 7841   1.690   4.194   1.107
 1881SOL     OW 7842   1.870   4.899   1.073
 1881SOL    HW2 7843   1.863   4.839   0.998
 1881SOL    HW3 7844   1.796   4.959   1.062
 1881SOL    MW4 7845   1.860   4.899   1.062
 1882SOL     OW 7846   1.252   4.761   0.991
 1882SOL    HW2 7847   1.266   4.733   1.082
 1882SOL    HW3 7848   1.338   4.792   0.963
 1882SOL    MW4 7849   1.265   4.762   1.000
 1883SOL     OW 7850   1.335   4.256   1.270
 1883SOL    HW2 7851   1.356   4.257   1.177
 1883SOL    HW3 7852   1.380   4.178   1.303
 1883SOL    MW4 7853   1.342   4.246   1.262
 1884SOL     OW 7854   1.828   4.387   1.812
 1884SOL    HW2 7855   1.865   4.332   1.881
 1884SOL    HW3 7856   1.853   4.344   1.730
 1884SOL    MW4 7857   1.835   4.375   1.811
 1885SOL     OW 7858   1.375   4.685   1.863
 1885SOL    HW2 7859   1.441   4.633   1.817
 1885SOL    HW3 7860   1.395   4.672   1.956
 1885SOL    MW4 7861   1.386   4.676   1.870
 1886SOL     OW 7862   1.326   3.771   0.212
 1886SOL    HW2 7863   1.400   3.815   0.255
 1886SOL    HW3 7864   1.250   3.825   0.234
 1886SOL    MW4 7865   1.326   3.783   0.220
 1887SOL     OW 7866   1.386   4.546   0.490
 1887SOL    HW2 7867   1.301   4.516   0.460
 1887SOL    HW3 7868   1.378   4.553   0.585
 1887SOL    MW4 7869   1.374   4.544   0.499
 1888SOL     OW 7870   0.462   5.009   1.221
 1888SOL    HW2 7871   0.474   5.036   1.312
 1888SOL    HW3 7872   0.443   5.090   1.174
 1888SOL    MW4 7873   0.461   5.024   1.226
 1889SOL     OW 7874   0.746   3.989   1.044
 1889SOL    HW2 7875   0.719   3.991   1.135
 1889SOL    HW3 7876   0.676   3.941   0.999
 1889SOL    MW4 7877   0.734   3.985   1.051
 1890SOL     OW 7878   0.600   5.481   1.206
 1890SOL    HW2 7879   0.652   5.558   1.183
 1890SOL    HW3 7880   0.609   5.473   1.301
 1890SOL    MW4 7881   0.609   5.488   1.217
 1891SOL     OW 7882   1.502   5.066   1.438
 1891SOL    HW2 7883   1.487   4.995   1.501
 1891SOL    HW3 7884   1.548   5.024   1.366
 1891SOL    MW4 7885   1.508   5.050   1.438
 1892SOL     OW 7886   0.576   4.797   1.555
 1892SOL    HW2 7887   0.613   4.802   1.467
 1892SOL    HW3 7888   0.615   4.870   1.602
 1892SOL    MW4 7889   0.586   4.807   1.550
 1893SOL     OW 7890   0.756   4.840   1.367
 1893SOL    HW2 7891   0.815   4.786   1.420
 1893SOL    HW3 7892   0.771   4.812   1.277
 1893SOL    MW4 7893   0.766   4.829   1.363
 1894SOL     OW 7894   0.759   4.212   0.216
 1894SOL    HW2 7895   0.832   4.261   0.179
 1894SOL    HW3 7896   0.775   4.121   0.190
 1894SOL    MW4 7897   0.771   4.207   0.209
 1895SOL     OW 7898   1.567   5.329   1.539
 1895SOL    HW2 7899   1.609   5.314   1.624
 1895SOL    HW3 7900   1.558   5.242   1.501
 1895SOL    MW4 7901   1.571   5.317   1.546
 1896SOL     OW 7902   1.227   3.808   1.130
 1896SOL    HW2 7903   1.282   3.817   1.052
 1896SOL    HW3 7904   1.282   3.842   1.201
 1896SOL    MW4 7905   1.241   3.813   1.129
 1897SOL     OW 7906   0.234   4.721   0.314
 1897SOL    HW2 7907   0.171   4.737   0.243
 1897SOL    HW3 7908   0.181   4.684   0.385
 1897SOL    MW4 7909   0.219   4.718   0.314
 1898SOL     OW 7910   0.590   5.075   0.173
 1898SOL    HW2 7911   0.605   5.051   0.265
 1898SOL    HW3 7912   0.498   5.053   0.157
 1898SOL    MW4 7913   0.580   5.068   0.183
 1899SOL     OW 7914   1.129   5.306   0.325
 1899SOL    HW2 7915   1.137   5.224   0.276
 1899SOL    HW3 7916   1.048   5.345   0.292
 1899SOL    MW4 7917   1.119   5.301   0.315
 1900SOL     OW 7918   0.388   5.464   0.894
 1900SOL    HW2 7919   0.392   5.375   0.929
 1900SOL    HW3 7920   0.414   5.455   0.803
 1900SOL    MW4 7921   0.391   5.452   0.886
 1901SOL     OW 7922   1.005   4.942   1.137
 1901SOL    HW2 7923   0.937   4.876   1.153
 1901SOL    HW3 7924   1.023   4.936   1.044
 1901SOL    MW4 7925   0.998   4.933   1.128
 1902SOL     OW 7926   0.094   5.217   1.388
 1902SOL    HW2 7927   0.084   5.175   1.474
 1902SOL    HW3 7928   0.015   5.270   1.378
 1902SOL    MW4 7929   0.083   5.218   1.399
 1903SOL     OW 7930   0.998   4.081   0.958
 1903SOL    HW2 7931   0.928   4.033   1.003
 1903SOL    HW3 7932   1.030   4.144   1.022
 1903SOL    MW4 7933   0.993   4.083   0.972
 1904SOL     OW 7934   0.649   4.517   1.578
 1904SOL    HW2 7935   0.642   4.612   1.566
 1904SOL    HW3 7936   0.658   4.506   1.673
 1904SOL    MW4 7937   0.650   4.529   1.588
 1905SOL     OW 7938   0.370   5.032   1.836
 1905SOL    HW2 7939   0.442   5.034   1.773
 1905SOL    HW3 7940   0.340   4.941   1.835
 1905SOL    MW4 7941   0.375   5.021   1.828
 1906SOL     OW 7942   1.454   3.795   1.303
 1906SOL    HW2 7943   1.525   3.741   1.267
 1906SOL    HW3 7944   1.453   3.774   1.396
 1906SOL    MW4 7945   1.463   3.786   1.311
 1907SOL     OW 7946   1.654   5.325   1.787
 1907SOL    HW2 7947   1.627   5.322   1.878
 1907SOL    HW3 7948   1.750   5.329   1.790
 1907SOL    MW4 7949   1.664   5.325   1.799
 1908SOL     OW 7950   0.465   4.187   0.771
 1908SOL    HW2 7951   0.536   4.135   0.734
 1908SOL    HW3 7952   0.451   4.152   0.858
 1908SOL    MW4 7953   0.473   4.176   0.778
 1909SOL     OW 7954   0.020   5.522   1.843
 1909SOL    HW2 7955   0.070   5.500   1.765
 1909SOL    HW3 7956   0.028   5.617   1.851
 1909SOL    MW4 7957   0.028   5.531   1.834
 1910SOL     OW 7958   0.781   5.280   0.847
 1910SOL    HW2 7959   0.709   5.217   0.860
 1910SOL    HW3 7960   0.742   5.365   0.865
 1910SOL    MW4 7961   0.765   5.283   0.850
 1911SOL     OW 7962   1.101   4.128   0.495
 1911SOL    HW2 7963   1.123   4.065   0.427
 1911SOL    HW3 7964   1.006   4.120   0.506
 1911SOL    MW4 7965   1.091   4.119   0.487
 1912SOL     OW 7966   0.186   3.818   0.427
 1912SOL    HW2 7967   0.257   3.839   0.366
 1912SOL    HW3 7968   0.140   3.746   0.385
 1912SOL    MW4 7969   0.190   3.812   0.413
 1913SOL     OW 7970   0.017   4.285   1.570
 1913SOL    HW2 7971   0.081   4.351   1.545
 1913SOL    HW3 7972  -0.064   4.312   1.527
 1913SOL    MW4 7973   0.015   4.297   1.562
 1914SOL     OW 7974   1.755   5.192   0.527
 1914SOL    HW2 7975   1.725   5.125   0.588
 1914SOL    HW3 7976   1.849   5.198   0.541
 1914SOL    MW4 7977   1.763   5.184   0.537
 1915SOL     OW 7978   1.311   4.869   0.457
 1915SOL    HW2 7979   1.283   4.955   0.490
 1915SOL    HW3 7980   1.339   4.885   0.367
 1915SOL    MW4 7981   1.311   4.883   0.449
 1916SOL     OW 7982   0.973   3.789   0.510
 1916SOL    HW2 7983   1.010   3.848   0.575
 1916SOL    HW3 7984   0.950   3.845   0.436
 1916SOL    MW4 7985   0.974   3.804   0.509
 1917SOL     OW 7986   1.826   4.671   0.932
 1917SOL    HW2 7987   1.817   4.703   0.843
 1917SOL    HW3 7988   1.779   4.587   0.932
 1917SOL    MW4 7989   1.819   4.664   0.922
 1918SOL     OW 7990   0.202   4.511   1.511
 1918SOL    HW2 7991   0.223   4.580   1.449
 1918SOL    HW3 7992   0.282   4.458   1.516
 1918SOL    MW4 7993   0.215   4.512   1.505
 1919SOL     OW 7994   1.738   4.602   0.633
 1919SOL    HW2 7995   1.832   4.591   0.621
 1919SOL    HW3 7996   1.714   4.674   0.574
 1919SOL    MW4 7997   1.748   4.610   0.624
 1920SOL     OW 7998   0.187   4.526   1.778
 1920SOL    HW2 7999   0.113   4.470   1.804
 1920SOL    HW3 8000   0.182   4.529   1.683
 1920SOL    MW4 8001   0.176   4.519   1.768
 1921SOL     OW 8002   0.353   3.813   1.228
 1921SOL    HW2 8003   0.396   3.897   1.248
 1921SOL    HW3 8004   0.426   3.751   1.221
 1921SOL    MW4 8005   0.368   3.816   1.229
 1922SOL     OW 8006   0.394   4.480   0.406
 1922SOL    HW2 8007   0.394   4.575   0.391
 1922SOL    HW3 8008   0.471   4.464   0.460
 1922SOL    MW4 8009   0.404   4.491   0.411
 1923SOL     OW 8010   1.170   4.339   1.470
 1923SOL    HW2 8011   1.206   4.312   1.386
 1923SOL    HW3 8012   1.083   4.373   1.449
 1923SOL    MW4 8013   1.164   4.340   1.457
 1924SOL     OW 8014   0.153   4.211   0.695
 1924SOL    HW2 8015   0.215   4.218   0.768
 1924SOL    HW3 8016   0.153   4.118   0.672
 1924SOL    MW4 8017   0.161   4.200   0.702
 1925SOL     OW 8018   1.700   5.551   0.227
 1925SOL    HW2 8019   1.767   5.584   0.167
 1925SOL    HW3 8020   1.657   5.630   0.261
 1925SOL    MW4 8021   1.702   5.566   0.223
 1926SOL     OW 8022   0.835   4.472   1.179
 1926SOL    HW2 8023   0.793   4.390   1.155
 1926SOL    HW3 8024   0.836   4.471   1.275
 1926SOL    MW4 8025   0.828   4.461   1.188
 1927SOL     OW 8026   1.506   5.605   1.578
 1927SOL    HW2 8027   1.509   5.511   1.561
 1927SOL    HW3 8028   1.529   5.613   1.670
 1927SOL    MW4 8029   1.509   5.593   1.588
 1928SOL     OW 8030   0.639   3.942   1.284
 1928SOL    HW2 8031   0.570   4.005   1.305
 1928SOL    HW3 8032   0.666   3.906   1.369
 1928SOL    MW4 8033   0.633   3.945   1.297
 1929SOL     OW 8034   0.022   4.783   0.153
 1929SOL    HW2 8035  -0.009   4.848   0.216
 1929SOL    HW3 8036  -0.029   4.705   0.172
 1929SOL    MW4 8037   0.012   4.780   0.163
 1930SOL     OW 8038   1.434   3.795   0.901
 1930SOL    HW2 8039   1.522   3.804   0.938
 1930SOL    HW3 8040   1.444   3.736   0.827
 1930SOL    MW4 8041   1.448   3.789   0.895
 1931SOL     OW 8042   1.466   4.534   0.745
 1931SOL    HW2 8043   1.546   4.549   0.694
 1931SOL    HW3 8044   1.459   4.439   0.751
 1931SOL    MW4 8045   1.475   4.523   0.740
 1932SOL     OW 8046   0.606   5.583   0.095
 1932SOL    HW2 8047   0.511   5.583   0.087
 1932SOL    HW3 8048   0.622   5.529   0.173
 1932SOL    MW4 8049   0.596   5.577   0.104
 1933SOL     OW 8050   0.916   4.460   1.442
 1933SOL    HW2 8051   0.985   4.527   1.439
 1933SOL    HW3 8052   0.849   4.498   1.498
 1933SOL    MW4 8053   0.917   4.473   1.449
 1934SOL     OW 8054   0.334   4.760   1.690
 1934SOL    HW2 8055   0.288   4.676   1.692
 1934SOL    HW3 8056   0.391   4.754   1.614
 1934SOL    MW4 8057   0.336   4.748   1.682
 1935SOL     OW 8058   1.451   4.403   0.011
 1935SOL    HW2 8059   1.379   4.379  -0.047
 1935SOL    HW3 8060   1.517   4.440  -0.047
 1935SOL    MW4 8061   1.450   4.405  -0.004
 1936SOL     OW 8062   0.585   5.135   0.691
 1936SOL    HW2 8063   0.650   5.068   0.712
 1936SOL    HW3 8064   0.637   5.212   0.668
 1936SOL    MW4 8065   0.600   5.137   0.690
 1937SOL     OW 8066   0.846   4.300   0.821
 1937SOL    HW2 8067   0.786   4.318   0.893
 1937SOL    HW3 8068   0.880   4.212   0.840
 1937SOL    MW4 8069   0.842   4.290   0.834
 1938SOL     OW 8070   1.787   3.799   1.490
 1938SOL    HW2 8071   1.708   3.845   1.518
 1938SOL    HW3 8072   1.822   3.853   1.419
 1938SOL    MW4 8073   1.781   3.812   1.484
 1939SOL     OW 8074   1.071   4.883   0.840
 1939SOL    HW2 8075   1.163   4.864   0.858
 1939SOL    HW3 8076   1.044   4.813   0.780
 1939SOL    MW4 8077   1.079   4.871   0.834
 1940SOL     OW 8078   0.864   4.703   0.195
 1940SOL    HW2 8079   0.850   4.615   0.160
 1940SOL    HW3 8080   0.815   4.760   0.136
 1940SOL    MW4 8081   0.856   4.698   0.183
 1941SOL     OW 8082   1.345   5.121   0.936
 1941SOL    HW2 8083   1.318   5.205   0.901
 1941SOL    HW3 8084   1.305   5.116   1.023
 1941SOL    MW4 8085   1.338   5.130   0.942
 1942SOL     OW 8086   1.264   5.069   1.204
 1942SOL    HW2 8087   1.275   5.036   1.293
 1942SOL    HW3 8088   1.183   5.028   1.173
 1942SOL    MW4 8089   1.254   5.061   1.210
 1943SOL     OW 8090   0.277   4.427   0.974
 1943SOL    HW2 8091   0.227   4.426   1.055
 1943SOL    HW3 8092   0.297   4.519   0.958
 1943SOL    MW4 8093   0.273   4.439   0.982
 1944SOL     OW 8094   1.344   5.191   1.736
 1944SOL    HW2 8095   1.344   5.285   1.752
 1944SOL    HW3 8096   1.389   5.181   1.652
 1944SOL    MW4 8097   1.350   5.201   1.727
 1945SOL     OW 8098   1.583   3.909   0.297
 1945SOL    HW2 8099   1.576   3.913   0.392
 1945SOL    HW3 8100   1.595   4.000   0.270
 1945SOL    MW4 8101   1.584   3.922   0.305
 1946SOL     OW 8102   0.872   4.472   0.411
 1946SOL    HW2 8103   0.852   4.458   0.318
 1946SOL    HW3 8104   0.965   4.451   0.418
 1946SOL    MW4 8105   0.882   4.467   0.400
 1947SOL     OW 8106   0.199   4.095   1.715
 1947SOL    HW2 8107   0.156   4.154   1.652
 1947SOL    HW3 8108   0.267   4.150   1.755
 1947SOL    MW4 8109   0.203   4.110   1.712
 1948SOL     OW 8110   1.311   4.715   1.260
 1948SOL    HW2 8111   1.374   4.712   1.333
 1948SOL    HW3 8112   1.227   4.733   1.302
 1948SOL    MW4 8113   1.307   4.717   1.275
 1949SOL     OW 8114   0.855   5.430   0.449
 1949SOL    HW2 8115   0.913   5.501   0.476
 1949SOL    HW3 8116   0.878   5.358   0.507
 1949SOL    MW4 8117   0.866   5.430   0.460
 1950SOL     OW 8118   1.650   3.892   1.039
 1950SOL    HW2 8119   1.695   3.810   1.058
 1950SOL    HW3 8120   1.670   3.948   1.115
 1950SOL    MW4 8121   1.660   3.888   1.051
 1951SOL     OW 8122   0.098   3.735   1.138
 1951SOL    HW2 8123   0.089   3.736   1.043
 1951SOL    HW3 8124   0.192   3.747   1.153
 1951SOL    MW4 8125   0.110   3.738   1.129
 1952SOL     OW 8126   1.735   4.928   0.758
 1952SOL    HW2 8127   1.714   4.874   0.681
 1952SOL    HW3 8128   1.831   4.926   0.762
 1952SOL    MW4 8129   1.744   4.921   0.747
 1953SOL     OW 8130   0.427   5.073   1.501
 1953SOL    HW2 8131   0.348   5.023   1.524
 1953SOL    HW3 8132   0.497   5.032   1.551
 1953SOL    MW4 8133   0.425   5.061   1.511
 1954SOL     OW 8134   0.311   3.862   0.184
 1954SOL    HW2 8135   0.240   3.917   0.152
 1954SOL    HW3 8136   0.353   3.828   0.105
 1954SOL    MW4 8137   0.307   3.864   0.170
 1955SOL     OW 8138   1.435   4.359   1.020
 1955SOL    HW2 8139   1.358   4.405   0.986
 1955SOL    HW3 8140   1.492   4.428   1.054
 1955SOL    MW4 8141   1.432   4.374   1.020
 1956SOL     OW 8142   0.067   3.961   0.033
 1956SOL    HW2 8143   0.034   4.040   0.077
 1956SOL    HW3 8144   0.122   3.994  -0.038
 1956SOL    MW4 8145   0.070   3.975   0.030
 1957SOL     OW 8146   0.101   5.218   0.222
 1957SOL    HW2 8147   0.118   5.302   0.264
 1957SOL    HW3 8148   0.136   5.227   0.134
 1957SOL    MW4 8149   0.106   5.231   0.216
 1958SOL     OW 8150   1.373   5.307   0.439
 1958SOL    HW2 8151   1.436   5.297   0.368
 1958SOL    HW3 8152   1.290   5.327   0.394
 1958SOL    MW4 8153   1.370   5.308   0.424
 1959SOL     OW 8154   1.736   4.575   2.125
 1959SOL    HW2 8155   1.777   4.517   2.190
 1959SOL    HW3 8156   1.643   4.567   2.142
 1959SOL    MW4 8157   1.730   4.567   2.135
 1960SOL     OW 8158   1.602   4.507   3.120
 1960SOL    HW2 8159   1.557   4.574   3.171
 1960SOL    HW3 8160   1.690   4.543   3.106
 1960SOL    MW4 8161   1.608   4.520   3.124
 1961SOL     OW 8162   0.530   4.758   2.354
 1961SOL    HW2 8163   0.620   4.733   2.338
 1961SOL    HW3 8164   0.526   4.851   2.331
 1961SOL    MW4 8165   0.542   4.767   2.349
 1962SOL     OW 8166   1.646   5.461   2.496
 1962SOL    HW2 8167   1.658   5.407   2.574
 1962SOL    HW3 8168   1.683   5.409   2.425
 1962SOL    MW4 8169   1.652   5.446   2.497
 1963SOL     OW 8170   1.025   5.346   3.497
 1963SOL    HW2 8171   1.066   5.382   3.418
 1963SOL    HW3 8172   1.060   5.257   3.504
 1963SOL    MW4 8173   1.036   5.339   3.488
 1964SOL     OW 8174   1.582   4.901   3.101
 1964SOL    HW2 8175   1.503   4.866   3.059
 1964SOL    HW3 8176   1.609   4.973   3.045
 1964SOL    MW4 8177   1.575   4.906   3.088
 1965SOL     OW 8178   0.814   4.214   2.367
 1965SOL    HW2 8179   0.789   4.302   2.395
 1965SOL    HW3 8180   0.811   4.217   2.271
 1965SOL    MW4 8181   0.810   4.226   2.359
 1966SOL     OW 8182   0.256   4.242   2.295
 1966SOL    HW2 8183   0.288   4.330   2.277
 1966SOL    HW3 8184   0.244   4.240   2.390
 1966SOL    MW4 8185   0.259   4.254   2.307
 1967SOL     OW 8186   0.334   4.655   3.196
 1967SOL    HW2 8187   0.397   4.602   3.147
 1967SOL    HW3 8188   0.315   4.729   3.139
 1967SOL    MW4 8189   0.340   4.657   3.183
 1968SOL     OW 8190   0.655   3.997   2.382
 1968SOL    HW2 8191   0.713   4.073   2.384
 1968SOL    HW3 8192   0.590   4.018   2.315
 1968SOL    MW4 8193   0.654   4.009   2.373
 1969SOL     OW 8194   0.742   4.924   2.557
 1969SOL    HW2 8195   0.822   4.927   2.609
 1969SOL    HW3 8196   0.770   4.891   2.471
 1969SOL    MW4 8197   0.756   4.920   2.552
 1970SOL     OW 8198   0.767   5.265   3.460
 1970SOL    HW2 8199   0.851   5.291   3.499
 1970SOL    HW3 8200   0.791   5.209   3.386
 1970SOL    MW4 8201   0.781   5.261   3.455
 1971SOL     OW 8202   0.519   4.428   2.548
 1971SOL    HW2 8203   0.504   4.348   2.599
 1971SOL    HW3 8204   0.601   4.463   2.582
 1971SOL    MW4 8205   0.527   4.420   2.560
 1972SOL     OW 8206   0.856   5.114   3.233
 1972SOL    HW2 8207   0.820   5.180   3.173
 1972SOL    HW3 8208   0.784   5.052   3.246
 1972SOL    MW4 8209   0.842   5.114   3.227
 1973SOL     OW 8210   0.661   4.254   2.925
 1973SOL    HW2 8211   0.567   4.250   2.943
 1973SOL    HW3 8212   0.691   4.163   2.934
 1973SOL    MW4 8213   0.652   4.242   2.928
 1974SOL     OW 8214   0.407   4.668   2.829
 1974SOL    HW2 8215   0.362   4.675   2.745
 1974SOL    HW3 8216   0.387   4.751   2.873
 1974SOL    MW4 8217   0.399   4.680   2.823
 1975SOL     OW 8218   0.104   5.514   2.704
 1975SOL    HW2 8219   0.193   5.506   2.739
 1975SOL    HW3 8220   0.068   5.426   2.709
 1975SOL    MW4 8221   0.111   5.501   2.709
 1976SOL     OW 8222   1.369   4.906   2.073
 1976SOL    HW2 8223   1.287   4.942   2.039
 1976SOL    HW3 8224   1.437   4.949   2.022
 1976SOL    MW4 8225   1.367   4.916   2.061
 1977SOL     OW 8226   0.368   5.041   2.739
 1977SOL    HW2 8227   0.344   5.094   2.815
 1977SOL    HW3 8228   0.424   5.099   2.687
 1977SOL    MW4 8229   0.372   5.056   2.742
 1978SOL     OW 8230   0.930   4.685   2.549
 1978SOL    HW2 8231   0.844   4.672   2.589
 1978SOL    HW3 8232   0.983   4.612   2.581
 1978SOL    MW4 8233   0.926   4.674   2.558
 1979SOL     OW 8234   0.338   5.337   3.334
 1979SOL    HW2 8235   0.246   5.313   3.319
 1979SOL    HW3 8236   0.382   5.254   3.351
 1979SOL    MW4 8237   0.332   5.322   3.333
 1980SOL     OW 8238   0.921   5.047   2.266
 1980SOL    HW2 8239   0.898   5.109   2.334
 1980SOL    HW3 8240   0.878   4.965   2.292
 1980SOL    MW4 8241   0.913   5.043   2.277
 1981SOL     OW 8242   1.794   4.048   2.722
 1981SOL    HW2 8243   1.731   4.028   2.791
 1981SOL    HW3 8244   1.784   3.977   2.659
 1981SOL    MW4 8245   1.784   4.035   2.723
 1982SOL     OW 8246   0.418   4.020   2.234
 1982SOL    HW2 8247   0.392   3.982   2.150
 1982SOL    HW3 8248   0.355   4.090   2.250
 1982SOL    MW4 8249   0.407   4.023   2.225
 1983SOL     OW 8250   0.253   4.981   2.271
 1983SOL    HW2 8251   0.201   5.049   2.227
 1983SOL    HW3 8252   0.250   4.907   2.211
 1983SOL    MW4 8253   0.245   4.980   2.258
 1984SOL     OW 8254   0.915   5.444   2.049
 1984SOL    HW2 8255   0.870   5.460   2.132
 1984SOL    HW3 8256   0.846   5.409   1.991
 1984SOL    MW4 8257   0.901   5.441   2.051
 1985SOL     OW 8258   1.850   4.217   2.024
 1985SOL    HW2 8259   1.759   4.219   2.052
 1985SOL    HW3 8260   1.895   4.279   2.082
 1985SOL    MW4 8261   1.843   4.225   2.034
 1986SOL     OW 8262   1.595   4.820   2.374
 1986SOL    HW2 8263   1.505   4.820   2.409
 1986SOL    HW3 8264   1.588   4.866   2.291
 1986SOL    MW4 8265   1.582   4.826   2.368
 1987SOL     OW 8266   1.395   4.455   3.446
 1987SOL    HW2 8267   1.464   4.393   3.423
 1987SOL    HW3 8268   1.320   4.429   3.393
 1987SOL    MW4 8269   1.395   4.442   3.437
 1988SOL     OW 8270   0.136   5.335   2.998
 1988SOL    HW2 8271   0.119   5.281   3.075
 1988SOL    HW3 8272   0.124   5.425   3.028
 1988SOL    MW4 8273   0.133   5.339   3.012
 1989SOL     OW 8274   1.131   4.842   3.438
 1989SOL    HW2 8275   1.116   4.935   3.423
 1989SOL    HW3 8276   1.226   4.832   3.438
 1989SOL    MW4 8277   1.140   4.852   3.435
 1990SOL     OW 8278   0.927   4.266   3.639
 1990SOL    HW2 8279   1.017   4.267   3.606
 1990SOL    HW3 8280   0.886   4.191   3.597
 1990SOL    MW4 8281   0.933   4.256   3.630
 1991SOL     OW 8282   1.502   4.798   2.766
 1991SOL    HW2 8283   1.505   4.732   2.697
 1991SOL    HW3 8284   1.587   4.841   2.762
 1991SOL    MW4 8285   1.514   4.794   2.757
 1992SOL     OW 8286   1.122   4.401   2.335
 1992SOL    HW2 8287   1.148   4.425   2.246
 1992SOL    HW3 8288   1.104   4.308   2.331
 1992SOL    MW4 8289   1.124   4.393   2.322
 1993SOL     OW 8290   1.787   5.021   2.186
 1993SOL    HW2 8291   1.743   5.062   2.261
 1993SOL    HW3 8292   1.844   5.089   2.151
 1993SOL    MW4 8293   1.789   5.035   2.191
 1994SOL     OW 8294   0.707   4.070   3.589
 1994SOL    HW2 8295   0.717   3.996   3.529
 1994SOL    HW3 8296   0.743   4.039   3.672
 1994SOL    MW4 8297   0.713   4.056   3.591
 1995SOL     OW 8298   0.443   5.437   2.504
 1995SOL    HW2 8299   0.475   5.525   2.482
 1995SOL    HW3 8300   0.396   5.409   2.426
 1995SOL    MW4 8301   0.442   5.445   2.491
 1996SOL     OW 8302   1.827   3.799   2.553
 1996SOL    HW2 8303   1.881   3.750   2.615
 1996SOL    HW3 8304   1.770   3.733   2.514
 1996SOL    MW4 8305   1.827   3.783   2.555
 1997SOL     OW 8306   0.159   5.497   2.081
 1997SOL    HW2 8307   0.188   5.587   2.073
 1997SOL    HW3 8308   0.109   5.480   2.002
 1997SOL    MW4 8309   0.157   5.505   2.070
 1998SOL     OW 8310   0.946   3.752   2.966
 1998SOL    HW2 8311   0.905   3.830   2.928
 1998SOL    HW3 8312   1.040   3.770   2.961
 1998SOL    MW4 8313   0.952   3.764   2.961
 1999SOL     OW 8314   1.563   5.305   2.052
 1999SOL    HW2 8315   1.611   5.374   2.098
 1999SOL    HW3 8316   1.484   5.349   2.021
 1999SOL    MW4 8317   1.558   5.319   2.055
 2000SOL     OW 8318   0.961   4.430   1.996
 2000SOL    HW2 8319   0.963   4.377   1.917
 2000SOL    HW3 8320   1.049   4.467   2.002
 2000SOL    MW4 8321   0.973   4.429   1.985
 2001SOL     OW 8322   1.575   4.356   2.332
 2001SOL    HW2 8323   1.614   4.356   2.419
 2001SOL    HW3 8324   1.516   4.432   2.332
 2001SOL    MW4 8325   1.572   4.367   2.343
 2002SOL     OW 8326   0.892   4.723   3.461
 2002SOL    HW2 8327   0.869   4.703   3.551
 2002SOL    HW3 8328   0.977   4.767   3.466
 2002SOL    MW4 8329   0.899   4.726   3.473
 2003SOL     OW 8330   0.972   3.860   3.221
 2003SOL    HW2 8331   0.978   3.822   3.134
 2003SOL    HW3 8332   0.961   3.954   3.206
 2003SOL    MW4 8333   0.973   3.868   3.209
 2004SOL     OW 8334   1.061   4.349   3.055
 2004SOL    HW2 8335   1.136   4.378   3.002
 2004SOL    HW3 8336   0.993   4.414   3.039
 2004SOL    MW4 8337   1.062   4.361   3.045
 2005SOL     OW 8338   1.611   4.317   3.332
 2005SOL    HW2 8339   1.592   4.226   3.311
 2005SOL    HW3 8340   1.589   4.366   3.253
 2005SOL    MW4 8341   1.606   4.310   3.319
 2006SOL     OW 8342   1.753   5.411   3.236
 2006SOL    HW2 8343   1.681   5.373   3.287
 2006SOL    HW3 8344   1.770   5.496   3.277
 2006SOL    MW4 8345   1.747   5.416   3.248
 2007SOL     OW 8346   1.058   4.055   3.438
 2007SOL    HW2 8347   1.024   4.094   3.357
 2007SOL    HW3 8348   1.036   3.963   3.431
 2007SOL    MW4 8349   1.051   4.048   3.428
 2008SOL     OW 8350   1.467   4.869   3.514
 2008SOL    HW2 8351   1.549   4.910   3.544
 2008SOL    HW3 8352   1.430   4.831   3.594
 2008SOL    MW4 8353   1.473   4.870   3.529
 2009SOL     OW 8354   1.762   4.242   2.498
 2009SOL    HW2 8355   1.851   4.211   2.515
 2009SOL    HW3 8356   1.705   4.182   2.546
 2009SOL    MW4 8357   1.765   4.230   2.507
 2010SOL     OW 8358   0.188   3.956   2.527
 2010SOL    HW2 8359   0.179   3.896   2.453
 2010SOL    HW3 8360   0.121   3.927   2.590
 2010SOL    MW4 8361   0.178   3.943   2.525
 2011SOL     OW 8362   1.131   5.049   2.088
 2011SOL    HW2 8363   1.081   5.051   2.170
 2011SOL    HW3 8364   1.065   5.067   2.020
 2011SOL    MW4 8365   1.117   5.051   2.090
 2012SOL     OW 8366   0.135   4.129   2.890
 2012SOL    HW2 8367   0.107   4.220   2.899
 2012SOL    HW3 8368   0.072   4.090   2.829
 2012SOL    MW4 8369   0.122   4.135   2.884
 2013SOL     OW 8370   0.594   5.467   2.196
 2013SOL    HW2 8371   0.515   5.425   2.229
 2013SOL    HW3 8372   0.660   5.450   2.263
 2013SOL    MW4 8373   0.593   5.459   2.209
 2014SOL     OW 8374   1.722   4.987   3.593
 2014SOL    HW2 8375   1.772   4.913   3.625
 2014SOL    HW3 8376   1.668   5.014   3.668
 2014SOL    MW4 8377   1.722   4.981   3.606
 2015SOL     OW 8378   0.730   4.882   1.903
 2015SOL    HW2 8379   0.652   4.828   1.890
 2015SOL    HW3 8380   0.701   4.955   1.956
 2015SOL    MW4 8381   0.716   4.884   1.908
 2016SOL     OW 8382   1.856   4.622   3.095
 2016SOL    HW2 8383   1.872   4.660   3.008
 2016SOL    HW3 8384   1.890   4.688   3.156
 2016SOL    MW4 8385   1.863   4.635   3.091
 2017SOL     OW 8386   1.648   5.331   2.764
 2017SOL    HW2 8387   1.677   5.398   2.825
 2017SOL    HW3 8388   1.629   5.255   2.819
 2017SOL    MW4 8389   1.650   5.331   2.779
 2018SOL     OW 8390   1.311   5.398   1.971
 2018SOL    HW2 8391   1.237   5.361   2.021
 2018SOL    HW3 8392   1.319   5.488   2.004
 2018SOL    MW4 8393   1.302   5.405   1.983
 2019SOL     OW 8394   0.119   4.404   3.060
 2019SOL    HW2 8395   0.181   4.434   3.126
 2019SOL    HW3 8396   0.053   4.473   3.054
 2019SOL    MW4 8397   0.118   4.417   3.067
 2020SOL     OW 8398   1.535   5.072   1.913
 2020SOL    HW2 8399   1.482   5.121   1.849
 2020SOL    HW3 8400   1.566   5.138   1.974
 2020SOL    MW4 8401   1.533   5.086   1.911
 2021SOL     OW 8402   0.760   3.961   1.968
 2021SOL    HW2 8403   0.708   3.881   1.956
 2021SOL    HW3 8404   0.847   3.938   1.936
 2021SOL    MW4 8405   0.763   3.947   1.962
 2022SOL     OW 8406   0.214   5.513   3.512
 2022SOL    HW2 8407   0.188   5.581   3.450
 2022SOL    HW3 8408   0.262   5.450   3.460
 2022SOL    MW4 8409   0.216   5.513   3.498
 2023SOL     OW 8410   0.266   4.832   3.019
 2023SOL    HW2 8411   0.319   4.907   3.044
 2023SOL    HW3 8412   0.185   4.870   2.985
 2023SOL    MW4 8413   0.262   4.847   3.019
 2024SOL     OW 8414   0.806   4.736   3.007
 2024SOL    HW2 8415   0.834   4.645   3.019
 2024SOL    HW3 8416   0.735   4.730   2.943
 2024SOL    MW4 8417   0.799   4.724   3.002
 2025SOL     OW 8418   0.121   4.601   2.425
 2025SOL    HW2 8419   0.212   4.616   2.452
 2025SOL    HW3 8420   0.124   4.522   2.371
 2025SOL    MW4 8421   0.133   4.593   2.423
 2026SOL     OW 8422   0.357   4.309   3.679
 2026SOL    HW2 8423   0.304   4.389   3.686
 2026SOL    HW3 8424   0.427   4.321   3.744
 2026SOL    MW4 8425   0.359   4.322   3.687
 2027SOL     OW 8426   0.743   3.859   3.386
 2027SOL    HW2 8427   0.720   3.767   3.388
 2027SOL    HW3 8428   0.829   3.861   3.343
 2027SOL    MW4 8429   0.750   3.849   3.382
 2028SOL     OW 8430   0.427   4.383   3.425
 2028SOL    HW2 8431   0.507   4.433   3.411
 2028SOL    HW3 8432   0.418   4.377   3.520
 2028SOL    MW4 8433   0.436   4.389   3.435
 2029SOL     OW 8434   0.748   5.533   2.799
 2029SOL    HW2 8435   0.837   5.548   2.829
 2029SOL    HW3 8436   0.743   5.580   2.715
 2029SOL    MW4 8437   0.758   5.541   2.792
 2030SOL     OW 8438   1.404   3.908   3.696
 2030SOL    HW2 8439   1.460   3.835   3.722
 2030SOL    HW3 8440   1.374   3.946   3.778
 2030SOL    MW4 8441   1.408   3.903   3.709
 2031SOL     OW 8442   0.129   5.213   2.464
 2031SOL    HW2 8443   0.101   5.252   2.546
 2031SOL    HW3 8444   0.149   5.122   2.486
 2031SOL    MW4 8445   0.127   5.205   2.477
 2032SOL     OW 8446   0.962   5.256   2.499
 2032SOL    HW2 8447   1.045   5.210   2.483
 2032SOL    HW3 8448   0.952   5.255   2.595
 2032SOL    MW4 8449   0.972   5.249   2.509
 2033SOL     OW 8450   1.794   4.401   2.813
 2033SOL    HW2 8451   1.883   4.431   2.795
 2033SOL    HW3 8452   1.774   4.341   2.742
 2033SOL    MW4 8453   1.803   4.398   2.802
 2034SOL     OW 8454   1.645   4.580   3.693
 2034SOL    HW2 8455   1.700   4.504   3.674
 2034SOL    HW3 8456   1.647   4.588   3.788
 2034SOL    MW4 8457   1.653   4.571   3.701
 2035SOL     OW 8458   0.695   5.313   1.904
 2035SOL    HW2 8459   0.635   5.382   1.874
 2035SOL    HW3 8460   0.640   5.255   1.957
 2035SOL    MW4 8461   0.679   5.315   1.906
 2036SOL     OW 8462   1.133   3.958   2.127
 2036SOL    HW2 8463   1.066   3.934   2.064
 2036SOL    HW3 8464   1.198   4.007   2.076
 2036SOL    MW4 8465   1.133   3.960   2.112
 2037SOL     OW 8466   0.940   4.142   3.212
 2037SOL    HW2 8467   0.859   4.183   3.240
 2037SOL    HW3 8468   0.987   4.210   3.164
 2037SOL    MW4 8469   0.935   4.157   3.210
 2038SOL     OW 8470   1.200   4.480   2.835
 2038SOL    HW2 8471   1.213   4.574   2.845
 2038SOL    HW3 8472   1.161   4.470   2.749
 2038SOL    MW4 8473   1.196   4.491   2.825
 2039SOL     OW 8474   0.652   4.675   2.639
 2039SOL    HW2 8475   0.563   4.666   2.672
 2039SOL    HW3 8476   0.656   4.765   2.607
 2039SOL    MW4 8477   0.641   4.686   2.639
 2040SOL     OW 8478   1.451   4.258   2.634
 2040SOL    HW2 8479   1.396   4.179   2.633
 2040SOL    HW3 8480   1.433   4.299   2.718
 2040SOL    MW4 8481   1.441   4.253   2.643
 2041SOL     OW 8482   0.422   3.945   3.451
 2041SOL    HW2 8483   0.343   3.963   3.503
 2041SOL    HW3 8484   0.417   4.007   3.378
 2041SOL    MW4 8485   0.412   3.955   3.448
 2042SOL     OW 8486   1.070   4.462   2.591
 2042SOL    HW2 8487   1.007   4.394   2.615
 2042SOL    HW3 8488   1.090   4.443   2.499
 2042SOL    MW4 8489   1.064   4.449   2.583
 2043SOL     OW 8490   0.326   5.357   2.293
 2043SOL    HW2 8491   0.287   5.404   2.219
 2043SOL    HW3 8492   0.260   5.292   2.318
 2043SOL    MW4 8493   0.313   5.355   2.287
 2044SOL     OW 8494   0.818   4.766   2.317
 2044SOL    HW2 8495   0.820   4.740   2.224
 2044SOL    HW3 8496   0.876   4.703   2.360
 2044SOL    MW4 8497   0.826   4.755   2.311
 2045SOL     OW 8498   1.371   5.326   3.089
 2045SOL    HW2 8499   1.296   5.372   3.127
 2045SOL    HW3 8500   1.353   5.233   3.106
 2045SOL    MW4 8501   1.360   5.320   3.097
 2046SOL     OW 8502   1.375   5.534   2.519
 2046SOL    HW2 8503   1.318   5.487   2.458
 2046SOL    HW3 8504   1.461   5.495   2.506
 2046SOL    MW4 8505   1.378   5.525   2.509
 2047SOL     OW 8506   1.328   4.010   2.650
 2047SOL    HW2 8507   1.356   3.942   2.711
 2047SOL    HW3 8508   1.242   3.981   2.620
 2047SOL    MW4 8509   1.321   3.997   2.654
 2048SOL     OW 8510   0.133   4.944   2.584
 2048SOL    HW2 8511   0.197   4.976   2.647
 2048SOL    HW3 8512   0.182   4.880   2.532
 2048SOL    MW4 8513   0.148   4.940   2.585
 2049SOL     OW 8514   0.633   5.020   3.566
 2049SOL    HW2 8515   0.681   5.103   3.553
 2049SOL    HW3 8516   0.690   4.968   3.622
 2049SOL    MW4 8517   0.647   5.024   3.572
 2050SOL     OW 8518   0.209   5.262   3.706
 2050SOL    HW2 8519   0.265   5.186   3.721
 2050SOL    HW3 8520   0.158   5.240   3.628
 2050SOL    MW4 8521   0.209   5.249   3.697
 2051SOL     OW 8522   1.308   4.114   1.985
 2051SOL    HW2 8523   1.281   4.180   1.921
 2051SOL    HW3 8524   1.378   4.157   2.035
 2051SOL    MW4 8525   1.313   4.127   1.982
 2052SOL     OW 8526   0.976   3.819   1.922
 2052SOL    HW2 8527   1.032   3.811   1.844
 2052SOL    HW3 8528   0.953   3.729   1.944
 2052SOL    MW4 8529   0.981   3.806   1.915
 2053SOL     OW 8530   1.481   4.670   2.127
 2053SOL    HW2 8531   1.448   4.759   2.117
 2053SOL    HW3 8532   1.446   4.641   2.212
 2053SOL    MW4 8533   1.471   4.679   2.138
 2054SOL     OW 8534   1.094   5.099   3.315
 2054SOL    HW2 8535   1.005   5.105   3.283
 2054SOL    HW3 8536   1.138   5.178   3.283
 2054SOL    MW4 8537   1.089   5.109   3.307
 2055SOL     OW 8538   0.387   3.767   3.657
 2055SOL    HW2 8539   0.315   3.732   3.605
 2055SOL    HW3 8540   0.445   3.808   3.592
 2055SOL    MW4 8541   0.385   3.768   3.642
 2056SOL     OW 8542   0.411   5.257   2.956
 2056SOL    HW2 8543   0.456   5.319   3.013
 2056SOL    HW3 8544   0.318   5.276   2.969
 2056SOL    MW4 8545   0.404   5.267   2.963
 2057SOL     OW 8546   1.851   4.786   3.310
 2057SOL    HW2 8547   1.766   4.799   3.269
 2057SOL    HW3 8548   1.831   4.750   3.397
 2057SOL    MW4 8549   1.838   4.782   3.315
 2058SOL     OW 8550   0.833   5.325   3.064
 2058SOL    HW2 8551   0.857   5.314   2.973
 2058SOL    HW3 8552   0.756   5.382   3.062
 2058SOL    MW4 8553   0.825   5.330   3.053
 2059SOL     OW 8554   0.475   4.708   1.919
 2059SOL    HW2 8555   0.398   4.721   1.975
 2059SOL    HW3 8556   0.439   4.672   1.838
 2059SOL    MW4 8557   0.461   4.704   1.916
 2060SOL     OW 8558   1.128   4.681   2.162
 2060SOL    HW2 8559   1.038   4.702   2.137
 2060SOL    HW3 8560   1.155   4.754   2.218
 2060SOL    MW4 8561   1.120   4.693   2.165
 2061SOL     OW 8562   0.628   5.030   2.854
 2061SOL    HW2 8563   0.621   5.009   2.948
 2061SOL    HW3 8564   0.546   4.998   2.817
 2061SOL    MW4 8565   0.616   5.024   2.861
 2062SOL     OW 8566   1.492   4.040   3.256
 2062SOL    HW2 8567   1.439   4.042   3.336
 2062SOL    HW3 8568   1.477   3.953   3.219
 2062SOL    MW4 8569   1.484   4.030   3.261
 2063SOL     OW 8570   1.828   3.964   3.129
 2063SOL    HW2 8571   1.809   4.031   3.064
 2063SOL    HW3 8572   1.885   3.902   3.084
 2063SOL    MW4 8573   1.832   3.965   3.115
 2064SOL     OW 8574   0.074   5.122   3.517
 2064SOL    HW2 8575   0.118   5.055   3.463
 2064SOL    HW3 8576  -0.011   5.084   3.537
 2064SOL    MW4 8577   0.069   5.108   3.513
 2065SOL     OW 8578   0.757   3.797   2.569
 2065SOL    HW2 8579   0.686   3.858   2.551
 2065SOL    HW3 8580   0.808   3.794   2.488
 2065SOL    MW4 8581   0.753   3.803   2.556
 2066SOL     OW 8582   0.515   5.037   2.318
 2066SOL    HW2 8583   0.508   5.069   2.408
 2066SOL    HW3 8584   0.425   5.021   2.290
 2066SOL    MW4 8585   0.503   5.039   2.325
 2067SOL     OW 8586   1.110   5.430   3.227
 2067SOL    HW2 8587   1.030   5.415   3.177
 2067SOL    HW3 8588   1.117   5.525   3.234
 2067SOL    MW4 8589   1.101   5.441   3.221
 2068SOL     OW 8590   1.224   5.395   2.717
 2068SOL    HW2 8591   1.271   5.468   2.676
 2068SOL    HW3 8592   1.145   5.434   2.753
 2068SOL    MW4 8593   1.219   5.410   2.716
 2069SOL     OW 8594   1.632   5.490   2.992
 2069SOL    HW2 8595   1.675   5.460   3.072
 2069SOL    HW3 8596   1.551   5.438   2.989
 2069SOL    MW4 8597   1.627   5.479   3.002
 2070SOL     OW 8598   0.717   4.454   3.699
 2070SOL    HW2 8599   0.787   4.396   3.671
 2070SOL    HW3 8600   0.660   4.399   3.754
 2070SOL    MW4 8601   0.719   4.441   3.703
 2071SOL     OW 8602   1.504   4.666   3.332
 2071SOL    HW2 8603   1.509   4.719   3.412
 2071SOL    HW3 8604   1.466   4.583   3.360
 2071SOL    MW4 8605   1.500   4.661   3.347
 2072SOL     OW 8606   1.144   3.801   3.578
 2072SOL    HW2 8607   1.139   3.708   3.559
 2072SOL    HW3 8608   1.227   3.812   3.624
 2072SOL    MW4 8609   1.152   3.790   3.582
 2073SOL     OW 8610   0.518   4.321   2.032
 2073SOL    HW2 8611   0.484   4.377   2.102
 2073SOL    HW3 8612   0.589   4.271   2.072
 2073SOL    MW4 8613   0.524   4.322   2.046
 2074SOL     OW 8614   1.614   5.072   2.854
 2074SOL    HW2 8615   1.649   5.054   2.767
 2074SOL    HW3 8616   1.519   5.073   2.841
 2074SOL    MW4 8617   1.606   5.069   2.841
 2075SOL     OW 8618   1.043   4.720   3.223
 2075SOL    HW2 8619   1.086   4.755   3.301
 2075SOL    HW3 8620   1.026   4.797   3.169
 2075SOL    MW4 8621   1.046   4.735   3.226
 2076SOL     OW 8622   1.574   4.207   2.096
 2076SOL    HW2 8623   1.566   4.278   2.033
 2076SOL    HW3 8624   1.592   4.251   2.179
 2076SOL    MW4 8625   1.575   4.221   2.098
 2077SOL     OW 8626   0.434   3.862   2.525
 2077SOL    HW2 8627   0.484   3.905   2.456
 2077SOL    HW3 8628   0.349   3.906   2.525
 2077SOL    MW4 8629   0.431   3.875   2.516
 2078SOL     OW 8630   0.193   4.924   3.385
 2078SOL    HW2 8631   0.221   4.877   3.463
 2078SOL    HW3 8632   0.114   4.879   3.356
 2078SOL    MW4 8633   0.186   4.913   3.391
 2079SOL     OW 8634   0.701   4.251   3.352
 2079SOL    HW2 8635   0.673   4.339   3.376
 2079SOL    HW3 8636   0.670   4.195   3.423
 2079SOL    MW4 8637   0.693   4.254   3.364
 2080SOL     OW 8638   1.243   4.469   2.071
 2080SOL    HW2 8639   1.290   4.487   1.990
 2080SOL    HW3 8640   1.209   4.553   2.099
 2080SOL    MW4 8641   1.245   4.483   2.064
 2081SOL     OW 8642   0.356   4.647   2.565
 2081SOL    HW2 8643   0.414   4.703   2.513
 2081SOL    HW3 8644   0.400   4.562   2.567
 2081SOL    MW4 8645   0.369   4.644   2.558
 2082SOL     OW 8646   1.496   3.999   2.402
 2082SOL    HW2 8647   1.418   3.949   2.427
 2082SOL    HW3 8648   1.467   4.090   2.402
 2082SOL    MW4 8649   1.482   4.003   2.405
 2083SOL     OW 8650   1.082   3.961   2.561
 2083SOL    HW2 8651   1.102   4.036   2.505
 2083SOL    HW3 8652   1.062   4.000   2.646
 2083SOL    MW4 8653   1.083   3.977   2.565
 2084SOL     OW 8654   0.978   5.211   1.893
 2084SOL    HW2 8655   1.005   5.289   1.845
 2084SOL    HW3 8656   0.885   5.226   1.912
 2084SOL    MW4 8657   0.969   5.224   1.889
 2085SOL     OW 8658   1.842   4.734   3.580
 2085SOL    HW2 8659   1.755   4.714   3.616
 2085SOL    HW3 8660   1.896   4.660   3.605
 2085SOL    MW4 8661   1.837   4.723   3.588
 2086SOL     OW 8662   0.063   5.247   2.737
 2086SOL    HW2 8663   0.095   5.251   2.828
 2086SOL    HW3 8664  -0.032   5.255   2.745
 2086SOL    MW4 8665   0.055   5.250   2.750
 2087SOL     OW 8666   0.018   4.373   2.284
 2087SOL    HW2 8667  -0.042   4.345   2.354
 2087SOL    HW3 8668   0.092   4.313   2.290
 2087SOL    MW4 8669   0.020   4.362   2.293
 2088SOL     OW 8670   1.586   5.585   3.718
 2088SOL    HW2 8671   1.631   5.509   3.683
 2088SOL    HW3 8672   1.624   5.598   3.805
 2088SOL    MW4 8673   1.596   5.578   3.724
 2089SOL     OW 8674   1.186   5.104   2.444
 2089SOL    HW2 8675   1.209   5.055   2.522
 2089SOL    HW3 8676   1.267   5.146   2.416
 2089SOL    MW4 8677   1.199   5.104   2.451
 2090SOL     OW 8678   0.444   4.112   3.173
 2090SOL    HW2 8679   0.477   4.193   3.213
 2090SOL    HW3 8680   0.417   4.138   3.085
 2090SOL    MW4 8681   0.443   4.126   3.167
 2091SOL     OW 8682   0.398   4.079   2.909
 2091SOL    HW2 8683   0.428   3.993   2.880
 2091SOL    HW3 8684   0.303   4.072   2.912
 2091SOL    MW4 8685   0.390   4.068   2.907
 2092SOL     OW 8686   1.227   4.288   3.600
 2092SOL    HW2 8687   1.279   4.223   3.553
 2092SOL    HW3 8688   1.185   4.339   3.530
 2092SOL    MW4 8689   1.228   4.285   3.583
 2093SOL     OW 8690   1.326   4.083   3.461
 2093SOL    HW2 8691   1.233   4.067   3.448
 2093SOL    HW3 8692   1.352   4.021   3.529
 2093SOL    MW4 8693   1.316   4.073   3.468
 2094SOL     OW 8694   0.541   3.857   2.800
 2094SOL    HW2 8695   0.551   3.766   2.826
 2094SOL    HW3 8696   0.497   3.853   2.715
 2094SOL    MW4 8697   0.537   3.845   2.792
 2095SOL     OW 8698   0.635   5.472   3.346
 2095SOL    HW2 8699   0.552   5.457   3.391
 2095SOL    HW3 8700   0.694   5.405   3.381
 2095SOL    MW4 8701   0.633   5.462   3.356
 2096SOL     OW 8702   1.692   4.179   2.971
 2096SOL    HW2 8703   1.625   4.212   3.031
 2096SOL    HW3 8704   1.735   4.257   2.937
 2096SOL    MW4 8705   1.690   4.194   2.975
 2097SOL     OW 8706   1.870   4.899   2.941
 2097SOL    HW2 8707   1.863   4.839   2.866
 2097SOL    HW3 8708   1.796   4.959   2.930
 2097SOL    MW4 8709   1.860   4.899   2.930
 2098SOL     OW 8710   1.252   4.761   2.859
 2098SOL    HW2 8711   1.266   4.733   2.950
 2098SOL    HW3 8712   1.338   4.792   2.831
 2098SOL    MW4 8713   1.265   4.762   2.868
 2099SOL     OW 8714   1.335   4.256   3.138
 2099SOL    HW2 8715   1.356   4.257   3.045
 2099SOL    HW3 8716   1.380   4.178   3.171
 2099SOL    MW4 8717   1.342   4.246   3.130
 2100SOL     OW 8718   1.828   4.387   3.680
 2100SOL    HW2 8719   1.865   4.332   3.749
 2100SOL    HW3 8720   1.853   4.344   3.598
 2100SOL    MW4 8721   1.835   4.375   3.679
 2101SOL     OW 8722   1.375   4.685   3.731
 2101SOL    HW2 8723   1.441   4.633   3.685
 2101SOL    HW3 8724   1.395   4.672   3.824
 2101SOL    MW4 8725   1.386   4.676   3.738
 2102SOL     OW 8726   1.326   3.771   2.080
 2102SOL    HW2 8727   1.400   3.815   2.123
 2102SOL    HW3 8728   1.250   3.825   2.102
 2102SOL    MW4 8729   1.326   3.783   2.088
 2103SOL     OW 8730   0.462   5.009   3.089
 2103SOL    HW2 8731   0.474   5.036   3.180
 2103SOL    HW3 8732   0.443   5.090   3.042
 2103SOL    MW4 8733   0.461   5.024   3.094
 2104SOL     OW 8734   0.746   3.989   2.912
 2104SOL    HW2 8735   0.719   3.991   3.003
 2104SOL    HW3 8736   0.676   3.941   2.867
 2104SOL    MW4 8737   0.734   3.985   2.919
 2105SOL     OW 8738   0.600   5.481   3.074
 2105SOL    HW2 8739   0.652   5.558   3.051
 2105SOL    HW3 8740   0.609   5.473   3.169
 2105SOL    MW4 8741   0.609   5.488   3.085
 2106SOL     OW 8742   1.502   5.066   3.306
 2106SOL    HW2 8743   1.487   4.995   3.369
 2106SOL    HW3 8744   1.548   5.024   3.234
 2106SOL    MW4 8745   1.508   5.050   3.306
 2107SOL     OW 8746   0.576   4.797   3.423
 2107SOL    HW2 8747   0.613   4.802   3.335
 2107SOL    HW3 8748   0.615   4.870   3.470
 2107SOL    MW4 8749   0.586   4.807   3.418
 2108SOL     OW 8750   0.756   4.840   3.235
 2108SOL    HW2 8751   0.815   4.786   3.288
 2108SOL    HW3 8752   0.771   4.812   3.145
 2108SOL    MW4 8753   0.766   4.829   3.231
 2109SOL     OW 8754   0.759   4.212   2.084
 2109SOL    HW2 8755   0.832   4.261   2.047
 2109SOL    HW3 8756   0.775   4.121   2.058
 2109SOL    MW4 8757   0.771   4.207   2.077
 2110SOL     OW 8758   1.567   5.329   3.407
 2110SOL    HW2 8759   1.609   5.314   3.492
 2110SOL    HW3 8760   1.558   5.242   3.369
 2110SOL    MW4 8761   1.571   5.317   3.414
 2111SOL     OW 8762   1.227   3.808   2.998
 2111SOL    HW2 8763   1.282   3.817   2.920
 2111SOL    HW3 8764   1.282   3.842   3.069
 2111SOL    MW4 8765   1.241   3.813   2.997
 2112SOL     OW 8766   0.234   4.721   2.182
 2112SOL    HW2 8767   0.171   4.737   2.111
 2112SOL    HW3 8768   0.181   4.684   2.253
 2112SOL    MW4 8769   0.219   4.718   2.182
 2113SOL     OW 8770   0.590   5.075   2.041
 2113SOL    HW2 8771   0.605   5.051   2.133
 2113SOL    HW3 8772   0.498   5.053   2.025
 2113SOL    MW4 8773   0.580   5.068   2.051
 2114SOL     OW 8774   1.129   5.306   2.193
 2114SOL    HW2 8775   1.137   5.224   2.144
 2114SOL    HW3 8776   1.048   5.345   2.160
 2114SOL    MW4 8777   1.119   5.301   2.183
 2115SOL     OW 8778   0.388   5.464   2.762
 2115SOL    HW2 8779   0.392   5.375   2.797
 2115SOL    HW3 8780   0.414   5.455   2.671
 2115SOL    MW4 8781   0.391   5.452   2.754
 2116SOL     OW 8782   1.005   4.942   3.005
 2116SOL    HW2 8783   0.937   4.876   3.021
 2116SOL    HW3 8784   1.023   4.936   2.912
 2116SOL    MW4 8785   0.998   4.933   2.996
 2117SOL     OW 8786   0.094   5.217   3.256
 2117SOL    HW2 8787   0.084   5.175   3.342
 2117SOL    HW3 8788   0.015   5.270   3.246
 2117SOL    MW4 8789   0.083   5.218   3.267
 2118SOL     OW 8790   0.998   4.081   2.826
 2118SOL    HW2 8791   0.928   4.033   2.871
 2118SOL    HW3 8792   1.030   4.144   2.890
 2118SOL    MW4 8793   0.993   4.083   2.840
 2119SOL     OW 8794   0.649   4.517   3.446
 2119SOL    HW2 8795   0.642   4.612   3.434
 2119SOL    HW3 8796   0.658   4.506   3.541
 2119SOL    MW4 8797   0.650   4.529   3.456
 2120SOL     OW 8798   0.370   5.032   3.704
 2120SOL    HW2 8799   0.442   5.034   3.641
 2120SOL    HW3 8800   0.340   4.941   3.703
 2120SOL    MW4 8801   0.375   5.021   3.696
 2121SOL     OW 8802   1.454   3.795   3.171
 2121SOL    HW2 8803   1.525   3.741   3.135
 2121SOL    HW3 8804   1.453   3.774   3.264
 2121SOL    MW4 8805   1.463   3.786   3.179
 2122SOL     OW 8806   1.654   5.325   3.655
 2122SOL    HW2 8807   1.627   5.322   3.746
 2122SOL    HW3 8808   1.750   5.329   3.658
 2122SOL    MW4 8809   1.664   5.325   3.667
 2123SOL     OW 8810   0.465   4.187   2.639
 2123SOL    HW2 8811   0.536   4.135   2.602
 2123SOL    HW3 8812   0.451   4.152   2.726
 2123SOL    MW4 8813   0.473   4.176   2.646
 2124SOL     OW 8814   0.020   5.522   3.711
 2124SOL    HW2 8815   0.070   5.500   3.633
 2124SOL    HW3 8816   0.028   5.617   3.719
 2124SOL    MW4 8817   0.028   5.531   3.702
 2125SOL     OW 8818   0.781   5.280   2.715
 2125SOL    HW2 8819   0.709   5.217   2.728
 2125SOL    HW3 8820   0.742   5.365   2.733
 2125SOL    MW4 8821   0.765   5.283   2.718
 2126SOL     OW 8822   1.101   4.128   2.363
 2126SOL    HW2 8823   1.123   4.065   2.295
 2126SOL    HW3 8824   1.006   4.120   2.374
 2126SOL    MW4 8825   1.091   4.119   2.355
 2127SOL     OW 8826   0.186   3.818   2.295
 2127SOL    HW2 8827   0.257   3.839   2.234
 2127SOL    HW3 8828   0.140   3.746   2.253
 2127SOL    MW4 8829   0.190   3.812   2.281
 2128SOL     OW 8830   0.017   4.285   3.438
 2128SOL    HW2 8831   0.081   4.351   3.413
 2128SOL    HW3 8832  -0.064   4.312   3.395
 2128SOL    MW4 8833   0.015   4.297   3.430
 2129SOL     OW 8834   1.755   5.192   2.395
 2129SOL    HW2 8835   1.725   5.125   2.456
 2129SOL    HW3 8836   1.849   5.198   2.409
 2129SOL    MW4 8837   1.763   5.184   2.405
 2130SOL     OW 8838   1.311   4.869   2.325
 2130SOL    HW2 8839   1.283   4.955   2.358
 2130SOL    HW3 8840   1.339   4.885   2.235
 2130SOL    MW4 8841   1.311   4.883   2.317
 2131SOL     OW 8842   0.973   3.789   2.378
 2131SOL    HW2 8843   1.010   3.848   2.443
 2131SOL    HW3 8844   0.950   3.845   2.304
 2131SOL    MW4 8845   0.974   3.804   2.377
 2132SOL     OW 8846   1.826   4.671   2.800
 2132SOL    HW2 8847   1.817   4.703   2.711
 2132SOL    HW3 8848   1.779   4.587   2.800
 2132SOL    MW4 8849   1.819   4.664   2.790
 2133SOL     OW 8850   0.202   4.511   3.379
 2133SOL    HW2 8851   0.223   4.580   3.317
 2133SOL    HW3 8852   0.282   4.458   3.384
 2133SOL    MW4 8853   0.215   4.512   3.373
 2134SOL     OW 8854   1.738   4.602   2.501
 2134SOL    HW2 8855   1.832   4.591   2.489
 2134SOL    HW3 8856   1.714   4.674   2.442
 2134SOL    MW4 8857   1.748   4.610   2.492
 2135SOL     OW 8858   0.187   4.526   3.646
 2135SOL    HW2 8859   0.113   4.470   3.672
 2135SOL    HW3 8860   0.182   4.529   3.551
 2135SOL    MW4 8861   0.176   4.519   3.636
 2136SOL     OW 8862   0.353   3.813   3.096
 2136SOL    HW2 8863   0.396   3.897   3.116
 2136SOL    HW3 8864   0.426   3.751   3.089
 2136SOL    MW4 8865   0.368   3.816   3.097
 2137SOL     OW 8866   0.394   4.480   2.274
 2137SOL    HW2 8867   0.394   4.575   2.259
 2137SOL    HW3 8868   0.471   4.464   2.328
 2137SOL    MW4 8869   0.404   4.491   2.279
 2138SOL     OW 8870   1.170   4.339   3.338
 2138SOL    HW2 8871   1.206   4.312   3.254
 2138SOL    HW3 8872   1.083   4.373   3.317
 2138SOL    MW4 8873   1.164   4.340   3.325
 2139SOL     OW 8874   0.153   4.211   2.563
 2139SOL    HW2 8875   0.215   4.218   2.636
 2139SOL    HW3 8876   0.153   4.118   2.540
 2139SOL    MW4 8877   0.161   4.200   2.570
 2140SOL     OW 8878   1.700   5.551   2.095
 2140SOL    HW2 8879   1.767   5.584   2.035
 2140SOL    HW3 8880   1.657   5.630   2.129
 2140SOL    MW4 8881   1.702   5.566   2.091
 2141SOL     OW 8882   0.835   4.472   3.047
 2141SOL    HW2 8883   0.793   4.390   3.023
 2141SOL    HW3 8884   0.836   4.471   3.143
 2141SOL    MW4 8885   0.828   4.461   3.056
 2142SOL     OW 8886   1.506   5.605   3.446
 2142SOL    HW2 8887   1.509   5.511   3.429
 2142SOL    HW3 8888   1.529   5.613   3.538
 2142SOL    MW4 8889   1.509   5.593   3.456
 2143SOL     OW 8890   0.639   3.942   3.152
 2143SOL    HW2 8891   0.570   4.005   3.173
 2143SOL    HW3 8892   0.666   3.906   3.237
 2143SOL    MW4 8893   0.633   3.945   3.165
 2144SOL     OW 8894   0.022   4.783   2.021
 2144SOL    HW2 8895  -0.009   4.848   2.084
 2144SOL    HW3 8896  -0.029   4.705   2.040
 2144SOL    MW4 8897   0.012   4.780   2.031
 2145SOL     OW 8898   1.434   3.795   2.769
 2145SOL    HW2 8899   1.522   3.804   2.806
 2145SOL    HW3 8900   1.444   3.736   2.695
 2145SOL    MW4 8901   1.448   3.789   2.763
 2146SOL     OW 8902   1.466   4.534   2.613
 2146SOL    HW2 8903   1.546   4.549   2.562
 2146SOL    HW3 8904   1.459   4.439   2.619
 2146SOL    MW4 8905   1.475   4.523   2.608
 2147SOL     OW 8906   0.606   5.583   1.963
 2147SOL    HW2 8907   0.511   5.583   1.955
 2147SOL    HW3 8908   0.622   5.529   2.041
 2147SOL    MW4 8909   0.596   5.577   1.972
 2148SOL     OW 8910   0.916   4.460   3.310
 2148SOL    HW2 8911   0.985   4.527   3.307
 2148SOL    HW3 8912   0.849   4.498   3.366
 2148SOL    MW4 8913   0.917   4.473   3.317
 2149SOL     OW 8914   0.334   4.760   3.558
 2149SOL    HW2 8915   0.288   4.676   3.560
 2149SOL    HW3 8916   0.391   4.754   3.482
 2149SOL    MW4 8917   0.336   4.748   3.550
 2150SOL     OW 8918   1.451   4.403   1.879
 2150SOL    HW2 8919   1.379   4.379   1.821
 2150SOL    HW3 8920   1.517   4.440   1.821
 2150SOL    MW4 8921   1.450   4.405   1.864
 2151SOL     OW 8922   0.585   5.135   2.559
 2151SOL    HW2 8923   0.650   5.068   2.580
 2151SOL    HW3 8924   0.637   5.212   2.536
 2151SOL    MW4 8925   0.600   5.137   2.558
 2152SOL     OW 8926   0.846   4.300   2.689
 2152SOL    HW2 8927   0.786   4.318   2.761
 2152SOL    HW3 8928   0.880   4.212   2.708
 2152SOL    MW4 8929   0.842   4.290   2.702
 2153SOL     OW 8930   1.787   3.799   3.358
 2153SOL    HW2 8931   1.708   3.845   3.386
 2153SOL    HW3 8932   1.822   3.853   3.287
 2153SOL    MW4 8933   1.781   3.812   3.352
 2154SOL     OW 8934   1.071   4.883   2.708
 2154SOL    HW2 8935   1.163   4.864   2.726
 2154SOL    HW3 8936   1.044   4.813   2.648
 2154SOL    MW4 8937   1.079   4.871   2.702
 2155SOL     OW 8938   0.864   4.703   2.063
 2155SOL    HW2 8939   0.850   4.615   2.028
 2155SOL    HW3 8940   0.815   4.760   2.004
 2155SOL    MW4 8941   0.856   4.698   2.051
 2156SOL     OW 8942   1.345   5.121   2.804
 2156SOL    HW2 8943   1.318   5.205   2.769
 2156SOL    HW3 8944   1.305   5.116   2.891
 2156SOL    MW4 8945   1.338   5.130   2.810
 2157SOL     OW 8946   1.264   5.069   3.072
 2157SOL    HW2 8947   1.275   5.036   3.161
 2157SOL    HW3 8948   1.183   5.028   3.041
 2157SOL    MW4 8949   1.254   5.061   3.078
 2158SOL     OW 8950   0.277   4.427   2.842
 2158SOL    HW2 8951   0.227   4.426   2.923
 2158SOL    HW3 8952   0.297   4.519   2.826
 2158SOL    MW4 8953   0.273   4.439   2.850
 2159SOL     OW 8954   1.344   5.191   3.604
 2159SOL    HW2 8955   1.344   5.285   3.620
 2159SOL    HW3 8956   1.389   5.181   3.520
 2159SOL    MW4 8957   1.350   5.201   3.595
 2160SOL     OW 8958   1.583   3.909   2.165
 2160SOL    HW2 8959   1.576   3.913   2.260
 2160SOL    HW3 8960   1.595   4.000   2.138
 2160SOL    MW4 8961   1.584   3.922   2.173
 2161SOL     OW 8962   0.872   4.472   2.279
 2161SOL    HW2 8963   0.852   4.458   2.186
 2161SOL    HW3 8964   0.965   4.451   2.286
 2161SOL    MW4 8965   0.882   4.467   2.268
 2162SOL     OW 8966   0.199   4.095   3.583
 2162SOL    HW2 8967   0.156   4.154   3.520
 2162SOL    HW3 8968   0.267   4.150   3.623
 2162SOL    MW4 8969   0.203   4.110   3.580
 2163SOL     OW 8970   1.311   4.715   3.128
 2163SOL    HW2 8971   1.374   4.712   3.201
 2163SOL    HW3 8972   1.227   4.733   3.170
 2163SOL    MW4 8973   1.307   4.717   3.143
 2164SOL     OW 8974   0.855   5.430   2.317
 2164SOL    HW2 8975   0.913   5.501   2.344
 2164SOL    HW3 8976   0.878   5.358   2.375
 2164SOL    MW4 8977   0.866   5.430   2.328
 2165SOL     OW 8978   1.650   3.892   2.907
 2165SOL    HW2 8979   1.695   3.810   2.926
 2165SOL    HW3 8980   1.670   3.948   2.983
 2165SOL    MW4 8981   1.660   3.888   2.919
 2166SOL     OW 8982   0.098   3.735   3.006
 2166SOL    HW2 8983   0.089   3.736   2.911
 2166SOL    HW3 8984   0.192   3.747   3.021
 2166SOL    MW4 8985   0.110   3.738   2.997
 2167SOL     OW 8986   1.735   4.928   2.626
 2167SOL    HW2 8987   1.714   4.874   2.549
 2167SOL    HW3 8988   1.831   4.926   2.630
 2167SOL    MW4 8989   1.744   4.921   2.615
 2168SOL     OW 8990   0.427   5.073   3.369
 2168SOL    HW2 8991   0.348   5.023   3.392
 2168SOL    HW3 8992   0.497   5.032   3.419
 2168SOL    MW4 8993   0.425   5.061   3.379
 2169SOL     OW 8994   0.311   3.862   2.052
 2169SOL    HW2 8995   0.240   3.917   2.020
 2169SOL    HW3 8996   0.353   3.828   1.973
 2169SOL    MW4 8997   0.307   3.864   2.038
 2170SOL     OW 8998   1.435   4.359   2.888
 2170SOL    HW2 8999   1.358   4.405   2.854
 2170SOL    HW3 9000   1.492   4.428   2.922
 2170SOL    MW4 9001   1.432   4.374   2.888
 2171SOL     OW 9002   0.067   3.961   1.901
 2171SOL    HW2 9003   0.034   4.040   1.945
 2171SOL    HW3 9004   0.122   3.994   1.830
 2171SOL    MW4 9005   0.070   3.975   1.898
 2172SOL     OW 9006   0.101   5.218   2.090
 2172SOL    HW2 9007   0.118   5.302   2.132
 2172SOL    HW3 9008   0.136   5.227   2.002
 2172SOL    MW4 9009   0.106   5.231   2.084
 2173SOL     OW 9010   1.373   5.307   2.307
 2173SOL    HW2 9011   1.436   5.297   2.236
 2173SOL    HW3 9012   1.290   5.327   2.262
 2173SOL    MW4 9013   1.370   5.308   2.292
 2174SOL     OW 9014   1.736   4.575   3.993
 2174SOL    HW2 9015   1.777   4.517   4.058
 2174SOL    HW3 9016   1.643   4.567   4.010
 2174SOL    MW4 9017   1.730   4.567   4.003
 2175SOL     OW 9018   1.602   4.507   4.988
 2175SOL    HW2 9019   1.557   4.574   5.039
 2175SOL    HW3 9020   1.690   4.543   4.974
 2175SOL    MW4 9021   1.608   4.520   4.992
 2176SOL     OW 9022   0.530   4.758   4.222
 2176SOL    HW2 9023   0.620   4.733   4.206
 2176SOL    HW3 9024   0.526   4.851   4.199
 2176SOL    MW4 9025   0.542   4.767   4.217
 2177SOL     OW 9026   1.646   5.461   4.364
 2177SOL    HW2 9027   1.658   5.407   4.442
 2177SOL    HW3 9028   1.683   5.409   4.293
 2177SOL    MW4 9029   1.652   5.446   4.365
 2178SOL     OW 9030   1.025   5.346   5.365
 2178SOL    HW2 9031   1.066   5.382   5.286
 2178SOL    HW3 9032   1.060   5.257   5.372
 2178SOL    MW4 9033   1.036   5.339   5.356
 2179SOL     OW 9034   1.582   4.901   4.969
 2179SOL    HW2 9035   1.503   4.866   4.927
 2179SOL    HW3 9036   1.609   4.973   4.913
 2179SOL    MW4 9037   1.575   4.906   4.956
 2180SOL     OW 9038   0.814   4.214   4.235
 2180SOL    HW2 9039   0.789   4.302   4.263
 2180SOL    HW3 9040   0.811   4.217   4.139
 2180SOL    MW4 9041   0.810   4.226   4.227
 2181SOL     OW 9042   0.256   4.242   4.163
 2181SOL    HW2 9043   0.288   4.330   4.145
 2181SOL    HW3 9044   0.244   4.240   4.258
 2181SOL    MW4 9045   0.259   4.254   4.175
 2182SOL     OW 9046   0.334   4.655   5.064
 2182SOL    HW2 9047   0.397   4.602   5.015
 2182SOL    HW3 9048   0.315   4.729   5.007
 2182SOL    MW4 9049   0.340   4.657   5.051
 2183SOL     OW 9050   0.655   3.997   4.250
 2183SOL    HW2 9051   0.713   4.073   4.252
 2183SOL    HW3 9052   0.590   4.018   4.183
 2183SOL    MW4 9053   0.654   4.009   4.241
 2184SOL     OW 9054   0.767   5.265   5.328
 2184SOL    HW2 9055   0.851   5.291   5.367
 2184SOL    HW3 9056   0.791   5.209   5.254
 2184SOL    MW4 9057   0.781   5.261   5.323
 2185SOL     OW 9058   0.519   4.428   4.416
 2185SOL    HW2 9059   0.504   4.348   4.467
 2185SOL    HW3 9060   0.601   4.463   4.450
 2185SOL    MW4 9061   0.527   4.420   4.428
 2186SOL     OW 9062   0.856   5.114   5.101
 2186SOL    HW2 9063   0.820   5.180   5.041
 2186SOL    HW3 9064   0.784   5.052   5.114
 2186SOL    MW4 9065   0.842   5.114   5.095
 2187SOL     OW 9066   0.661   4.254   4.793
 2187SOL    HW2 9067   0.567   4.250   4.811
 2187SOL    HW3 9068   0.691   4.163   4.802
 2187SOL    MW4 9069   0.652   4.242   4.796
 2188SOL     OW 9070   0.407   4.668   4.697
 2188SOL    HW2 9071   0.362   4.675   4.613
 2188SOL    HW3 9072   0.387   4.751   4.741
 2188SOL    MW4 9073   0.399   4.680   4.691
 2189SOL     OW 9074   0.104   5.514   4.572
 2189SOL    HW2 9075   0.193   5.506   4.607
 2189SOL    HW3 9076   0.068   5.426   4.577
 2189SOL    MW4 9077   0.111   5.501   4.577
 2190SOL     OW 9078   1.369   4.906   3.941
 2190SOL    HW2 9079   1.287   4.942   3.907
 2190SOL    HW3 9080   1.437   4.949   3.890
 2190SOL    MW4 9081   1.367   4.916   3.929
 2191SOL     OW 9082   0.368   5.041   4.607
 2191SOL    HW2 9083   0.344   5.094   4.683
 2191SOL    HW3 9084   0.424   5.099   4.555
 2191SOL    MW4 9085   0.372   5.056   4.610
 2192SOL     OW 9086   0.930   4.685   4.417
 2192SOL    HW2 9087   0.844   4.672   4.457
 2192SOL    HW3 9088   0.983   4.612   4.449
 2192SOL    MW4 9089   0.926   4.674   4.426
 2193SOL     OW 9090   0.338   5.337   5.202
 2193SOL    HW2 9091   0.246   5.313   5.187
 2193SOL    HW3 9092   0.382   5.254   5.219
 2193SOL    MW4 9093   0.332   5.322   5.201
 2194SOL     OW 9094   0.921   5.047   4.134
 2194SOL    HW2 9095   0.898   5.109   4.202
 2194SOL    HW3 9096   0.878   4.965   4.160
 2194SOL    MW4 9097   0.913   5.043   4.145
 2195SOL     OW 9098   1.794   4.048   4.590
 2195SOL    HW2 9099   1.731   4.028   4.659
 2195SOL    HW3 9100   1.784   3.977   4.527
 2195SOL    MW4 9101   1.784   4.035   4.591
 2196SOL     OW 9102   0.418   4.020   4.102
 2196SOL    HW2 9103   0.392   3.982   4.018
 2196SOL    HW3 9104   0.355   4.090   4.118
 2196SOL    MW4 9105   0.407   4.023   4.093
 2197SOL     OW 9106   0.253   4.981   4.139
 2197SOL    HW2 9107   0.201   5.049   4.095
 2197SOL    HW3 9108   0.250   4.907   4.079
 2197SOL    MW4 9109   0.245   4.980   4.126
 2198SOL     OW 9110   0.915   5.444   3.917
 2198SOL    HW2 9111   0.870   5.460   4.000
 2198SOL    HW3 9112   0.846   5.409   3.859
 2198SOL    MW4 9113   0.901   5.441   3.919
 2199SOL     OW 9114   1.850   4.217   3.892
 2199SOL    HW2 9115   1.759   4.219   3.920
 2199SOL    HW3 9116   1.895   4.279   3.950
 2199SOL    MW4 9117   1.843   4.225   3.902
 2200SOL     OW 9118   1.595   4.820   4.242
 2200SOL    HW2 9119   1.505   4.820   4.277
 2200SOL    HW3 9120   1.588   4.866   4.159
 2200SOL    MW4 9121   1.582   4.826   4.236
 2201SOL     OW 9122   1.395   4.455   5.314
 2201SOL    HW2 9123   1.464   4.393   5.291
 2201SOL    HW3 9124   1.320   4.429   5.261
 2201SOL    MW4 9125   1.395   4.442   5.305
 2202SOL     OW 9126   0.136   5.335   4.866
 2202SOL    HW2 9127   0.119   5.281   4.943
 2202SOL    HW3 9128   0.124   5.425   4.896
 2202SOL    MW4 9129   0.133   5.339   4.880
 2203SOL     OW 9130   1.131   4.842   5.306
 2203SOL    HW2 9131   1.116   4.935   5.291
 2203SOL    HW3 9132   1.226   4.832   5.306
 2203SOL    MW4 9133   1.140   4.852   5.303
 2204SOL     OW 9134   0.927   4.266   5.507
 2204SOL    HW2 9135   1.017   4.267   5.474
 2204SOL    HW3 9136   0.886   4.191   5.465
 2204SOL    MW4 9137   0.933   4.256   5.498
 2205SOL     OW 9138   1.502   4.798   4.634
 2205SOL    HW2 9139   1.505   4.732   4.565
 2205SOL    HW3 9140   1.587   4.841   4.630
 2205SOL    MW4 9141   1.514   4.794   4.625
 2206SOL     OW 9142   1.122   4.401   4.203
 2206SOL    HW2 9143   1.148   4.425   4.114
 2206SOL    HW3 9144   1.104   4.308   4.199
 2206SOL    MW4 9145   1.124   4.393   4.190
 2207SOL     OW 9146   1.787   5.021   4.054
 2207SOL    HW2 9147   1.743   5.062   4.129
 2207SOL    HW3 9148   1.844   5.089   4.019
 2207SOL    MW4 9149   1.789   5.035   4.059
 2208SOL     OW 9150   0.707   4.070   5.457
 2208SOL    HW2 9151   0.717   3.996   5.397
 2208SOL    HW3 9152   0.743   4.039   5.540
 2208SOL    MW4 9153   0.713   4.056   5.459
 2209SOL     OW 9154   0.443   5.437   4.372
 2209SOL    HW2 9155   0.475   5.525   4.350
 2209SOL    HW3 9156   0.396   5.409   4.294
 2209SOL    MW4 9157   0.442   5.445   4.359
 2210SOL     OW 9158   1.827   3.799   4.421
 2210SOL    HW2 9159   1.881   3.750   4.483
 2210SOL    HW3 9160   1.770   3.733   4.382
 2210SOL    MW4 9161   1.827   3.783   4.423
 2211SOL     OW 9162   0.159   5.497   3.949
 2211SOL    HW2 9163   0.188   5.587   3.941
 2211SOL    HW3 9164   0.109   5.480   3.870
 2211SOL    MW4 9165   0.157   5.505   3.938
 2212SOL     OW 9166   0.946   3.752   4.834
 2212SOL    HW2 9167   0.905   3.830   4.796
 2212SOL    HW3 9168   1.040   3.770   4.829
 2212SOL    MW4 9169   0.952   3.764   4.829
 2213SOL     OW 9170   1.563   5.305   3.920
 2213SOL    HW2 9171   1.611   5.374   3.966
 2213SOL    HW3 9172   1.484   5.349   3.889
 2213SOL    MW4 9173   1.558   5.319   3.923
 2214SOL     OW 9174   1.575   4.356   4.200
 2214SOL    HW2 9175   1.614   4.356   4.287
 2214SOL    HW3 9176   1.516   4.432   4.200
 2214SOL    MW4 9177   1.572   4.367   4.211
 2215SOL     OW 9178   0.892   4.723   5.329
 2215SOL    HW2 9179   0.869   4.703   5.419
 2215SOL    HW3 9180   0.977   4.767   5.334
 2215SOL    MW4 9181   0.899   4.726   5.341
 2216SOL     OW 9182   0.972   3.860   5.089
 2216SOL    HW2 9183   0.978   3.822   5.002
 2216SOL    HW3 9184   0.961   3.954   5.074
 2216SOL    MW4 9185   0.973   3.868   5.077
 2217SOL     OW 9186   1.061   4.349   4.923
 2217SOL    HW2 9187   1.136   4.378   4.870
 2217SOL    HW3 9188   0.993   4.414   4.907
 2217SOL    MW4 9189   1.062   4.361   4.913
 2218SOL     OW 9190   1.611   4.317   5.200
 2218SOL    HW2 9191   1.592   4.226   5.179
 2218SOL    HW3 9192   1.589   4.366   5.121
 2218SOL    MW4 9193   1.606   4.310   5.187
 2219SOL     OW 9194   1.753   5.411   5.104
 2219SOL    HW2 9195   1.681   5.373   5.155
 2219SOL    HW3 9196   1.770   5.496   5.145
 2219SOL    MW4 9197   1.747   5.416   5.116
 2220SOL     OW 9198   1.058   4.055   5.306
 2220SOL    HW2 9199   1.024   4.094   5.225
 2220SOL    HW3 9200   1.036   3.963   5.299
 2220SOL    MW4 9201   1.051   4.048   5.296
 2221SOL     OW 9202   1.467   4.869   5.382
 2221SOL    HW2 9203   1.549   4.910   5.412
 2221SOL    HW3 9204   1.430   4.831   5.462
 2221SOL    MW4 9205   1.473   4.870   5.397
 2222SOL     OW 9206   1.762   4.242   4.366
 2222SOL    HW2 9207   1.851   4.211   4.383
 2222SOL    HW3 9208   1.705   4.182   4.414
 2222SOL    MW4 9209   1.765   4.230   4.375
 2223SOL     OW 9210   0.188   3.956   4.395
 2223SOL    HW2 9211   0.179   3.896   4.321
 2223SOL    HW3 9212   0.121   3.927   4.458
 2223SOL    MW4 9213   0.178   3.943   4.393
 2224SOL     OW 9214   1.131   5.049   3.956
 2224SOL    HW2 9215   1.081   5.051   4.038
 2224SOL    HW3 9216   1.065   5.067   3.888
 2224SOL    MW4 9217   1.117   5.051   3.958
 2225SOL     OW 9218   0.135   4.129   4.758
 2225SOL    HW2 9219   0.107   4.220   4.767
 2225SOL    HW3 9220   0.072   4.090   4.697
 2225SOL    MW4 9221   0.122   4.135   4.752
 2226SOL     OW 9222   0.594   5.467   4.064
 2226SOL    HW2 9223   0.515   5.425   4.097
 2226SOL    HW3 9224   0.660   5.450   4.131
 2226SOL    MW4 9225   0.593   5.459   4.077
 2227SOL     OW 9226   1.722   4.987   5.461
 2227SOL    HW2 9227   1.772   4.913   5.493
 2227SOL    HW3 9228   1.668   5.014   5.536
 2227SOL    MW4 9229   1.722   4.981   5.474
 2228SOL     OW 9230   0.730   4.882   3.771
 2228SOL    HW2 9231   0.652   4.828   3.758
 2228SOL    HW3 9232   0.701   4.955   3.824
 2228SOL    MW4 9233   0.716   4.884   3.776
 2229SOL     OW 9234   1.856   4.622   4.963
 2229SOL    HW2 9235   1.872   4.660   4.876
 2229SOL    HW3 9236   1.890   4.688   5.024
 2229SOL    MW4 9237   1.863   4.635   4.959
 2230SOL     OW 9238   1.648   5.331   4.632
 2230SOL    HW2 9239   1.677   5.398   4.693
 2230SOL    HW3 9240   1.629   5.255   4.687
 2230SOL    MW4 9241   1.650   5.331   4.647
 2231SOL     OW 9242   1.311   5.398   3.839
 2231SOL    HW2 9243   1.237   5.361   3.889
 2231SOL    HW3 9244   1.319   5.488   3.872
 2231SOL    MW4 9245   1.302   5.405   3.851
 2232SOL     OW 9246   0.119   4.404   4.928
 2232SOL    HW2 9247   0.181   4.434   4.994
 2232SOL    HW3 9248   0.053   4.473   4.922
 2232SOL    MW4 9249   0.118   4.417   4.935
 2233SOL     OW 9250   1.535   5.072   3.781
 2233SOL    HW2 9251   1.482   5.121   3.717
 2233SOL    HW3 9252   1.566   5.138   3.842
 2233SOL    MW4 9253   1.533   5.086   3.779
 2234SOL     OW 9254   0.760   3.961   3.836
 2234SOL    HW2 9255   0.708   3.881   3.824
 2234SOL    HW3 9256   0.847   3.938   3.804
 2234SOL    MW4 9257   0.763   3.947   3.830
 2235SOL     OW 9258   0.214   5.513   5.380
 2235SOL    HW2 9259   0.188   5.581   5.318
 2235SOL    HW3 9260   0.262   5.450   5.328
 2235SOL    MW4 9261   0.216   5.513   5.366
 2236SOL     OW 9262   0.266   4.832   4.887
 2236SOL    HW2 9263   0.319   4.907   4.912
 2236SOL    HW3 9264   0.185   4.870   4.853
 2236SOL    MW4 9265   0.262   4.847   4.887
 2237SOL     OW 9266   0.806   4.736   4.875
 2237SOL    HW2 9267   0.834   4.645   4.887
 2237SOL    HW3 9268   0.735   4.730   4.811
 2237SOL    MW4 9269   0.799   4.724   4.870
 2238SOL     OW 9270   0.121   4.601   4.293
 2238SOL    HW2 9271   0.212   4.616   4.320
 2238SOL    HW3 9272   0.124   4.522   4.239
 2238SOL    MW4 9273   0.133   4.593   4.291
 2239SOL     OW 9274   0.357   4.309   5.547
 2239SOL    HW2 9275   0.304   4.389   5.554
 2239SOL    HW3 9276   0.427   4.321   5.612
 2239SOL    MW4 9277   0.359   4.322   5.555
 2240SOL     OW 9278   0.743   3.859   5.254
 2240SOL    HW2 9279   0.720   3.767   5.256
 2240SOL    HW3 9280   0.829   3.861   5.211
 2240SOL    MW4 9281   0.750   3.849   5.250
 2241SOL     OW 9282   0.427   4.383   5.293
 2241SOL    HW2 9283   0.507   4.433   5.279
 2241SOL    HW3 9284   0.418   4.377   5.388
 2241SOL    MW4 9285   0.436   4.389   5.303
 2242SOL     OW 9286   0.748   5.533   4.667
 2242SOL    HW2 9287   0.837   5.548   4.697
 2242SOL    HW3 9288   0.743   5.580   4.583
 2242SOL    MW4 9289   0.758   5.541   4.660
 2243SOL     OW 9290   1.404   3.908   5.564
 2243SOL    HW2 9291   1.460   3.835   5.590
 2243SOL    HW3 9292   1.374   3.946   5.646
 2243SOL    MW4 9293   1.408   3.903   5.577
 2244SOL     OW 9294   0.129   5.213   4.332
 2244SOL    HW2 9295   0.101   5.252   4.414
 2244SOL    HW3 9296   0.149   5.122   4.354
 2244SOL    MW4 9297   0.127   5.205   4.345
 2245SOL     OW 9298   0.962   5.256   4.367
 2245SOL    HW2 9299   1.045   5.210   4.351
 2245SOL    HW3 9300   0.952   5.255   4.463
 2245SOL    MW4 9301   0.972   5.249   4.377
 2246SOL     OW 9302   1.794   4.401   4.681
 2246SOL    HW2 9303   1.883   4.431   4.663
 2246SOL    HW3 9304   1.774   4.341   4.610
 2246SOL    MW4 9305   1.803   4.398   4.670
 2247SOL     OW 9306   1.645   4.580   5.561
 2247SOL    HW2 9307   1.700   4.504   5.542
 2247SOL    HW3 9308   1.647   4.588   5.656
 2247SOL    MW4 9309   1.653   4.571   5.569
 2248SOL     OW 9310   0.695   5.313   3.772
 2248SOL    HW2 9311   0.635   5.382   3.742
 2248SOL    HW3 9312   0.640   5.255   3.825
 2248SOL    MW4 9313   0.679   5.315   3.774
 2249SOL     OW 9314   1.133   3.958   3.995
 2249SOL    HW2 9315   1.066   3.934   3.932
 2249SOL    HW3 9316   1.198   4.007   3.944
 2249SOL    MW4 9317   1.133   3.960   3.980
 2250SOL     OW 9318   0.940   4.142   5.080
 2250SOL    HW2 9319   0.859   4.183   5.108
 2250SOL    HW3 9320   0.987   4.210   5.032
 2250SOL    MW4 9321   0.935   4.157   5.078
 2251SOL     OW 9322   1.200   4.480   4.703
 2251SOL    HW2 9323   1.213   4.574   4.713
 2251SOL    HW3 9324   1.161   4.470   4.617
 2251SOL    MW4 9325   1.196   4.491   4.693
 2252SOL     OW 9326   0.652   4.675   4.507
 2252SOL    HW2 9327   0.563   4.666   4.540
 2252SOL    HW3 9328   0.656   4.765   4.475
 2252SOL    MW4 9329   0.641   4.686   4.507
 2253SOL     OW 9330   1.451   4.258   4.502
 2253SOL    HW2 9331   1.396   4.179   4.501
 2253SOL    HW3 9332   1.433   4.299   4.586
 2253SOL    MW4 9333   1.441   4.253   4.511
 2254SOL     OW 9334   0.422   3.945   5.319
 2254SOL    HW2 9335   0.343   3.963   5.371
 2254SOL    HW3 9336   0.417   4.007   5.246
 2254SOL    MW4 9337   0.412   3.955   5.316
 2255SOL     OW 9338   1.070   4.462   4.459
 2255SOL    HW2 9339   1.007   4.394   4.483
 2255SOL    HW3 9340   1.090   4.443   4.367
 2255SOL    MW4 9341   1.064   4.449   4.451
 2256SOL     OW 9342   0.326   5.357   4.161
 2256SOL    HW2 9343   0.287   5.404   4.087
 2256SOL    HW3 9344   0.260   5.292   4.186
 2256SOL    MW4 9345   0.313   5.355   4.155
 2257SOL     OW 9346   0.818   4.766   4.185
 2257SOL    HW2 9347   0.820   4.740   4.092
 2257SOL    HW3 9348   0.876   4.703   4.228
 2257SOL    MW4 9349   0.826   4.755   4.179
 2258SOL     OW 9350   1.371   5.326   4.957
 2258SOL    HW2 9351   1.296   5.372   4.995
 2258SOL    HW3 9352   1.353   5.233   4.974
 2258SOL    MW4 9353   1.360   5.320   4.965
 2259SOL     OW 9354   1.375   5.534   4.387
 2259SOL    HW2 9355   1.318   5.487   4.326
 2259SOL    HW3 9356   1.461   5.495   4.374
 2259SOL    MW4 9357   1.378   5.525   4.377
 2260SOL     OW 9358   1.328   4.010   4.518
 2260SOL    HW2 9359   1.356   3.942   4.579
 2260SOL    HW3 9360   1.242   3.981   4.488
 2260SOL    MW4 9361   1.321   3.997   4.522
 2261SOL     OW 9362   0.133   4.944   4.452
 2261SOL    HW2 9363   0.197   4.976   4.515
 2261SOL    HW3 9364   0.182   4.880   4.400
 2261SOL    MW4 9365   0.148   4.940   4.453
 2262SOL     OW 9366   0.633   5.020   5.434
 2262SOL    HW2 9367   0.681   5.103   5.421
 2262SOL    HW3 9368   0.690   4.968   5.490
 2262SOL    MW4 9369   0.647   5.024   5.440
 2263SOL     OW 9370   0.209   5.262   5.574
 2263SOL    HW2 9371   0.265   5.186   5.589
 2263SOL    HW3 9372   0.158   5.240   5.496
 2263SOL    MW4 9373   0.209   5.249   5.565
 2264SOL     OW 9374   1.308   4.114   3.853
 2264SOL    HW2 9375   1.281   4.180   3.789
 2264SOL    HW3 9376   1.378   4.157   3.903
 2264SOL    MW4 9377   1.313   4.127   3.850
 2265SOL     OW 9378   0.976   3.819   3.790
 2265SOL    HW2 9379   1.032   3.811   3.712
 2265SOL    HW3 9380   0.953   3.729   3.812
 2265SOL    MW4 9381   0.981   3.806   3.783
 2266SOL     OW 9382   1.481   4.670   3.995
 2266SOL    HW2 9383   1.448   4.759   3.985
 2266SOL    HW3 9384   1.446   4.641   4.080
 2266SOL    MW4 9385   1.471   4.679   4.006
 2267SOL     OW 9386   1.094   5.099   5.183
 2267SOL    HW2 9387   1.005   5.105   5.151
 2267SOL    HW3 9388   1.138   5.178   5.151
 2267SOL    MW4 9389   1.089   5.109   5.175
 2268SOL     OW 9390   0.387   3.767   5.525
 2268SOL    HW2 9391   0.315   3.732   5.473
 2268SOL    HW3 9392   0.445   3.808   5.460
 2268SOL    MW4 9393   0.385   3.768   5.510
 2269SOL     OW 9394   0.411   5.257   4.824
 2269SOL    HW2 9395   0.456   5.319   4.881
 2269SOL    HW3 9396   0.318   5.276   4.837
 2269SOL    MW4 9397   0.404   5.267   4.831
 2270SOL     OW 9398   1.851   4.786   5.178
 2270SOL    HW2 9399   1.766   4.799   5.137
 2270SOL    HW3 9400   1.831   4.750   5.265
 2270SOL    MW4 9401   1.838   4.782   5.183
 2271SOL     OW 9402   0.833   5.325   4.932
 2271SOL    HW2 9403   0.857   5.314   4.841
 2271SOL    HW3 9404   0.756   5.382   4.930
 2271SOL    MW4 9405   0.825   5.330   4.921
 2272SOL     OW 9406   0.475   4.708   3.787
 2272SOL    HW2 9407   0.398   4.721   3.843
 2272SOL    HW3 9408   0.439   4.672   3.706
 2272SOL    MW4 9409   0.461   4.704   3.784
 2273SOL     OW 9410   1.128   4.681   4.030
 2273SOL    HW2 9411   1.038   4.702   4.005
 2273SOL    HW3 9412   1.155   4.754   4.086
 2273SOL    MW4 9413   1.120   4.693   4.033
 2274SOL     OW 9414   0.628   5.030   4.722
 2274SOL    HW2 9415   0.621   5.009   4.816
 2274SOL    HW3 9416   0.546   4.998   4.685
 2274SOL    MW4 9417   0.616   5.024   4.729
 2275SOL     OW 9418   1.492   4.040   5.124
 2275SOL    HW2 9419   1.439   4.042   5.204
 2275SOL    HW3 9420   1.477   3.953   5.087
 2275SOL    MW4 9421   1.484   4.030   5.129
 2276SOL     OW 9422   1.828   3.964   4.997
 2276SOL    HW2 9423   1.809   4.031   4.932
 2276SOL    HW3 9424   1.885   3.902   4.952
 2276SOL    MW4 9425   1.832   3.965   4.983
 2277SOL     OW 9426   0.074   5.122   5.385
 2277SOL    HW2 9427   0.118   5.055   5.331
 2277SOL    HW3 9428  -0.011   5.084   5.405
 2277SOL    MW4 9429   0.069   5.108   5.381
 2278SOL     OW 9430   0.757   3.797   4.437
 2278SOL    HW2 9431   0.686   3.858   4.419
 2278SOL    HW3 9432   0.808   3.794   4.356
 2278SOL    MW4 9433   0.753   3.803   4.424
 2279SOL     OW 9434   0.515   5.037   4.186
 2279SOL    HW2 9435   0.508   5.069   4.276
 2279SOL    HW3 9436   0.425   5.021   4.158
 2279SOL    MW4 9437   0.503   5.039   4.193
 2280SOL     OW 9438   1.110   5.430   5.095
 2280SOL    HW2 9439   1.030   5.415   5.045
 2280SOL    HW3 9440   1.117   5.525   5.102
 2280SOL    MW4 9441   1.101   5.441   5.089
 2281SOL     OW 9442   1.224   5.395   4.585
 2281SOL    HW2 9443   1.271   5.468   4.544
 2281SOL    HW3 9444   1.145   5.434   4.621
 2281SOL    MW4 9445   1.219   5.410   4.584
 2282SOL     OW 9446   1.632   5.490   4.860
 2282SOL    HW2 9447   1.675   5.460   4.940
 2282SOL    HW3 9448   1.551   5.438   4.857
 2282SOL    MW4 9449   1.627   5.479   4.870
 2283SOL     OW 9450   0.717   4.454   5.567
 2283SOL    HW2 9451   0.787   4.396   5.539
 2283SOL    HW3 9452   0.660   4.399   5.622
 2283SOL    MW4 9453   0.719   4.441   5.571
 2284SOL     OW 9454   1.504   4.666   5.200
 2284SOL    HW2 9455   1.509   4.719   5.280
 2284SOL    HW3 9456   1.466   4.583   5.228
 2284SOL    MW4 9457   1.500   4.661   5.215
 2285SOL     OW 9458   1.144   3.801   5.446
 2285SOL    HW2 9459   1.139   3.708   5.427
 2285SOL    HW3 9460   1.227   3.812   5.492
 2285SOL    MW4 9461   1.152   3.790   5.450
 2286SOL     OW 9462   0.518   4.321   3.900
 2286SOL    HW2 9463   0.484   4.377   3.970
 2286SOL    HW3 9464   0.589   4.271   3.940
 2286SOL    MW4 9465   0.524   4.322   3.914
 2287SOL     OW 9466   1.614   5.072   4.722
 2287SOL    HW2 9467   1.649   5.054   4.635
 2287SOL    HW3 9468   1.519   5.073   4.709
 2287SOL    MW4 9469   1.606   5.069   4.709
 2288SOL     OW 9470   1.043   4.720   5.091
 2288SOL    HW2 9471   1.086   4.755   5.169
 2288SOL    HW3 9472   1.026   4.797   5.037
 2288SOL    MW4 9473   1.046   4.735   5.094
 2289SOL     OW 9474   1.574   4.207   3.964
 2289SOL    HW2 9475   1.566   4.278   3.901
 2289SOL    HW3 9476   1.592   4.251   4.047
 2289SOL    MW4 9477   1.575   4.221   3.966
 2290SOL     OW 9478   0.434   3.862   4.393
 2290SOL    HW2 9479   0.484   3.905   4.324
 2290SOL    HW3 9480   0.349   3.906   4.393
 2290SOL    MW4 9481   0.431   3.875   4.384
 2291SOL     OW 9482   0.193   4.924   5.253
 2291SOL    HW2 9483   0.221   4.877   5.331
 2291SOL    HW3 9484   0.114   4.879   5.224
 2291SOL    MW4 9485   0.186   4.913   5.259
 2292SOL     OW 9486   0.701   4.251   5.220
 2292SOL    HW2 9487   0.673   4.339   5.244
 2292SOL    HW3 9488   0.670   4.195   5.291
 2292SOL    MW4 9489   0.693   4.254   5.232
 2293SOL     OW 9490   1.243   4.469   3.939
 2293SOL    HW2 9491   1.290   4.487   3.858
 2293SOL    HW3 9492   1.209   4.553   3.967
 2293SOL    MW4 9493   1.245   4.483   3.932
 2294SOL     OW 9494   0.356   4.647   4.433
 2294SOL    HW2 9495   0.414   4.703   4.381
 2294SOL    HW3 9496   0.400   4.562   4.435
 2294SOL    MW4 9497   0.369   4.644   4.426
 2295SOL     OW 9498   1.496   3.999   4.270
 2295SOL    HW2 9499   1.418   3.949   4.295
 2295SOL    HW3 9500   1.467   4.090   4.270
 2295SOL    MW4 9501   1.482   4.003   4.273
 2296SOL     OW 9502   1.082   3.961   4.429
 2296SOL    HW2 9503   1.102   4.036   4.373
 2296SOL    HW3 9504   1.062   4.000   4.514
 2296SOL    MW4 9505   1.083   3.977   4.433
 2297SOL     OW 9506   0.978   5.211   3.761
 2297SOL    HW2 9507   1.005   5.289   3.713
 2297SOL    HW3 9508   0.885   5.226   3.780
 2297SOL    MW4 9509   0.969   5.224   3.757
 2298SOL     OW 9510   1.842   4.734   5.448
 2298SOL    HW2 9511   1.755   4.714   5.484
 2298SOL    HW3 9512   1.896   4.660   5.473
 2298SOL    MW4 9513   1.837   4.723   5.456
 2299SOL     OW 9514   0.063   5.247   4.605
 2299SOL    HW2 9515   0.095   5.251   4.696
 2299SOL    HW3 9516  -0.032   5.255   4.613
 2299SOL    MW4 9517   0.055   5.250   4.618
 2300SOL     OW 9518   0.018   4.373   4.152
 2300SOL    HW2 9519  -0.042   4.345   4.222
 2300SOL    HW3 9520   0.092   4.313   4.158
 2300SOL    MW4 9521   0.020   4.362   4.161
 2301SOL     OW 9522   1.586   5.585   5.586
 2301SOL    HW2 9523   1.631   5.509   5.551
 2301SOL    HW3 9524   1.624   5.598   5.673
 2301SOL    MW4 9525   1.596   5.578   5.592
 2302SOL     OW 9526   1.186   5.104   4.312
 2302SOL    HW2 9527   1.209   5.055   4.390
 2302SOL    HW3 9528   1.267   5.146   4.284
 2302SOL    MW4 9529   1.199   5.104   4.319
 2303SOL     OW 9530   0.444   4.112   5.041
 2303SOL    HW2 9531   0.477   4.193   5.081
 2303SOL    HW3 9532   0.417   4.138   4.953
 2303SOL    MW4 9533   0.443   4.126   5.035
 2304SOL     OW 9534   0.398   4.079   4.777
 2304SOL    HW2 9535   0.428   3.993   4.748
 2304SOL    HW3 9536   0.303   4.072   4.780
 2304SOL    MW4 9537   0.390   4.068   4.775
 2305SOL     OW 9538   1.227   4.288   5.468
 2305SOL    HW2 9539   1.279   4.223   5.421
 2305SOL    HW3 9540   1.185   4.339   5.398
 2305SOL    MW4 9541   1.228   4.285   5.451
 2306SOL     OW 9542   1.326   4.083   5.329
 2306SOL    HW2 9543   1.233   4.067   5.316
 2306SOL    HW3 9544   1.352   4.021   5.397
 2306SOL    MW4 9545   1.316   4.073   5.336
 2307SOL     OW 9546   0.541   3.857   4.668
 2307SOL    HW2 9547   0.551   3.766   4.694
 2307SOL    HW3 9548   0.497   3.853   4.583
 2307SOL    MW4 9549   0.537   3.845   4.660
 2308SOL     OW 9550   0.635   5.472   5.214
 2308SOL    HW2 9551   0.552   5.457   5.259
 2308SOL    HW3 9552   0.694   5.405   5.249
 2308SOL    MW4 9553   0.633   5.462   5.224
 2309SOL     OW 9554   1.692   4.179   4.839
 2309SOL    HW2 9555   1.625   4.212   4.899
 2309SOL    HW3 9556   1.735   4.257   4.805
 2309SOL    MW4 9557   1.690   4.194   4.843
 2310SOL     OW 9558   1.870   4.899   4.809
 2310SOL    HW2 9559   1.863   4.839   4.734
 2310SOL    HW3 9560   1.796   4.959   4.798
 2310SOL    MW4 9561   1.860   4.899   4.798
 2311SOL     OW 9562   1.252   4.761   4.727
 2311SOL    HW2 9563   1.266   4.733   4.818
 2311SOL    HW3 9564   1.338   4.792   4.699
 2311SOL    MW4 9565   1.265   4.762   4.736
 2312SOL     OW 9566   1.335   4.256   5.006
 2312SOL    HW2 9567   1.356   4.257   4.913
 2312SOL    HW3 9568   1.380   4.178   5.039
 2312SOL    MW4 9569   1.342   4.246   4.998
 2313SOL     OW 9570   1.828   4.387   5.548
 2313SOL    HW2 9571   1.865   4.332   5.617
 2313SOL    HW3 9572   1.853   4.344   5.466
 2313SOL    MW4 9573   1.835   4.375   5.547
 2314SOL     OW 9574   1.375   4.685   5.600
 2314SOL    HW2 9575   1.441   4.633   5.554
 2314SOL    HW3 9576   1.395   4.672   5.693
 2314SOL    MW4 9577   1.386   4.676   5.607
 2315SOL     OW 9578   1.326   3.771   3.948
 2315SOL    HW2 9579   1.400   3.815   3.991
 2315SOL    HW3 9580   1.250   3.825   3.970
 2315SOL    MW4 9581   1.326   3.783   3.956
 2316SOL     OW 9582   1.386   4.546   4.226
 2316SOL    HW2 9583   1.301   4.516   4.196
 2316SOL    HW3 9584   1.378   4.553   4.321
 2316SOL    MW4 9585   1.374   4.544   4.235
 2317SOL     OW 9586   0.462   5.009   4.957
 2317SOL    HW2 9587   0.474   5.036   5.048
 2317SOL    HW3 9588   0.443   5.090   4.910
 2317SOL    MW4 9589   0.461   5.024   4.962
 2318SOL     OW 9590   0.746   3.989   4.780
 2318SOL    HW2 9591   0.719   3.991   4.871
 2318SOL    HW3 9592   0.676   3.941   4.735
 2318SOL    MW4 9593   0.734   3.985   4.787
 2319SOL     OW 9594   0.600   5.481   4.942
 2319SOL    HW2 9595   0.652   5.558   4.919
 2319SOL    HW3 9596   0.609   5.473   5.037
 2319SOL    MW4 9597   0.609   5.488   4.953
 2320SOL     OW 9598   1.502   5.066   5.174
 2320SOL    HW2 9599   1.487   4.995   5.237
 2320SOL    HW3 9600   1.548   5.024   5.102
 2320SOL    MW4 9601   1.508   5.050   5.174
 2321SOL     OW 9602   0.576   4.797   5.291
 2321SOL    HW2 9603   0.613   4.802   5.203
 2321SOL    HW3 9604   0.615   4.870   5.338
 2321SOL    MW4 9605   0.586   4.807   5.286
 2322SOL     OW 9606   0.756   4.840   5.103
 2322SOL    HW2 9607   0.815   4.786   5.156
 2322SOL    HW3 9608   0.771   4.812   5.013
 2322SOL    MW4 9609   0.766   4.829   5.099
 2323SOL     OW 9610   0.759   4.212   3.952
 2323SOL    HW2 9611   0.832   4.261   3.915
 2323SOL    HW3 9612   0.775   4.121   3.926
 2323SOL    MW4 9613   0.771   4.207   3.945
 2324SOL     OW 9614   1.567   5.329   5.275
 2324SOL    HW2 9615   1.609   5.314   5.360
 2324SOL    HW3 9616   1.558   5.242   5.237
 2324SOL    MW4 9617   1.571   5.317   5.282
 2325SOL     OW 9618   1.227   3.808   4.866
 2325SOL    HW2 9619   1.282   3.817   4.788
 2325SOL    HW3 9620   1.282   3.842   4.937
 2325SOL    MW4 9621   1.241   3.813   4.865
 2326SOL     OW 9622   0.234   4.721   4.050
 2326SOL    HW2 9623   0.171   4.737   3.979
 2326SOL    HW3 9624   0.181   4.684   4.121
 2326SOL    MW4 9625   0.219   4.718   4.050
 2327SOL     OW 9626   0.590   5.075   3.909
 2327SOL    HW2 9627   0.605   5.051   4.001
 2327SOL    HW3 9628   0.498   5.053   3.893
 2327SOL    MW4 9629   0.580   5.068   3.919
 2328SOL     OW 9630   1.129   5.306   4.061
 2328SOL    HW2 9631   1.137   5.224   4.012
 2328SOL    HW3 9632   1.048   5.345   4.028
 2328SOL    MW4 9633   1.119   5.301   4.051
 2329SOL     OW 9634   0.388   5.464   4.630
 2329SOL    HW2 9635   0.392   5.375   4.665
 2329SOL    HW3 9636   0.414   5.455   4.539
 2329SOL    MW4 9637   0.391   5.452   4.622
 2330SOL     OW 9638   1.005   4.942   4.873
 2330SOL    HW2 9639   0.937   4.876   4.889
 2330SOL    HW3 9640   1.023   4.936   4.780
 2330SOL    MW4 9641   0.998   4.933   4.864
 2331SOL     OW 9642   0.094   5.217   5.124
 2331SOL    HW2 9643   0.084   5.175   5.210
 2331SOL    HW3 9644   0.015   5.270   5.114
 2331SOL    MW4 9645   0.083   5.218   5.135
 2332SOL     OW 9646   0.998   4.081   4.694
 2332SOL    HW2 9647   0.928   4.033   4.739
 2332SOL    HW3 9648   1.030   4.144   4.758
 2332SOL    MW4 9649   0.993   4.083   4.708
 2333SOL     OW 9650   0.649   4.517   5.314
 2333SOL    HW2 9651   0.642   4.612   5.302
 2333SOL    HW3 9652   0.658   4.506   5.409
 2333SOL    MW4 9653   0.650   4.529   5.324
 2334SOL     OW 9654   0.370   5.032   5.572
 2334SOL    HW2 9655   0.442   5.034   5.509
 2334SOL    HW3 9656   0.340   4.941   5.571
 2334SOL    MW4 9657   0.375   5.021   5.564
 2335SOL     OW 9658   1.454   3.795   5.039
 2335SOL    HW2 9659   1.525   3.741   5.003
 2335SOL    HW3 9660   1.453   3.774   5.132
 2335SOL    MW4 9661   1.463   3.786   5.047
 2336SOL     OW 9662   1.654   5.325   5.523
 2336SOL    HW2 9663   1.627   5.322   5.614
 2336SOL    HW3 9664   1.750   5.329   5.526
 2336SOL    MW4 9665   1.664   5.325   5.535
 2337SOL     OW 9666   0.465   4.187   4.507
 2337SOL    HW2 9667   0.536   4.135   4.470
 2337SOL    HW3 9668   0.451   4.152   4.594
 2337SOL    MW4 9669   0.473   4.176   4.514
 2338SOL     OW 9670   0.020   5.522   5.579
 2338SOL    HW2 9671   0.070   5.500   5.501
 2338SOL    HW3 9672   0.028   5.617   5.587
 2338SOL    MW4 9673   0.028   5.531   5.570
 2339SOL     OW 9674   0.781   5.280   4.583
 2339SOL    HW2 9675   0.709   5.217   4.596
 2339SOL    HW3 9676   0.742   5.365   4.601
 2339SOL    MW4 9677   0.765   5.283   4.586
 2340SOL     OW 9678   1.101   4.128   4.231
 2340SOL    HW2 9679   1.123   4.065   4.163
 2340SOL    HW3 9680   1.006   4.120   4.242
 2340SOL    MW4 9681   1.091   4.119   4.223
 2341SOL     OW 9682   0.186   3.818   4.163
 2341SOL    HW2 9683   0.257   3.839   4.102
 2341SOL    HW3 9684   0.140   3.746   4.121
 2341SOL    MW4 9685   0.190   3.812   4.149
 2342SOL     OW 9686   0.017   4.285   5.306
 2342SOL    HW2 9687   0.081   4.351   5.281
 2342SOL    HW3 9688  -0.064   4.312   5.263
 2342SOL    MW4 9689   0.015   4.297   5.298
 2343SOL     OW 9690   1.755   5.192   4.263
 2343SOL    HW2 9691   1.725   5.125   4.324
 2343SOL    HW3 9692   1.849   5.198   4.277
 2343SOL    MW4 9693   1.763   5.184   4.273
 2344SOL     OW 9694   1.311   4.869   4.193
 2344SOL    HW2 9695   1.283   4.955   4.226
 2344SOL    HW3 9696   1.339   4.885   4.103
 2344SOL    MW4 9697   1.311   4.883   4.185
 2345SOL     OW 9698   0.973   3.789   4.246
 2345SOL    HW2 9699   1.010   3.848   4.311
 2345SOL    HW3 9700   0.950   3.845   4.172
 2345SOL    MW4 9701   0.974   3.804   4.245
 2346SOL     OW 9702   1.826   4.671   4.668
 2346SOL    HW2 9703   1.817   4.703   4.579
 2346SOL    HW3 9704   1.779   4.587   4.668
 2346SOL    MW4 9705   1.819   4.664   4.658
 2347SOL     OW 9706   0.202   4.511   5.247
 2347SOL    HW2 9707   0.223   4.580   5.185
 2347SOL    HW3 9708   0.282   4.458   5.252
 2347SOL    MW4 9709   0.215   4.512   5.241
 2348SOL     OW 9710   1.738   4.602   4.369
 2348SOL    HW2 9711   1.832   4.591   4.357
 2348SOL    HW3 9712   1.714   4.674   4.310
 2348SOL    MW4 9713   1.748   4.610   4.360
 2349SOL     OW 9714   0.187   4.526   5.514
 2349SOL    HW2 9715   0.113   4.470   5.540
 2349SOL    HW3 9716   0.182   4.529   5.419
 2349SOL    MW4 9717   0.176   4.519   5.504
 2350SOL     OW 9718   0.353   3.813   4.964
 2350SOL    HW2 9719   0.396   3.897   4.984
 2350SOL    HW3 9720   0.426   3.751   4.957
 2350SOL    MW4 9721   0.368   3.816   4.965
 2351SOL     OW 9722   0.394   4.480   4.142
 2351SOL    HW2 9723   0.394   4.575   4.127
 2351SOL    HW3 9724   0.471   4.464   4.196
 2351SOL    MW4 9725   0.404   4.491   4.147
 2352SOL     OW 9726   1.170   4.339   5.206
 2352SOL    HW2 9727   1.206   4.312   5.122
 2352SOL    HW3 9728   1.083   4.373   5.185
 2352SOL    MW4 9729   1.164   4.340   5.193
 2353SOL     OW 9730   0.153   4.211   4.431
 2353SOL    HW2 9731   0.215   4.218   4.504
 2353SOL    HW3 9732   0.153   4.118   4.408
 2353SOL    MW4 9733   0.161   4.200   4.438
 2354SOL     OW 9734   1.700   5.551   3.963
 2354SOL    HW2 9735   1.767   5.584   3.903
 2354SOL    HW3 9736   1.657   5.630   3.997
 2354SOL    MW4 9737   1.702   5.566   3.959
 2355SOL     OW 9738   0.835   4.472   4.915
 2355SOL    HW2 9739   0.793   4.390   4.891
 2355SOL    HW3 9740   0.836   4.471   5.011
 2355SOL    MW4 9741   0.828   4.461   4.924
 2356SOL     OW 9742   1.506   5.605   5.314
 2356SOL    HW2 9743   1.509   5.511   5.297
 2356SOL    HW3 9744   1.529   5.613   5.406
 2356SOL    MW4 9745   1.509   5.593   5.324
 2357SOL     OW 9746   0.639   3.942   5.020
 2357SOL    HW2 9747   0.570   4.005   5.041
 2357SOL    HW3 9748   0.666   3.906   5.105
 2357SOL    MW4 9749   0.633   3.945   5.033
 2358SOL     OW 9750   0.022   4.783   3.889
 2358SOL    HW2 9751  -0.009   4.848   3.952
 2358SOL    HW3 9752  -0.029   4.705   3.908
 2358SOL    MW4 9753   0.012   4.780   3.899
 2359SOL     OW 9754   1.434   3.795   4.637
 2359SOL    HW2 9755   1.522   3.804   4.674
 2359SOL    HW3 9756   1.444   3.736   4.563
 2359SOL    MW4 9757   1.448   3.789   4.631
 2360SOL     OW 9758   1.466   4.534   4.481
 2360SOL    HW2 9759   1.546   4.549   4.430
 2360SOL    HW3 9760   1.459   4.439   4.487
 2360SOL    MW4 9761   1.475   4.523   4.476
 2361SOL     OW 9762   0.606   5.583   3.831
 2361SOL    HW2 9763   0.511   5.583   3.823
 2361SOL    HW3 9764   0.622   5.529   3.909
 2361SOL    MW4 9765   0.596   5.577   3.840
 2362SOL     OW 9766   0.916   4.460   5.178
 2362SOL    HW2 9767   0.985   4.527   5.175
 2362SOL    HW3 9768   0.849   4.498   5.234
 2362SOL    MW4 9769   0.917   4.473   5.185
 2363SOL     OW 9770   0.334   4.760   5.426
 2363SOL    HW2 9771   0.288   4.676   5.428
 2363SOL    HW3 9772   0.391   4.754   5.350
 2363SOL    MW4 9773   0.336   4.748   5.418
 2364SOL     OW 9774   1.451   4.403   3.747
 2364SOL    HW2 9775   1.379   4.379   3.689
 2364SOL    HW3 9776   1.517   4.440   3.689
 2364SOL    MW4 9777   1.450   4.405   3.732
 2365SOL     OW 9778   0.585   5.135   4.427
 2365SOL    HW2 9779   0.650   5.068   4.448
 2365SOL    HW3 9780   0.637   5.212   4.404
 2365SOL    MW4 9781   0.600   5.137   4.426
 2366SOL     OW 9782   0.846   4.300   4.557
 2366SOL    HW2 9783   0.786   4.318   4.629
 2366SOL    HW3 9784   0.880   4.212   4.576
 2366SOL    MW4 9785   0.842   4.290   4.570
 2367SOL     OW 9786   1.787   3.799   5.226
 2367SOL    HW2 9787   1.708   3.845   5.254
 2367SOL    HW3 9788   1.822   3.853   5.155
 2367SOL    MW4 9789   1.781   3.812   5.220
 2368SOL     OW 9790   1.071   4.883   4.576
 2368SOL    HW2 9791   1.163   4.864   4.594
 2368SOL    HW3 9792   1.044   4.813   4.516
 2368SOL    MW4 9793   1.079   4.871   4.570
 2369SOL     OW 9794   0.864   4.703   3.931
 2369SOL    HW2 9795   0.850   4.615   3.896
 2369SOL    HW3 9796   0.815   4.760   3.872
 2369SOL    MW4 9797   0.856   4.698   3.919
 2370SOL     OW 9798   1.345   5.121   4.672
 2370SOL    HW2 9799   1.318   5.205   4.637
 2370SOL    HW3 9800   1.305   5.116   4.759
 2370SOL    MW4 9801   1.338   5.130   4.678
 2371SOL     OW 9802   1.264   5.069   4.940
 2371SOL    HW2 9803   1.275   5.036   5.029
 2371SOL    HW3 9804   1.183   5.028   4.909
 2371SOL    MW4 9805   1.254   5.061   4.946
 2372SOL     OW 9806   0.277   4.427   4.710
 2372SOL    HW2 9807   0.227   4.426   4.791
 2372SOL    HW3 9808   0.297   4.519   4.694
 2372SOL    MW4 9809   0.273   4.439   4.718
 2373SOL     OW 9810   1.344   5.191   5.472
 2373SOL    HW2 9811   1.344   5.285   5.488
 2373SOL    HW3 9812   1.389   5.181   5.388
 2373SOL    MW4 9813   1.350   5.201   5.463
 2374SOL     OW 9814   1.583   3.909   4.033
 2374SOL    HW2 9815   1.576   3.913   4.128
 2374SOL    HW3 9816   1.595   4.000   4.006
 2374SOL    MW4 9817   1.584   3.922   4.041
 2375SOL     OW 9818   0.872   4.472   4.147
 2375SOL    HW2 9819   0.852   4.458   4.054
 2375SOL    HW3 9820   0.965   4.451   4.154
 2375SOL    MW4 9821   0.882   4.467   4.136
 2376SOL     OW 9822   0.199   4.095   5.451
 2376SOL    HW2 9823   0.156   4.154   5.388
 2376SOL    HW3 9824   0.267   4.150   5.491
 2376SOL    MW4 9825   0.203   4.110   5.448
 2377SOL     OW 9826   1.311   4.715   4.996
 2377SOL    HW2 9827   1.374   4.712   5.069
 2377SOL    HW3 9828   1.227   4.733   5.038
 2377SOL    MW4 9829   1.307   4.717   5.011
 2378SOL     OW 9830   0.855   5.430   4.185
 2378SOL    HW2 9831   0.913   5.501   4.212
 2378SOL    HW3 9832   0.878   5.358   4.243
 2378SOL    MW4 9833   0.866   5.430   4.196
 2379SOL     OW 9834   1.650   3.892   4.775
 2379SOL    HW2 9835   1.695   3.810   4.794
 2379SOL    HW3 9836   1.670   3.948   4.851
 2379SOL    MW4 9837   1.660   3.888   4.787
 2380SOL     OW 9838   0.098   3.735   4.874
 2380SOL    HW2 9839   0.089   3.736   4.779
 2380SOL    HW3 9840   0.192   3.747   4.889
 2380SOL    MW4 9841   0.110   3.738   4.865
 2381SOL     OW 9842   1.735   4.928   4.494
 2381SOL    HW2 9843   1.714   4.874   4.417
 2381SOL    HW3 9844   1.831   4.926   4.498
 2381SOL    MW4 9845   1.744   4.921   4.483
 2382SOL     OW 9846   0.427   5.073   5.237
 2382SOL    HW2 9847   0.348   5.023   5.260
 2382SOL    HW3 9848   0.497   5.032   5.287
 2382SOL    MW4 9849   0.425   5.061   5.247
 2383SOL     OW 9850   0.311   3.862   3.920
 2383SOL    HW2 9851   0.240   3.917   3.888
 2383SOL    HW3 9852   0.353   3.828   3.841
 2383SOL    MW4 9853   0.307   3.864   3.906
 2384SOL     OW 9854   1.435   4.359   4.756
 2384SOL    HW2 9855   1.358   4.405   4.722
 2384SOL    HW3 9856   1.492   4.428   4.790
 2384SOL    MW4 9857   1.432   4.374   4.756
 2385SOL     OW 9858   0.067   3.961   3.769
 2385SOL    HW2 9859   0.034   4.040   3.813
 2385SOL    HW3 9860   0.122   3.994   3.698
 2385SOL    MW4 9861   0.070   3.975   3.766
 2386SOL     OW 9862   0.101   5.218   3.958
 2386SOL    HW2 9863   0.118   5.302   4.000
 2386SOL    HW3 9864   0.136   5.227   3.870
 2386SOL    MW4 9865   0.106   5.231   3.952
 2387SOL     OW 9866   1.373   5.307   4.175
 2387SOL    HW2 9867   1.436   5.297   4.104
 2387SOL    HW3 9868   1.290   5.327   4.130
 2387SOL    MW4 9869   1.370   5.308   4.160
 2388SOL     OW 9870   1.736   4.575   5.862
 2388SOL    HW2 9871   1.777   4.517   5.927
 2388SOL    HW3 9872   1.643   4.567   5.879
 2388SOL    MW4 9873   1.730   4.567   5.872
 2389SOL     OW 9874   1.602   4.507   6.857
 2389SOL    HW2 9875   1.557   4.574   6.908
 2389SOL    HW3 9876   1.690   4.543   6.843
 2389SOL    MW4 9877   1.608   4.520   6.861
 2390SOL     OW 9878   0.530   4.758   6.091
 2390SOL    HW2 9879   0.620   4.733   6.075
 2390SOL    HW3 9880   0.526   4.851   6.068
 2390SOL    MW4 9881   0.542   4.767   6.086
 2391SOL     OW 9882   1.646   5.461   6.233
 2391SOL    HW2 9883   1.658   5.407   6.311
 2391SOL    HW3 9884   1.683   5.409   6.162
 2391SOL    MW4 9885   1.652   5.446   6.234
 2392SOL     OW 9886   1.025   5.346   7.234
 2392SOL    HW2 9887   1.066   5.382   7.155
 2392SOL    HW3 9888   1.060   5.257   7.241
 2392SOL    MW4 9889   1.036   5.339   7.225
 2393SOL     OW 9890   1.582   4.901   6.838
 2393SOL    HW2 9891   1.503   4.866   6.796
 2393SOL    HW3 9892   1.609   4.973   6.782
 2393SOL    MW4 9893   1.575   4.906   6.825
 2394SOL     OW 9894   0.814   4.214   6.104
 2394SOL    HW2 9895   0.789   4.302   6.132
 2394SOL    HW3 9896   0.811   4.217   6.008
 2394SOL    MW4 9897   0.810   4.226   6.096
 2395SOL     OW 9898   0.256   4.242   6.032
 2395SOL    HW2 9899   0.288   4.330   6.014
 2395SOL    HW3 9900   0.244   4.240   6.127
 2395SOL    MW4 9901   0.259   4.254   6.044
 2396SOL     OW 9902   0.334   4.655   6.933
 2396SOL    HW2 9903   0.397   4.602   6.884
 2396SOL    HW3 9904   0.315   4.729   6.876
 2396SOL    MW4 9905   0.340   4.657   6.920
 2397SOL     OW 9906   0.655   3.997   6.119
 2397SOL    HW2 9907   0.713   4.073   6.121
 2397SOL    HW3 9908   0.590   4.018   6.052
 2397SOL    MW4 9909   0.654   4.009   6.110
 2398SOL     OW 9910   0.742   4.924   6.294
 2398SOL    HW2 9911   0.822   4.927   6.346
 2398SOL    HW3 9912   0.770   4.891   6.208
 2398SOL    MW4 9913   0.756   4.920   6.289
 2399SOL     OW 9914   0.767   5.265   7.197
 2399SOL    HW2 9915   0.851   5.291   7.236
 2399SOL    HW3 9916   0.791   5.209   7.123
 2399SOL    MW4 9917   0.781   5.261   7.192
 2400SOL     OW 9918   0.519   4.428   6.285
 2400SOL    HW2 9919   0.504   4.348   6.336
 2400SOL    HW3 9920   0.601   4.463   6.319
 2400SOL    MW4 9921   0.527   4.420   6.297
 2401SOL     OW 9922   0.856   5.114   6.970
 2401SOL    HW2 9923   0.820   5.180   6.910
 2401SOL    HW3 9924   0.784   5.052   6.983
 2401SOL    MW4 9925   0.842   5.114   6.964
 2402SOL     OW 9926   0.661   4.254   6.662
 2402SOL    HW2 9927   0.567   4.250   6.680
 2402SOL    HW3 9928   0.691   4.163   6.671
 2402SOL    MW4 9929   0.652   4.242   6.665
 2403SOL     OW 9930   0.407   4.668   6.566
 2403SOL    HW2 9931   0.362   4.675   6.482
 2403SOL    HW3 9932   0.387   4.751   6.610
 2403SOL    MW4 9933   0.399   4.680   6.560
 2404SOL     OW 9934   0.104   5.514   6.441
 2404SOL    HW2 9935   0.193   5.506   6.476
 2404SOL    HW3 9936   0.068   5.426   6.446
 2404SOL    MW4 9937   0.111   5.501   6.446
 2405SOL     OW 9938   1.369   4.906   5.810
 2405SOL    HW2 9939   1.287   4.942   5.776
 2405SOL    HW3 9940   1.437   4.949   5.759
 2405SOL    MW4 9941   1.367   4.916   5.798
 2406SOL     OW 9942   0.368   5.041   6.476
 2406SOL    HW2 9943   0.344   5.094   6.552
 2406SOL    HW3 9944   0.424   5.099   6.424
 2406SOL    MW4 9945   0.372   5.056   6.479
 2407SOL     OW 9946   0.930   4.685   6.286
 2407SOL    HW2 9947   0.844   4.672   6.326
 2407SOL    HW3 9948   0.983   4.612   6.318
 2407SOL    MW4 9949   0.926   4.674   6.295
 2408SOL     OW 9950   0.338   5.337   7.071
 2408SOL    HW2 9951   0.246   5.313   7.056
 2408SOL    HW3 9952   0.382   5.254   7.088
 2408SOL    MW4 9953   0.332   5.322   7.070
 2409SOL     OW 9954   0.921   5.047   6.003
 2409SOL    HW2 9955   0.898   5.109   6.071
 2409SOL    HW3 9956   0.878   4.965   6.029
 2409SOL    MW4 9957   0.913   5.043   6.014
 2410SOL     OW 9958   1.794   4.048   6.459
 2410SOL    HW2 9959   1.731   4.028   6.528
 2410SOL    HW3 9960   1.784   3.977   6.396
 2410SOL    MW4 9961   1.784   4.035   6.460
 2411SOL     OW 9962   0.418   4.020   5.971
 2411SOL    HW2 9963   0.392   3.982   5.887
 2411SOL    HW3 9964   0.355   4.090   5.987
 2411SOL    MW4 9965   0.407   4.023   5.962
 2412SOL     OW 9966   0.253   4.981   6.008
 2412SOL    HW2 9967   0.201   5.049   5.964
 2412SOL    HW3 9968   0.250   4.907   5.948
 2412SOL    MW4 9969   0.245   4.980   5.995
 2413SOL     OW 9970   0.915   5.444   5.786
 2413SOL    HW2 9971   0.870   5.460   5.869
 2413SOL    HW3 9972   0.846   5.409   5.728
 2413SOL    MW4 9973   0.901   5.441   5.788
 2414SOL     OW 9974   1.850   4.217   5.761
 2414SOL    HW2 9975   1.759   4.219   5.789
 2414SOL    HW3 9976   1.895   4.279   5.819
 2414SOL    MW4 9977   1.843   4.225   5.771
 2415SOL     OW 9978   1.595   4.820   6.111
 2415SOL    HW2 9979   1.505   4.820   6.146
 2415SOL    HW3 9980   1.588   4.866   6.028
 2415SOL    MW4 9981   1.582   4.826   6.105
 2416SOL     OW 9982   1.395   4.455   7.183
 2416SOL    HW2 9983   1.464   4.393   7.160
 2416SOL    HW3 9984   1.320   4.429   7.130
 2416SOL    MW4 9985   1.395   4.442   7.174
 2417SOL     OW 9986   0.136   5.335   6.735
 2417SOL    HW2 9987   0.119   5.281   6.812
 2417SOL    HW3 9988   0.124   5.425   6.765
 2417SOL    MW4 9989   0.133   5.339   6.749
 2418SOL     OW 9990   1.131   4.842   7.175
 2418SOL    HW2 9991   1.116   4.935   7.160
 2418SOL    HW3 9992   1.226   4.832   7.175
 2418SOL    MW4 9993   1.140   4.852   7.172
 2419SOL     OW 9994   0.927   4.266   7.376
 2419SOL    HW2 9995   1.017   4.267   7.343
 2419SOL    HW3 9996   0.886   4.191   7.334
 2419SOL    MW4 9997   0.933   4.256   7.367
 2420SOL     OW 9998   1.502   4.798   6.503
 2420SOL    HW2 9999   1.505   4.732   6.434
 2420SOL    HW310000   1.587   4.841   6.499
 2420SOL    MW410001   1.514   4.794   6.494
 2421SOL     OW10002   1.122   4.401   6.072
 2421SOL    HW210003   1.148   4.425   5.983
 2421SOL    HW310004   1.104   4.308   6.068
 2421SOL    MW410005   1.124   4.393   6.059
 2422SOL     OW10006   1.787   5.021   5.923
 2422SOL    HW210007   1.743   5.062   5.998
 2422SOL    HW310008   1.844   5.089   5.888
 2422SOL    MW410009   1.789   5.035   5.928
 2423SOL     OW10010   0.707   4.070   7.326
 2423SOL    HW210011   0.717   3.996   7.266
 2423SOL    HW310012   0.743   4.039   7.409
 2423SOL    MW410013   0.713   4.056   7.328
 2424SOL     OW10014   0.443   5.437   6.241
 2424SOL    HW210015   0.475   5.525   6.219
 2424SOL    HW310016   0.396   5.409   6.163
 2424SOL    MW410017   0.442   5.445   6.228
 2425SOL     OW10018   1.827   3.799   6.290
 2425SOL    HW210019   1.881   3.750   6.352
 2425SOL    HW310020   1.770   3.733   6.251
 2425SOL    MW410021   1.827   3.783   6.292
 2426SOL     OW10022   0.159   5.497   5.818
 2426SOL    HW210023   0.188   5.587   5.810
 2426SOL    HW310024   0.109   5.480   5.739
 2426SOL    MW410025   0.157   5.505   5.807
 2427SOL     OW10026   0.946   3.752   6.703
 2427SOL    HW210027   0.905   3.830   6.665
 2427SOL    HW310028   1.040   3.770   6.698
 2427SOL    MW410029   0.952   3.764   6.698
 2428SOL     OW10030   1.563   5.305   5.789
 2428SOL    HW210031   1.611   5.374   5.835
 2428SOL    HW310032   1.484   5.349   5.758
 2428SOL    MW410033   1.558   5.319   5.792
 2429SOL     OW10034   0.961   4.430   5.733
 2429SOL    HW210035   0.963   4.377   5.654
 2429SOL    HW310036   1.049   4.467   5.739
 2429SOL    MW410037   0.973   4.429   5.722
 2430SOL     OW10038   1.575   4.356   6.069
 2430SOL    HW210039   1.614   4.356   6.156
 2430SOL    HW310040   1.516   4.432   6.069
 2430SOL    MW410041   1.572   4.367   6.080
 2431SOL     OW10042   0.892   4.723   7.198
 2431SOL    HW210043   0.869   4.703   7.288
 2431SOL    HW310044   0.977   4.767   7.203
 2431SOL    MW410045   0.899   4.726   7.210
 2432SOL     OW10046   0.972   3.860   6.958
 2432SOL    HW210047   0.978   3.822   6.871
 2432SOL    HW310048   0.961   3.954   6.943
 2432SOL    MW410049   0.973   3.868   6.946
 2433SOL     OW10050   1.061   4.349   6.792
 2433SOL    HW210051   1.136   4.378   6.739
 2433SOL    HW310052   0.993   4.414   6.776
 2433SOL    MW410053   1.062   4.361   6.782
 2434SOL     OW10054   1.611   4.317   7.069
 2434SOL    HW210055   1.592   4.226   7.048
 2434SOL    HW310056   1.589   4.366   6.990
 2434SOL    MW410057   1.606   4.310   7.056
 2435SOL     OW10058   1.753   5.411   6.973
 2435SOL    HW210059   1.681   5.373   7.024
 2435SOL    HW310060   1.770   5.496   7.014
 2435SOL    MW410061   1.747   5.416   6.985
 2436SOL     OW10062   1.058   4.055   7.175
 2436SOL    HW210063   1.024   4.094   7.094
 2436SOL    HW310064   1.036   3.963   7.168
 2436SOL    MW410065   1.051   4.048   7.165
 2437SOL     OW10066   1.467   4.869   7.251
 2437SOL    HW210067   1.549   4.910   7.281
 2437SOL    HW310068   1.430   4.831   7.331
 2437SOL    MW410069   1.473   4.870   7.266
 2438SOL     OW10070   1.762   4.242   6.235
 2438SOL    HW210071   1.851   4.211   6.252
 2438SOL    HW310072   1.705   4.182   6.283
 2438SOL    MW410073   1.765   4.230   6.244
 2439SOL     OW10074   0.188   3.956   6.264
 2439SOL    HW210075   0.179   3.896   6.190
 2439SOL    HW310076   0.121   3.927   6.327
 2439SOL    MW410077   0.178   3.943   6.262
 2440SOL     OW10078   1.131   5.049   5.825
 2440SOL    HW210079   1.081   5.051   5.907
 2440SOL    HW310080   1.065   5.067   5.757
 2440SOL    MW410081   1.117   5.051   5.827
 2441SOL     OW10082   0.135   4.129   6.627
 2441SOL    HW210083   0.107   4.220   6.636
 2441SOL    HW310084   0.072   4.090   6.566
 2441SOL    MW410085   0.122   4.135   6.621
 2442SOL     OW10086   0.594   5.467   5.933
 2442SOL    HW210087   0.515   5.425   5.966
 2442SOL    HW310088   0.660   5.450   6.000
 2442SOL    MW410089   0.593   5.459   5.946
 2443SOL     OW10090   1.722   4.987   7.330
 2443SOL    HW210091   1.772   4.913   7.362
 2443SOL    HW310092   1.668   5.014   7.405
 2443SOL    MW410093   1.722   4.981   7.343
 2444SOL     OW10094   0.730   4.882   5.640
 2444SOL    HW210095   0.652   4.828   5.627
 2444SOL    HW310096   0.701   4.955   5.693
 2444SOL    MW410097   0.716   4.884   5.645
 2445SOL     OW10098   1.856   4.622   6.832
 2445SOL    HW210099   1.872   4.660   6.745
 2445SOL    HW310100   1.890   4.688   6.893
 2445SOL    MW410101   1.863   4.635   6.828
 2446SOL     OW10102   1.648   5.331   6.501
 2446SOL    HW210103   1.677   5.398   6.562
 2446SOL    HW310104   1.629   5.255   6.556
 2446SOL    MW410105   1.650   5.331   6.516
 2447SOL     OW10106   1.311   5.398   5.708
 2447SOL    HW210107   1.237   5.361   5.758
 2447SOL    HW310108   1.319   5.488   5.741
 2447SOL    MW410109   1.302   5.405   5.720
 2448SOL     OW10110   0.119   4.404   6.797
 2448SOL    HW210111   0.181   4.434   6.863
 2448SOL    HW310112   0.053   4.473   6.791
 2448SOL    MW410113   0.118   4.417   6.804
 2449SOL     OW10114   1.535   5.072   5.650
 2449SOL    HW210115   1.482   5.121   5.586
 2449SOL    HW310116   1.566   5.138   5.711
 2449SOL    MW410117   1.533   5.086   5.648
 2450SOL     OW10118   0.760   3.961   5.705
 2450SOL    HW210119   0.708   3.881   5.693
 2450SOL    HW310120   0.847   3.938   5.673
 2450SOL    MW410121   0.763   3.947   5.699
 2451SOL     OW10122   0.214   5.513   7.249
 2451SOL    HW210123   0.188   5.581   7.187
 2451SOL    HW310124   0.262   5.450   7.197
 2451SOL    MW410125   0.216   5.513   7.235
 2452SOL     OW10126   0.266   4.832   6.756
 2452SOL    HW210127   0.319   4.907   6.781
 2452SOL    HW310128   0.185   4.870   6.722
 2452SOL    MW410129   0.262   4.847   6.756
 2453SOL     OW10130   0.806   4.736   6.744
 2453SOL    HW210131   0.834   4.645   6.756
 2453SOL    HW310132   0.735   4.730   6.680
 2453SOL    MW410133   0.799   4.724   6.739
 2454SOL     OW10134   0.121   4.601   6.162
 2454SOL    HW210135   0.212   4.616   6.189
 2454SOL    HW310136   0.124   4.522   6.108
 2454SOL    MW410137   0.133   4.593   6.160
 2455SOL     OW10138   0.357   4.309   7.416
 2455SOL    HW210139   0.304   4.389   7.423
 2455SOL    HW310140   0.427   4.321   7.481
 2455SOL    MW410141   0.359   4.322   7.424
 2456SOL     OW10142   0.743   3.859   7.123
 2456SOL    HW210143   0.720   3.767   7.125
 2456SOL    HW310144   0.829   3.861   7.080
 2456SOL    MW410145   0.750   3.849   7.119
 2457SOL     OW10146   0.427   4.383   7.162
 2457SOL    HW210147   0.507   4.433   7.148
 2457SOL    HW310148   0.418   4.377   7.257
 2457SOL    MW410149   0.436   4.389   7.172
 2458SOL     OW10150   0.748   5.533   6.536
 2458SOL    HW210151   0.837   5.548   6.566
 2458SOL    HW310152   0.743   5.580   6.452
 2458SOL    MW410153   0.758   5.541   6.529
 2459SOL     OW10154   1.404   3.908   7.433
 2459SOL    HW210155   1.460   3.835   7.459
 2459SOL    HW310156   1.374   3.946   7.515
 2459SOL    MW410157   1.408   3.903   7.446
 2460SOL     OW10158   0.129   5.213   6.201
 2460SOL    HW210159   0.101   5.252   6.283
 2460SOL    HW310160   0.149   5.122   6.223
 2460SOL    MW410161   0.127   5.205   6.214
 2461SOL     OW10162   0.962   5.256   6.236
 2461SOL    HW210163   1.045   5.210   6.220
 2461SOL    HW310164   0.952   5.255   6.332
 2461SOL    MW410165   0.972   5.249   6.246
 2462SOL     OW10166   1.794   4.401   6.550
 2462SOL    HW210167   1.883   4.431   6.532
 2462SOL    HW310168   1.774   4.341   6.479
 2462SOL    MW410169   1.803   4.398   6.539
 2463SOL     OW10170   1.645   4.580   7.430
 2463SOL    HW210171   1.700   4.504   7.411
 2463SOL    HW310172   1.647   4.588   7.525
 2463SOL    MW410173   1.653   4.571   7.438
 2464SOL     OW10174   0.695   5.313   5.641
 2464SOL    HW210175   0.635   5.382   5.611
 2464SOL    HW310176   0.640   5.255   5.694
 2464SOL    MW410177   0.679   5.315   5.643
 2465SOL     OW10178   1.133   3.958   5.864
 2465SOL    HW210179   1.066   3.934   5.801
 2465SOL    HW310180   1.198   4.007   5.813
 2465SOL    MW410181   1.133   3.960   5.849
 2466SOL     OW10182   0.940   4.142   6.949
 2466SOL    HW210183   0.859   4.183   6.977
 2466SOL    HW310184   0.987   4.210   6.901
 2466SOL    MW410185   0.935   4.157   6.947
 2467SOL     OW10186   1.200   4.480   6.572
 2467SOL    HW210187   1.213   4.574   6.582
 2467SOL    HW310188   1.161   4.470   6.486
 2467SOL    MW410189   1.196   4.491   6.562
 2468SOL     OW10190   0.652   4.675   6.376
 2468SOL    HW210191   0.563   4.666   6.409
 2468SOL    HW310192   0.656   4.765   6.344
 2468SOL    MW410193   0.641   4.686   6.376
 2469SOL     OW10194   1.451   4.258   6.371
 2469SOL    HW210195   1.396   4.179   6.370
 2469SOL    HW310196   1.433   4.299   6.455
 2469SOL    MW410197   1.441   4.253   6.380
 2470SOL     OW10198   0.422   3.945   7.188
 2470SOL    HW210199   0.343   3.963   7.240
 2470SOL    HW310200   0.417   4.007   7.115
 2470SOL    MW410201   0.412   3.955   7.185
 2471SOL     OW10202   1.070   4.462   6.328
 2471SOL    HW210203   1.007   4.394   6.352
 2471SOL    HW310204   1.090   4.443   6.236
 2471SOL    MW410205   1.064   4.449   6.320
 2472SOL     OW10206   0.326   5.357   6.030
 2472SOL    HW210207   0.287   5.404   5.956
 2472SOL    HW310208   0.260   5.292   6.055
 2472SOL    MW410209   0.313   5.355   6.024
 2473SOL     OW10210   0.818   4.766   6.054
 2473SOL    HW210211   0.820   4.740   5.961
 2473SOL    HW310212   0.876   4.703   6.097
 2473SOL    MW410213   0.826   4.755   6.048
 2474SOL     OW10214   1.371   5.326   6.826
 2474SOL    HW210215   1.296   5.372   6.864
 2474SOL    HW310216   1.353   5.233   6.843
 2474SOL    MW410217   1.360   5.320   6.834
 2475SOL     OW10218   1.375   5.534   6.256
 2475SOL    HW210219   1.318   5.487   6.195
 2475SOL    HW310220   1.461   5.495   6.243
 2475SOL    MW410221   1.378   5.525   6.246
 2476SOL     OW10222   1.328   4.010   6.387
 2476SOL    HW210223   1.356   3.942   6.448
 2476SOL    HW310224   1.242   3.981   6.357
 2476SOL    MW410225   1.321   3.997   6.391
 2477SOL     OW10226   0.133   4.944   6.321
 2477SOL    HW210227   0.197   4.976   6.384
 2477SOL    HW310228   0.182   4.880   6.269
 2477SOL    MW410229   0.148   4.940   6.322
 2478SOL     OW10230   0.633   5.020   7.303
 2478SOL    HW210231   0.681   5.103   7.290
 2478SOL    HW310232   0.690   4.968   7.359
 2478SOL    MW410233   0.647   5.024   7.309
 2479SOL     OW10234   0.209   5.262   7.443
 2479SOL    HW210235   0.265   5.186   7.458
 2479SOL    HW310236   0.158   5.240   7.365
 2479SOL    MW410237   0.209   5.249   7.434
 2480SOL     OW10238   1.308   4.114   5.722
 2480SOL    HW210239   1.281   4.180   5.658
 2480SOL    HW310240   1.378   4.157   5.772
 2480SOL    MW410241   1.313   4.127   5.719
 2481SOL     OW10242   0.976   3.819   5.659
 2481SOL    HW210243   1.032   3.811   5.581
 2481SOL    HW310244   0.953   3.729   5.681
 2481SOL    MW410245   0.981   3.806   5.652
 2482SOL     OW10246   1.481   4.670   5.864
 2482SOL    HW210247   1.448   4.759   5.854
 2482SOL    HW310248   1.446   4.641   5.949
 2482SOL    MW410249   1.471   4.679   5.875
 2483SOL     OW10250   1.094   5.099   7.052
 2483SOL    HW210251   1.005   5.105   7.020
 2483SOL    HW310252   1.138   5.178   7.020
 2483SOL    MW410253   1.089   5.109   7.044
 2484SOL     OW10254   0.387   3.767   7.394
 2484SOL    HW210255   0.315   3.732   7.342
 2484SOL    HW310256   0.445   3.808   7.329
 2484SOL    MW410257   0.385   3.768   7.379
 2485SOL     OW10258   0.411   5.257   6.693
 2485SOL    HW210259   0.456   5.319   6.750
 2485SOL    HW310260   0.318   5.276   6.706
 2485SOL    MW410261   0.404   5.267   6.700
 2486SOL     OW10262   1.851   4.786   7.047
 2486SOL    HW210263   1.766   4.799   7.006
 2486SOL    HW310264   1.831   4.750   7.134
 2486SOL    MW410265   1.838   4.782   7.052
 2487SOL     OW10266   0.833   5.325   6.801
 2487SOL    HW210267   0.857   5.314   6.710
 2487SOL    HW310268   0.756   5.382   6.799
 2487SOL    MW410269   0.825   5.330   6.790
 2488SOL     OW10270   0.475   4.708   5.656
 2488SOL    HW210271   0.398   4.721   5.712
 2488SOL    HW310272   0.439   4.672   5.575
 2488SOL    MW410273   0.461   4.704   5.653
 2489SOL     OW10274   1.128   4.681   5.899
 2489SOL    HW210275   1.038   4.702   5.874
 2489SOL    HW310276   1.155   4.754   5.955
 2489SOL    MW410277   1.120   4.693   5.902
 2490SOL     OW10278   0.628   5.030   6.591
 2490SOL    HW210279   0.621   5.009   6.685
 2490SOL    HW310280   0.546   4.998   6.554
 2490SOL    MW410281   0.616   5.024   6.598
 2491SOL     OW10282   1.492   4.040   6.993
 2491SOL    HW210283   1.439   4.042   7.073
 2491SOL    HW310284   1.477   3.953   6.956
 2491SOL    MW410285   1.484   4.030   6.998
 2492SOL     OW10286   1.828   3.964   6.866
 2492SOL    HW210287   1.809   4.031   6.801
 2492SOL    HW310288   1.885   3.902   6.821
 2492SOL    MW410289   1.832   3.965   6.852
 2493SOL     OW10290   0.074   5.122   7.254
 2493SOL    HW210291   0.118   5.055   7.200
 2493SOL    HW310292  -0.011   5.084   7.274
 2493SOL    MW410293   0.069   5.108   7.250
 2494SOL     OW10294   0.757   3.797   6.306
 2494SOL    HW210295   0.686   3.858   6.288
 2494SOL    HW310296   0.808   3.794   6.225
 2494SOL    MW410297   0.753   3.803   6.293
 2495SOL     OW10298   0.515   5.037   6.055
 2495SOL    HW210299   0.508   5.069   6.145
 2495SOL    HW310300   0.425   5.021   6.027
 2495SOL    MW410301   0.503   5.039   6.062
 2496SOL     OW10302   1.110   5.430   6.964
 2496SOL    HW210303   1.030   5.415   6.914
 2496SOL    HW310304   1.117   5.525   6.971
 2496SOL    MW410305   1.101   5.441   6.958
 2497SOL     OW10306   1.224   5.395   6.454
 2497SOL    HW210307   1.271   5.468   6.413
 2497SOL    HW310308   1.145   5.434   6.490
 2497SOL    MW410309   1.219   5.410   6.453
 2498SOL     OW10310   1.632   5.490   6.729
 2498SOL    HW210311   1.675   5.460   6.809
 2498SOL    HW310312   1.551   5.438   6.726
 2498SOL    MW410313   1.627   5.479   6.739
 2499SOL     OW10314   0.717   4.454   7.436
 2499SOL    HW210315   0.787   4.396   7.408
 2499SOL    HW310316   0.660   4.399   7.491
 2499SOL    MW410317   0.719   4.441   7.440
 2500SOL     OW10318   1.504   4.666   7.069
 2500SOL    HW210319   1.509   4.719   7.149
 2500SOL    HW310320   1.466   4.583   7.097
 2500SOL    MW410321   1.500   4.661   7.084
 2501SOL     OW10322   1.144   3.801   7.315
 2501SOL    HW210323   1.139   3.708   7.296
 2501SOL    HW310324   1.227   3.812   7.361
 2501SOL    MW410325   1.152   3.790   7.319
 2502SOL     OW10326   0.518   4.321   5.769
 2502SOL    HW210327   0.484   4.377   5.839
 2502SOL    HW310328   0.589   4.271   5.809
 2502SOL    MW410329   0.524   4.322   5.783
 2503SOL     OW10330   1.614   5.072   6.591
 2503SOL    HW210331   1.649   5.054   6.504
 2503SOL    HW310332   1.519   5.073   6.578
 2503SOL    MW410333   1.606   5.069   6.578
 2504SOL     OW10334   1.043   4.720   6.960
 2504SOL    HW210335   1.086   4.755   7.038
 2504SOL    HW310336   1.026   4.797   6.906
 2504SOL    MW410337   1.046   4.735   6.963
 2505SOL     OW10338   1.574   4.207   5.833
 2505SOL    HW210339   1.566   4.278   5.770
 2505SOL    HW310340   1.592   4.251   5.916
 2505SOL    MW410341   1.575   4.221   5.835
 2506SOL     OW10342   0.434   3.862   6.262
 2506SOL    HW210343   0.484   3.905   6.193
 2506SOL    HW310344   0.349   3.906   6.262
 2506SOL    MW410345   0.431   3.875   6.253
 2507SOL     OW10346   0.193   4.924   7.122
 2507SOL    HW210347   0.221   4.877   7.200
 2507SOL    HW310348   0.114   4.879   7.093
 2507SOL    MW410349   0.186   4.913   7.128
 2508SOL     OW10350   0.701   4.251   7.089
 2508SOL    HW210351   0.673   4.339   7.113
 2508SOL    HW310352   0.670   4.195   7.160
 2508SOL    MW410353   0.693   4.254   7.101
 2509SOL     OW10354   1.243   4.469   5.808
 2509SOL    HW210355   1.290   4.487   5.727
 2509SOL    HW310356   1.209   4.553   5.836
 2509SOL    MW410357   1.245   4.483   5.801
 2510SOL     OW10358   0.356   4.647   6.302
 2510SOL    HW210359   0.414   4.703   6.250
 2510SOL    HW310360   0.400   4.562   6.304
 2510SOL    MW410361   0.369   4.644   6.295
 2511SOL     OW10362   1.496   3.999   6.139
 2511SOL    HW210363   1.418   3.949   6.164
 2511SOL    HW310364   1.467   4.090   6.139
 2511SOL    MW410365   1.482   4.003   6.142
 2512SOL     OW10366   1.082   3.961   6.298
 2512SOL    HW210367   1.102   4.036   6.242
 2512SOL    HW310368   1.062   4.000   6.383
 2512SOL    MW410369   1.083   3.977   6.302
 2513SOL     OW10370   0.978   5.211   5.630
 2513SOL    HW210371   1.005   5.289   5.582
 2513SOL    HW310372   0.885   5.226   5.649
 2513SOL    MW410373   0.969   5.224   5.626
 2514SOL     OW10374   1.842   4.734   7.317
 2514SOL    HW210375   1.755   4.714   7.353
 2514SOL    HW310376   1.896   4.660   7.342
 2514SOL    MW410377   1.837   4.723   7.325
 2515SOL     OW10378   0.063   5.247   6.474
 2515SOL    HW210379   0.095   5.251   6.565
 2515SOL    HW310380  -0.032   5.255   6.482
 2515SOL    MW410381   0.055   5.250   6.487
 2516SOL     OW10382   0.018   4.373   6.021
 2516SOL    HW210383  -0.042   4.345   6.091
 2516SOL    HW310384   0.092   4.313   6.027
 2516SOL    MW410385   0.020   4.362   6.030
 2517SOL     OW10386   1.586   5.585   7.455
 2517SOL    HW210387   1.631   5.509   7.420
 2517SOL    HW310388   1.624   5.598   7.542
 2517SOL    MW410389   1.596   5.578   7.461
 2518SOL     OW10390   1.186   5.104   6.181
 2518SOL    HW210391   1.209   5.055   6.259
 2518SOL    HW310392   1.267   5.146   6.153
 2518SOL    MW410393   1.199   5.104   6.188
 2519SOL     OW10394   0.444   4.112   6.910
 2519SOL    HW210395   0.477   4.193   6.950
 2519SOL    HW310396   0.417   4.138   6.822
 2519SOL    MW410397   0.443   4.126   6.904
 2520SOL     OW10398   0.398   4.079   6.646
 2520SOL    HW210399   0.428   3.993   6.617
 2520SOL    HW310400   0.303   4.072   6.649
 2520SOL    MW410401   0.390   4.068   6.644
 2521SOL     OW10402   1.227   4.288   7.337
 2521SOL    HW210403   1.279   4.223   7.290
 2521SOL    HW310404   1.185   4.339   7.267
 2521SOL    MW410405   1.228   4.285   7.320
 2522SOL     OW10406   1.326   4.083   7.198
 2522SOL    HW210407   1.233   4.067   7.185
 2522SOL    HW310408   1.352   4.021   7.266
 2522SOL    MW410409   1.316   4.073   7.205
 2523SOL     OW10410   0.541   3.857   6.537
 2523SOL    HW210411   0.551   3.766   6.563
 2523SOL    HW310412   0.497   3.853   6.452
 2523SOL    MW410413   0.537   3.845   6.529
 2524SOL     OW10414   0.635   5.472   7.083
 2524SOL    HW210415   0.552   5.457   7.128
 2524SOL    HW310416   0.694   5.405   7.118
 2524SOL    MW410417   0.633   5.462   7.093
 2525SOL     OW10418   1.692   4.179   6.708
 2525SOL    HW210419   1.625   4.212   6.768
 2525SOL    HW310420   1.735   4.257   6.674
 2525SOL    MW410421   1.690   4.194   6.712
 2526SOL     OW10422   1.870   4.899   6.678
 2526SOL    HW210423   1.863   4.839   6.603
 2526SOL    HW310424   1.796   4.959   6.667
 2526SOL    MW410425   1.860   4.899   6.667
 2527SOL     OW10426   1.252   4.761   6.596
 2527SOL    HW210427   1.266   4.733   6.687
 2527SOL    HW310428   1.338   4.792   6.568
 2527SOL    MW410429   1.265   4.762   6.605
 2528SOL     OW10430   1.335   4.256   6.875
 2528SOL    HW210431   1.356   4.257   6.782
 2528SOL    HW310432   1.380   4.178   6.908
 2528SOL    MW410433   1.342   4.246   6.867
 2529SOL     OW10434   1.828   4.387   7.417
 2529SOL    HW210435   1.865   4.332   7.486
 2529SOL    HW310436   1.853   4.344   7.335
 2529SOL    MW410437   1.835   4.375   7.416
 2530SOL     OW10438   1.375   4.685   7.468
 2530SOL    HW210439   1.441   4.633   7.422
 2530SOL    HW310440   1.395   4.672   7.561
 2530SOL    MW410441   1.386   4.676   7.475
 2531SOL     OW10442   1.326   3.771   5.817
 2531SOL    HW210443   1.400   3.815   5.860
 2531SOL    HW310444   1.250   3.825   5.839
 2531SOL    MW410445   1.326   3.783   5.825
 2532SOL     OW10446   1.386   4.546   6.095
 2532SOL    HW210447   1.301   4.516   6.065
 2532SOL    HW310448   1.378   4.553   6.190
 2532SOL    MW410449   1.374   4.544   6.104
 2533SOL     OW10450   0.462   5.009   6.826
 2533SOL    HW210451   0.474   5.036   6.917
 2533SOL    HW310452   0.443   5.090   6.779
 2533SOL    MW410453   0.461   5.024   6.831
 2534SOL     OW10454   0.746   3.989   6.649
 2534SOL    HW210455   0.719   3.991   6.740
 2534SOL    HW310456   0.676   3.941   6.604
 2534SOL    MW410457   0.734   3.985   6.656
 2535SOL     OW10458   0.600   5.481   6.811
 2535SOL    HW210459   0.652   5.558   6.788
 2535SOL    HW310460   0.609   5.473   6.906
 2535SOL    MW410461   0.609   5.488   6.822
 2536SOL     OW10462   1.502   5.066   7.043
 2536SOL    HW210463   1.487   4.995   7.106
 2536SOL    HW310464   1.548   5.024   6.971
 2536SOL    MW410465   1.508   5.050   7.043
 2537SOL     OW10466   0.576   4.797   7.160
 2537SOL    HW210467   0.613   4.802   7.072
 2537SOL    HW310468   0.615   4.870   7.207
 2537SOL    MW410469   0.586   4.807   7.155
 2538SOL     OW10470   0.756   4.840   6.972
 2538SOL    HW210471   0.815   4.786   7.025
 2538SOL    HW310472   0.771   4.812   6.882
 2538SOL    MW410473   0.766   4.829   6.968
 2539SOL     OW10474   0.759   4.212   5.821
 2539SOL    HW210475   0.832   4.261   5.784
 2539SOL    HW310476   0.775   4.121   5.795
 2539SOL    MW410477   0.771   4.207   5.814
 2540SOL     OW10478   1.567   5.329   7.144
 2540SOL    HW210479   1.609   5.314   7.229
 2540SOL    HW310480   1.558   5.242   7.106
 2540SOL    MW410481   1.571   5.317   7.151
 2541SOL     OW10482   1.227   3.808   6.735
 2541SOL    HW210483   1.282   3.817   6.657
 2541SOL    HW310484   1.282   3.842   6.806
 2541SOL    MW410485   1.241   3.813   6.734
 2542SOL     OW10486   0.234   4.721   5.919
 2542SOL    HW210487   0.171   4.737   5.848
 2542SOL    HW310488   0.181   4.684   5.990
 2542SOL    MW410489   0.219   4.718   5.919
 2543SOL     OW10490   0.590   5.075   5.778
 2543SOL    HW210491   0.605   5.051   5.870
 2543SOL    HW310492   0.498   5.053   5.762
 2543SOL    MW410493   0.580   5.068   5.788
 2544SOL     OW10494   1.129   5.306   5.930
 2544SOL    HW210495   1.137   5.224   5.881
 2544SOL    HW310496   1.048   5.345   5.897
 2544SOL    MW410497   1.119   5.301   5.920
 2545SOL     OW10498   0.388   5.464   6.499
 2545SOL    HW210499   0.392   5.375   6.534
 2545SOL    HW310500   0.414   5.455   6.408
 2545SOL    MW410501   0.391   5.452   6.491
 2546SOL     OW10502   1.005   4.942   6.742
 2546SOL    HW210503   0.937   4.876   6.758
 2546SOL    HW310504   1.023   4.936   6.649
 2546SOL    MW410505   0.998   4.933   6.733
 2547SOL     OW10506   0.094   5.217   6.993
 2547SOL    HW210507   0.084   5.175   7.079
 2547SOL    HW310508   0.015   5.270   6.983
 2547SOL    MW410509   0.083   5.218   7.004
 2548SOL     OW10510   0.998   4.081   6.563
 2548SOL    HW210511   0.928   4.033   6.608
 2548SOL    HW310512   1.030   4.144   6.627
 2548SOL    MW410513   0.993   4.083   6.577
 2549SOL     OW10514   0.649   4.517   7.183
 2549SOL    HW210515   0.642   4.612   7.171
 2549SOL    HW310516   0.658   4.506   7.278
 2549SOL    MW410517   0.650   4.529   7.193
 2550SOL     OW10518   0.370   5.032   7.441
 2550SOL    HW210519   0.442   5.034   7.378
 2550SOL    HW310520   0.340   4.941   7.440
 2550SOL    MW410521   0.375   5.021   7.433
 2551SOL     OW10522   1.454   3.795   6.908
 2551SOL    HW210523   1.525   3.741   6.872
 2551SOL    HW310524   1.453   3.774   7.001
 2551SOL    MW410525   1.463   3.786   6.916
 2552SOL     OW10526   1.654   5.325   7.392
 2552SOL    HW210527   1.627   5.322   7.483
 2552SOL    HW310528   1.750   5.329   7.395
 2552SOL    MW410529   1.664   5.325   7.404
 2553SOL     OW10530   0.465   4.187   6.376
 2553SOL    HW210531   0.536   4.135   6.339
 2553SOL    HW310532   0.451   4.152   6.463
 2553SOL    MW410533   0.473   4.176   6.383
 2554SOL     OW10534   0.020   5.522   7.448
 2554SOL    HW210535   0.070   5.500   7.370
 2554SOL    HW310536   0.028   5.617   7.456
 2554SOL    MW410537   0.028   5.531   7.439
 2555SOL     OW10538   0.781   5.280   6.452
 2555SOL    HW210539   0.709   5.217   6.465
 2555SOL    HW310540   0.742   5.365   6.470
 2555SOL    MW410541   0.765   5.283   6.455
 2556SOL     OW10542   1.101   4.128   6.100
 2556SOL    HW210543   1.123   4.065   6.032
 2556SOL    HW310544   1.006   4.120   6.111
 2556SOL    MW410545   1.091   4.119   6.092
 2557SOL     OW10546   0.186   3.818   6.032
 2557SOL    HW210547   0.257   3.839   5.971
 2557SOL    HW310548   0.140   3.746   5.990
 2557SOL    MW410549   0.190   3.812   6.018
 2558SOL     OW10550   0.017   4.285   7.175
 2558SOL    HW210551   0.081   4.351   7.150
 2558SOL    HW310552  -0.064   4.312   7.132
 2558SOL    MW410553   0.015   4.297   7.167
 2559SOL     OW10554   1.755   5.192   6.132
 2559SOL    HW210555   1.725   5.125   6.193
 2559SOL    HW310556   1.849   5.198   6.146
 2559SOL    MW410557   1.763   5.184   6.142
 2560SOL     OW10558   1.311   4.869   6.062
 2560SOL    HW210559   1.283   4.955   6.095
 2560SOL    HW310560   1.339   4.885   5.972
 2560SOL    MW410561   1.311   4.883   6.054
 2561SOL     OW10562   0.973   3.789   6.115
 2561SOL    HW210563   1.010   3.848   6.180
 2561SOL    HW310564   0.950   3.845   6.041
 2561SOL    MW410565   0.974   3.804   6.114
 2562SOL     OW10566   1.826   4.671   6.537
 2562SOL    HW210567   1.817   4.703   6.448
 2562SOL    HW310568   1.779   4.587   6.537
 2562SOL    MW410569   1.819   4.664   6.527
 2563SOL     OW10570   0.202   4.511   7.116
 2563SOL    HW210571   0.223   4.580   7.054
 2563SOL    HW310572   0.282   4.458   7.121
 2563SOL    MW410573   0.215   4.512   7.110
 2564SOL     OW10574   1.738   4.602   6.238
 2564SOL    HW210575   1.832   4.591   6.226
 2564SOL    HW310576   1.714   4.674   6.179
 2564SOL    MW410577   1.748   4.610   6.229
 2565SOL     OW10578   0.187   4.526   7.383
 2565SOL    HW210579   0.113   4.470   7.409
 2565SOL    HW310580   0.182   4.529   7.288
 2565SOL    MW410581   0.176   4.519   7.373
 2566SOL     OW10582   0.353   3.813   6.833
 2566SOL    HW210583   0.396   3.897   6.853
 2566SOL    HW310584   0.426   3.751   6.826
 2566SOL    MW410585   0.368   3.816   6.834
 2567SOL     OW10586   0.394   4.480   6.011
 2567SOL    HW210587   0.394   4.575   5.996
 2567SOL    HW310588   0.471   4.464   6.065
 2567SOL    MW410589   0.404   4.491   6.016
 2568SOL     OW10590   1.170   4.339   7.075
 2568SOL    HW210591   1.206   4.312   6.991
 2568SOL    HW310592   1.083   4.373   7.054
 2568SOL    MW410593   1.164   4.340   7.062
 2569SOL     OW10594   0.153   4.211   6.300
 2569SOL    HW210595   0.215   4.218   6.373
 2569SOL    HW310596   0.153   4.118   6.277
 2569SOL    MW410597   0.161   4.200   6.307
 2570SOL     OW10598   1.700   5.551   5.832
 2570SOL    HW210599   1.767   5.584   5.772
 2570SOL    HW310600   1.657   5.630   5.866
 2570SOL    MW410601   1.702   5.566   5.828
 2571SOL     OW10602   0.835   4.472   6.784
 2571SOL    HW210603   0.793   4.390   6.760
 2571SOL    HW310604   0.836   4.471   6.880
 2571SOL    MW410605   0.828   4.461   6.793
 2572SOL     OW10606   1.506   5.605   7.183
 2572SOL    HW210607   1.509   5.511   7.166
 2572SOL    HW310608   1.529   5.613   7.275
 2572SOL    MW410609   1.509   5.593   7.193
 2573SOL     OW10610   0.639   3.942   6.889
 2573SOL    HW210611   0.570   4.005   6.910
 2573SOL    HW310612   0.666   3.906   6.974
 2573SOL    MW410613   0.633   3.945   6.902
 2574SOL     OW10614   0.022   4.783   5.758
 2574SOL    HW210615  -0.009   4.848   5.821
 2574SOL    HW310616  -0.029   4.705   5.777
 2574SOL    MW410617   0.012   4.780   5.768
 2575SOL     OW10618   1.434   3.795   6.506
 2575SOL    HW210619   1.522   3.804   6.543
 2575SOL    HW310620   1.444   3.736   6.432
 2575SOL    MW410621   1.448   3.789   6.500
 2576SOL     OW10622   1.466   4.534   6.350
 2576SOL    HW210623   1.546   4.549   6.299
 2576SOL    HW310624   1.459   4.439   6.356
 2576SOL    MW410625   1.475   4.523   6.345
 2577SOL     OW10626   0.606   5.583   5.700
 2577SOL    HW210627   0.511   5.583   5.692
 2577SOL    HW310628   0.622   5.529   5.778
 2577SOL    MW410629   0.596   5.577   5.709
 2578SOL     OW10630   0.916   4.460   7.047
 2578SOL    HW210631   0.985   4.527   7.044
 2578SOL    HW310632   0.849   4.498   7.103
 2578SOL    MW410633   0.917   4.473   7.054
 2579SOL     OW10634   0.334   4.760   7.295
 2579SOL    HW210635   0.288   4.676   7.297
 2579SOL    HW310636   0.391   4.754   7.219
 2579SOL    MW410637   0.336   4.748   7.287
 2580SOL     OW10638   1.451   4.403   5.615
 2580SOL    HW210639   1.379   4.379   5.557
 2580SOL    HW310640   1.517   4.440   5.557
 2580SOL    MW410641   1.450   4.405   5.600
 2581SOL     OW10642   0.585   5.135   6.296
 2581SOL    HW210643   0.650   5.068   6.317
 2581SOL    HW310644   0.637   5.212   6.273
 2581SOL    MW410645   0.600   5.137   6.295
 2582SOL     OW10646   0.846   4.300   6.426
 2582SOL    HW210647   0.786   4.318   6.498
 2582SOL    HW310648   0.880   4.212   6.445
 2582SOL    MW410649   0.842   4.290   6.439
 2583SOL     OW10650   1.787   3.799   7.095
 2583SOL    HW210651   1.708   3.845   7.123
 2583SOL    HW310652   1.822   3.853   7.024
 2583SOL    MW410653   1.781   3.812   7.089
 2584SOL     OW10654   1.071   4.883   6.445
 2584SOL    HW210655   1.163   4.864   6.463
 2584SOL    HW310656   1.044   4.813   6.385
 2584SOL    MW410657   1.079   4.871   6.439
 2585SOL     OW10658   0.864   4.703   5.800
 2585SOL    HW210659   0.850   4.615   5.765
 2585SOL    HW310660   0.815   4.760   5.741
 2585SOL    MW410661   0.856   4.698   5.788
 2586SOL     OW10662   1.345   5.121   6.541
 2586SOL    HW210663   1.318   5.205   6.506
 2586SOL    HW310664   1.305   5.116   6.628
 2586SOL    MW410665   1.338   5.130   6.547
 2587SOL     OW10666   1.264   5.069   6.809
 2587SOL    HW210667   1.275   5.036   6.898
 2587SOL    HW310668   1.183   5.028   6.778
 2587SOL    MW410669   1.254   5.061   6.815
 2588SOL     OW10670   0.277   4.427   6.579
 2588SOL    HW210671   0.227   4.426   6.660
 2588SOL    HW310672   0.297   4.519   6.563
 2588SOL    MW410673   0.273   4.439   6.587
 2589SOL     OW10674   1.344   5.191   7.341
 2589SOL    HW210675   1.344   5.285   7.357
 2589SOL    HW310676   1.389   5.181   7.257
 2589SOL    MW410677   1.350   5.201   7.332
 2590SOL     OW10678   1.583   3.909   5.902
 2590SOL    HW210679   1.576   3.913   5.997
 2590SOL    HW310680   1.595   4.000   5.875
 2590SOL    MW410681   1.584   3.922   5.910
 2591SOL     OW10682   0.872   4.472   6.016
 2591SOL    HW210683   0.852   4.458   5.923
 2591SOL    HW310684   0.965   4.451   6.023
 2591SOL    MW410685   0.882   4.467   6.005
 2592SOL     OW10686   0.199   4.095   7.320
 2592SOL    HW210687   0.156   4.154   7.257
 2592SOL    HW310688   0.267   4.150   7.360
 2592SOL    MW410689   0.203   4.110   7.317
 2593SOL     OW10690   1.311   4.715   6.865
 2593SOL    HW210691   1.374   4.712   6.938
 2593SOL    HW310692   1.227   4.733   6.907
 2593SOL    MW410693   1.307   4.717   6.880
 2594SOL     OW10694   0.855   5.430   6.054
 2594SOL    HW210695   0.913   5.501   6.081
 2594SOL    HW310696   0.878   5.358   6.112
 2594SOL    MW410697   0.866   5.430   6.065
 2595SOL     OW10698   1.650   3.892   6.644
 2595SOL    HW210699   1.695   3.810   6.663
 2595SOL    HW310700   1.670   3.948   6.720
 2595SOL    MW410701   1.660   3.888   6.656
 2596SOL     OW10702   0.098   3.735   6.743
 2596SOL    HW210703   0.089   3.736   6.648
 2596SOL    HW310704   0.192   3.747   6.758
 2596SOL    MW410705   0.110   3.738   6.734
 2597SOL     OW10706   1.735   4.928   6.363
 2597SOL    HW210707   1.714   4.874   6.286
 2597SOL    HW310708   1.831   4.926   6.367
 2597SOL    MW410709   1.744   4.921   6.352
 2598SOL     OW10710   0.427   5.073   7.106
 2598SOL    HW210711   0.348   5.023   7.129
 2598SOL    HW310712   0.497   5.032   7.156
 2598SOL    MW410713   0.425   5.061   7.116
 2599SOL     OW10714   0.311   3.862   5.789
 2599SOL    HW210715   0.240   3.917   5.757
 2599SOL    HW310716   0.353   3.828   5.710
 2599SOL    MW410717   0.307   3.864   5.775
 2600SOL     OW10718   1.435   4.359   6.625
 2600SOL    HW210719   1.358   4.405   6.591
 2600SOL    HW310720   1.492   4.428   6.659
 2600SOL    MW410721   1.432   4.374   6.625
 2601SOL     OW10722   0.067   3.961   5.638
 2601SOL    HW210723   0.034   4.040   5.682
 2601SOL    HW310724   0.122   3.994   5.567
 2601SOL    MW410725   0.070   3.975   5.635
 2602SOL     OW10726   0.101   5.218   5.827
 2602SOL    HW210727   0.118   5.302   5.869
 2602SOL    HW310728   0.136   5.227   5.739
 2602SOL    MW410729   0.106   5.231   5.821
 2603SOL     OW10730   1.373   5.307   6.044
 2603SOL    HW210731   1.436   5.297   5.973
 2603SOL    HW310732   1.290   5.327   5.999
 2603SOL    MW410733   1.370   5.308   6.029
 2604SOL     OW10734   1.736   6.444   0.257
 2604SOL    HW210735   1.777   6.386   0.322
 2604SOL    HW310736   1.643   6.436   0.274
 2604SOL    MW410737   1.730   6.436   0.267
 2605SOL     OW10738   1.602   6.376   1.252
 2605SOL    HW210739   1.557   6.443   1.303
 2605SOL    HW310740   1.690   6.412   1.238
 2605SOL    MW410741   1.608   6.389   1.256
 2606SOL     OW10742   0.530   6.627   0.486
 2606SOL    HW210743   0.620   6.602   0.470
 2606SOL    HW310744   0.526   6.720   0.463
 2606SOL    MW410745   0.542   6.636   0.481
 2607SOL     OW10746   1.646   7.330   0.628
 2607SOL    HW210747   1.658   7.276   0.706
 2607SOL    HW310748   1.683   7.278   0.557
 2607SOL    MW410749   1.652   7.315   0.629
 2608SOL     OW10750   1.025   7.215   1.629
 2608SOL    HW210751   1.066   7.251   1.550
 2608SOL    HW310752   1.060   7.126   1.636
 2608SOL    MW410753   1.036   7.208   1.620
 2609SOL     OW10754   1.582   6.770   1.233
 2609SOL    HW210755   1.503   6.735   1.191
 2609SOL    HW310756   1.609   6.842   1.177
 2609SOL    MW410757   1.575   6.775   1.220
 2610SOL     OW10758   0.814   6.083   0.499
 2610SOL    HW210759   0.789   6.171   0.527
 2610SOL    HW310760   0.811   6.086   0.403
 2610SOL    MW410761   0.810   6.095   0.491
 2611SOL     OW10762   0.256   6.111   0.427
 2611SOL    HW210763   0.288   6.199   0.409
 2611SOL    HW310764   0.244   6.109   0.522
 2611SOL    MW410765   0.259   6.123   0.439
 2612SOL     OW10766   0.334   6.524   1.328
 2612SOL    HW210767   0.397   6.471   1.279
 2612SOL    HW310768   0.315   6.598   1.271
 2612SOL    MW410769   0.340   6.526   1.315
 2613SOL     OW10770   0.655   5.866   0.514
 2613SOL    HW210771   0.713   5.942   0.516
 2613SOL    HW310772   0.590   5.887   0.447
 2613SOL    MW410773   0.654   5.878   0.505
 2614SOL     OW10774   0.742   6.793   0.689
 2614SOL    HW210775   0.822   6.796   0.741
 2614SOL    HW310776   0.770   6.760   0.603
 2614SOL    MW410777   0.756   6.789   0.684
 2615SOL     OW10778   0.767   7.134   1.592
 2615SOL    HW210779   0.851   7.160   1.631
 2615SOL    HW310780   0.791   7.078   1.518
 2615SOL    MW410781   0.781   7.130   1.587
 2616SOL     OW10782   0.519   6.297   0.680
 2616SOL    HW210783   0.504   6.217   0.731
 2616SOL    HW310784   0.601   6.332   0.714
 2616SOL    MW410785   0.527   6.289   0.692
 2617SOL     OW10786   0.856   6.983   1.365
 2617SOL    HW210787   0.820   7.049   1.305
 2617SOL    HW310788   0.784   6.921   1.378
 2617SOL    MW410789   0.842   6.983   1.359
 2618SOL     OW10790   0.661   6.123   1.057
 2618SOL    HW210791   0.567   6.119   1.075
 2618SOL    HW310792   0.691   6.032   1.066
 2618SOL    MW410793   0.652   6.111   1.060
 2619SOL     OW10794   0.407   6.537   0.961
 2619SOL    HW210795   0.362   6.544   0.877
 2619SOL    HW310796   0.387   6.620   1.005
 2619SOL    MW410797   0.399   6.549   0.955
 2620SOL     OW10798   0.104   7.383   0.836
 2620SOL    HW210799   0.193   7.375   0.871
 2620SOL    HW310800   0.068   7.295   0.841
 2620SOL    MW410801   0.111   7.370   0.841
 2621SOL     OW10802   1.369   6.775   0.205
 2621SOL    HW210803   1.287   6.811   0.171
 2621SOL    HW310804   1.437   6.818   0.154
 2621SOL    MW410805   1.367   6.785   0.193
 2622SOL     OW10806   0.368   6.910   0.871
 2622SOL    HW210807   0.344   6.963   0.947
 2622SOL    HW310808   0.424   6.968   0.819
 2622SOL    MW410809   0.372   6.925   0.874
 2623SOL     OW10810   0.930   6.554   0.681
 2623SOL    HW210811   0.844   6.541   0.721
 2623SOL    HW310812   0.983   6.481   0.713
 2623SOL    MW410813   0.926   6.543   0.690
 2624SOL     OW10814   0.338   7.206   1.466
 2624SOL    HW210815   0.246   7.182   1.451
 2624SOL    HW310816   0.382   7.123   1.483
 2624SOL    MW410817   0.332   7.191   1.465
 2625SOL     OW10818   0.921   6.916   0.398
 2625SOL    HW210819   0.898   6.978   0.466
 2625SOL    HW310820   0.878   6.834   0.424
 2625SOL    MW410821   0.913   6.912   0.409
 2626SOL     OW10822   1.794   5.917   0.854
 2626SOL    HW210823   1.731   5.897   0.923
 2626SOL    HW310824   1.784   5.846   0.791
 2626SOL    MW410825   1.784   5.904   0.855
 2627SOL     OW10826   0.418   5.889   0.366
 2627SOL    HW210827   0.392   5.851   0.282
 2627SOL    HW310828   0.355   5.959   0.382
 2627SOL    MW410829   0.407   5.892   0.357
 2628SOL     OW10830   0.253   6.850   0.403
 2628SOL    HW210831   0.201   6.918   0.359
 2628SOL    HW310832   0.250   6.776   0.343
 2628SOL    MW410833   0.245   6.849   0.390
 2629SOL     OW10834   0.915   7.313   0.181
 2629SOL    HW210835   0.870   7.329   0.264
 2629SOL    HW310836   0.846   7.278   0.123
 2629SOL    MW410837   0.901   7.310   0.183
 2630SOL     OW10838   1.850   6.086   0.156
 2630SOL    HW210839   1.759   6.088   0.184
 2630SOL    HW310840   1.895   6.148   0.214
 2630SOL    MW410841   1.843   6.094   0.166
 2631SOL     OW10842   1.595   6.689   0.506
 2631SOL    HW210843   1.505   6.689   0.541
 2631SOL    HW310844   1.588   6.735   0.423
 2631SOL    MW410845   1.582   6.695   0.500
 2632SOL     OW10846   1.395   6.324   1.578
 2632SOL    HW210847   1.464   6.262   1.555
 2632SOL    HW310848   1.320   6.298   1.525
 2632SOL    MW410849   1.395   6.311   1.569
 2633SOL     OW10850   0.136   7.204   1.130
 2633SOL    HW210851   0.119   7.150   1.207
 2633SOL    HW310852   0.124   7.294   1.160
 2633SOL    MW410853   0.133   7.208   1.144
 2634SOL     OW10854   1.131   6.711   1.570
 2634SOL    HW210855   1.116   6.804   1.555
 2634SOL    HW310856   1.226   6.701   1.570
 2634SOL    MW410857   1.140   6.721   1.567
 2635SOL     OW10858   0.927   6.135   1.771
 2635SOL    HW210859   1.017   6.136   1.738
 2635SOL    HW310860   0.886   6.060   1.729
 2635SOL    MW410861   0.933   6.125   1.762
 2636SOL     OW10862   1.502   6.667   0.898
 2636SOL    HW210863   1.505   6.601   0.829
 2636SOL    HW310864   1.587   6.710   0.894
 2636SOL    MW410865   1.514   6.663   0.889
 2637SOL     OW10866   1.122   6.270   0.467
 2637SOL    HW210867   1.148   6.294   0.378
 2637SOL    HW310868   1.104   6.177   0.463
 2637SOL    MW410869   1.124   6.262   0.454
 2638SOL     OW10870   1.787   6.890   0.318
 2638SOL    HW210871   1.743   6.931   0.393
 2638SOL    HW310872   1.844   6.958   0.283
 2638SOL    MW410873   1.789   6.904   0.323
 2639SOL     OW10874   0.707   5.939   1.721
 2639SOL    HW210875   0.717   5.865   1.661
 2639SOL    HW310876   0.743   5.908   1.804
 2639SOL    MW410877   0.713   5.925   1.723
 2640SOL     OW10878   0.443   7.306   0.636
 2640SOL    HW210879   0.475   7.394   0.614
 2640SOL    HW310880   0.396   7.278   0.558
 2640SOL    MW410881   0.442   7.314   0.623
 2641SOL     OW10882   1.827   5.668   0.685
 2641SOL    HW210883   1.881   5.619   0.747
 2641SOL    HW310884   1.770   5.602   0.646
 2641SOL    MW410885   1.827   5.652   0.687
 2642SOL     OW10886   0.159   7.366   0.213
 2642SOL    HW210887   0.188   7.456   0.205
 2642SOL    HW310888   0.109   7.349   0.134
 2642SOL    MW410889   0.157   7.374   0.202
 2643SOL     OW10890   0.946   5.621   1.098
 2643SOL    HW210891   0.905   5.699   1.060
 2643SOL    HW310892   1.040   5.639   1.093
 2643SOL    MW410893   0.952   5.633   1.093
 2644SOL     OW10894   1.563   7.174   0.184
 2644SOL    HW210895   1.611   7.243   0.230
 2644SOL    HW310896   1.484   7.218   0.153
 2644SOL    MW410897   1.558   7.188   0.187
 2645SOL     OW10898   0.961   6.299   0.128
 2645SOL    HW210899   0.963   6.246   0.049
 2645SOL    HW310900   1.049   6.336   0.134
 2645SOL    MW410901   0.973   6.298   0.117
 2646SOL     OW10902   1.575   6.225   0.464
 2646SOL    HW210903   1.614   6.225   0.551
 2646SOL    HW310904   1.516   6.301   0.464
 2646SOL    MW410905   1.572   6.236   0.475
 2647SOL     OW10906   0.892   6.592   1.593
 2647SOL    HW210907   0.869   6.572   1.683
 2647SOL    HW310908   0.977   6.636   1.598
 2647SOL    MW410909   0.899   6.595   1.605
 2648SOL     OW10910   0.972   5.729   1.353
 2648SOL    HW210911   0.978   5.691   1.266
 2648SOL    HW310912   0.961   5.823   1.338
 2648SOL    MW410913   0.973   5.737   1.341
 2649SOL     OW10914   1.061   6.218   1.187
 2649SOL    HW210915   1.136   6.247   1.134
 2649SOL    HW310916   0.993   6.283   1.171
 2649SOL    MW410917   1.062   6.230   1.177
 2650SOL     OW10918   1.611   6.186   1.464
 2650SOL    HW210919   1.592   6.095   1.443
 2650SOL    HW310920   1.589   6.235   1.385
 2650SOL    MW410921   1.606   6.179   1.451
 2651SOL     OW10922   1.753   7.280   1.368
 2651SOL    HW210923   1.681   7.242   1.419
 2651SOL    HW310924   1.770   7.365   1.409
 2651SOL    MW410925   1.747   7.285   1.380
 2652SOL     OW10926   1.058   5.924   1.570
 2652SOL    HW210927   1.024   5.963   1.489
 2652SOL    HW310928   1.036   5.832   1.563
 2652SOL    MW410929   1.051   5.917   1.560
 2653SOL     OW10930   1.467   6.738   1.646
 2653SOL    HW210931   1.549   6.779   1.676
 2653SOL    HW310932   1.430   6.700   1.726
 2653SOL    MW410933   1.473   6.739   1.661
 2654SOL     OW10934   1.762   6.111   0.630
 2654SOL    HW210935   1.851   6.080   0.647
 2654SOL    HW310936   1.705   6.051   0.678
 2654SOL    MW410937   1.765   6.099   0.639
 2655SOL     OW10938   0.188   5.825   0.659
 2655SOL    HW210939   0.179   5.765   0.585
 2655SOL    HW310940   0.121   5.796   0.722
 2655SOL    MW410941   0.178   5.812   0.657
 2656SOL     OW10942   1.131   6.918   0.220
 2656SOL    HW210943   1.081   6.920   0.302
 2656SOL    HW310944   1.065   6.936   0.152
 2656SOL    MW410945   1.117   6.920   0.222
 2657SOL     OW10946   0.135   5.998   1.022
 2657SOL    HW210947   0.107   6.089   1.031
 2657SOL    HW310948   0.072   5.959   0.961
 2657SOL    MW410949   0.122   6.004   1.016
 2658SOL     OW10950   0.594   7.336   0.328
 2658SOL    HW210951   0.515   7.294   0.361
 2658SOL    HW310952   0.660   7.319   0.395
 2658SOL    MW410953   0.593   7.328   0.341
 2659SOL     OW10954   1.722   6.856   1.725
 2659SOL    HW210955   1.772   6.782   1.757
 2659SOL    HW310956   1.668   6.883   1.800
 2659SOL    MW410957   1.722   6.850   1.738
 2660SOL     OW10958   0.730   6.751   0.035
 2660SOL    HW210959   0.652   6.697   0.022
 2660SOL    HW310960   0.701   6.824   0.088
 2660SOL    MW410961   0.716   6.753   0.040
 2661SOL     OW10962   1.856   6.491   1.227
 2661SOL    HW210963   1.872   6.529   1.140
 2661SOL    HW310964   1.890   6.557   1.288
 2661SOL    MW410965   1.863   6.504   1.223
 2662SOL     OW10966   1.648   7.200   0.896
 2662SOL    HW210967   1.677   7.267   0.957
 2662SOL    HW310968   1.629   7.124   0.951
 2662SOL    MW410969   1.650   7.200   0.911
 2663SOL     OW10970   1.311   7.267   0.103
 2663SOL    HW210971   1.237   7.230   0.153
 2663SOL    HW310972   1.319   7.357   0.136
 2663SOL    MW410973   1.302   7.274   0.115
 2664SOL     OW10974   0.119   6.273   1.192
 2664SOL    HW210975   0.181   6.303   1.258
 2664SOL    HW310976   0.053   6.342   1.186
 2664SOL    MW410977   0.118   6.286   1.199
 2665SOL     OW10978   1.535   6.941   0.045
 2665SOL    HW210979   1.482   6.990  -0.019
 2665SOL    HW310980   1.566   7.007   0.106
 2665SOL    MW410981   1.533   6.955   0.043
 2666SOL     OW10982   0.760   5.830   0.100
 2666SOL    HW210983   0.708   5.750   0.088
 2666SOL    HW310984   0.847   5.807   0.068
 2666SOL    MW410985   0.763   5.816   0.094
 2667SOL     OW10986   0.214   7.382   1.644
 2667SOL    HW210987   0.188   7.450   1.582
 2667SOL    HW310988   0.262   7.319   1.592
 2667SOL    MW410989   0.216   7.382   1.630
 2668SOL     OW10990   0.266   6.701   1.151
 2668SOL    HW210991   0.319   6.776   1.176
 2668SOL    HW310992   0.185   6.739   1.117
 2668SOL    MW410993   0.262   6.716   1.151
 2669SOL     OW10994   0.806   6.605   1.139
 2669SOL    HW210995   0.834   6.514   1.151
 2669SOL    HW310996   0.735   6.599   1.075
 2669SOL    MW410997   0.799   6.593   1.134
 2670SOL     OW10998   0.121   6.470   0.557
 2670SOL    HW210999   0.212   6.485   0.584
 2670SOL    HW311000   0.124   6.391   0.503
 2670SOL    MW411001   0.133   6.462   0.555
 2671SOL     OW11002   0.357   6.178   1.811
 2671SOL    HW211003   0.304   6.258   1.818
 2671SOL    HW311004   0.427   6.190   1.876
 2671SOL    MW411005   0.359   6.191   1.819
 2672SOL     OW11006   0.743   5.728   1.518
 2672SOL    HW211007   0.720   5.636   1.520
 2672SOL    HW311008   0.829   5.730   1.475
 2672SOL    MW411009   0.750   5.718   1.514
 2673SOL     OW11010   0.427   6.252   1.557
 2673SOL    HW211011   0.507   6.302   1.543
 2673SOL    HW311012   0.418   6.246   1.652
 2673SOL    MW411013   0.436   6.258   1.567
 2674SOL     OW11014   0.748   7.402   0.931
 2674SOL    HW211015   0.837   7.417   0.961
 2674SOL    HW311016   0.743   7.449   0.847
 2674SOL    MW411017   0.758   7.410   0.924
 2675SOL     OW11018   1.404   5.777   1.828
 2675SOL    HW211019   1.460   5.704   1.854
 2675SOL    HW311020   1.374   5.815   1.910
 2675SOL    MW411021   1.408   5.772   1.841
 2676SOL     OW11022   0.129   7.082   0.596
 2676SOL    HW211023   0.101   7.121   0.678
 2676SOL    HW311024   0.149   6.991   0.618
 2676SOL    MW411025   0.127   7.074   0.609
 2677SOL     OW11026   0.962   7.125   0.631
 2677SOL    HW211027   1.045   7.079   0.615
 2677SOL    HW311028   0.952   7.124   0.727
 2677SOL    MW411029   0.972   7.118   0.641
 2678SOL     OW11030   1.794   6.270   0.945
 2678SOL    HW211031   1.883   6.300   0.927
 2678SOL    HW311032   1.774   6.210   0.874
 2678SOL    MW411033   1.803   6.267   0.934
 2679SOL     OW11034   1.645   6.449   1.825
 2679SOL    HW211035   1.700   6.373   1.806
 2679SOL    HW311036   1.647   6.457   1.920
 2679SOL    MW411037   1.653   6.440   1.833
 2680SOL     OW11038   0.695   7.182   0.036
 2680SOL    HW211039   0.635   7.251   0.006
 2680SOL    HW311040   0.640   7.124   0.089
 2680SOL    MW411041   0.679   7.184   0.038
 2681SOL     OW11042   1.133   5.827   0.259
 2681SOL    HW211043   1.066   5.803   0.196
 2681SOL    HW311044   1.198   5.876   0.208
 2681SOL    MW411045   1.133   5.829   0.244
 2682SOL     OW11046   0.940   6.011   1.344
 2682SOL    HW211047   0.859   6.052   1.372
 2682SOL    HW311048   0.987   6.079   1.296
 2682SOL    MW411049   0.935   6.026   1.342
 2683SOL     OW11050   1.200   6.349   0.967
 2683SOL    HW211051   1.213   6.443   0.977
 2683SOL    HW311052   1.161   6.339   0.881
 2683SOL    MW411053   1.196   6.360   0.957
 2684SOL     OW11054   0.652   6.544   0.771
 2684SOL    HW211055   0.563   6.535   0.804
 2684SOL    HW311056   0.656   6.634   0.739
 2684SOL    MW411057   0.641   6.555   0.771
 2685SOL     OW11058   1.451   6.127   0.766
 2685SOL    HW211059   1.396   6.048   0.765
 2685SOL    HW311060   1.433   6.168   0.850
 2685SOL    MW411061   1.441   6.122   0.775
 2686SOL     OW11062   0.422   5.814   1.583
 2686SOL    HW211063   0.343   5.832   1.635
 2686SOL    HW311064   0.417   5.876   1.510
 2686SOL    MW411065   0.412   5.824   1.580
 2687SOL     OW11066   1.070   6.331   0.723
 2687SOL    HW211067   1.007   6.263   0.747
 2687SOL    HW311068   1.090   6.312   0.631
 2687SOL    MW411069   1.064   6.318   0.715
 2688SOL     OW11070   0.326   7.226   0.425
 2688SOL    HW211071   0.287   7.273   0.351
 2688SOL    HW311072   0.260   7.161   0.450
 2688SOL    MW411073   0.313   7.224   0.419
 2689SOL     OW11074   0.818   6.635   0.449
 2689SOL    HW211075   0.820   6.609   0.356
 2689SOL    HW311076   0.876   6.572   0.492
 2689SOL    MW411077   0.826   6.624   0.443
 2690SOL     OW11078   1.371   7.195   1.221
 2690SOL    HW211079   1.296   7.241   1.259
 2690SOL    HW311080   1.353   7.102   1.238
 2690SOL    MW411081   1.360   7.189   1.229
 2691SOL     OW11082   1.375   7.403   0.651
 2691SOL    HW211083   1.318   7.356   0.590
 2691SOL    HW311084   1.461   7.364   0.638
 2691SOL    MW411085   1.378   7.394   0.641
 2692SOL     OW11086   1.328   5.879   0.782
 2692SOL    HW211087   1.356   5.811   0.843
 2692SOL    HW311088   1.242   5.850   0.752
 2692SOL    MW411089   1.321   5.866   0.786
 2693SOL     OW11090   0.133   6.813   0.716
 2693SOL    HW211091   0.197   6.845   0.779
 2693SOL    HW311092   0.182   6.749   0.664
 2693SOL    MW411093   0.148   6.809   0.717
 2694SOL     OW11094   0.633   6.889   1.698
 2694SOL    HW211095   0.681   6.972   1.685
 2694SOL    HW311096   0.690   6.837   1.754
 2694SOL    MW411097   0.647   6.893   1.704
 2695SOL     OW11098   0.209   7.131   1.838
 2695SOL    HW211099   0.265   7.055   1.853
 2695SOL    HW311100   0.158   7.109   1.760
 2695SOL    MW411101   0.209   7.118   1.829
 2696SOL     OW11102   1.308   5.983   0.117
 2696SOL    HW211103   1.281   6.049   0.053
 2696SOL    HW311104   1.378   6.026   0.167
 2696SOL    MW411105   1.313   5.996   0.114
 2697SOL     OW11106   0.976   5.688   0.054
 2697SOL    HW211107   1.032   5.680  -0.024
 2697SOL    HW311108   0.953   5.598   0.076
 2697SOL    MW411109   0.981   5.675   0.047
 2698SOL     OW11110   1.481   6.539   0.259
 2698SOL    HW211111   1.448   6.628   0.249
 2698SOL    HW311112   1.446   6.510   0.344
 2698SOL    MW411113   1.471   6.548   0.270
 2699SOL     OW11114   1.094   6.968   1.447
 2699SOL    HW211115   1.005   6.974   1.415
 2699SOL    HW311116   1.138   7.047   1.415
 2699SOL    MW411117   1.089   6.978   1.439
 2700SOL     OW11118   0.387   5.636   1.789
 2700SOL    HW211119   0.315   5.601   1.737
 2700SOL    HW311120   0.445   5.677   1.724
 2700SOL    MW411121   0.385   5.637   1.774
 2701SOL     OW11122   0.411   7.126   1.088
 2701SOL    HW211123   0.456   7.188   1.145
 2701SOL    HW311124   0.318   7.145   1.101
 2701SOL    MW411125   0.404   7.136   1.095
 2702SOL     OW11126   1.851   6.655   1.442
 2702SOL    HW211127   1.766   6.668   1.401
 2702SOL    HW311128   1.831   6.619   1.529
 2702SOL    MW411129   1.838   6.651   1.447
 2703SOL     OW11130   0.833   7.194   1.196
 2703SOL    HW211131   0.857   7.183   1.105
 2703SOL    HW311132   0.756   7.251   1.194
 2703SOL    MW411133   0.825   7.199   1.185
 2704SOL     OW11134   0.475   6.577   0.051
 2704SOL    HW211135   0.398   6.590   0.107
 2704SOL    HW311136   0.439   6.541  -0.030
 2704SOL    MW411137   0.461   6.573   0.048
 2705SOL     OW11138   1.128   6.550   0.294
 2705SOL    HW211139   1.038   6.571   0.269
 2705SOL    HW311140   1.155   6.623   0.350
 2705SOL    MW411141   1.120   6.562   0.297
 2706SOL     OW11142   0.628   6.899   0.986
 2706SOL    HW211143   0.621   6.878   1.080
 2706SOL    HW311144   0.546   6.867   0.949
 2706SOL    MW411145   0.616   6.893   0.993
 2707SOL     OW11146   1.492   5.909   1.388
 2707SOL    HW211147   1.439   5.911   1.468
 2707SOL    HW311148   1.477   5.822   1.351
 2707SOL    MW411149   1.484   5.899   1.393
 2708SOL     OW11150   1.828   5.833   1.261
 2708SOL    HW211151   1.809   5.900   1.196
 2708SOL    HW311152   1.885   5.771   1.216
 2708SOL    MW411153   1.832   5.834   1.247
 2709SOL     OW11154   0.074   6.991   1.649
 2709SOL    HW211155   0.118   6.924   1.595
 2709SOL    HW311156  -0.011   6.953   1.669
 2709SOL    MW411157   0.069   6.977   1.645
 2710SOL     OW11158   0.757   5.666   0.701
 2710SOL    HW211159   0.686   5.727   0.683
 2710SOL    HW311160   0.808   5.663   0.620
 2710SOL    MW411161   0.753   5.672   0.688
 2711SOL     OW11162   0.515   6.906   0.450
 2711SOL    HW211163   0.508   6.938   0.540
 2711SOL    HW311164   0.425   6.890   0.422
 2711SOL    MW411165   0.503   6.908   0.457
 2712SOL     OW11166   1.110   7.299   1.359
 2712SOL    HW211167   1.030   7.284   1.309
 2712SOL    HW311168   1.117   7.394   1.366
 2712SOL    MW411169   1.101   7.310   1.353
 2713SOL     OW11170   1.224   7.264   0.849
 2713SOL    HW211171   1.271   7.337   0.808
 2713SOL    HW311172   1.145   7.303   0.885
 2713SOL    MW411173   1.219   7.279   0.848
 2714SOL     OW11174   1.632   7.359   1.124
 2714SOL    HW211175   1.675   7.329   1.204
 2714SOL    HW311176   1.551   7.307   1.121
 2714SOL    MW411177   1.627   7.348   1.134
 2715SOL     OW11178   0.717   6.323   1.831
 2715SOL    HW211179   0.787   6.265   1.803
 2715SOL    HW311180   0.660   6.268   1.886
 2715SOL    MW411181   0.719   6.310   1.835
 2716SOL     OW11182   1.504   6.535   1.464
 2716SOL    HW211183   1.509   6.588   1.544
 2716SOL    HW311184   1.466   6.452   1.492
 2716SOL    MW411185   1.500   6.530   1.479
 2717SOL     OW11186   1.144   5.670   1.710
 2717SOL    HW211187   1.139   5.577   1.691
 2717SOL    HW311188   1.227   5.681   1.756
 2717SOL    MW411189   1.152   5.659   1.714
 2718SOL     OW11190   0.518   6.190   0.164
 2718SOL    HW211191   0.484   6.246   0.234
 2718SOL    HW311192   0.589   6.140   0.204
 2718SOL    MW411193   0.524   6.191   0.178
 2719SOL     OW11194   1.614   6.941   0.986
 2719SOL    HW211195   1.649   6.923   0.899
 2719SOL    HW311196   1.519   6.942   0.973
 2719SOL    MW411197   1.606   6.938   0.973
 2720SOL     OW11198   1.043   6.589   1.355
 2720SOL    HW211199   1.086   6.624   1.433
 2720SOL    HW311200   1.026   6.666   1.301
 2720SOL    MW411201   1.046   6.604   1.358
 2721SOL     OW11202   1.574   6.076   0.228
 2721SOL    HW211203   1.566   6.147   0.165
 2721SOL    HW311204   1.592   6.120   0.311
 2721SOL    MW411205   1.575   6.090   0.230
 2722SOL     OW11206   0.434   5.731   0.657
 2722SOL    HW211207   0.484   5.774   0.588
 2722SOL    HW311208   0.349   5.775   0.657
 2722SOL    MW411209   0.431   5.744   0.648
 2723SOL     OW11210   0.193   6.793   1.517
 2723SOL    HW211211   0.221   6.746   1.595
 2723SOL    HW311212   0.114   6.748   1.488
 2723SOL    MW411213   0.186   6.782   1.523
 2724SOL     OW11214   0.701   6.120   1.484
 2724SOL    HW211215   0.673   6.208   1.508
 2724SOL    HW311216   0.670   6.064   1.555
 2724SOL    MW411217   0.693   6.123   1.496
 2725SOL     OW11218   1.243   6.338   0.203
 2725SOL    HW211219   1.290   6.356   0.122
 2725SOL    HW311220   1.209   6.422   0.231
 2725SOL    MW411221   1.245   6.352   0.196
 2726SOL     OW11222   0.356   6.516   0.697
 2726SOL    HW211223   0.414   6.572   0.645
 2726SOL    HW311224   0.400   6.431   0.699
 2726SOL    MW411225   0.369   6.513   0.690
 2727SOL     OW11226   1.496   5.868   0.534
 2727SOL    HW211227   1.418   5.818   0.559
 2727SOL    HW311228   1.467   5.959   0.534
 2727SOL    MW411229   1.482   5.872   0.537
 2728SOL     OW11230   1.082   5.830   0.693
 2728SOL    HW211231   1.102   5.905   0.637
 2728SOL    HW311232   1.062   5.869   0.778
 2728SOL    MW411233   1.083   5.846   0.697
 2729SOL     OW11234   0.978   7.080   0.025
 2729SOL    HW211235   1.005   7.158  -0.023
 2729SOL    HW311236   0.885   7.095   0.044
 2729SOL    MW411237   0.969   7.093   0.021
 2730SOL     OW11238   1.842   6.603   1.712
 2730SOL    HW211239   1.755   6.583   1.748
 2730SOL    HW311240   1.896   6.529   1.737
 2730SOL    MW411241   1.837   6.592   1.720
 2731SOL     OW11242   0.063   7.116   0.869
 2731SOL    HW211243   0.095   7.120   0.960
 2731SOL    HW311244  -0.032   7.124   0.877
 2731SOL    MW411245   0.055   7.119   0.882
 2732SOL     OW11246   0.018   6.242   0.416
 2732SOL    HW211247  -0.042   6.214   0.486
 2732SOL    HW311248   0.092   6.182   0.422
 2732SOL    MW411249   0.020   6.231   0.425
 2733SOL     OW11250   1.586   7.454   1.850
 2733SOL    HW211251   1.631   7.378   1.815
 2733SOL    HW311252   1.624   7.467   1.937
 2733SOL    MW411253   1.596   7.447   1.856
 2734SOL     OW11254   1.186   6.973   0.576
 2734SOL    HW211255   1.209   6.924   0.654
 2734SOL    HW311256   1.267   7.015   0.548
 2734SOL    MW411257   1.199   6.973   0.583
 2735SOL     OW11258   0.444   5.981   1.305
 2735SOL    HW211259   0.477   6.062   1.345
 2735SOL    HW311260   0.417   6.007   1.217
 2735SOL    MW411261   0.443   5.995   1.299
 2736SOL     OW11262   0.398   5.948   1.041
 2736SOL    HW211263   0.428   5.862   1.012
 2736SOL    HW311264   0.303   5.941   1.044
 2736SOL    MW411265   0.390   5.937   1.039
 2737SOL     OW11266   1.227   6.157   1.732
 2737SOL    HW211267   1.279   6.092   1.685
 2737SOL    HW311268   1.185   6.208   1.662
 2737SOL    MW411269   1.228   6.154   1.715
 2738SOL     OW11270   1.326   5.952   1.593
 2738SOL    HW211271   1.233   5.936   1.580
 2738SOL    HW311272   1.352   5.890   1.661
 2738SOL    MW411273   1.316   5.942   1.600
 2739SOL     OW11274   0.541   5.726   0.932
 2739SOL    HW211275   0.551   5.635   0.958
 2739SOL    HW311276   0.497   5.722   0.847
 2739SOL    MW411277   0.537   5.714   0.924
 2740SOL     OW11278   0.635   7.341   1.478
 2740SOL    HW211279   0.552   7.326   1.523
 2740SOL    HW311280   0.694   7.274   1.513
 2740SOL    MW411281   0.633   7.331   1.488
 2741SOL     OW11282   1.692   6.048   1.103
 2741SOL    HW211283   1.625   6.081   1.163
 2741SOL    HW311284   1.735   6.126   1.069
 2741SOL    MW411285   1.690   6.063   1.107
 2742SOL     OW11286   1.870   6.768   1.073
 2742SOL    HW211287   1.863   6.708   0.998
 2742SOL    HW311288   1.796   6.828   1.062
 2742SOL    MW411289   1.860   6.768   1.062
 2743SOL     OW11290   1.252   6.630   0.991
 2743SOL    HW211291   1.266   6.602   1.082
 2743SOL    HW311292   1.338   6.661   0.963
 2743SOL    MW411293   1.265   6.631   1.000
 2744SOL     OW11294   1.335   6.125   1.270
 2744SOL    HW211295   1.356   6.126   1.177
 2744SOL    HW311296   1.380   6.047   1.303
 2744SOL    MW411297   1.342   6.115   1.262
 2745SOL     OW11298   1.828   6.256   1.812
 2745SOL    HW211299   1.865   6.201   1.881
 2745SOL    HW311300   1.853   6.213   1.730
 2745SOL    MW411301   1.835   6.244   1.811
 2746SOL     OW11302   1.375   6.554   1.863
 2746SOL    HW211303   1.441   6.502   1.817
 2746SOL    HW311304   1.395   6.541   1.956
 2746SOL    MW411305   1.386   6.545   1.870
 2747SOL     OW11306   1.326   5.640   0.212
 2747SOL    HW211307   1.400   5.684   0.255
 2747SOL    HW311308   1.250   5.694   0.234
 2747SOL    MW411309   1.326   5.652   0.220
 2748SOL     OW11310   1.386   6.415   0.490
 2748SOL    HW211311   1.301   6.385   0.460
 2748SOL    HW311312   1.378   6.422   0.585
 2748SOL    MW411313   1.374   6.413   0.499
 2749SOL     OW11314   0.462   6.878   1.221
 2749SOL    HW211315   0.474   6.905   1.312
 2749SOL    HW311316   0.443   6.959   1.174
 2749SOL    MW411317   0.461   6.893   1.226
 2750SOL     OW11318   0.746   5.858   1.044
 2750SOL    HW211319   0.719   5.860   1.135
 2750SOL    HW311320   0.676   5.810   0.999
 2750SOL    MW411321   0.734   5.854   1.051
 2751SOL     OW11322   0.600   7.350   1.206
 2751SOL    HW211323   0.652   7.427   1.183
 2751SOL    HW311324   0.609   7.342   1.301
 2751SOL    MW411325   0.609   7.357   1.217
 2752SOL     OW11326   0.576   6.666   1.555
 2752SOL    HW211327   0.613   6.671   1.467
 2752SOL    HW311328   0.615   6.739   1.602
 2752SOL    MW411329   0.586   6.676   1.550
 2753SOL     OW11330   0.756   6.709   1.367
 2753SOL    HW211331   0.815   6.655   1.420
 2753SOL    HW311332   0.771   6.681   1.277
 2753SOL    MW411333   0.766   6.698   1.363
 2754SOL     OW11334   0.759   6.081   0.216
 2754SOL    HW211335   0.832   6.130   0.179
 2754SOL    HW311336   0.775   5.990   0.190
 2754SOL    MW411337   0.771   6.076   0.209
 2755SOL     OW11338   1.567   7.198   1.539
 2755SOL    HW211339   1.609   7.183   1.624
 2755SOL    HW311340   1.558   7.111   1.501
 2755SOL    MW411341   1.571   7.186   1.546
 2756SOL     OW11342   1.227   5.677   1.130
 2756SOL    HW211343   1.282   5.686   1.052
 2756SOL    HW311344   1.282   5.711   1.201
 2756SOL    MW411345   1.241   5.682   1.129
 2757SOL     OW11346   0.234   6.590   0.314
 2757SOL    HW211347   0.171   6.606   0.243
 2757SOL    HW311348   0.181   6.553   0.385
 2757SOL    MW411349   0.219   6.587   0.314
 2758SOL     OW11350   0.590   6.944   0.173
 2758SOL    HW211351   0.605   6.920   0.265
 2758SOL    HW311352   0.498   6.922   0.157
 2758SOL    MW411353   0.580   6.937   0.183
 2759SOL     OW11354   1.129   7.175   0.325
 2759SOL    HW211355   1.137   7.093   0.276
 2759SOL    HW311356   1.048   7.214   0.292
 2759SOL    MW411357   1.119   7.170   0.315
 2760SOL     OW11358   0.388   7.333   0.894
 2760SOL    HW211359   0.392   7.244   0.929
 2760SOL    HW311360   0.414   7.324   0.803
 2760SOL    MW411361   0.391   7.321   0.886
 2761SOL     OW11362   1.005   6.811   1.137
 2761SOL    HW211363   0.937   6.745   1.153
 2761SOL    HW311364   1.023   6.805   1.044
 2761SOL    MW411365   0.998   6.802   1.128
 2762SOL     OW11366   0.094   7.086   1.388
 2762SOL    HW211367   0.084   7.044   1.474
 2762SOL    HW311368   0.015   7.139   1.378
 2762SOL    MW411369   0.083   7.087   1.399
 2763SOL     OW11370   0.998   5.950   0.958
 2763SOL    HW211371   0.928   5.902   1.003
 2763SOL    HW311372   1.030   6.013   1.022
 2763SOL    MW411373   0.993   5.952   0.972
 2764SOL     OW11374   0.649   6.386   1.578
 2764SOL    HW211375   0.642   6.481   1.566
 2764SOL    HW311376   0.658   6.375   1.673
 2764SOL    MW411377   0.650   6.398   1.588
 2765SOL     OW11378   0.370   6.901   1.836
 2765SOL    HW211379   0.442   6.903   1.773
 2765SOL    HW311380   0.340   6.810   1.835
 2765SOL    MW411381   0.375   6.890   1.828
 2766SOL     OW11382   1.454   5.664   1.303
 2766SOL    HW211383   1.525   5.610   1.267
 2766SOL    HW311384   1.453   5.643   1.396
 2766SOL    MW411385   1.463   5.655   1.311
 2767SOL     OW11386   1.654   7.194   1.787
 2767SOL    HW211387   1.627   7.191   1.878
 2767SOL    HW311388   1.750   7.198   1.790
 2767SOL    MW411389   1.664   7.194   1.799
 2768SOL     OW11390   0.465   6.056   0.771
 2768SOL    HW211391   0.536   6.004   0.734
 2768SOL    HW311392   0.451   6.021   0.858
 2768SOL    MW411393   0.473   6.045   0.778
 2769SOL     OW11394   0.020   7.391   1.843
 2769SOL    HW211395   0.070   7.369   1.765
 2769SOL    HW311396   0.028   7.486   1.851
 2769SOL    MW411397   0.028   7.400   1.834
 2770SOL     OW11398   0.781   7.149   0.847
 2770SOL    HW211399   0.709   7.086   0.860
 2770SOL    HW311400   0.742   7.234   0.865
 2770SOL    MW411401   0.765   7.152   0.850
 2771SOL     OW11402   1.101   5.997   0.495
 2771SOL    HW211403   1.123   5.934   0.427
 2771SOL    HW311404   1.006   5.989   0.506
 2771SOL    MW411405   1.091   5.988   0.487
 2772SOL     OW11406   0.186   5.687   0.427
 2772SOL    HW211407   0.257   5.708   0.366
 2772SOL    HW311408   0.140   5.615   0.385
 2772SOL    MW411409   0.190   5.681   0.413
 2773SOL     OW11410   0.017   6.154   1.570
 2773SOL    HW211411   0.081   6.220   1.545
 2773SOL    HW311412  -0.064   6.181   1.527
 2773SOL    MW411413   0.015   6.166   1.562
 2774SOL     OW11414   1.755   7.061   0.527
 2774SOL    HW211415   1.725   6.994   0.588
 2774SOL    HW311416   1.849   7.067   0.541
 2774SOL    MW411417   1.763   7.053   0.537
 2775SOL     OW11418   1.311   6.738   0.457
 2775SOL    HW211419   1.283   6.824   0.490
 2775SOL    HW311420   1.339   6.754   0.367
 2775SOL    MW411421   1.311   6.752   0.449
 2776SOL     OW11422   0.973   5.658   0.510
 2776SOL    HW211423   1.010   5.717   0.575
 2776SOL    HW311424   0.950   5.714   0.436
 2776SOL    MW411425   0.974   5.673   0.509
 2777SOL     OW11426   1.826   6.540   0.932
 2777SOL    HW211427   1.817   6.572   0.843
 2777SOL    HW311428   1.779   6.456   0.932
 2777SOL    MW411429   1.819   6.533   0.922
 2778SOL     OW11430   0.202   6.380   1.511
 2778SOL    HW211431   0.223   6.449   1.449
 2778SOL    HW311432   0.282   6.327   1.516
 2778SOL    MW411433   0.215   6.381   1.505
 2779SOL     OW11434   1.738   6.471   0.633
 2779SOL    HW211435   1.832   6.460   0.621
 2779SOL    HW311436   1.714   6.543   0.574
 2779SOL    MW411437   1.748   6.479   0.624
 2780SOL     OW11438   0.187   6.395   1.778
 2780SOL    HW211439   0.113   6.339   1.804
 2780SOL    HW311440   0.182   6.398   1.683
 2780SOL    MW411441   0.176   6.388   1.768
 2781SOL     OW11442   0.353   5.682   1.228
 2781SOL    HW211443   0.396   5.766   1.248
 2781SOL    HW311444   0.426   5.620   1.221
 2781SOL    MW411445   0.368   5.685   1.229
 2782SOL     OW11446   0.394   6.349   0.406
 2782SOL    HW211447   0.394   6.444   0.391
 2782SOL    HW311448   0.471   6.333   0.460
 2782SOL    MW411449   0.404   6.360   0.411
 2783SOL     OW11450   1.170   6.208   1.470
 2783SOL    HW211451   1.206   6.181   1.386
 2783SOL    HW311452   1.083   6.242   1.449
 2783SOL    MW411453   1.164   6.209   1.457
 2784SOL     OW11454   0.153   6.080   0.695
 2784SOL    HW211455   0.215   6.087   0.768
 2784SOL    HW311456   0.153   5.987   0.672
 2784SOL    MW411457   0.161   6.069   0.702
 2785SOL     OW11458   1.700   7.420   0.227
 2785SOL    HW211459   1.767   7.453   0.167
 2785SOL    HW311460   1.657   7.499   0.261
 2785SOL    MW411461   1.702   7.435   0.223
 2786SOL     OW11462   0.835   6.341   1.179
 2786SOL    HW211463   0.793   6.259   1.155
 2786SOL    HW311464   0.836   6.340   1.275
 2786SOL    MW411465   0.828   6.330   1.188
 2787SOL     OW11466   1.506   7.474   1.578
 2787SOL    HW211467   1.509   7.380   1.561
 2787SOL    HW311468   1.529   7.482   1.670
 2787SOL    MW411469   1.509   7.462   1.588
 2788SOL     OW11470   0.639   5.811   1.284
 2788SOL    HW211471   0.570   5.874   1.305
 2788SOL    HW311472   0.666   5.775   1.369
 2788SOL    MW411473   0.633   5.814   1.297
 2789SOL     OW11474   0.022   6.652   0.153
 2789SOL    HW211475  -0.009   6.717   0.216
 2789SOL    HW311476  -0.029   6.574   0.172
 2789SOL    MW411477   0.012   6.649   0.163
 2790SOL     OW11478   1.434   5.664   0.901
 2790SOL    HW211479   1.522   5.673   0.938
 2790SOL    HW311480   1.444   5.605   0.827
 2790SOL    MW411481   1.448   5.658   0.895
 2791SOL     OW11482   1.466   6.403   0.745
 2791SOL    HW211483   1.546   6.418   0.694
 2791SOL    HW311484   1.459   6.308   0.751
 2791SOL    MW411485   1.475   6.392   0.740
 2792SOL     OW11486   0.606   7.452   0.095
 2792SOL    HW211487   0.511   7.452   0.087
 2792SOL    HW311488   0.622   7.398   0.173
 2792SOL    MW411489   0.596   7.446   0.104
 2793SOL     OW11490   0.334   6.629   1.690
 2793SOL    HW211491   0.288   6.545   1.692
 2793SOL    HW311492   0.391   6.623   1.614
 2793SOL    MW411493   0.336   6.617   1.682
 2794SOL     OW11494   1.451   6.272   0.011
 2794SOL    HW211495   1.379   6.248  -0.047
 2794SOL    HW311496   1.517   6.309  -0.047
 2794SOL    MW411497   1.450   6.274  -0.004
 2795SOL     OW11498   0.585   7.004   0.691
 2795SOL    HW211499   0.650   6.937   0.712
 2795SOL    HW311500   0.637   7.081   0.668
 2795SOL    MW411501   0.600   7.006   0.690
 2796SOL     OW11502   0.846   6.169   0.821
 2796SOL    HW211503   0.786   6.187   0.893
 2796SOL    HW311504   0.880   6.081   0.840
 2796SOL    MW411505   0.842   6.159   0.834
 2797SOL     OW11506   1.787   5.668   1.490
 2797SOL    HW211507   1.708   5.714   1.518
 2797SOL    HW311508   1.822   5.722   1.419
 2797SOL    MW411509   1.781   5.681   1.484
 2798SOL     OW11510   1.071   6.752   0.840
 2798SOL    HW211511   1.163   6.733   0.858
 2798SOL    HW311512   1.044   6.682   0.780
 2798SOL    MW411513   1.079   6.740   0.834
 2799SOL     OW11514   0.864   6.572   0.195
 2799SOL    HW211515   0.850   6.484   0.160
 2799SOL    HW311516   0.815   6.629   0.136
 2799SOL    MW411517   0.856   6.567   0.183
 2800SOL     OW11518   1.345   6.990   0.936
 2800SOL    HW211519   1.318   7.074   0.901
 2800SOL    HW311520   1.305   6.985   1.023
 2800SOL    MW411521   1.338   6.999   0.942
 2801SOL     OW11522   1.264   6.938   1.204
 2801SOL    HW211523   1.275   6.905   1.293
 2801SOL    HW311524   1.183   6.897   1.173
 2801SOL    MW411525   1.254   6.930   1.210
 2802SOL     OW11526   0.277   6.296   0.974
 2802SOL    HW211527   0.227   6.295   1.055
 2802SOL    HW311528   0.297   6.388   0.958
 2802SOL    MW411529   0.273   6.308   0.982
 2803SOL     OW11530   1.344   7.060   1.736
 2803SOL    HW211531   1.344   7.154   1.752
 2803SOL    HW311532   1.389   7.050   1.652
 2803SOL    MW411533   1.350   7.070   1.727
 2804SOL     OW11534   1.583   5.778   0.297
 2804SOL    HW211535   1.576   5.782   0.392
 2804SOL    HW311536   1.595   5.869   0.270
 2804SOL    MW411537   1.584   5.791   0.305
 2805SOL     OW11538   0.872   6.341   0.411
 2805SOL    HW211539   0.852   6.327   0.318
 2805SOL    HW311540   0.965   6.320   0.418
 2805SOL    MW411541   0.882   6.336   0.400
 2806SOL     OW11542   0.199   5.964   1.715
 2806SOL    HW211543   0.156   6.023   1.652
 2806SOL    HW311544   0.267   6.019   1.755
 2806SOL    MW411545   0.203   5.979   1.712
 2807SOL     OW11546   1.311   6.584   1.260
 2807SOL    HW211547   1.374   6.581   1.333
 2807SOL    HW311548   1.227   6.602   1.302
 2807SOL    MW411549   1.307   6.586   1.275
 2808SOL     OW11550   0.855   7.299   0.449
 2808SOL    HW211551   0.913   7.370   0.476
 2808SOL    HW311552   0.878   7.227   0.507
 2808SOL    MW411553   0.866   7.299   0.460
 2809SOL     OW11554   1.650   5.761   1.039
 2809SOL    HW211555   1.695   5.679   1.058
 2809SOL    HW311556   1.670   5.817   1.115
 2809SOL    MW411557   1.660   5.757   1.051
 2810SOL     OW11558   0.098   5.604   1.138
 2810SOL    HW211559   0.089   5.605   1.043
 2810SOL    HW311560   0.192   5.616   1.153
 2810SOL    MW411561   0.110   5.607   1.129
 2811SOL     OW11562   1.735   6.797   0.758
 2811SOL    HW211563   1.714   6.743   0.681
 2811SOL    HW311564   1.831   6.795   0.762
 2811SOL    MW411565   1.744   6.790   0.747
 2812SOL     OW11566   0.427   6.942   1.501
 2812SOL    HW211567   0.348   6.892   1.524
 2812SOL    HW311568   0.497   6.901   1.551
 2812SOL    MW411569   0.425   6.930   1.511
 2813SOL     OW11570   0.311   5.731   0.184
 2813SOL    HW211571   0.240   5.786   0.152
 2813SOL    HW311572   0.353   5.697   0.105
 2813SOL    MW411573   0.307   5.733   0.170
 2814SOL     OW11574   1.435   6.228   1.020
 2814SOL    HW211575   1.358   6.274   0.986
 2814SOL    HW311576   1.492   6.297   1.054
 2814SOL    MW411577   1.432   6.243   1.020
 2815SOL     OW11578   0.067   5.830   0.033
 2815SOL    HW211579   0.034   5.909   0.077
 2815SOL    HW311580   0.122   5.863  -0.038
 2815SOL    MW411581   0.070   5.844   0.030
 2816SOL     OW11582   0.101   7.087   0.222
 2816SOL    HW211583   0.118   7.171   0.264
 2816SOL    HW311584   0.136   7.096   0.134
 2816SOL    MW411585   0.106   7.100   0.216
 2817SOL     OW11586   1.373   7.176   0.439
 2817SOL    HW211587   1.436   7.166   0.368
 2817SOL    HW311588   1.290   7.196   0.394
 2817SOL    MW411589   1.370   7.177   0.424
 2818SOL     OW11590   1.736   6.444   2.125
 2818SOL    HW211591   1.777   6.386   2.190
 2818SOL    HW311592   1.643   6.436   2.142
 2818SOL    MW411593   1.730   6.436   2.135
 2819SOL     OW11594   1.602   6.376   3.120
 2819SOL    HW211595   1.557   6.443   3.171
 2819SOL    HW311596   1.690   6.412   3.106
 2819SOL    MW411597   1.608   6.389   3.124
 2820SOL     OW11598   0.530   6.627   2.354
 2820SOL    HW211599   0.620   6.602   2.338
 2820SOL    HW311600   0.526   6.720   2.331
 2820SOL    MW411601   0.542   6.636   2.349
 2821SOL     OW11602   1.646   7.330   2.496
 2821SOL    HW211603   1.658   7.276   2.574
 2821SOL    HW311604   1.683   7.278   2.425
 2821SOL    MW411605   1.652   7.315   2.497
 2822SOL     OW11606   1.025   7.215   3.497
 2822SOL    HW211607   1.066   7.251   3.418
 2822SOL    HW311608   1.060   7.126   3.504
 2822SOL    MW411609   1.036   7.208   3.488
 2823SOL     OW11610   1.582   6.770   3.101
 2823SOL    HW211611   1.503   6.735   3.059
 2823SOL    HW311612   1.609   6.842   3.045
 2823SOL    MW411613   1.575   6.775   3.088
 2824SOL     OW11614   0.814   6.083   2.367
 2824SOL    HW211615   0.789   6.171   2.395
 2824SOL    HW311616   0.811   6.086   2.271
 2824SOL    MW411617   0.810   6.095   2.359
 2825SOL     OW11618   0.256   6.111   2.295
 2825SOL    HW211619   0.288   6.199   2.277
 2825SOL    HW311620   0.244   6.109   2.390
 2825SOL    MW411621   0.259   6.123   2.307
 2826SOL     OW11622   0.334   6.524   3.196
 2826SOL    HW211623   0.397   6.471   3.147
 2826SOL    HW311624   0.315   6.598   3.139
 2826SOL    MW411625   0.340   6.526   3.183
 2827SOL     OW11626   0.655   5.866   2.382
 2827SOL    HW211627   0.713   5.942   2.384
 2827SOL    HW311628   0.590   5.887   2.315
 2827SOL    MW411629   0.654   5.878   2.373
 2828SOL     OW11630   0.742   6.793   2.557
 2828SOL    HW211631   0.822   6.796   2.609
 2828SOL    HW311632   0.770   6.760   2.471
 2828SOL    MW411633   0.756   6.789   2.552
 2829SOL     OW11634   0.767   7.134   3.460
 2829SOL    HW211635   0.851   7.160   3.499
 2829SOL    HW311636   0.791   7.078   3.386
 2829SOL    MW411637   0.781   7.130   3.455
 2830SOL     OW11638   0.519   6.297   2.548
 2830SOL    HW211639   0.504   6.217   2.599
 2830SOL    HW311640   0.601   6.332   2.582
 2830SOL    MW411641   0.527   6.289   2.560
 2831SOL     OW11642   0.856   6.983   3.233
 2831SOL    HW211643   0.820   7.049   3.173
 2831SOL    HW311644   0.784   6.921   3.246
 2831SOL    MW411645   0.842   6.983   3.227
 2832SOL     OW11646   0.661   6.123   2.925
 2832SOL    HW211647   0.567   6.119   2.943
 2832SOL    HW311648   0.691   6.032   2.934
 2832SOL    MW411649   0.652   6.111   2.928
 2833SOL     OW11650   0.407   6.537   2.829
 2833SOL    HW211651   0.362   6.544   2.745
 2833SOL    HW311652   0.387   6.620   2.873
 2833SOL    MW411653   0.399   6.549   2.823
 2834SOL     OW11654   0.104   7.383   2.704
 2834SOL    HW211655   0.193   7.375   2.739
 2834SOL    HW311656   0.068   7.295   2.709
 2834SOL    MW411657   0.111   7.370   2.709
 2835SOL     OW11658   1.369   6.775   2.073
 2835SOL    HW211659   1.287   6.811   2.039
 2835SOL    HW311660   1.437   6.818   2.022
 2835SOL    MW411661   1.367   6.785   2.061
 2836SOL     OW11662   0.368   6.910   2.739
 2836SOL    HW211663   0.344   6.963   2.815
 2836SOL    HW311664   0.424   6.968   2.687
 2836SOL    MW411665   0.372   6.925   2.742
 2837SOL     OW11666   0.930   6.554   2.549
 2837SOL    HW211667   0.844   6.541   2.589
 2837SOL    HW311668   0.983   6.481   2.581
 2837SOL    MW411669   0.926   6.543   2.558
 2838SOL     OW11670   0.338   7.206   3.334
 2838SOL    HW211671   0.246   7.182   3.319
 2838SOL    HW311672   0.382   7.123   3.351
 2838SOL    MW411673   0.332   7.191   3.333
 2839SOL     OW11674   0.921   6.916   2.266
 2839SOL    HW211675   0.898   6.978   2.334
 2839SOL    HW311676   0.878   6.834   2.292
 2839SOL    MW411677   0.913   6.912   2.277
 2840SOL     OW11678   1.794   5.917   2.722
 2840SOL    HW211679   1.731   5.897   2.791
 2840SOL    HW311680   1.784   5.846   2.659
 2840SOL    MW411681   1.784   5.904   2.723
 2841SOL     OW11682   0.418   5.889   2.234
 2841SOL    HW211683   0.392   5.851   2.150
 2841SOL    HW311684   0.355   5.959   2.250
 2841SOL    MW411685   0.407   5.892   2.225
 2842SOL     OW11686   0.253   6.850   2.271
 2842SOL    HW211687   0.201   6.918   2.227
 2842SOL    HW311688   0.250   6.776   2.211
 2842SOL    MW411689   0.245   6.849   2.258
 2843SOL     OW11690   0.915   7.313   2.049
 2843SOL    HW211691   0.870   7.329   2.132
 2843SOL    HW311692   0.846   7.278   1.991
 2843SOL    MW411693   0.901   7.310   2.051
 2844SOL     OW11694   1.850   6.086   2.024
 2844SOL    HW211695   1.759   6.088   2.052
 2844SOL    HW311696   1.895   6.148   2.082
 2844SOL    MW411697   1.843   6.094   2.034
 2845SOL     OW11698   1.595   6.689   2.374
 2845SOL    HW211699   1.505   6.689   2.409
 2845SOL    HW311700   1.588   6.735   2.291
 2845SOL    MW411701   1.582   6.695   2.368
 2846SOL     OW11702   1.395   6.324   3.446
 2846SOL    HW211703   1.464   6.262   3.423
 2846SOL    HW311704   1.320   6.298   3.393
 2846SOL    MW411705   1.395   6.311   3.437
 2847SOL     OW11706   0.136   7.204   2.998
 2847SOL    HW211707   0.119   7.150   3.075
 2847SOL    HW311708   0.124   7.294   3.028
 2847SOL    MW411709   0.133   7.208   3.012
 2848SOL     OW11710   1.131   6.711   3.438
 2848SOL    HW211711   1.116   6.804   3.423
 2848SOL    HW311712   1.226   6.701   3.438
 2848SOL    MW411713   1.140   6.721   3.435
 2849SOL     OW11714   0.927   6.135   3.639
 2849SOL    HW211715   1.017   6.136   3.606
 2849SOL    HW311716   0.886   6.060   3.597
 2849SOL    MW411717   0.933   6.125   3.630
 2850SOL     OW11718   1.502   6.667   2.766
 2850SOL    HW211719   1.505   6.601   2.697
 2850SOL    HW311720   1.587   6.710   2.762
 2850SOL    MW411721   1.514   6.663   2.757
 2851SOL     OW11722   1.122   6.270   2.335
 2851SOL    HW211723   1.148   6.294   2.246
 2851SOL    HW311724   1.104   6.177   2.331
 2851SOL    MW411725   1.124   6.262   2.322
 2852SOL     OW11726   1.787   6.890   2.186
 2852SOL    HW211727   1.743   6.931   2.261
 2852SOL    HW311728   1.844   6.958   2.151
 2852SOL    MW411729   1.789   6.904   2.191
 2853SOL     OW11730   0.707   5.939   3.589
 2853SOL    HW211731   0.717   5.865   3.529
 2853SOL    HW311732   0.743   5.908   3.672
 2853SOL    MW411733   0.713   5.925   3.591
 2854SOL     OW11734   0.443   7.306   2.504
 2854SOL    HW211735   0.475   7.394   2.482
 2854SOL    HW311736   0.396   7.278   2.426
 2854SOL    MW411737   0.442   7.314   2.491
 2855SOL     OW11738   1.827   5.668   2.553
 2855SOL    HW211739   1.881   5.619   2.615
 2855SOL    HW311740   1.770   5.602   2.514
 2855SOL    MW411741   1.827   5.652   2.555
 2856SOL     OW11742   0.159   7.366   2.081
 2856SOL    HW211743   0.188   7.456   2.073
 2856SOL    HW311744   0.109   7.349   2.002
 2856SOL    MW411745   0.157   7.374   2.070
 2857SOL     OW11746   0.946   5.621   2.966
 2857SOL    HW211747   0.905   5.699   2.928
 2857SOL    HW311748   1.040   5.639   2.961
 2857SOL    MW411749   0.952   5.633   2.961
 2858SOL     OW11750   1.563   7.174   2.052
 2858SOL    HW211751   1.611   7.243   2.098
 2858SOL    HW311752   1.484   7.218   2.021
 2858SOL    MW411753   1.558   7.188   2.055
 2859SOL     OW11754   0.961   6.299   1.996
 2859SOL    HW211755   0.963   6.246   1.917
 2859SOL    HW311756   1.049   6.336   2.002
 2859SOL    MW411757   0.973   6.298   1.985
 2860SOL     OW11758   1.575   6.225   2.332
 2860SOL    HW211759   1.614   6.225   2.419
 2860SOL    HW311760   1.516   6.301   2.332
 2860SOL    MW411761   1.572   6.236   2.343
 2861SOL     OW11762   0.892   6.592   3.461
 2861SOL    HW211763   0.869   6.572   3.551
 2861SOL    HW311764   0.977   6.636   3.466
 2861SOL    MW411765   0.899   6.595   3.473
 2862SOL     OW11766   0.972   5.729   3.221
 2862SOL    HW211767   0.978   5.691   3.134
 2862SOL    HW311768   0.961   5.823   3.206
 2862SOL    MW411769   0.973   5.737   3.209
 2863SOL     OW11770   1.061   6.218   3.055
 2863SOL    HW211771   1.136   6.247   3.002
 2863SOL    HW311772   0.993   6.283   3.039
 2863SOL    MW411773   1.062   6.230   3.045
 2864SOL     OW11774   1.611   6.186   3.332
 2864SOL    HW211775   1.592   6.095   3.311
 2864SOL    HW311776   1.589   6.235   3.253
 2864SOL    MW411777   1.606   6.179   3.319
 2865SOL     OW11778   1.753   7.280   3.236
 2865SOL    HW211779   1.681   7.242   3.287
 2865SOL    HW311780   1.770   7.365   3.277
 2865SOL    MW411781   1.747   7.285   3.248
 2866SOL     OW11782   1.058   5.924   3.438
 2866SOL    HW211783   1.024   5.963   3.357
 2866SOL    HW311784   1.036   5.832   3.431
 2866SOL    MW411785   1.051   5.917   3.428
 2867SOL     OW11786   1.467   6.738   3.514
 2867SOL    HW211787   1.549   6.779   3.544
 2867SOL    HW311788   1.430   6.700   3.594
 2867SOL    MW411789   1.473   6.739   3.529
 2868SOL     OW11790   1.762   6.111   2.498
 2868SOL    HW211791   1.851   6.080   2.515
 2868SOL    HW311792   1.705   6.051   2.546
 2868SOL    MW411793   1.765   6.099   2.507
 2869SOL     OW11794   0.188   5.825   2.527
 2869SOL    HW211795   0.179   5.765   2.453
 2869SOL    HW311796   0.121   5.796   2.590
 2869SOL    MW411797   0.178   5.812   2.525
 2870SOL     OW11798   1.131   6.918   2.088
 2870SOL    HW211799   1.081   6.920   2.170
 2870SOL    HW311800   1.065   6.936   2.020
 2870SOL    MW411801   1.117   6.920   2.090
 2871SOL     OW11802   0.135   5.998   2.890
 2871SOL    HW211803   0.107   6.089   2.899
 2871SOL    HW311804   0.072   5.959   2.829
 2871SOL    MW411805   0.122   6.004   2.884
 2872SOL     OW11806   0.594   7.336   2.196
 2872SOL    HW211807   0.515   7.294   2.229
 2872SOL    HW311808   0.660   7.319   2.263
 2872SOL    MW411809   0.593   7.328   2.209
 2873SOL     OW11810   1.722   6.856   3.593
 2873SOL    HW211811   1.772   6.782   3.625
 2873SOL    HW311812   1.668   6.883   3.668
 2873SOL    MW411813   1.722   6.850   3.606
 2874SOL     OW11814   0.730   6.751   1.903
 2874SOL    HW211815   0.652   6.697   1.890
 2874SOL    HW311816   0.701   6.824   1.956
 2874SOL    MW411817   0.716   6.753   1.908
 2875SOL     OW11818   1.856   6.491   3.095
 2875SOL    HW211819   1.872   6.529   3.008
 2875SOL    HW311820   1.890   6.557   3.156
 2875SOL    MW411821   1.863   6.504   3.091
 2876SOL     OW11822   1.648   7.200   2.764
 2876SOL    HW211823   1.677   7.267   2.825
 2876SOL    HW311824   1.629   7.124   2.819
 2876SOL    MW411825   1.650   7.200   2.779
 2877SOL     OW11826   1.311   7.267   1.971
 2877SOL    HW211827   1.237   7.230   2.021
 2877SOL    HW311828   1.319   7.357   2.004
 2877SOL    MW411829   1.302   7.274   1.983
 2878SOL     OW11830   0.119   6.273   3.060
 2878SOL    HW211831   0.181   6.303   3.126
 2878SOL    HW311832   0.053   6.342   3.054
 2878SOL    MW411833   0.118   6.286   3.067
 2879SOL     OW11834   1.535   6.941   1.913
 2879SOL    HW211835   1.482   6.990   1.849
 2879SOL    HW311836   1.566   7.007   1.974
 2879SOL    MW411837   1.533   6.955   1.911
 2880SOL     OW11838   0.760   5.830   1.968
 2880SOL    HW211839   0.708   5.750   1.956
 2880SOL    HW311840   0.847   5.807   1.936
 2880SOL    MW411841   0.763   5.816   1.962
 2881SOL     OW11842   0.214   7.382   3.512
 2881SOL    HW211843   0.188   7.450   3.450
 2881SOL    HW311844   0.262   7.319   3.460
 2881SOL    MW411845   0.216   7.382   3.498
 2882SOL     OW11846   0.266   6.701   3.019
 2882SOL    HW211847   0.319   6.776   3.044
 2882SOL    HW311848   0.185   6.739   2.985
 2882SOL    MW411849   0.262   6.716   3.019
 2883SOL     OW11850   0.806   6.605   3.007
 2883SOL    HW211851   0.834   6.514   3.019
 2883SOL    HW311852   0.735   6.599   2.943
 2883SOL    MW411853   0.799   6.593   3.002
 2884SOL     OW11854   0.121   6.470   2.425
 2884SOL    HW211855   0.212   6.485   2.452
 2884SOL    HW311856   0.124   6.391   2.371
 2884SOL    MW411857   0.133   6.462   2.423
 2885SOL     OW11858   0.357   6.178   3.679
 2885SOL    HW211859   0.304   6.258   3.686
 2885SOL    HW311860   0.427   6.190   3.744
 2885SOL    MW411861   0.359   6.191   3.687
 2886SOL     OW11862   0.743   5.728   3.386
 2886SOL    HW211863   0.720   5.636   3.388
 2886SOL    HW311864   0.829   5.730   3.343
 2886SOL    MW411865   0.750   5.718   3.382
 2887SOL     OW11866   0.427   6.252   3.425
 2887SOL    HW211867   0.507   6.302   3.411
 2887SOL    HW311868   0.418   6.246   3.520
 2887SOL    MW411869   0.436   6.258   3.435
 2888SOL     OW11870   0.748   7.402   2.799
 2888SOL    HW211871   0.837   7.417   2.829
 2888SOL    HW311872   0.743   7.449   2.715
 2888SOL    MW411873   0.758   7.410   2.792
 2889SOL     OW11874   1.404   5.777   3.696
 2889SOL    HW211875   1.460   5.704   3.722
 2889SOL    HW311876   1.374   5.815   3.778
 2889SOL    MW411877   1.408   5.772   3.709
 2890SOL     OW11878   0.129   7.082   2.464
 2890SOL    HW211879   0.101   7.121   2.546
 2890SOL    HW311880   0.149   6.991   2.486
 2890SOL    MW411881   0.127   7.074   2.477
 2891SOL     OW11882   0.962   7.125   2.499
 2891SOL    HW211883   1.045   7.079   2.483
 2891SOL    HW311884   0.952   7.124   2.595
 2891SOL    MW411885   0.972   7.118   2.509
 2892SOL     OW11886   1.794   6.270   2.813
 2892SOL    HW211887   1.883   6.300   2.795
 2892SOL    HW311888   1.774   6.210   2.742
 2892SOL    MW411889   1.803   6.267   2.802
 2893SOL     OW11890   1.645   6.449   3.693
 2893SOL    HW211891   1.700   6.373   3.674
 2893SOL    HW311892   1.647   6.457   3.788
 2893SOL    MW411893   1.653   6.440   3.701
 2894SOL     OW11894   0.695   7.182   1.904
 2894SOL    HW211895   0.635   7.251   1.874
 2894SOL    HW311896   0.640   7.124   1.957
 2894SOL    MW411897   0.679   7.184   1.906
 2895SOL     OW11898   1.133   5.827   2.127
 2895SOL    HW211899   1.066   5.803   2.064
 2895SOL    HW311900   1.198   5.876   2.076
 2895SOL    MW411901   1.133   5.829   2.112
 2896SOL     OW11902   0.940   6.011   3.212
 2896SOL    HW211903   0.859   6.052   3.240
 2896SOL    HW311904   0.987   6.079   3.164
 2896SOL    MW411905   0.935   6.026   3.210
 2897SOL     OW11906   1.200   6.349   2.835
 2897SOL    HW211907   1.213   6.443   2.845
 2897SOL    HW311908   1.161   6.339   2.749
 2897SOL    MW411909   1.196   6.360   2.825
 2898SOL     OW11910   0.652   6.544   2.639
 2898SOL    HW211911   0.563   6.535   2.672
 2898SOL    HW311912   0.656   6.634   2.607
 2898SOL    MW411913   0.641   6.555   2.639
 2899SOL     OW11914   1.451   6.127   2.634
 2899SOL    HW211915   1.396   6.048   2.633
 2899SOL    HW311916   1.433   6.168   2.718
 2899SOL    MW411917   1.441   6.122   2.643
 2900SOL     OW11918   0.422   5.814   3.451
 2900SOL    HW211919   0.343   5.832   3.503
 2900SOL    HW311920   0.417   5.876   3.378
 2900SOL    MW411921   0.412   5.824   3.448
 2901SOL     OW11922   1.070   6.331   2.591
 2901SOL    HW211923   1.007   6.263   2.615
 2901SOL    HW311924   1.090   6.312   2.499
 2901SOL    MW411925   1.064   6.318   2.583
 2902SOL     OW11926   0.326   7.226   2.293
 2902SOL    HW211927   0.287   7.273   2.219
 2902SOL    HW311928   0.260   7.161   2.318
 2902SOL    MW411929   0.313   7.224   2.287
 2903SOL     OW11930   0.818   6.635   2.317
 2903SOL    HW211931   0.820   6.609   2.224
 2903SOL    HW311932   0.876   6.572   2.360
 2903SOL    MW411933   0.826   6.624   2.311
 2904SOL     OW11934   1.371   7.195   3.089
 2904SOL    HW211935   1.296   7.241   3.127
 2904SOL    HW311936   1.353   7.102   3.106
 2904SOL    MW411937   1.360   7.189   3.097
 2905SOL     OW11938   1.375   7.403   2.519
 2905SOL    HW211939   1.318   7.356   2.458
 2905SOL    HW311940   1.461   7.364   2.506
 2905SOL    MW411941   1.378   7.394   2.509
 2906SOL     OW11942   1.328   5.879   2.650
 2906SOL    HW211943   1.356   5.811   2.711
 2906SOL    HW311944   1.242   5.850   2.620
 2906SOL    MW411945   1.321   5.866   2.654
 2907SOL     OW11946   0.133   6.813   2.584
 2907SOL    HW211947   0.197   6.845   2.647
 2907SOL    HW311948   0.182   6.749   2.532
 2907SOL    MW411949   0.148   6.809   2.585
 2908SOL     OW11950   0.633   6.889   3.566
 2908SOL    HW211951   0.681   6.972   3.553
 2908SOL    HW311952   0.690   6.837   3.622
 2908SOL    MW411953   0.647   6.893   3.572
 2909SOL     OW11954   0.209   7.131   3.706
 2909SOL    HW211955   0.265   7.055   3.721
 2909SOL    HW311956   0.158   7.109   3.628
 2909SOL    MW411957   0.209   7.118   3.697
 2910SOL     OW11958   1.308   5.983   1.985
 2910SOL    HW211959   1.281   6.049   1.921
 2910SOL    HW311960   1.378   6.026   2.035
 2910SOL    MW411961   1.313   5.996   1.982
 2911SOL     OW11962   0.976   5.688   1.922
 2911SOL    HW211963   1.032   5.680   1.844
 2911SOL    HW311964   0.953   5.598   1.944
 2911SOL    MW411965   0.981   5.675   1.915
 2912SOL     OW11966   1.481   6.539   2.127
 2912SOL    HW211967   1.448   6.628   2.117
 2912SOL    HW311968   1.446   6.510   2.212
 2912SOL    MW411969   1.471   6.548   2.138
 2913SOL     OW11970   1.094   6.968   3.315
 2913SOL    HW211971   1.005   6.974   3.283
 2913SOL    HW311972   1.138   7.047   3.283
 2913SOL    MW411973   1.089   6.978   3.307
 2914SOL     OW11974   0.387   5.636   3.657
 2914SOL    HW211975   0.315   5.601   3.605
 2914SOL    HW311976   0.445   5.677   3.592
 2914SOL    MW411977   0.385   5.637   3.642
 2915SOL     OW11978   0.411   7.126   2.956
 2915SOL    HW211979   0.456   7.188   3.013
 2915SOL    HW311980   0.318   7.145   2.969
 2915SOL    MW411981   0.404   7.136   2.963
 2916SOL     OW11982   1.851   6.655   3.310
 2916SOL    HW211983   1.766   6.668   3.269
 2916SOL    HW311984   1.831   6.619   3.397
 2916SOL    MW411985   1.838   6.651   3.315
 2917SOL     OW11986   0.833   7.194   3.064
 2917SOL    HW211987   0.857   7.183   2.973
 2917SOL    HW311988   0.756   7.251   3.062
 2917SOL    MW411989   0.825   7.199   3.053
 2918SOL     OW11990   0.475   6.577   1.919
 2918SOL    HW211991   0.398   6.590   1.975
 2918SOL    HW311992   0.439   6.541   1.838
 2918SOL    MW411993   0.461   6.573   1.916
 2919SOL     OW11994   1.128   6.550   2.162
 2919SOL    HW211995   1.038   6.571   2.137
 2919SOL    HW311996   1.155   6.623   2.218
 2919SOL    MW411997   1.120   6.562   2.165
 2920SOL     OW11998   0.628   6.899   2.854
 2920SOL    HW211999   0.621   6.878   2.948
 2920SOL    HW312000   0.546   6.867   2.817
 2920SOL    MW412001   0.616   6.893   2.861
 2921SOL     OW12002   1.492   5.909   3.256
 2921SOL    HW212003   1.439   5.911   3.336
 2921SOL    HW312004   1.477   5.822   3.219
 2921SOL    MW412005   1.484   5.899   3.261
 2922SOL     OW12006   1.828   5.833   3.129
 2922SOL    HW212007   1.809   5.900   3.064
 2922SOL    HW312008   1.885   5.771   3.084
 2922SOL    MW412009   1.832   5.834   3.115
 2923SOL     OW12010   0.074   6.991   3.517
 2923SOL    HW212011   0.118   6.924   3.463
 2923SOL    HW312012  -0.011   6.953   3.537
 2923SOL    MW412013   0.069   6.977   3.513
 2924SOL     OW12014   0.757   5.666   2.569
 2924SOL    HW212015   0.686   5.727   2.551
 2924SOL    HW312016   0.808   5.663   2.488
 2924SOL    MW412017   0.753   5.672   2.556
 2925SOL     OW12018   0.515   6.906   2.318
 2925SOL    HW212019   0.508   6.938   2.408
 2925SOL    HW312020   0.425   6.890   2.290
 2925SOL    MW412021   0.503   6.908   2.325
 2926SOL     OW12022   1.110   7.299   3.227
 2926SOL    HW212023   1.030   7.284   3.177
 2926SOL    HW312024   1.117   7.394   3.234
 2926SOL    MW412025   1.101   7.310   3.221
 2927SOL     OW12026   1.224   7.264   2.717
 2927SOL    HW212027   1.271   7.337   2.676
 2927SOL    HW312028   1.145   7.303   2.753
 2927SOL    MW412029   1.219   7.279   2.716
 2928SOL     OW12030   1.632   7.359   2.992
 2928SOL    HW212031   1.675   7.329   3.072
 2928SOL    HW312032   1.551   7.307   2.989
 2928SOL    MW412033   1.627   7.348   3.002
 2929SOL     OW12034   0.717   6.323   3.699
 2929SOL    HW212035   0.787   6.265   3.671
 2929SOL    HW312036   0.660   6.268   3.754
 2929SOL    MW412037   0.719   6.310   3.703
 2930SOL     OW12038   1.504   6.535   3.332
 2930SOL    HW212039   1.509   6.588   3.412
 2930SOL    HW312040   1.466   6.452   3.360
 2930SOL    MW412041   1.500   6.530   3.347
 2931SOL     OW12042   1.144   5.670   3.578
 2931SOL    HW212043   1.139   5.577   3.559
 2931SOL    HW312044   1.227   5.681   3.624
 2931SOL    MW412045   1.152   5.659   3.582
 2932SOL     OW12046   0.518   6.190   2.032
 2932SOL    HW212047   0.484   6.246   2.102
 2932SOL    HW312048   0.589   6.140   2.072
 2932SOL    MW412049   0.524   6.191   2.046
 2933SOL     OW12050   1.614   6.941   2.854
 2933SOL    HW212051   1.649   6.923   2.767
 2933SOL    HW312052   1.519   6.942   2.841
 2933SOL    MW412053   1.606   6.938   2.841
 2934SOL     OW12054   1.043   6.589   3.223
 2934SOL    HW212055   1.086   6.624   3.301
 2934SOL    HW312056   1.026   6.666   3.169
 2934SOL    MW412057   1.046   6.604   3.226
 2935SOL     OW12058   1.574   6.076   2.096
 2935SOL    HW212059   1.566   6.147   2.033
 2935SOL    HW312060   1.592   6.120   2.179
 2935SOL    MW412061   1.575   6.090   2.098
 2936SOL     OW12062   0.434   5.731   2.525
 2936SOL    HW212063   0.484   5.774   2.456
 2936SOL    HW312064   0.349   5.775   2.525
 2936SOL    MW412065   0.431   5.744   2.516
 2937SOL     OW12066   0.193   6.793   3.385
 2937SOL    HW212067   0.221   6.746   3.463
 2937SOL    HW312068   0.114   6.748   3.356
 2937SOL    MW412069   0.186   6.782   3.391
 2938SOL     OW12070   0.701   6.120   3.352
 2938SOL    HW212071   0.673   6.208   3.376
 2938SOL    HW312072   0.670   6.064   3.423
 2938SOL    MW412073   0.693   6.123   3.364
 2939SOL     OW12074   1.243   6.338   2.071
 2939SOL    HW212075   1.290   6.356   1.990
 2939SOL    HW312076   1.209   6.422   2.099
 2939SOL    MW412077   1.245   6.352   2.064
 2940SOL     OW12078   0.356   6.516   2.565
 2940SOL    HW212079   0.414   6.572   2.513
 2940SOL    HW312080   0.400   6.431   2.567
 2940SOL    MW412081   0.369   6.513   2.558
 2941SOL     OW12082   1.496   5.868   2.402
 2941SOL    HW212083   1.418   5.818   2.427
 2941SOL    HW312084   1.467   5.959   2.402
 2941SOL    MW412085   1.482   5.872   2.405
 2942SOL     OW12086   1.082   5.830   2.561
 2942SOL    HW212087   1.102   5.905   2.505
 2942SOL    HW312088   1.062   5.869   2.646
 2942SOL    MW412089   1.083   5.846   2.565
 2943SOL     OW12090   0.978   7.080   1.893
 2943SOL    HW212091   1.005   7.158   1.845
 2943SOL    HW312092   0.885   7.095   1.912
 2943SOL    MW412093   0.969   7.093   1.889
 2944SOL     OW12094   1.842   6.603   3.580
 2944SOL    HW212095   1.755   6.583   3.616
 2944SOL    HW312096   1.896   6.529   3.605
 2944SOL    MW412097   1.837   6.592   3.588
 2945SOL     OW12098   0.063   7.116   2.737
 2945SOL    HW212099   0.095   7.120   2.828
 2945SOL    HW312100  -0.032   7.124   2.745
 2945SOL    MW412101   0.055   7.119   2.750
 2946SOL     OW12102   0.018   6.242   2.284
 2946SOL    HW212103  -0.042   6.214   2.354
 2946SOL    HW312104   0.092   6.182   2.290
 2946SOL    MW412105   0.020   6.231   2.293
 2947SOL     OW12106   1.586   7.454   3.718
 2947SOL    HW212107   1.631   7.378   3.683
 2947SOL    HW312108   1.624   7.467   3.805
 2947SOL    MW412109   1.596   7.447   3.724
 2948SOL     OW12110   1.186   6.973   2.444
 2948SOL    HW212111   1.209   6.924   2.522
 2948SOL    HW312112   1.267   7.015   2.416
 2948SOL    MW412113   1.199   6.973   2.451
 2949SOL     OW12114   0.444   5.981   3.173
 2949SOL    HW212115   0.477   6.062   3.213
 2949SOL    HW312116   0.417   6.007   3.085
 2949SOL    MW412117   0.443   5.995   3.167
 2950SOL     OW12118   0.398   5.948   2.909
 2950SOL    HW212119   0.428   5.862   2.880
 2950SOL    HW312120   0.303   5.941   2.912
 2950SOL    MW412121   0.390   5.937   2.907
 2951SOL     OW12122   1.227   6.157   3.600
 2951SOL    HW212123   1.279   6.092   3.553
 2951SOL    HW312124   1.185   6.208   3.530
 2951SOL    MW412125   1.228   6.154   3.583
 2952SOL     OW12126   1.326   5.952   3.461
 2952SOL    HW212127   1.233   5.936   3.448
 2952SOL    HW312128   1.352   5.890   3.529
 2952SOL    MW412129   1.316   5.942   3.468
 2953SOL     OW12130   0.541   5.726   2.800
 2953SOL    HW212131   0.551   5.635   2.826
 2953SOL    HW312132   0.497   5.722   2.715
 2953SOL    MW412133   0.537   5.714   2.792
 2954SOL     OW12134   0.635   7.341   3.346
 2954SOL    HW212135   0.552   7.326   3.391
 2954SOL    HW312136   0.694   7.274   3.381
 2954SOL    MW412137   0.633   7.331   3.356
 2955SOL     OW12138   1.692   6.048   2.971
 2955SOL    HW212139   1.625   6.081   3.031
 2955SOL    HW312140   1.735   6.126   2.937
 2955SOL    MW412141   1.690   6.063   2.975
 2956SOL     OW12142   1.870   6.768   2.941
 2956SOL    HW212143   1.863   6.708   2.866
 2956SOL    HW312144   1.796   6.828   2.930
 2956SOL    MW412145   1.860   6.768   2.930
 2957SOL     OW12146   1.252   6.630   2.859
 2957SOL    HW212147   1.266   6.602   2.950
 2957SOL    HW312148   1.338   6.661   2.831
 2957SOL    MW412149   1.265   6.631   2.868
 2958SOL     OW12150   1.335   6.125   3.138
 2958SOL    HW212151   1.356   6.126   3.045
 2958SOL    HW312152   1.380   6.047   3.171
 2958SOL    MW412153   1.342   6.115   3.130
 2959SOL     OW12154   1.828   6.256   3.680
 2959SOL    HW212155   1.865   6.201   3.749
 2959SOL    HW312156   1.853   6.213   3.598
 2959SOL    MW412157   1.835   6.244   3.679
 2960SOL     OW12158   1.375   6.554   3.731
 2960SOL    HW212159   1.441   6.502   3.685
 2960SOL    HW312160   1.395   6.541   3.824
 2960SOL    MW412161   1.386   6.545   3.738
 2961SOL     OW12162   1.326   5.640   2.080
 2961SOL    HW212163   1.400   5.684   2.123
 2961SOL    HW312164   1.250   5.694   2.102
 2961SOL    MW412165   1.326   5.652   2.088
 2962SOL     OW12166   1.386   6.415   2.358
 2962SOL    HW212167   1.301   6.385   2.328
 2962SOL    HW312168   1.378   6.422   2.453
 2962SOL    MW412169   1.374   6.413   2.367
 2963SOL     OW12170   0.462   6.878   3.089
 2963SOL    HW212171   0.474   6.905   3.180
 2963SOL    HW312172   0.443   6.959   3.042
 2963SOL    MW412173   0.461   6.893   3.094
 2964SOL     OW12174   0.746   5.858   2.912
 2964SOL    HW212175   0.719   5.860   3.003
 2964SOL    HW312176   0.676   5.810   2.867
 2964SOL    MW412177   0.734   5.854   2.919
 2965SOL     OW12178   0.600   7.350   3.074
 2965SOL    HW212179   0.652   7.427   3.051
 2965SOL    HW312180   0.609   7.342   3.169
 2965SOL    MW412181   0.609   7.357   3.085
 2966SOL     OW12182   1.502   6.935   3.306
 2966SOL    HW212183   1.487   6.864   3.369
 2966SOL    HW312184   1.548   6.893   3.234
 2966SOL    MW412185   1.508   6.919   3.306
 2967SOL     OW12186   0.576   6.666   3.423
 2967SOL    HW212187   0.613   6.671   3.335
 2967SOL    HW312188   0.615   6.739   3.470
 2967SOL    MW412189   0.586   6.676   3.418
 2968SOL     OW12190   0.756   6.709   3.235
 2968SOL    HW212191   0.815   6.655   3.288
 2968SOL    HW312192   0.771   6.681   3.145
 2968SOL    MW412193   0.766   6.698   3.231
 2969SOL     OW12194   0.759   6.081   2.084
 2969SOL    HW212195   0.832   6.130   2.047
 2969SOL    HW312196   0.775   5.990   2.058
 2969SOL    MW412197   0.771   6.076   2.077
 2970SOL     OW12198   1.567   7.198   3.407
 2970SOL    HW212199   1.609   7.183   3.492
 2970SOL    HW312200   1.558   7.111   3.369
 2970SOL    MW412201   1.571   7.186   3.414
 2971SOL     OW12202   1.227   5.677   2.998
 2971SOL    HW212203   1.282   5.686   2.920
 2971SOL    HW312204   1.282   5.711   3.069
 2971SOL    MW412205   1.241   5.682   2.997
 2972SOL     OW12206   0.234   6.590   2.182
 2972SOL    HW212207   0.171   6.606   2.111
 2972SOL    HW312208   0.181   6.553   2.253
 2972SOL    MW412209   0.219   6.587   2.182
 2973SOL     OW12210   0.590   6.944   2.041
 2973SOL    HW212211   0.605   6.920   2.133
 2973SOL    HW312212   0.498   6.922   2.025
 2973SOL    MW412213   0.580   6.937   2.051
 2974SOL     OW12214   1.129   7.175   2.193
 2974SOL    HW212215   1.137   7.093   2.144
 2974SOL    HW312216   1.048   7.214   2.160
 2974SOL    MW412217   1.119   7.170   2.183
 2975SOL     OW12218   0.388   7.333   2.762
 2975SOL    HW212219   0.392   7.244   2.797
 2975SOL    HW312220   0.414   7.324   2.671
 2975SOL    MW412221   0.391   7.321   2.754
 2976SOL     OW12222   1.005   6.811   3.005
 2976SOL    HW212223   0.937   6.745   3.021
 2976SOL    HW312224   1.023   6.805   2.912
 2976SOL    MW412225   0.998   6.802   2.996
 2977SOL     OW12226   0.094   7.086   3.256
 2977SOL    HW212227   0.084   7.044   3.342
 2977SOL    HW312228   0.015   7.139   3.246
 2977SOL    MW412229   0.083   7.087   3.267
 2978SOL     OW12230   0.998   5.950   2.826
 2978SOL    HW212231   0.928   5.902   2.871
 2978SOL    HW312232   1.030   6.013   2.890
 2978SOL    MW412233   0.993   5.952   2.840
 2979SOL     OW12234   0.649   6.386   3.446
 2979SOL    HW212235   0.642   6.481   3.434
 2979SOL    HW312236   0.658   6.375   3.541
 2979SOL    MW412237   0.650   6.398   3.456
 2980SOL     OW12238   0.370   6.901   3.704
 2980SOL    HW212239   0.442   6.903   3.641
 2980SOL    HW312240   0.340   6.810   3.703
 2980SOL    MW412241   0.375   6.890   3.696
 2981SOL     OW12242   1.454   5.664   3.171
 2981SOL    HW212243   1.525   5.610   3.135
 2981SOL    HW312244   1.453   5.643   3.264
 2981SOL    MW412245   1.463   5.655   3.179
 2982SOL     OW12246   1.654   7.194   3.655
 2982SOL    HW212247   1.627   7.191   3.746
 2982SOL    HW312248   1.750   7.198   3.658
 2982SOL    MW412249   1.664   7.194   3.667
 2983SOL     OW12250   0.465   6.056   2.639
 2983SOL    HW212251   0.536   6.004   2.602
 2983SOL    HW312252   0.451   6.021   2.726
 2983SOL    MW412253   0.473   6.045   2.646
 2984SOL     OW12254   0.020   7.391   3.711
 2984SOL    HW212255   0.070   7.369   3.633
 2984SOL    HW312256   0.028   7.486   3.719
 2984SOL    MW412257   0.028   7.400   3.702
 2985SOL     OW12258   0.781   7.149   2.715
 2985SOL    HW212259   0.709   7.086   2.728
 2985SOL    HW312260   0.742   7.234   2.733
 2985SOL    MW412261   0.765   7.152   2.718
 2986SOL     OW12262   1.101   5.997   2.363
 2986SOL    HW212263   1.123   5.934   2.295
 2986SOL    HW312264   1.006   5.989   2.374
 2986SOL    MW412265   1.091   5.988   2.355
 2987SOL     OW12266   0.186   5.687   2.295
 2987SOL    HW212267   0.257   5.708   2.234
 2987SOL    HW312268   0.140   5.615   2.253
 2987SOL    MW412269   0.190   5.681   2.281
 2988SOL     OW12270   0.017   6.154   3.438
 2988SOL    HW212271   0.081   6.220   3.413
 2988SOL    HW312272  -0.064   6.181   3.395
 2988SOL    MW412273   0.015   6.166   3.430
 2989SOL     OW12274   1.755   7.061   2.395
 2989SOL    HW212275   1.725   6.994   2.456
 2989SOL    HW312276   1.849   7.067   2.409
 2989SOL    MW412277   1.763   7.053   2.405
 2990SOL     OW12278   1.311   6.738   2.325
 2990SOL    HW212279   1.283   6.824   2.358
 2990SOL    HW312280   1.339   6.754   2.235
 2990SOL    MW412281   1.311   6.752   2.317
 2991SOL     OW12282   0.973   5.658   2.378
 2991SOL    HW212283   1.010   5.717   2.443
 2991SOL    HW312284   0.950   5.714   2.304
 2991SOL    MW412285   0.974   5.673   2.377
 2992SOL     OW12286   1.826   6.540   2.800
 2992SOL    HW212287   1.817   6.572   2.711
 2992SOL    HW312288   1.779   6.456   2.800
 2992SOL    MW412289   1.819   6.533   2.790
 2993SOL     OW12290   0.202   6.380   3.379
 2993SOL    HW212291   0.223   6.449   3.317
 2993SOL    HW312292   0.282   6.327   3.384
 2993SOL    MW412293   0.215   6.381   3.373
 2994SOL     OW12294   1.738   6.471   2.501
 2994SOL    HW212295   1.832   6.460   2.489
 2994SOL    HW312296   1.714   6.543   2.442
 2994SOL    MW412297   1.748   6.479   2.492
 2995SOL     OW12298   0.187   6.395   3.646
 2995SOL    HW212299   0.113   6.339   3.672
 2995SOL    HW312300   0.182   6.398   3.551
 2995SOL    MW412301   0.176   6.388   3.636
 2996SOL     OW12302   0.353   5.682   3.096
 2996SOL    HW212303   0.396   5.766   3.116
 2996SOL    HW312304   0.426   5.620   3.089
 2996SOL    MW412305   0.368   5.685   3.097
 2997SOL     OW12306   0.394   6.349   2.274
 2997SOL    HW212307   0.394   6.444   2.259
 2997SOL    HW312308   0.471   6.333   2.328
 2997SOL    MW412309   0.404   6.360   2.279
 2998SOL     OW12310   1.170   6.208   3.338
 2998SOL    HW212311   1.206   6.181   3.254
 2998SOL    HW312312   1.083   6.242   3.317
 2998SOL    MW412313   1.164   6.209   3.325
 2999SOL     OW12314   0.153   6.080   2.563
 2999SOL    HW212315   0.215   6.087   2.636
 2999SOL    HW312316   0.153   5.987   2.540
 2999SOL    MW412317   0.161   6.069   2.570
 3000SOL     OW12318   1.700   7.420   2.095
 3000SOL    HW212319   1.767   7.453   2.035
 3000SOL    HW312320   1.657   7.499   2.129
 3000SOL    MW412321   1.702   7.435   2.091
 3001SOL     OW12322   0.835   6.341   3.047
 3001SOL    HW212323   0.793   6.259   3.023
 3001SOL    HW312324   0.836   6.340   3.143
 3001SOL    MW412325   0.828   6.330   3.056
 3002SOL     OW12326   1.506   7.474   3.446
 3002SOL    HW212327   1.509   7.380   3.429
 3002SOL    HW312328   1.529   7.482   3.538
 3002SOL    MW412329   1.509   7.462   3.456
 3003SOL     OW12330   0.639   5.811   3.152
 3003SOL    HW212331   0.570   5.874   3.173
 3003SOL    HW312332   0.666   5.775   3.237
 3003SOL    MW412333   0.633   5.814   3.165
 3004SOL     OW12334   0.022   6.652   2.021
 3004SOL    HW212335  -0.009   6.717   2.084
 3004SOL    HW312336  -0.029   6.574   2.040
 3004SOL    MW412337   0.012   6.649   2.031
 3005SOL     OW12338   1.434   5.664   2.769
 3005SOL    HW212339   1.522   5.673   2.806
 3005SOL    HW312340   1.444   5.605   2.695
 3005SOL    MW412341   1.448   5.658   2.763
 3006SOL     OW12342   1.466   6.403   2.613
 3006SOL    HW212343   1.546   6.418   2.562
 3006SOL    HW312344   1.459   6.308   2.619
 3006SOL    MW412345   1.475   6.392   2.608
 3007SOL     OW12346   0.606   7.452   1.963
 3007SOL    HW212347   0.511   7.452   1.955
 3007SOL    HW312348   0.622   7.398   2.041
 3007SOL    MW412349   0.596   7.446   1.972
 3008SOL     OW12350   0.916   6.329   3.310
 3008SOL    HW212351   0.985   6.396   3.307
 3008SOL    HW312352   0.849   6.367   3.366
 3008SOL    MW412353   0.917   6.342   3.317
 3009SOL     OW12354   0.334   6.629   3.558
 3009SOL    HW212355   0.288   6.545   3.560
 3009SOL    HW312356   0.391   6.623   3.482
 3009SOL    MW412357   0.336   6.617   3.550
 3010SOL     OW12358   1.451   6.272   1.879
 3010SOL    HW212359   1.379   6.248   1.821
 3010SOL    HW312360   1.517   6.309   1.821
 3010SOL    MW412361   1.450   6.274   1.864
 3011SOL     OW12362   0.585   7.004   2.559
 3011SOL    HW212363   0.650   6.937   2.580
 3011SOL    HW312364   0.637   7.081   2.536
 3011SOL    MW412365   0.600   7.006   2.558
 3012SOL     OW12366   0.846   6.169   2.689
 3012SOL    HW212367   0.786   6.187   2.761
 3012SOL    HW312368   0.880   6.081   2.708
 3012SOL    MW412369   0.842   6.159   2.702
 3013SOL     OW12370   1.787   5.668   3.358
 3013SOL    HW212371   1.708   5.714   3.386
 3013SOL    HW312372   1.822   5.722   3.287
 3013SOL    MW412373   1.781   5.681   3.352
 3014SOL     OW12374   1.071   6.752   2.708
 3014SOL    HW212375   1.163   6.733   2.726
 3014SOL    HW312376   1.044   6.682   2.648
 3014SOL    MW412377   1.079   6.740   2.702
 3015SOL     OW12378   0.864   6.572   2.063
 3015SOL    HW212379   0.850   6.484   2.028
 3015SOL    HW312380   0.815   6.629   2.004
 3015SOL    MW412381   0.856   6.567   2.051
 3016SOL     OW12382   1.345   6.990   2.804
 3016SOL    HW212383   1.318   7.074   2.769
 3016SOL    HW312384   1.305   6.985   2.891
 3016SOL    MW412385   1.338   6.999   2.810
 3017SOL     OW12386   1.264   6.938   3.072
 3017SOL    HW212387   1.275   6.905   3.161
 3017SOL    HW312388   1.183   6.897   3.041
 3017SOL    MW412389   1.254   6.930   3.078
 3018SOL     OW12390   0.277   6.296   2.842
 3018SOL    HW212391   0.227   6.295   2.923
 3018SOL    HW312392   0.297   6.388   2.826
 3018SOL    MW412393   0.273   6.308   2.850
 3019SOL     OW12394   1.344   7.060   3.604
 3019SOL    HW212395   1.344   7.154   3.620
 3019SOL    HW312396   1.389   7.050   3.520
 3019SOL    MW412397   1.350   7.070   3.595
 3020SOL     OW12398   1.583   5.778   2.165
 3020SOL    HW212399   1.576   5.782   2.260
 3020SOL    HW312400   1.595   5.869   2.138
 3020SOL    MW412401   1.584   5.791   2.173
 3021SOL     OW12402   0.872   6.341   2.279
 3021SOL    HW212403   0.852   6.327   2.186
 3021SOL    HW312404   0.965   6.320   2.286
 3021SOL    MW412405   0.882   6.336   2.268
 3022SOL     OW12406   0.199   5.964   3.583
 3022SOL    HW212407   0.156   6.023   3.520
 3022SOL    HW312408   0.267   6.019   3.623
 3022SOL    MW412409   0.203   5.979   3.580
 3023SOL     OW12410   1.311   6.584   3.128
 3023SOL    HW212411   1.374   6.581   3.201
 3023SOL    HW312412   1.227   6.602   3.170
 3023SOL    MW412413   1.307   6.586   3.143
 3024SOL     OW12414   0.855   7.299   2.317
 3024SOL    HW212415   0.913   7.370   2.344
 3024SOL    HW312416   0.878   7.227   2.375
 3024SOL    MW412417   0.866   7.299   2.328
 3025SOL     OW12418   1.650   5.761   2.907
 3025SOL    HW212419   1.695   5.679   2.926
 3025SOL    HW312420   1.670   5.817   2.983
 3025SOL    MW412421   1.660   5.757   2.919
 3026SOL     OW12422   0.098   5.604   3.006
 3026SOL    HW212423   0.089   5.605   2.911
 3026SOL    HW312424   0.192   5.616   3.021
 3026SOL    MW412425   0.110   5.607   2.997
 3027SOL     OW12426   1.735   6.797   2.626
 3027SOL    HW212427   1.714   6.743   2.549
 3027SOL    HW312428   1.831   6.795   2.630
 3027SOL    MW412429   1.744   6.790   2.615
 3028SOL     OW12430   0.427   6.942   3.369
 3028SOL    HW212431   0.348   6.892   3.392
 3028SOL    HW312432   0.497   6.901   3.419
 3028SOL    MW412433   0.425   6.930   3.379
 3029SOL     OW12434   0.311   5.731   2.052
 3029SOL    HW212435   0.240   5.786   2.020
 3029SOL    HW312436   0.353   5.697   1.973
 3029SOL    MW412437   0.307   5.733   2.038
 3030SOL     OW12438   1.435   6.228   2.888
 3030SOL    HW212439   1.358   6.274   2.854
 3030SOL    HW312440   1.492   6.297   2.922
 3030SOL    MW412441   1.432   6.243   2.888
 3031SOL     OW12442   0.067   5.830   1.901
 3031SOL    HW212443   0.034   5.909   1.945
 3031SOL    HW312444   0.122   5.863   1.830
 3031SOL    MW412445   0.070   5.844   1.898
 3032SOL     OW12446   0.101   7.087   2.090
 3032SOL    HW212447   0.118   7.171   2.132
 3032SOL    HW312448   0.136   7.096   2.002
 3032SOL    MW412449   0.106   7.100   2.084
 3033SOL     OW12450   1.373   7.176   2.307
 3033SOL    HW212451   1.436   7.166   2.236
 3033SOL    HW312452   1.290   7.196   2.262
 3033SOL    MW412453   1.370   7.177   2.292
 3034SOL     OW12454   1.736   6.444   3.993
 3034SOL    HW212455   1.777   6.386   4.058
 3034SOL    HW312456   1.643   6.436   4.010
 3034SOL    MW412457   1.730   6.436   4.003
 3035SOL     OW12458   1.602   6.376   4.988
 3035SOL    HW212459   1.557   6.443   5.039
 3035SOL    HW312460   1.690   6.412   4.974
 3035SOL    MW412461   1.608   6.389   4.992
 3036SOL     OW12462   0.530   6.627   4.222
 3036SOL    HW212463   0.620   6.602   4.206
 3036SOL    HW312464   0.526   6.720   4.199
 3036SOL    MW412465   0.542   6.636   4.217
 3037SOL     OW12466   1.646   7.330   4.364
 3037SOL    HW212467   1.658   7.276   4.442
 3037SOL    HW312468   1.683   7.278   4.293
 3037SOL    MW412469   1.652   7.315   4.365
 3038SOL     OW12470   1.025   7.215   5.365
 3038SOL    HW212471   1.066   7.251   5.286
 3038SOL    HW312472   1.060   7.126   5.372
 3038SOL    MW412473   1.036   7.208   5.356
 3039SOL     OW12474   1.582   6.770   4.969
 3039SOL    HW212475   1.503   6.735   4.927
 3039SOL    HW312476   1.609   6.842   4.913
 3039SOL    MW412477   1.575   6.775   4.956
 3040SOL     OW12478   0.814   6.083   4.235
 3040SOL    HW212479   0.789   6.171   4.263
 3040SOL    HW312480   0.811   6.086   4.139
 3040SOL    MW412481   0.810   6.095   4.227
 3041SOL     OW12482   0.256   6.111   4.163
 3041SOL    HW212483   0.288   6.199   4.145
 3041SOL    HW312484   0.244   6.109   4.258
 3041SOL    MW412485   0.259   6.123   4.175
 3042SOL     OW12486   0.334   6.524   5.064
 3042SOL    HW212487   0.397   6.471   5.015
 3042SOL    HW312488   0.315   6.598   5.007
 3042SOL    MW412489   0.340   6.526   5.051
 3043SOL     OW12490   0.655   5.866   4.250
 3043SOL    HW212491   0.713   5.942   4.252
 3043SOL    HW312492   0.590   5.887   4.183
 3043SOL    MW412493   0.654   5.878   4.241
 3044SOL     OW12494   0.742   6.793   4.425
 3044SOL    HW212495   0.822   6.796   4.477
 3044SOL    HW312496   0.770   6.760   4.339
 3044SOL    MW412497   0.756   6.789   4.420
 3045SOL     OW12498   0.767   7.134   5.328
 3045SOL    HW212499   0.851   7.160   5.367
 3045SOL    HW312500   0.791   7.078   5.254
 3045SOL    MW412501   0.781   7.130   5.323
 3046SOL     OW12502   0.519   6.297   4.416
 3046SOL    HW212503   0.504   6.217   4.467
 3046SOL    HW312504   0.601   6.332   4.450
 3046SOL    MW412505   0.527   6.289   4.428
 3047SOL     OW12506   0.856   6.983   5.101
 3047SOL    HW212507   0.820   7.049   5.041
 3047SOL    HW312508   0.784   6.921   5.114
 3047SOL    MW412509   0.842   6.983   5.095
 3048SOL     OW12510   0.661   6.123   4.793
 3048SOL    HW212511   0.567   6.119   4.811
 3048SOL    HW312512   0.691   6.032   4.802
 3048SOL    MW412513   0.652   6.111   4.796
 3049SOL     OW12514   0.407   6.537   4.697
 3049SOL    HW212515   0.362   6.544   4.613
 3049SOL    HW312516   0.387   6.620   4.741
 3049SOL    MW412517   0.399   6.549   4.691
 3050SOL     OW12518   0.104   7.383   4.572
 3050SOL    HW212519   0.193   7.375   4.607
 3050SOL    HW312520   0.068   7.295   4.577
 3050SOL    MW412521   0.111   7.370   4.577
 3051SOL     OW12522   1.369   6.775   3.941
 3051SOL    HW212523   1.287   6.811   3.907
 3051SOL    HW312524   1.437   6.818   3.890
 3051SOL    MW412525   1.367   6.785   3.929
 3052SOL     OW12526   0.368   6.910   4.607
 3052SOL    HW212527   0.344   6.963   4.683
 3052SOL    HW312528   0.424   6.968   4.555
 3052SOL    MW412529   0.372   6.925   4.610
 3053SOL     OW12530   0.930   6.554   4.417
 3053SOL    HW212531   0.844   6.541   4.457
 3053SOL    HW312532   0.983   6.481   4.449
 3053SOL    MW412533   0.926   6.543   4.426
 3054SOL     OW12534   0.338   7.206   5.202
 3054SOL    HW212535   0.246   7.182   5.187
 3054SOL    HW312536   0.382   7.123   5.219
 3054SOL    MW412537   0.332   7.191   5.201
 3055SOL     OW12538   0.921   6.916   4.134
 3055SOL    HW212539   0.898   6.978   4.202
 3055SOL    HW312540   0.878   6.834   4.160
 3055SOL    MW412541   0.913   6.912   4.145
 3056SOL     OW12542   1.794   5.917   4.590
 3056SOL    HW212543   1.731   5.897   4.659
 3056SOL    HW312544   1.784   5.846   4.527
 3056SOL    MW412545   1.784   5.904   4.591
 3057SOL     OW12546   0.418   5.889   4.102
 3057SOL    HW212547   0.392   5.851   4.018
 3057SOL    HW312548   0.355   5.959   4.118
 3057SOL    MW412549   0.407   5.892   4.093
 3058SOL     OW12550   0.253   6.850   4.139
 3058SOL    HW212551   0.201   6.918   4.095
 3058SOL    HW312552   0.250   6.776   4.079
 3058SOL    MW412553   0.245   6.849   4.126
 3059SOL     OW12554   0.915   7.313   3.917
 3059SOL    HW212555   0.870   7.329   4.000
 3059SOL    HW312556   0.846   7.278   3.859
 3059SOL    MW412557   0.901   7.310   3.919
 3060SOL     OW12558   1.850   6.086   3.892
 3060SOL    HW212559   1.759   6.088   3.920
 3060SOL    HW312560   1.895   6.148   3.950
 3060SOL    MW412561   1.843   6.094   3.902
 3061SOL     OW12562   1.595   6.689   4.242
 3061SOL    HW212563   1.505   6.689   4.277
 3061SOL    HW312564   1.588   6.735   4.159
 3061SOL    MW412565   1.582   6.695   4.236
 3062SOL     OW12566   1.395   6.324   5.314
 3062SOL    HW212567   1.464   6.262   5.291
 3062SOL    HW312568   1.320   6.298   5.261
 3062SOL    MW412569   1.395   6.311   5.305
 3063SOL     OW12570   0.136   7.204   4.866
 3063SOL    HW212571   0.119   7.150   4.943
 3063SOL    HW312572   0.124   7.294   4.896
 3063SOL    MW412573   0.133   7.208   4.880
 3064SOL     OW12574   1.131   6.711   5.306
 3064SOL    HW212575   1.116   6.804   5.291
 3064SOL    HW312576   1.226   6.701   5.306
 3064SOL    MW412577   1.140   6.721   5.303
 3065SOL     OW12578   0.927   6.135   5.507
 3065SOL    HW212579   1.017   6.136   5.474
 3065SOL    HW312580   0.886   6.060   5.465
 3065SOL    MW412581   0.933   6.125   5.498
 3066SOL     OW12582   1.502   6.667   4.634
 3066SOL    HW212583   1.505   6.601   4.565
 3066SOL    HW312584   1.587   6.710   4.630
 3066SOL    MW412585   1.514   6.663   4.625
 3067SOL     OW12586   1.122   6.270   4.203
 3067SOL    HW212587   1.148   6.294   4.114
 3067SOL    HW312588   1.104   6.177   4.199
 3067SOL    MW412589   1.124   6.262   4.190
 3068SOL     OW12590   1.787   6.890   4.054
 3068SOL    HW212591   1.743   6.931   4.129
 3068SOL    HW312592   1.844   6.958   4.019
 3068SOL    MW412593   1.789   6.904   4.059
 3069SOL     OW12594   0.707   5.939   5.457
 3069SOL    HW212595   0.717   5.865   5.397
 3069SOL    HW312596   0.743   5.908   5.540
 3069SOL    MW412597   0.713   5.925   5.459
 3070SOL     OW12598   0.443   7.306   4.372
 3070SOL    HW212599   0.475   7.394   4.350
 3070SOL    HW312600   0.396   7.278   4.294
 3070SOL    MW412601   0.442   7.314   4.359
 3071SOL     OW12602   1.827   5.668   4.421
 3071SOL    HW212603   1.881   5.619   4.483
 3071SOL    HW312604   1.770   5.602   4.382
 3071SOL    MW412605   1.827   5.652   4.423
 3072SOL     OW12606   0.159   7.366   3.949
 3072SOL    HW212607   0.188   7.456   3.941
 3072SOL    HW312608   0.109   7.349   3.870
 3072SOL    MW412609   0.157   7.374   3.938
 3073SOL     OW12610   0.946   5.621   4.834
 3073SOL    HW212611   0.905   5.699   4.796
 3073SOL    HW312612   1.040   5.639   4.829
 3073SOL    MW412613   0.952   5.633   4.829
 3074SOL     OW12614   1.563   7.174   3.920
 3074SOL    HW212615   1.611   7.243   3.966
 3074SOL    HW312616   1.484   7.218   3.889
 3074SOL    MW412617   1.558   7.188   3.923
 3075SOL     OW12618   0.961   6.299   3.864
 3075SOL    HW212619   0.963   6.246   3.785
 3075SOL    HW312620   1.049   6.336   3.870
 3075SOL    MW412621   0.973   6.298   3.853
 3076SOL     OW12622   1.575   6.225   4.200
 3076SOL    HW212623   1.614   6.225   4.287
 3076SOL    HW312624   1.516   6.301   4.200
 3076SOL    MW412625   1.572   6.236   4.211
 3077SOL     OW12626   0.892   6.592   5.329
 3077SOL    HW212627   0.869   6.572   5.419
 3077SOL    HW312628   0.977   6.636   5.334
 3077SOL    MW412629   0.899   6.595   5.341
 3078SOL     OW12630   0.972   5.729   5.089
 3078SOL    HW212631   0.978   5.691   5.002
 3078SOL    HW312632   0.961   5.823   5.074
 3078SOL    MW412633   0.973   5.737   5.077
 3079SOL     OW12634   1.061   6.218   4.923
 3079SOL    HW212635   1.136   6.247   4.870
 3079SOL    HW312636   0.993   6.283   4.907
 3079SOL    MW412637   1.062   6.230   4.913
 3080SOL     OW12638   1.611   6.186   5.200
 3080SOL    HW212639   1.592   6.095   5.179
 3080SOL    HW312640   1.589   6.235   5.121
 3080SOL    MW412641   1.606   6.179   5.187
 3081SOL     OW12642   1.753   7.280   5.104
 3081SOL    HW212643   1.681   7.242   5.155
 3081SOL    HW312644   1.770   7.365   5.145
 3081SOL    MW412645   1.747   7.285   5.116
 3082SOL     OW12646   1.058   5.924   5.306
 3082SOL    HW212647   1.024   5.963   5.225
 3082SOL    HW312648   1.036   5.832   5.299
 3082SOL    MW412649   1.051   5.917   5.296
 3083SOL     OW12650   1.467   6.738   5.382
 3083SOL    HW212651   1.549   6.779   5.412
 3083SOL    HW312652   1.430   6.700   5.462
 3083SOL    MW412653   1.473   6.739   5.397
 3084SOL     OW12654   1.762   6.111   4.366
 3084SOL    HW212655   1.851   6.080   4.383
 3084SOL    HW312656   1.705   6.051   4.414
 3084SOL    MW412657   1.765   6.099   4.375
 3085SOL     OW12658   0.188   5.825   4.395
 3085SOL    HW212659   0.179   5.765   4.321
 3085SOL    HW312660   0.121   5.796   4.458
 3085SOL    MW412661   0.178   5.812   4.393
 3086SOL     OW12662   1.131   6.918   3.956
 3086SOL    HW212663   1.081   6.920   4.038
 3086SOL    HW312664   1.065   6.936   3.888
 3086SOL    MW412665   1.117   6.920   3.958
 3087SOL     OW12666   0.135   5.998   4.758
 3087SOL    HW212667   0.107   6.089   4.767
 3087SOL    HW312668   0.072   5.959   4.697
 3087SOL    MW412669   0.122   6.004   4.752
 3088SOL     OW12670   0.594   7.336   4.064
 3088SOL    HW212671   0.515   7.294   4.097
 3088SOL    HW312672   0.660   7.319   4.131
 3088SOL    MW412673   0.593   7.328   4.077
 3089SOL     OW12674   1.722   6.856   5.461
 3089SOL    HW212675   1.772   6.782   5.493
 3089SOL    HW312676   1.668   6.883   5.536
 3089SOL    MW412677   1.722   6.850   5.474
 3090SOL     OW12678   0.730   6.751   3.771
 3090SOL    HW212679   0.652   6.697   3.758
 3090SOL    HW312680   0.701   6.824   3.824
 3090SOL    MW412681   0.716   6.753   3.776
 3091SOL     OW12682   1.856   6.491   4.963
 3091SOL    HW212683   1.872   6.529   4.876
 3091SOL    HW312684   1.890   6.557   5.024
 3091SOL    MW412685   1.863   6.504   4.959
 3092SOL     OW12686   1.648   7.200   4.632
 3092SOL    HW212687   1.677   7.267   4.693
 3092SOL    HW312688   1.629   7.124   4.687
 3092SOL    MW412689   1.650   7.200   4.647
 3093SOL     OW12690   1.311   7.267   3.839
 3093SOL    HW212691   1.237   7.230   3.889
 3093SOL    HW312692   1.319   7.357   3.872
 3093SOL    MW412693   1.302   7.274   3.851
 3094SOL     OW12694   0.119   6.273   4.928
 3094SOL    HW212695   0.181   6.303   4.994
 3094SOL    HW312696   0.053   6.342   4.922
 3094SOL    MW412697   0.118   6.286   4.935
 3095SOL     OW12698   1.535   6.941   3.781
 3095SOL    HW212699   1.482   6.990   3.717
 3095SOL    HW312700   1.566   7.007   3.842
 3095SOL    MW412701   1.533   6.955   3.779
 3096SOL     OW12702   0.760   5.830   3.836
 3096SOL    HW212703   0.708   5.750   3.824
 3096SOL    HW312704   0.847   5.807   3.804
 3096SOL    MW412705   0.763   5.816   3.830
 3097SOL     OW12706   0.214   7.382   5.380
 3097SOL    HW212707   0.188   7.450   5.318
 3097SOL    HW312708   0.262   7.319   5.328
 3097SOL    MW412709   0.216   7.382   5.366
 3098SOL     OW12710   0.266   6.701   4.887
 3098SOL    HW212711   0.319   6.776   4.912
 3098SOL    HW312712   0.185   6.739   4.853
 3098SOL    MW412713   0.262   6.716   4.887
 3099SOL     OW12714   0.806   6.605   4.875
 3099SOL    HW212715   0.834   6.514   4.887
 3099SOL    HW312716   0.735   6.599   4.811
 3099SOL    MW412717   0.799   6.593   4.870
 3100SOL     OW12718   0.121   6.470   4.293
 3100SOL    HW212719   0.212   6.485   4.320
 3100SOL    HW312720   0.124   6.391   4.239
 3100SOL    MW412721   0.133   6.462   4.291
 3101SOL     OW12722   0.357   6.178   5.547
 3101SOL    HW212723   0.304   6.258   5.554
 3101SOL    HW312724   0.427   6.190   5.612
 3101SOL    MW412725   0.359   6.191   5.555
 3102SOL     OW12726   0.743   5.728   5.254
 3102SOL    HW212727   0.720   5.636   5.256
 3102SOL    HW312728   0.829   5.730   5.211
 3102SOL    MW412729   0.750   5.718   5.250
 3103SOL     OW12730   0.427   6.252   5.293
 3103SOL    HW212731   0.507   6.302   5.279
 3103SOL    HW312732   0.418   6.246   5.388
 3103SOL    MW412733   0.436   6.258   5.303
 3104SOL     OW12734   0.748   7.402   4.667
 3104SOL    HW212735   0.837   7.417   4.697
 3104SOL    HW312736   0.743   7.449   4.583
 3104SOL    MW412737   0.758   7.410   4.660
 3105SOL     OW12738   1.404   5.777   5.564
 3105SOL    HW212739   1.460   5.704   5.590
 3105SOL    HW312740   1.374   5.815   5.646
 3105SOL    MW412741   1.408   5.772   5.577
 3106SOL     OW12742   0.129   7.082   4.332
 3106SOL    HW212743   0.101   7.121   4.414
 3106SOL    HW312744   0.149   6.991   4.354
 3106SOL    MW412745   0.127   7.074   4.345
 3107SOL     OW12746   0.962   7.125   4.367
 3107SOL    HW212747   1.045   7.079   4.351
 3107SOL    HW312748   0.952   7.124   4.463
 3107SOL    MW412749   0.972   7.118   4.377
 3108SOL     OW12750   1.794   6.270   4.681
 3108SOL    HW212751   1.883   6.300   4.663
 3108SOL    HW312752   1.774   6.210   4.610
 3108SOL    MW412753   1.803   6.267   4.670
 3109SOL     OW12754   1.645   6.449   5.561
 3109SOL    HW212755   1.700   6.373   5.542
 3109SOL    HW312756   1.647   6.457   5.656
 3109SOL    MW412757   1.653   6.440   5.569
 3110SOL     OW12758   0.695   7.182   3.772
 3110SOL    HW212759   0.635   7.251   3.742
 3110SOL    HW312760   0.640   7.124   3.825
 3110SOL    MW412761   0.679   7.184   3.774
 3111SOL     OW12762   1.133   5.827   3.995
 3111SOL    HW212763   1.066   5.803   3.932
 3111SOL    HW312764   1.198   5.876   3.944
 3111SOL    MW412765   1.133   5.829   3.980
 3112SOL     OW12766   0.940   6.011   5.080
 3112SOL    HW212767   0.859   6.052   5.108
 3112SOL    HW312768   0.987   6.079   5.032
 3112SOL    MW412769   0.935   6.026   5.078
 3113SOL     OW12770   1.200   6.349   4.703
 3113SOL    HW212771   1.213   6.443   4.713
 3113SOL    HW312772   1.161   6.339   4.617
 3113SOL    MW412773   1.196   6.360   4.693
 3114SOL     OW12774   0.652   6.544   4.507
 3114SOL    HW212775   0.563   6.535   4.540
 3114SOL    HW312776   0.656   6.634   4.475
 3114SOL    MW412777   0.641   6.555   4.507
 3115SOL     OW12778   1.451   6.127   4.502
 3115SOL    HW212779   1.396   6.048   4.501
 3115SOL    HW312780   1.433   6.168   4.586
 3115SOL    MW412781   1.441   6.122   4.511
 3116SOL     OW12782   0.422   5.814   5.319
 3116SOL    HW212783   0.343   5.832   5.371
 3116SOL    HW312784   0.417   5.876   5.246
 3116SOL    MW412785   0.412   5.824   5.316
 3117SOL     OW12786   1.070   6.331   4.459
 3117SOL    HW212787   1.007   6.263   4.483
 3117SOL    HW312788   1.090   6.312   4.367
 3117SOL    MW412789   1.064   6.318   4.451
 3118SOL     OW12790   0.326   7.226   4.161
 3118SOL    HW212791   0.287   7.273   4.087
 3118SOL    HW312792   0.260   7.161   4.186
 3118SOL    MW412793   0.313   7.224   4.155
 3119SOL     OW12794   0.818   6.635   4.185
 3119SOL    HW212795   0.820   6.609   4.092
 3119SOL    HW312796   0.876   6.572   4.228
 3119SOL    MW412797   0.826   6.624   4.179
 3120SOL     OW12798   1.371   7.195   4.957
 3120SOL    HW212799   1.296   7.241   4.995
 3120SOL    HW312800   1.353   7.102   4.974
 3120SOL    MW412801   1.360   7.189   4.965
 3121SOL     OW12802   1.375   7.403   4.387
 3121SOL    HW212803   1.318   7.356   4.326
 3121SOL    HW312804   1.461   7.364   4.374
 3121SOL    MW412805   1.378   7.394   4.377
 3122SOL     OW12806   1.328   5.879   4.518
 3122SOL    HW212807   1.356   5.811   4.579
 3122SOL    HW312808   1.242   5.850   4.488
 3122SOL    MW412809   1.321   5.866   4.522
 3123SOL     OW12810   0.133   6.813   4.452
 3123SOL    HW212811   0.197   6.845   4.515
 3123SOL    HW312812   0.182   6.749   4.400
 3123SOL    MW412813   0.148   6.809   4.453
 3124SOL     OW12814   0.633   6.889   5.434
 3124SOL    HW212815   0.681   6.972   5.421
 3124SOL    HW312816   0.690   6.837   5.490
 3124SOL    MW412817   0.647   6.893   5.440
 3125SOL     OW12818   0.209   7.131   5.574
 3125SOL    HW212819   0.265   7.055   5.589
 3125SOL    HW312820   0.158   7.109   5.496
 3125SOL    MW412821   0.209   7.118   5.565
 3126SOL     OW12822   1.308   5.983   3.853
 3126SOL    HW212823   1.281   6.049   3.789
 3126SOL    HW312824   1.378   6.026   3.903
 3126SOL    MW412825   1.313   5.996   3.850
 3127SOL     OW12826   0.976   5.688   3.790
 3127SOL    HW212827   1.032   5.680   3.712
 3127SOL    HW312828   0.953   5.598   3.812
 3127SOL    MW412829   0.981   5.675   3.783
 3128SOL     OW12830   1.481   6.539   3.995
 3128SOL    HW212831   1.448   6.628   3.985
 3128SOL    HW312832   1.446   6.510   4.080
 3128SOL    MW412833   1.471   6.548   4.006
 3129SOL     OW12834   1.094   6.968   5.183
 3129SOL    HW212835   1.005   6.974   5.151
 3129SOL    HW312836   1.138   7.047   5.151
 3129SOL    MW412837   1.089   6.978   5.175
 3130SOL     OW12838   0.387   5.636   5.525
 3130SOL    HW212839   0.315   5.601   5.473
 3130SOL    HW312840   0.445   5.677   5.460
 3130SOL    MW412841   0.385   5.637   5.510
 3131SOL     OW12842   0.411   7.126   4.824
 3131SOL    HW212843   0.456   7.188   4.881
 3131SOL    HW312844   0.318   7.145   4.837
 3131SOL    MW412845   0.404   7.136   4.831
 3132SOL     OW12846   1.851   6.655   5.178
 3132SOL    HW212847   1.766   6.668   5.137
 3132SOL    HW312848   1.831   6.619   5.265
 3132SOL    MW412849   1.838   6.651   5.183
 3133SOL     OW12850   0.833   7.194   4.932
 3133SOL    HW212851   0.857   7.183   4.841
 3133SOL    HW312852   0.756   7.251   4.930
 3133SOL    MW412853   0.825   7.199   4.921
 3134SOL     OW12854   0.475   6.577   3.787
 3134SOL    HW212855   0.398   6.590   3.843
 3134SOL    HW312856   0.439   6.541   3.706
 3134SOL    MW412857   0.461   6.573   3.784
 3135SOL     OW12858   1.128   6.550   4.030
 3135SOL    HW212859   1.038   6.571   4.005
 3135SOL    HW312860   1.155   6.623   4.086
 3135SOL    MW412861   1.120   6.562   4.033
 3136SOL     OW12862   0.628   6.899   4.722
 3136SOL    HW212863   0.621   6.878   4.816
 3136SOL    HW312864   0.546   6.867   4.685
 3136SOL    MW412865   0.616   6.893   4.729
 3137SOL     OW12866   1.492   5.909   5.124
 3137SOL    HW212867   1.439   5.911   5.204
 3137SOL    HW312868   1.477   5.822   5.087
 3137SOL    MW412869   1.484   5.899   5.129
 3138SOL     OW12870   1.828   5.833   4.997
 3138SOL    HW212871   1.809   5.900   4.932
 3138SOL    HW312872   1.885   5.771   4.952
 3138SOL    MW412873   1.832   5.834   4.983
 3139SOL     OW12874   0.074   6.991   5.385
 3139SOL    HW212875   0.118   6.924   5.331
 3139SOL    HW312876  -0.011   6.953   5.405
 3139SOL    MW412877   0.069   6.977   5.381
 3140SOL     OW12878   0.757   5.666   4.437
 3140SOL    HW212879   0.686   5.727   4.419
 3140SOL    HW312880   0.808   5.663   4.356
 3140SOL    MW412881   0.753   5.672   4.424
 3141SOL     OW12882   0.515   6.906   4.186
 3141SOL    HW212883   0.508   6.938   4.276
 3141SOL    HW312884   0.425   6.890   4.158
 3141SOL    MW412885   0.503   6.908   4.193
 3142SOL     OW12886   1.110   7.299   5.095
 3142SOL    HW212887   1.030   7.284   5.045
 3142SOL    HW312888   1.117   7.394   5.102
 3142SOL    MW412889   1.101   7.310   5.089
 3143SOL     OW12890   1.224   7.264   4.585
 3143SOL    HW212891   1.271   7.337   4.544
 3143SOL    HW312892   1.145   7.303   4.621
 3143SOL    MW412893   1.219   7.279   4.584
 3144SOL     OW12894   1.632   7.359   4.860
 3144SOL    HW212895   1.675   7.329   4.940
 3144SOL    HW312896   1.551   7.307   4.857
 3144SOL    MW412897   1.627   7.348   4.870
 3145SOL     OW12898   0.717   6.323   5.567
 3145SOL    HW212899   0.787   6.265   5.539
 3145SOL    HW312900   0.660   6.268   5.622
 3145SOL    MW412901   0.719   6.310   5.571
 3146SOL     OW12902   1.504   6.535   5.200
 3146SOL    HW212903   1.509   6.588   5.280
 3146SOL    HW312904   1.466   6.452   5.228
 3146SOL    MW412905   1.500   6.530   5.215
 3147SOL     OW12906   1.144   5.670   5.446
 3147SOL    HW212907   1.139   5.577   5.427
 3147SOL    HW312908   1.227   5.681   5.492
 3147SOL    MW412909   1.152   5.659   5.450
 3148SOL     OW12910   0.518   6.190   3.900
 3148SOL    HW212911   0.484   6.246   3.970
 3148SOL    HW312912   0.589   6.140   3.940
 3148SOL    MW412913   0.524   6.191   3.914
 3149SOL     OW12914   1.614   6.941   4.722
 3149SOL    HW212915   1.649   6.923   4.635
 3149SOL    HW312916   1.519   6.942   4.709
 3149SOL    MW412917   1.606   6.938   4.709
 3150SOL     OW12918   1.043   6.589   5.091
 3150SOL    HW212919   1.086   6.624   5.169
 3150SOL    HW312920   1.026   6.666   5.037
 3150SOL    MW412921   1.046   6.604   5.094
 3151SOL     OW12922   1.574   6.076   3.964
 3151SOL    HW212923   1.566   6.147   3.901
 3151SOL    HW312924   1.592   6.120   4.047
 3151SOL    MW412925   1.575   6.090   3.966
 3152SOL     OW12926   0.434   5.731   4.393
 3152SOL    HW212927   0.484   5.774   4.324
 3152SOL    HW312928   0.349   5.775   4.393
 3152SOL    MW412929   0.431   5.744   4.384
 3153SOL     OW12930   0.193   6.793   5.253
 3153SOL    HW212931   0.221   6.746   5.331
 3153SOL    HW312932   0.114   6.748   5.224
 3153SOL    MW412933   0.186   6.782   5.259
 3154SOL     OW12934   0.701   6.120   5.220
 3154SOL    HW212935   0.673   6.208   5.244
 3154SOL    HW312936   0.670   6.064   5.291
 3154SOL    MW412937   0.693   6.123   5.232
 3155SOL     OW12938   1.243   6.338   3.939
 3155SOL    HW212939   1.290   6.356   3.858
 3155SOL    HW312940   1.209   6.422   3.967
 3155SOL    MW412941   1.245   6.352   3.932
 3156SOL     OW12942   0.356   6.516   4.433
 3156SOL    HW212943   0.414   6.572   4.381
 3156SOL    HW312944   0.400   6.431   4.435
 3156SOL    MW412945   0.369   6.513   4.426
 3157SOL     OW12946   1.496   5.868   4.270
 3157SOL    HW212947   1.418   5.818   4.295
 3157SOL    HW312948   1.467   5.959   4.270
 3157SOL    MW412949   1.482   5.872   4.273
 3158SOL     OW12950   1.082   5.830   4.429
 3158SOL    HW212951   1.102   5.905   4.373
 3158SOL    HW312952   1.062   5.869   4.514
 3158SOL    MW412953   1.083   5.846   4.433
 3159SOL     OW12954   0.978   7.080   3.761
 3159SOL    HW212955   1.005   7.158   3.713
 3159SOL    HW312956   0.885   7.095   3.780
 3159SOL    MW412957   0.969   7.093   3.757
 3160SOL     OW12958   1.842   6.603   5.448
 3160SOL    HW212959   1.755   6.583   5.484
 3160SOL    HW312960   1.896   6.529   5.473
 3160SOL    MW412961   1.837   6.592   5.456
 3161SOL     OW12962   0.063   7.116   4.605
 3161SOL    HW212963   0.095   7.120   4.696
 3161SOL    HW312964  -0.032   7.124   4.613
 3161SOL    MW412965   0.055   7.119   4.618
 3162SOL     OW12966   0.018   6.242   4.152
 3162SOL    HW212967  -0.042   6.214   4.222
 3162SOL    HW312968   0.092   6.182   4.158
 3162SOL    MW412969   0.020   6.231   4.161
 3163SOL     OW12970   1.586   7.454   5.586
 3163SOL    HW212971   1.631   7.378   5.551
 3163SOL    HW312972   1.624   7.467   5.673
 3163SOL    MW412973   1.596   7.447   5.592
 3164SOL     OW12974   1.186   6.973   4.312
 3164SOL    HW212975   1.209   6.924   4.390
 3164SOL    HW312976   1.267   7.015   4.284
 3164SOL    MW412977   1.199   6.973   4.319
 3165SOL     OW12978   0.444   5.981   5.041
 3165SOL    HW212979   0.477   6.062   5.081
 3165SOL    HW312980   0.417   6.007   4.953
 3165SOL    MW412981   0.443   5.995   5.035
 3166SOL     OW12982   0.398   5.948   4.777
 3166SOL    HW212983   0.428   5.862   4.748
 3166SOL    HW312984   0.303   5.941   4.780
 3166SOL    MW412985   0.390   5.937   4.775
 3167SOL     OW12986   1.227   6.157   5.468
 3167SOL    HW212987   1.279   6.092   5.421
 3167SOL    HW312988   1.185   6.208   5.398
 3167SOL    MW412989   1.228   6.154   5.451
 3168SOL     OW12990   1.326   5.952   5.329
 3168SOL    HW212991   1.233   5.936   5.316
 3168SOL    HW312992   1.352   5.890   5.397
 3168SOL    MW412993   1.316   5.942   5.336
 3169SOL     OW12994   0.541   5.726   4.668
 3169SOL    HW212995   0.551   5.635   4.694
 3169SOL    HW312996   0.497   5.722   4.583
 3169SOL    MW412997   0.537   5.714   4.660
 3170SOL     OW12998   0.635   7.341   5.214
 3170SOL    HW212999   0.552   7.326   5.259
 3170SOL    HW313000   0.694   7.274   5.249
 3170SOL    MW413001   0.633   7.331   5.224
 3171SOL     OW13002   1.692   6.048   4.839
 3171SOL    HW213003   1.625   6.081   4.899
 3171SOL    HW313004   1.735   6.126   4.805
 3171SOL    MW413005   1.690   6.063   4.843
 3172SOL     OW13006   1.870   6.768   4.809
 3172SOL    HW213007   1.863   6.708   4.734
 3172SOL    HW313008   1.796   6.828   4.798
 3172SOL    MW413009   1.860   6.768   4.798
 3173SOL     OW13010   1.252   6.630   4.727
 3173SOL    HW213011   1.266   6.602   4.818
 3173SOL    HW313012   1.338   6.661   4.699
 3173SOL    MW413013   1.265   6.631   4.736
 3174SOL     OW13014   1.335   6.125   5.006
 3174SOL    HW213015   1.356   6.126   4.913
 3174SOL    HW313016   1.380   6.047   5.039
 3174SOL    MW413017   1.342   6.115   4.998
 3175SOL     OW13018   1.828   6.256   5.548
 3175SOL    HW213019   1.865   6.201   5.617
 3175SOL    HW313020   1.853   6.213   5.466
 3175SOL    MW413021   1.835   6.244   5.547
 3176SOL     OW13022   1.375   6.554   5.600
 3176SOL    HW213023   1.441   6.502   5.554
 3176SOL    HW313024   1.395   6.541   5.693
 3176SOL    MW413025   1.386   6.545   5.607
 3177SOL     OW13026   1.326   5.640   3.948
 3177SOL    HW213027   1.400   5.684   3.991
 3177SOL    HW313028   1.250   5.694   3.970
 3177SOL    MW413029   1.326   5.652   3.956
 3178SOL     OW13030   1.386   6.415   4.226
 3178SOL    HW213031   1.301   6.385   4.196
 3178SOL    HW313032   1.378   6.422   4.321
 3178SOL    MW413033   1.374   6.413   4.235
 3179SOL     OW13034   0.462   6.878   4.957
 3179SOL    HW213035   0.474   6.905   5.048
 3179SOL    HW313036   0.443   6.959   4.910
 3179SOL    MW413037   0.461   6.893   4.962
 3180SOL     OW13038   0.746   5.858   4.780
 3180SOL    HW213039   0.719   5.860   4.871
 3180SOL    HW313040   0.676   5.810   4.735
 3180SOL    MW413041   0.734   5.854   4.787
 3181SOL     OW13042   0.600   7.350   4.942
 3181SOL    HW213043   0.652   7.427   4.919
 3181SOL    HW313044   0.609   7.342   5.037
 3181SOL    MW413045   0.609   7.357   4.953
 3182SOL     OW13046   1.502   6.935   5.174
 3182SOL    HW213047   1.487   6.864   5.237
 3182SOL    HW313048   1.548   6.893   5.102
 3182SOL    MW413049   1.508   6.919   5.174
 3183SOL     OW13050   0.576   6.666   5.291
 3183SOL    HW213051   0.613   6.671   5.203
 3183SOL    HW313052   0.615   6.739   5.338
 3183SOL    MW413053   0.586   6.676   5.286
 3184SOL     OW13054   0.756   6.709   5.103
 3184SOL    HW213055   0.815   6.655   5.156
 3184SOL    HW313056   0.771   6.681   5.013
 3184SOL    MW413057   0.766   6.698   5.099
 3185SOL     OW13058   0.759   6.081   3.952
 3185SOL    HW213059   0.832   6.130   3.915
 3185SOL    HW313060   0.775   5.990   3.926
 3185SOL    MW413061   0.771   6.076   3.945
 3186SOL     OW13062   1.567   7.198   5.275
 3186SOL    HW213063   1.609   7.183   5.360
 3186SOL    HW313064   1.558   7.111   5.237
 3186SOL    MW413065   1.571   7.186   5.282
 3187SOL     OW13066   1.227   5.677   4.866
 3187SOL    HW213067   1.282   5.686   4.788
 3187SOL    HW313068   1.282   5.711   4.937
 3187SOL    MW413069   1.241   5.682   4.865
 3188SOL     OW13070   0.234   6.590   4.050
 3188SOL    HW213071   0.171   6.606   3.979
 3188SOL    HW313072   0.181   6.553   4.121
 3188SOL    MW413073   0.219   6.587   4.050
 3189SOL     OW13074   0.590   6.944   3.909
 3189SOL    HW213075   0.605   6.920   4.001
 3189SOL    HW313076   0.498   6.922   3.893
 3189SOL    MW413077   0.580   6.937   3.919
 3190SOL     OW13078   1.129   7.175   4.061
 3190SOL    HW213079   1.137   7.093   4.012
 3190SOL    HW313080   1.048   7.214   4.028
 3190SOL    MW413081   1.119   7.170   4.051
 3191SOL     OW13082   0.388   7.333   4.630
 3191SOL    HW213083   0.392   7.244   4.665
 3191SOL    HW313084   0.414   7.324   4.539
 3191SOL    MW413085   0.391   7.321   4.622
 3192SOL     OW13086   1.005   6.811   4.873
 3192SOL    HW213087   0.937   6.745   4.889
 3192SOL    HW313088   1.023   6.805   4.780
 3192SOL    MW413089   0.998   6.802   4.864
 3193SOL     OW13090   0.094   7.086   5.124
 3193SOL    HW213091   0.084   7.044   5.210
 3193SOL    HW313092   0.015   7.139   5.114
 3193SOL    MW413093   0.083   7.087   5.135
 3194SOL     OW13094   0.998   5.950   4.694
 3194SOL    HW213095   0.928   5.902   4.739
 3194SOL    HW313096   1.030   6.013   4.758
 3194SOL    MW413097   0.993   5.952   4.708
 3195SOL     OW13098   0.649   6.386   5.314
 3195SOL    HW213099   0.642   6.481   5.302
 3195SOL    HW313100   0.658   6.375   5.409
 3195SOL    MW413101   0.650   6.398   5.324
 3196SOL     OW13102   0.370   6.901   5.572
 3196SOL    HW213103   0.442   6.903   5.509
 3196SOL    HW313104   0.340   6.810   5.571
 3196SOL    MW413105   0.375   6.890   5.564
 3197SOL     OW13106   1.454   5.664   5.039
 3197SOL    HW213107   1.525   5.610   5.003
 3197SOL    HW313108   1.453   5.643   5.132
 3197SOL    MW413109   1.463   5.655   5.047
 3198SOL     OW13110   1.654   7.194   5.523
 3198SOL    HW213111   1.627   7.191   5.614
 3198SOL    HW313112   1.750   7.198   5.526
 3198SOL    MW413113   1.664   7.194   5.535
 3199SOL     OW13114   0.465   6.056   4.507
 3199SOL    HW213115   0.536   6.004   4.470
 3199SOL    HW313116   0.451   6.021   4.594
 3199SOL    MW413117   0.473   6.045   4.514
 3200SOL     OW13118   0.020   7.391   5.579
 3200SOL    HW213119   0.070   7.369   5.501
 3200SOL    HW313120   0.028   7.486   5.587
 3200SOL    MW413121   0.028   7.400   5.570
 3201SOL     OW13122   0.781   7.149   4.583
 3201SOL    HW213123   0.709   7.086   4.596
 3201SOL    HW313124   0.742   7.234   4.601
 3201SOL    MW413125   0.765   7.152   4.586
 3202SOL     OW13126   1.101   5.997   4.231
 3202SOL    HW213127   1.123   5.934   4.163
 3202SOL    HW313128   1.006   5.989   4.242
 3202SOL    MW413129   1.091   5.988   4.223
 3203SOL     OW13130   0.186   5.687   4.163
 3203SOL    HW213131   0.257   5.708   4.102
 3203SOL    HW313132   0.140   5.615   4.121
 3203SOL    MW413133   0.190   5.681   4.149
 3204SOL     OW13134   0.017   6.154   5.306
 3204SOL    HW213135   0.081   6.220   5.281
 3204SOL    HW313136  -0.064   6.181   5.263
 3204SOL    MW413137   0.015   6.166   5.298
 3205SOL     OW13138   1.755   7.061   4.263
 3205SOL    HW213139   1.725   6.994   4.324
 3205SOL    HW313140   1.849   7.067   4.277
 3205SOL    MW413141   1.763   7.053   4.273
 3206SOL     OW13142   1.311   6.738   4.193
 3206SOL    HW213143   1.283   6.824   4.226
 3206SOL    HW313144   1.339   6.754   4.103
 3206SOL    MW413145   1.311   6.752   4.185
 3207SOL     OW13146   0.973   5.658   4.246
 3207SOL    HW213147   1.010   5.717   4.311
 3207SOL    HW313148   0.950   5.714   4.172
 3207SOL    MW413149   0.974   5.673   4.245
 3208SOL     OW13150   1.826   6.540   4.668
 3208SOL    HW213151   1.817   6.572   4.579
 3208SOL    HW313152   1.779   6.456   4.668
 3208SOL    MW413153   1.819   6.533   4.658
 3209SOL     OW13154   0.202   6.380   5.247
 3209SOL    HW213155   0.223   6.449   5.185
 3209SOL    HW313156   0.282   6.327   5.252
 3209SOL    MW413157   0.215   6.381   5.241
 3210SOL     OW13158   1.738   6.471   4.369
 3210SOL    HW213159   1.832   6.460   4.357
 3210SOL    HW313160   1.714   6.543   4.310
 3210SOL    MW413161   1.748   6.479   4.360
 3211SOL     OW13162   0.187   6.395   5.514
 3211SOL    HW213163   0.113   6.339   5.540
 3211SOL    HW313164   0.182   6.398   5.419
 3211SOL    MW413165   0.176   6.388   5.504
 3212SOL     OW13166   0.353   5.682   4.964
 3212SOL    HW213167   0.396   5.766   4.984
 3212SOL    HW313168   0.426   5.620   4.957
 3212SOL    MW413169   0.368   5.685   4.965
 3213SOL     OW13170   0.394   6.349   4.142
 3213SOL    HW213171   0.394   6.444   4.127
 3213SOL    HW313172   0.471   6.333   4.196
 3213SOL    MW413173   0.404   6.360   4.147
 3214SOL     OW13174   1.170   6.208   5.206
 3214SOL    HW213175   1.206   6.181   5.122
 3214SOL    HW313176   1.083   6.242   5.185
 3214SOL    MW413177   1.164   6.209   5.193
 3215SOL     OW13178   0.153   6.080   4.431
 3215SOL    HW213179   0.215   6.087   4.504
 3215SOL    HW313180   0.153   5.987   4.408
 3215SOL    MW413181   0.161   6.069   4.438
 3216SOL     OW13182   1.700   7.420   3.963
 3216SOL    HW213183   1.767   7.453   3.903
 3216SOL    HW313184   1.657   7.499   3.997
 3216SOL    MW413185   1.702   7.435   3.959
 3217SOL     OW13186   0.835   6.341   4.915
 3217SOL    HW213187   0.793   6.259   4.891
 3217SOL    HW313188   0.836   6.340   5.011
 3217SOL    MW413189   0.828   6.330   4.924
 3218SOL     OW13190   1.506   7.474   5.314
 3218SOL    HW213191   1.509   7.380   5.297
 3218SOL    HW313192   1.529   7.482   5.406
 3218SOL    MW413193   1.509   7.462   5.324
 3219SOL     OW13194   0.639   5.811   5.020
 3219SOL    HW213195   0.570   5.874   5.041
 3219SOL    HW313196   0.666   5.775   5.105
 3219SOL    MW413197   0.633   5.814   5.033
 3220SOL     OW13198   0.022   6.652   3.889
 3220SOL    HW213199  -0.009   6.717   3.952
 3220SOL    HW313200  -0.029   6.574   3.908
 3220SOL    MW413201   0.012   6.649   3.899
 3221SOL     OW13202   1.434   5.664   4.637
 3221SOL    HW213203   1.522   5.673   4.674
 3221SOL    HW313204   1.444   5.605   4.563
 3221SOL    MW413205   1.448   5.658   4.631
 3222SOL     OW13206   1.466   6.403   4.481
 3222SOL    HW213207   1.546   6.418   4.430
 3222SOL    HW313208   1.459   6.308   4.487
 3222SOL    MW413209   1.475   6.392   4.476
 3223SOL     OW13210   0.606   7.452   3.831
 3223SOL    HW213211   0.511   7.452   3.823
 3223SOL    HW313212   0.622   7.398   3.909
 3223SOL    MW413213   0.596   7.446   3.840
 3224SOL     OW13214   0.916   6.329   5.178
 3224SOL    HW213215   0.985   6.396   5.175
 3224SOL    HW313216   0.849   6.367   5.234
 3224SOL    MW413217   0.917   6.342   5.185
 3225SOL     OW13218   0.334   6.629   5.426
 3225SOL    HW213219   0.288   6.545   5.428
 3225SOL    HW313220   0.391   6.623   5.350
 3225SOL    MW413221   0.336   6.617   5.418
 3226SOL     OW13222   1.451   6.272   3.747
 3226SOL    HW213223   1.379   6.248   3.689
 3226SOL    HW313224   1.517   6.309   3.689
 3226SOL    MW413225   1.450   6.274   3.732
 3227SOL     OW13226   0.585   7.004   4.427
 3227SOL    HW213227   0.650   6.937   4.448
 3227SOL    HW313228   0.637   7.081   4.404
 3227SOL    MW413229   0.600   7.006   4.426
 3228SOL     OW13230   0.846   6.169   4.557
 3228SOL    HW213231   0.786   6.187   4.629
 3228SOL    HW313232   0.880   6.081   4.576
 3228SOL    MW413233   0.842   6.159   4.570
 3229SOL     OW13234   1.787   5.668   5.226
 3229SOL    HW213235   1.708   5.714   5.254
 3229SOL    HW313236   1.822   5.722   5.155
 3229SOL    MW413237   1.781   5.681   5.220
 3230SOL     OW13238   1.071   6.752   4.576
 3230SOL    HW213239   1.163   6.733   4.594
 3230SOL    HW313240   1.044   6.682   4.516
 3230SOL    MW413241   1.079   6.740   4.570
 3231SOL     OW13242   0.864   6.572   3.931
 3231SOL    HW213243   0.850   6.484   3.896
 3231SOL    HW313244   0.815   6.629   3.872
 3231SOL    MW413245   0.856   6.567   3.919
 3232SOL     OW13246   1.345   6.990   4.672
 3232SOL    HW213247   1.318   7.074   4.637
 3232SOL    HW313248   1.305   6.985   4.759
 3232SOL    MW413249   1.338   6.999   4.678
 3233SOL     OW13250   1.264   6.938   4.940
 3233SOL    HW213251   1.275   6.905   5.029
 3233SOL    HW313252   1.183   6.897   4.909
 3233SOL    MW413253   1.254   6.930   4.946
 3234SOL     OW13254   0.277   6.296   4.710
 3234SOL    HW213255   0.227   6.295   4.791
 3234SOL    HW313256   0.297   6.388   4.694
 3234SOL    MW413257   0.273   6.308   4.718
 3235SOL     OW13258   1.344   7.060   5.472
 3235SOL    HW213259   1.344   7.154   5.488
 3235SOL    HW313260   1.389   7.050   5.388
 3235SOL    MW413261   1.350   7.070   5.463
 3236SOL     OW13262   1.583   5.778   4.033
 3236SOL    HW213263   1.576   5.782   4.128
 3236SOL    HW313264   1.595   5.869   4.006
 3236SOL    MW413265   1.584   5.791   4.041
 3237SOL     OW13266   0.872   6.341   4.147
 3237SOL    HW213267   0.852   6.327   4.054
 3237SOL    HW313268   0.965   6.320   4.154
 3237SOL    MW413269   0.882   6.336   4.136
 3238SOL     OW13270   0.199   5.964   5.451
 3238SOL    HW213271   0.156   6.023   5.388
 3238SOL    HW313272   0.267   6.019   5.491
 3238SOL    MW413273   0.203   5.979   5.448
 3239SOL     OW13274   1.311   6.584   4.996
 3239SOL    HW213275   1.374   6.581   5.069
 3239SOL    HW313276   1.227   6.602   5.038
 3239SOL    MW413277   1.307   6.586   5.011
 3240SOL     OW13278   0.855   7.299   4.185
 3240SOL    HW213279   0.913   7.370   4.212
 3240SOL    HW313280   0.878   7.227   4.243
 3240SOL    MW413281   0.866   7.299   4.196
 3241SOL     OW13282   1.650   5.761   4.775
 3241SOL    HW213283   1.695   5.679   4.794
 3241SOL    HW313284   1.670   5.817   4.851
 3241SOL    MW413285   1.660   5.757   4.787
 3242SOL     OW13286   0.098   5.604   4.874
 3242SOL    HW213287   0.089   5.605   4.779
 3242SOL    HW313288   0.192   5.616   4.889
 3242SOL    MW413289   0.110   5.607   4.865
 3243SOL     OW13290   1.735   6.797   4.494
 3243SOL    HW213291   1.714   6.743   4.417
 3243SOL    HW313292   1.831   6.795   4.498
 3243SOL    MW413293   1.744   6.790   4.483
 3244SOL     OW13294   0.427   6.942   5.237
 3244SOL    HW213295   0.348   6.892   5.260
 3244SOL    HW313296   0.497   6.901   5.287
 3244SOL    MW413297   0.425   6.930   5.247
 3245SOL     OW13298   0.311   5.731   3.920
 3245SOL    HW213299   0.240   5.786   3.888
 3245SOL    HW313300   0.353   5.697   3.841
 3245SOL    MW413301   0.307   5.733   3.906
 3246SOL     OW13302   1.435   6.228   4.756
 3246SOL    HW213303   1.358   6.274   4.722
 3246SOL    HW313304   1.492   6.297   4.790
 3246SOL    MW413305   1.432   6.243   4.756
 3247SOL     OW13306   0.067   5.830   3.769
 3247SOL    HW213307   0.034   5.909   3.813
 3247SOL    HW313308   0.122   5.863   3.698
 3247SOL    MW413309   0.070   5.844   3.766
 3248SOL     OW13310   0.101   7.087   3.958
 3248SOL    HW213311   0.118   7.171   4.000
 3248SOL    HW313312   0.136   7.096   3.870
 3248SOL    MW413313   0.106   7.100   3.952
 3249SOL     OW13314   1.373   7.176   4.175
 3249SOL    HW213315   1.436   7.166   4.104
 3249SOL    HW313316   1.290   7.196   4.130
 3249SOL    MW413317   1.370   7.177   4.160
 3250SOL     OW13318   1.736   6.444   5.862
 3250SOL    HW213319   1.777   6.386   5.927
 3250SOL    HW313320   1.643   6.436   5.879
 3250SOL    MW413321   1.730   6.436   5.872
 3251SOL     OW13322   1.602   6.376   6.857
 3251SOL    HW213323   1.557   6.443   6.908
 3251SOL    HW313324   1.690   6.412   6.843
 3251SOL    MW413325   1.608   6.389   6.861
 3252SOL     OW13326   0.530   6.627   6.091
 3252SOL    HW213327   0.620   6.602   6.075
 3252SOL    HW313328   0.526   6.720   6.068
 3252SOL    MW413329   0.542   6.636   6.086
 3253SOL     OW13330   1.646   7.330   6.233
 3253SOL    HW213331   1.658   7.276   6.311
 3253SOL    HW313332   1.683   7.278   6.162
 3253SOL    MW413333   1.652   7.315   6.234
 3254SOL     OW13334   1.025   7.215   7.234
 3254SOL    HW213335   1.066   7.251   7.155
 3254SOL    HW313336   1.060   7.126   7.241
 3254SOL    MW413337   1.036   7.208   7.225
 3255SOL     OW13338   1.582   6.770   6.838
 3255SOL    HW213339   1.503   6.735   6.796
 3255SOL    HW313340   1.609   6.842   6.782
 3255SOL    MW413341   1.575   6.775   6.825
 3256SOL     OW13342   0.814   6.083   6.104
 3256SOL    HW213343   0.789   6.171   6.132
 3256SOL    HW313344   0.811   6.086   6.008
 3256SOL    MW413345   0.810   6.095   6.096
 3257SOL     OW13346   0.256   6.111   6.032
 3257SOL    HW213347   0.288   6.199   6.014
 3257SOL    HW313348   0.244   6.109   6.127
 3257SOL    MW413349   0.259   6.123   6.044
 3258SOL     OW13350   0.334   6.524   6.933
 3258SOL    HW213351   0.397   6.471   6.884
 3258SOL    HW313352   0.315   6.598   6.876
 3258SOL    MW413353   0.340   6.526   6.920
 3259SOL     OW13354   0.655   5.866   6.119
 3259SOL    HW213355   0.713   5.942   6.121
 3259SOL    HW313356   0.590   5.887   6.052
 3259SOL    MW413357   0.654   5.878   6.110
 3260SOL     OW13358   0.742   6.793   6.294
 3260SOL    HW213359   0.822   6.796   6.346
 3260SOL    HW313360   0.770   6.760   6.208
 3260SOL    MW413361   0.756   6.789   6.289
 3261SOL     OW13362   0.767   7.134   7.197
 3261SOL    HW213363   0.851   7.160   7.236
 3261SOL    HW313364   0.791   7.078   7.123
 3261SOL    MW413365   0.781   7.130   7.192
 3262SOL     OW13366   0.519   6.297   6.285
 3262SOL    HW213367   0.504   6.217   6.336
 3262SOL    HW313368   0.601   6.332   6.319
 3262SOL    MW413369   0.527   6.289   6.297
 3263SOL     OW13370   0.856   6.983   6.970
 3263SOL    HW213371   0.820   7.049   6.910
 3263SOL    HW313372   0.784   6.921   6.983
 3263SOL    MW413373   0.842   6.983   6.964
 3264SOL     OW13374   0.661   6.123   6.662
 3264SOL    HW213375   0.567   6.119   6.680
 3264SOL    HW313376   0.691   6.032   6.671
 3264SOL    MW413377   0.652   6.111   6.665
 3265SOL     OW13378   0.407   6.537   6.566
 3265SOL    HW213379   0.362   6.544   6.482
 3265SOL    HW313380   0.387   6.620   6.610
 3265SOL    MW413381   0.399   6.549   6.560
 3266SOL     OW13382   0.104   7.383   6.441
 3266SOL    HW213383   0.193   7.375   6.476
 3266SOL    HW313384   0.068   7.295   6.446
 3266SOL    MW413385   0.111   7.370   6.446
 3267SOL     OW13386   1.369   6.775   5.810
 3267SOL    HW213387   1.287   6.811   5.776
 3267SOL    HW313388   1.437   6.818   5.759
 3267SOL    MW413389   1.367   6.785   5.798
 3268SOL     OW13390   0.368   6.910   6.476
 3268SOL    HW213391   0.344   6.963   6.552
 3268SOL    HW313392   0.424   6.968   6.424
 3268SOL    MW413393   0.372   6.925   6.479
 3269SOL     OW13394   0.930   6.554   6.286
 3269SOL    HW213395   0.844   6.541   6.326
 3269SOL    HW313396   0.983   6.481   6.318
 3269SOL    MW413397   0.926   6.543   6.295
 3270SOL     OW13398   0.338   7.206   7.071
 3270SOL    HW213399   0.246   7.182   7.056
 3270SOL    HW313400   0.382   7.123   7.088
 3270SOL    MW413401   0.332   7.191   7.070
 3271SOL     OW13402   0.921   6.916   6.003
 3271SOL    HW213403   0.898   6.978   6.071
 3271SOL    HW313404   0.878   6.834   6.029
 3271SOL    MW413405   0.913   6.912   6.014
 3272SOL     OW13406   1.794   5.917   6.459
 3272SOL    HW213407   1.731   5.897   6.528
 3272SOL    HW313408   1.784   5.846   6.396
 3272SOL    MW413409   1.784   5.904   6.460
 3273SOL     OW13410   0.418   5.889   5.971
 3273SOL    HW213411   0.392   5.851   5.887
 3273SOL    HW313412   0.355   5.959   5.987
 3273SOL    MW413413   0.407   5.892   5.962
 3274SOL     OW13414   0.253   6.850   6.008
 3274SOL    HW213415   0.201   6.918   5.964
 3274SOL    HW313416   0.250   6.776   5.948
 3274SOL    MW413417   0.245   6.849   5.995
 3275SOL     OW13418   0.915   7.313   5.786
 3275SOL    HW213419   0.870   7.329   5.869
 3275SOL    HW313420   0.846   7.278   5.728
 3275SOL    MW413421   0.901   7.310   5.788
 3276SOL     OW13422   1.850   6.086   5.761
 3276SOL    HW213423   1.759   6.088   5.789
 3276SOL    HW313424   1.895   6.148   5.819
 3276SOL    MW413425   1.843   6.094   5.771
 3277SOL     OW13426   1.595   6.689   6.111
 3277SOL    HW213427   1.505   6.689   6.146
 3277SOL    HW313428   1.588   6.735   6.028
 3277SOL    MW413429   1.582   6.695   6.105
 3278SOL     OW13430   1.395   6.324   7.183
 3278SOL    HW213431   1.464   6.262   7.160
 3278SOL    HW313432   1.320   6.298   7.130
 3278SOL    MW413433   1.395   6.311   7.174
 3279SOL     OW13434   0.136   7.204   6.735
 3279SOL    HW213435   0.119   7.150   6.812
 3279SOL    HW313436   0.124   7.294   6.765
 3279SOL    MW413437   0.133   7.208   6.749
 3280SOL     OW13438   1.131   6.711   7.175
 3280SOL    HW213439   1.116   6.804   7.160
 3280SOL    HW313440   1.226   6.701   7.175
 3280SOL    MW413441   1.140   6.721   7.172
 3281SOL     OW13442   0.927   6.135   7.376
 3281SOL    HW213443   1.017   6.136   7.343
 3281SOL    HW313444   0.886   6.060   7.334
 3281SOL    MW413445   0.933   6.125   7.367
 3282SOL     OW13446   1.502   6.667   6.503
 3282SOL    HW213447   1.505   6.601   6.434
 3282SOL    HW313448   1.587   6.710   6.499
 3282SOL    MW413449   1.514   6.663   6.494
 3283SOL     OW13450   1.122   6.270   6.072
 3283SOL    HW213451   1.148   6.294   5.983
 3283SOL    HW313452   1.104   6.177   6.068
 3283SOL    MW413453   1.124   6.262   6.059
 3284SOL     OW13454   1.787   6.890   5.923
 3284SOL    HW213455   1.743   6.931   5.998
 3284SOL    HW313456   1.844   6.958   5.888
 3284SOL    MW413457   1.789   6.904   5.928
 3285SOL     OW13458   0.707   5.939   7.326
 3285SOL    HW213459   0.717   5.865   7.266
 3285SOL    HW313460   0.743   5.908   7.409
 3285SOL    MW413461   0.713   5.925   7.328
 3286SOL     OW13462   0.443   7.306   6.241
 3286SOL    HW213463   0.475   7.394   6.219
 3286SOL    HW313464   0.396   7.278   6.163
 3286SOL    MW413465   0.442   7.314   6.228
 3287SOL     OW13466   1.827   5.668   6.290
 3287SOL    HW213467   1.881   5.619   6.352
 3287SOL    HW313468   1.770   5.602   6.251
 3287SOL    MW413469   1.827   5.652   6.292
 3288SOL     OW13470   0.159   7.366   5.818
 3288SOL    HW213471   0.188   7.456   5.810
 3288SOL    HW313472   0.109   7.349   5.739
 3288SOL    MW413473   0.157   7.374   5.807
 3289SOL     OW13474   0.946   5.621   6.703
 3289SOL    HW213475   0.905   5.699   6.665
 3289SOL    HW313476   1.040   5.639   6.698
 3289SOL    MW413477   0.952   5.633   6.698
 3290SOL     OW13478   1.563   7.174   5.789
 3290SOL    HW213479   1.611   7.243   5.835
 3290SOL    HW313480   1.484   7.218   5.758
 3290SOL    MW413481   1.558   7.188   5.792
 3291SOL     OW13482   0.961   6.299   5.733
 3291SOL    HW213483   0.963   6.246   5.654
 3291SOL    HW313484   1.049   6.336   5.739
 3291SOL    MW413485   0.973   6.298   5.722
 3292SOL     OW13486   1.575   6.225   6.069
 3292SOL    HW213487   1.614   6.225   6.156
 3292SOL    HW313488   1.516   6.301   6.069
 3292SOL    MW413489   1.572   6.236   6.080
 3293SOL     OW13490   0.892   6.592   7.198
 3293SOL    HW213491   0.869   6.572   7.288
 3293SOL    HW313492   0.977   6.636   7.203
 3293SOL    MW413493   0.899   6.595   7.210
 3294SOL     OW13494   0.972   5.729   6.958
 3294SOL    HW213495   0.978   5.691   6.871
 3294SOL    HW313496   0.961   5.823   6.943
 3294SOL    MW413497   0.973   5.737   6.946
 3295SOL     OW13498   1.061   6.218   6.792
 3295SOL    HW213499   1.136   6.247   6.739
 3295SOL    HW313500   0.993   6.283   6.776
 3295SOL    MW413501   1.062   6.230   6.782
 3296SOL     OW13502   1.611   6.186   7.069
 3296SOL    HW213503   1.592   6.095   7.048
 3296SOL    HW313504   1.589   6.235   6.990
 3296SOL    MW413505   1.606   6.179   7.056
 3297SOL     OW13506   1.753   7.280   6.973
 3297SOL    HW213507   1.681   7.242   7.024
 3297SOL    HW313508   1.770   7.365   7.014
 3297SOL    MW413509   1.747   7.285   6.985
 3298SOL     OW13510   1.058   5.924   7.175
 3298SOL    HW213511   1.024   5.963   7.094
 3298SOL    HW313512   1.036   5.832   7.168
 3298SOL    MW413513   1.051   5.917   7.165
 3299SOL     OW13514   1.467   6.738   7.251
 3299SOL    HW213515   1.549   6.779   7.281
 3299SOL    HW313516   1.430   6.700   7.331
 3299SOL    MW413517   1.473   6.739   7.266
 3300SOL     OW13518   1.762   6.111   6.235
 3300SOL    HW213519   1.851   6.080   6.252
 3300SOL    HW313520   1.705   6.051   6.283
 3300SOL    MW413521   1.765   6.099   6.244
 3301SOL     OW13522   0.188   5.825   6.264
 3301SOL    HW213523   0.179   5.765   6.190
 3301SOL    HW313524   0.121   5.796   6.327
 3301SOL    MW413525   0.178   5.812   6.262
 3302SOL     OW13526   1.131   6.918   5.825
 3302SOL    HW213527   1.081   6.920   5.907
 3302SOL    HW313528   1.065   6.936   5.757
 3302SOL    MW413529   1.117   6.920   5.827
 3303SOL     OW13530   0.135   5.998   6.627
 3303SOL    HW213531   0.107   6.089   6.636
 3303SOL    HW313532   0.072   5.959   6.566
 3303SOL    MW413533   0.122   6.004   6.621
 3304SOL     OW13534   0.594   7.336   5.933
 3304SOL    HW213535   0.515   7.294   5.966
 3304SOL    HW313536   0.660   7.319   6.000
 3304SOL    MW413537   0.593   7.328   5.946
 3305SOL     OW13538   1.722   6.856   7.330
 3305SOL    HW213539   1.772   6.782   7.362
 3305SOL    HW313540   1.668   6.883   7.405
 3305SOL    MW413541   1.722   6.850   7.343
 3306SOL     OW13542   0.730   6.751   5.640
 3306SOL    HW213543   0.652   6.697   5.627
 3306SOL    HW313544   0.701   6.824   5.693
 3306SOL    MW413545   0.716   6.753   5.645
 3307SOL     OW13546   1.856   6.491   6.832
 3307SOL    HW213547   1.872   6.529   6.745
 3307SOL    HW313548   1.890   6.557   6.893
 3307SOL    MW413549   1.863   6.504   6.828
 3308SOL     OW13550   1.648   7.200   6.501
 3308SOL    HW213551   1.677   7.267   6.562
 3308SOL    HW313552   1.629   7.124   6.556
 3308SOL    MW413553   1.650   7.200   6.516
 3309SOL     OW13554   1.311   7.267   5.708
 3309SOL    HW213555   1.237   7.230   5.758
 3309SOL    HW313556   1.319   7.357   5.741
 3309SOL    MW413557   1.302   7.274   5.720
 3310SOL     OW13558   0.119   6.273   6.797
 3310SOL    HW213559   0.181   6.303   6.863
 3310SOL    HW313560   0.053   6.342   6.791
 3310SOL    MW413561   0.118   6.286   6.804
 3311SOL     OW13562   1.535   6.941   5.650
 3311SOL    HW213563   1.482   6.990   5.586
 3311SOL    HW313564   1.566   7.007   5.711
 3311SOL    MW413565   1.533   6.955   5.648
 3312SOL     OW13566   0.760   5.830   5.705
 3312SOL    HW213567   0.708   5.750   5.693
 3312SOL    HW313568   0.847   5.807   5.673
 3312SOL    MW413569   0.763   5.816   5.699
 3313SOL     OW13570   0.214   7.382   7.249
 3313SOL    HW213571   0.188   7.450   7.187
 3313SOL    HW313572   0.262   7.319   7.197
 3313SOL    MW413573   0.216   7.382   7.235
 3314SOL     OW13574   0.266   6.701   6.756
 3314SOL    HW213575   0.319   6.776   6.781
 3314SOL    HW313576   0.185   6.739   6.722
 3314SOL    MW413577   0.262   6.716   6.756
 3315SOL     OW13578   0.806   6.605   6.744
 3315SOL    HW213579   0.834   6.514   6.756
 3315SOL    HW313580   0.735   6.599   6.680
 3315SOL    MW413581   0.799   6.593   6.739
 3316SOL     OW13582   0.121   6.470   6.162
 3316SOL    HW213583   0.212   6.485   6.189
 3316SOL    HW313584   0.124   6.391   6.108
 3316SOL    MW413585   0.133   6.462   6.160
 3317SOL     OW13586   0.357   6.178   7.416
 3317SOL    HW213587   0.304   6.258   7.423
 3317SOL    HW313588   0.427   6.190   7.481
 3317SOL    MW413589   0.359   6.191   7.424
 3318SOL     OW13590   0.743   5.728   7.123
 3318SOL    HW213591   0.720   5.636   7.125
 3318SOL    HW313592   0.829   5.730   7.080
 3318SOL    MW413593   0.750   5.718   7.119
 3319SOL     OW13594   0.427   6.252   7.162
 3319SOL    HW213595   0.507   6.302   7.148
 3319SOL    HW313596   0.418   6.246   7.257
 3319SOL    MW413597   0.436   6.258   7.172
 3320SOL     OW13598   0.748   7.402   6.536
 3320SOL    HW213599   0.837   7.417   6.566
 3320SOL    HW313600   0.743   7.449   6.452
 3320SOL    MW413601   0.758   7.410   6.529
 3321SOL     OW13602   1.404   5.777   7.433
 3321SOL    HW213603   1.460   5.704   7.459
 3321SOL    HW313604   1.374   5.815   7.515
 3321SOL    MW413605   1.408   5.772   7.446
 3322SOL     OW13606   0.129   7.082   6.201
 3322SOL    HW213607   0.101   7.121   6.283
 3322SOL    HW313608   0.149   6.991   6.223
 3322SOL    MW413609   0.127   7.074   6.214
 3323SOL     OW13610   0.962   7.125   6.236
 3323SOL    HW213611   1.045   7.079   6.220
 3323SOL    HW313612   0.952   7.124   6.332
 3323SOL    MW413613   0.972   7.118   6.246
 3324SOL     OW13614   1.794   6.270   6.550
 3324SOL    HW213615   1.883   6.300   6.532
 3324SOL    HW313616   1.774   6.210   6.479
 3324SOL    MW413617   1.803   6.267   6.539
 3325SOL     OW13618   1.645   6.449   7.430
 3325SOL    HW213619   1.700   6.373   7.411
 3325SOL    HW313620   1.647   6.457   7.525
 3325SOL    MW413621   1.653   6.440   7.438
 3326SOL     OW13622   0.695   7.182   5.641
 3326SOL    HW213623   0.635   7.251   5.611
 3326SOL    HW313624   0.640   7.124   5.694
 3326SOL    MW413625   0.679   7.184   5.643
 3327SOL     OW13626   1.133   5.827   5.864
 3327SOL    HW213627   1.066   5.803   5.801
 3327SOL    HW313628   1.198   5.876   5.813
 3327SOL    MW413629   1.133   5.829   5.849
 3328SOL     OW13630   0.940   6.011   6.949
 3328SOL    HW213631   0.859   6.052   6.977
 3328SOL    HW313632   0.987   6.079   6.901
 3328SOL    MW413633   0.935   6.026   6.947
 3329SOL     OW13634   1.200   6.349   6.572
 3329SOL    HW213635   1.213   6.443   6.582
 3329SOL    HW313636   1.161   6.339   6.486
 3329SOL    MW413637   1.196   6.360   6.562
 3330SOL     OW13638   0.652   6.544   6.376
 3330SOL    HW213639   0.563   6.535   6.409
 3330SOL    HW313640   0.656   6.634   6.344
 3330SOL    MW413641   0.641   6.555   6.376
 3331SOL     OW13642   1.451   6.127   6.371
 3331SOL    HW213643   1.396   6.048   6.370
 3331SOL    HW313644   1.433   6.168   6.455
 3331SOL    MW413645   1.441   6.122   6.380
 3332SOL     OW13646   0.422   5.814   7.188
 3332SOL    HW213647   0.343   5.832   7.240
 3332SOL    HW313648   0.417   5.876   7.115
 3332SOL    MW413649   0.412   5.824   7.185
 3333SOL     OW13650   1.070   6.331   6.328
 3333SOL    HW213651   1.007   6.263   6.352
 3333SOL    HW313652   1.090   6.312   6.236
 3333SOL    MW413653   1.064   6.318   6.320
 3334SOL     OW13654   0.326   7.226   6.030
 3334SOL    HW213655   0.287   7.273   5.956
 3334SOL    HW313656   0.260   7.161   6.055
 3334SOL    MW413657   0.313   7.224   6.024
 3335SOL     OW13658   0.818   6.635   6.054
 3335SOL    HW213659   0.820   6.609   5.961
 3335SOL    HW313660   0.876   6.572   6.097
 3335SOL    MW413661   0.826   6.624   6.048
 3336SOL     OW13662   1.371   7.195   6.826
 3336SOL    HW213663   1.296   7.241   6.864
 3336SOL    HW313664   1.353   7.102   6.843
 3336SOL    MW413665   1.360   7.189   6.834
 3337SOL     OW13666   1.375   7.403   6.256
 3337SOL    HW213667   1.318   7.356   6.195
 3337SOL    HW313668   1.461   7.364   6.243
 3337SOL    MW413669   1.378   7.394   6.246
 3338SOL     OW13670   1.328   5.879   6.387
 3338SOL    HW213671   1.356   5.811   6.448
 3338SOL    HW313672   1.242   5.850   6.357
 3338SOL    MW413673   1.321   5.866   6.391
 3339SOL     OW13674   0.133   6.813   6.321
 3339SOL    HW213675   0.197   6.845   6.384
 3339SOL    HW313676   0.182   6.749   6.269
 3339SOL    MW413677   0.148   6.809   6.322
 3340SOL     OW13678   0.633   6.889   7.303
 3340SOL    HW213679   0.681   6.972   7.290
 3340SOL    HW313680   0.690   6.837   7.359
 3340SOL    MW413681   0.647   6.893   7.309
 3341SOL     OW13682   0.209   7.131   7.443
 3341SOL    HW213683   0.265   7.055   7.458
 3341SOL    HW313684   0.158   7.109   7.365
 3341SOL    MW413685   0.209   7.118   7.434
 3342SOL     OW13686   1.308   5.983   5.722
 3342SOL    HW213687   1.281   6.049   5.658
 3342SOL    HW313688   1.378   6.026   5.772
 3342SOL    MW413689   1.313   5.996   5.719
 3343SOL     OW13690   0.976   5.688   5.659
 3343SOL    HW213691   1.032   5.680   5.581
 3343SOL    HW313692   0.953   5.598   5.681
 3343SOL    MW413693   0.981   5.675   5.652
 3344SOL     OW13694   1.481   6.539   5.864
 3344SOL    HW213695   1.448   6.628   5.854
 3344SOL    HW313696   1.446   6.510   5.949
 3344SOL    MW413697   1.471   6.548   5.875
 3345SOL     OW13698   1.094   6.968   7.052
 3345SOL    HW213699   1.005   6.974   7.020
 3345SOL    HW313700   1.138   7.047   7.020
 3345SOL    MW413701   1.089   6.978   7.044
 3346SOL     OW13702   0.387   5.636   7.394
 3346SOL    HW213703   0.315   5.601   7.342
 3346SOL    HW313704   0.445   5.677   7.329
 3346SOL    MW413705   0.385   5.637   7.379
 3347SOL     OW13706   0.411   7.126   6.693
 3347SOL    HW213707   0.456   7.188   6.750
 3347SOL    HW313708   0.318   7.145   6.706
 3347SOL    MW413709   0.404   7.136   6.700
 3348SOL     OW13710   1.851   6.655   7.047
 3348SOL    HW213711   1.766   6.668   7.006
 3348SOL    HW313712   1.831   6.619   7.134
 3348SOL    MW413713   1.838   6.651   7.052
 3349SOL     OW13714   0.833   7.194   6.801
 3349SOL    HW213715   0.857   7.183   6.710
 3349SOL    HW313716   0.756   7.251   6.799
 3349SOL    MW413717   0.825   7.199   6.790
 3350SOL     OW13718   0.475   6.577   5.656
 3350SOL    HW213719   0.398   6.590   5.712
 3350SOL    HW313720   0.439   6.541   5.575
 3350SOL    MW413721   0.461   6.573   5.653
 3351SOL     OW13722   1.128   6.550   5.899
 3351SOL    HW213723   1.038   6.571   5.874
 3351SOL    HW313724   1.155   6.623   5.955
 3351SOL    MW413725   1.120   6.562   5.902
 3352SOL     OW13726   0.628   6.899   6.591
 3352SOL    HW213727   0.621   6.878   6.685
 3352SOL    HW313728   0.546   6.867   6.554
 3352SOL    MW413729   0.616   6.893   6.598
 3353SOL     OW13730   1.492   5.909   6.993
 3353SOL    HW213731   1.439   5.911   7.073
 3353SOL    HW313732   1.477   5.822   6.956
 3353SOL    MW413733   1.484   5.899   6.998
 3354SOL     OW13734   1.828   5.833   6.866
 3354SOL    HW213735   1.809   5.900   6.801
 3354SOL    HW313736   1.885   5.771   6.821
 3354SOL    MW413737   1.832   5.834   6.852
 3355SOL     OW13738   0.074   6.991   7.254
 3355SOL    HW213739   0.118   6.924   7.200
 3355SOL    HW313740  -0.011   6.953   7.274
 3355SOL    MW413741   0.069   6.977   7.250
 3356SOL     OW13742   0.757   5.666   6.306
 3356SOL    HW213743   0.686   5.727   6.288
 3356SOL    HW313744   0.808   5.663   6.225
 3356SOL    MW413745   0.753   5.672   6.293
 3357SOL     OW13746   0.515   6.906   6.055
 3357SOL    HW213747   0.508   6.938   6.145
 3357SOL    HW313748   0.425   6.890   6.027
 3357SOL    MW413749   0.503   6.908   6.062
 3358SOL     OW13750   1.110   7.299   6.964
 3358SOL    HW213751   1.030   7.284   6.914
 3358SOL    HW313752   1.117   7.394   6.971
 3358SOL    MW413753   1.101   7.310   6.958
 3359SOL     OW13754   1.224   7.264   6.454
 3359SOL    HW213755   1.271   7.337   6.413
 3359SOL    HW313756   1.145   7.303   6.490
 3359SOL    MW413757   1.219   7.279   6.453
 3360SOL     OW13758   1.632   7.359   6.729
 3360SOL    HW213759   1.675   7.329   6.809
 3360SOL    HW313760   1.551   7.307   6.726
 3360SOL    MW413761   1.627   7.348   6.739
 3361SOL     OW13762   0.717   6.323   7.436
 3361SOL    HW213763   0.787   6.265   7.408
 3361SOL    HW313764   0.660   6.268   7.491
 3361SOL    MW413765   0.719   6.310   7.440
 3362SOL     OW13766   1.504   6.535   7.069
 3362SOL    HW213767   1.509   6.588   7.149
 3362SOL    HW313768   1.466   6.452   7.097
 3362SOL    MW413769   1.500   6.530   7.084
 3363SOL     OW13770   1.144   5.670   7.315
 3363SOL    HW213771   1.139   5.577   7.296
 3363SOL    HW313772   1.227   5.681   7.361
 3363SOL    MW413773   1.152   5.659   7.319
 3364SOL     OW13774   0.518   6.190   5.769
 3364SOL    HW213775   0.484   6.246   5.839
 3364SOL    HW313776   0.589   6.140   5.809
 3364SOL    MW413777   0.524   6.191   5.783
 3365SOL     OW13778   1.614   6.941   6.591
 3365SOL    HW213779   1.649   6.923   6.504
 3365SOL    HW313780   1.519   6.942   6.578
 3365SOL    MW413781   1.606   6.938   6.578
 3366SOL     OW13782   1.043   6.589   6.960
 3366SOL    HW213783   1.086   6.624   7.038
 3366SOL    HW313784   1.026   6.666   6.906
 3366SOL    MW413785   1.046   6.604   6.963
 3367SOL     OW13786   1.574   6.076   5.833
 3367SOL    HW213787   1.566   6.147   5.770
 3367SOL    HW313788   1.592   6.120   5.916
 3367SOL    MW413789   1.575   6.090   5.835
 3368SOL     OW13790   0.434   5.731   6.262
 3368SOL    HW213791   0.484   5.774   6.193
 3368SOL    HW313792   0.349   5.775   6.262
 3368SOL    MW413793   0.431   5.744   6.253
 3369SOL     OW13794   0.193   6.793   7.122
 3369SOL    HW213795   0.221   6.746   7.200
 3369SOL    HW313796   0.114   6.748   7.093
 3369SOL    MW413797   0.186   6.782   7.128
 3370SOL     OW13798   0.701   6.120   7.089
 3370SOL    HW213799   0.673   6.208   7.113
 3370SOL    HW313800   0.670   6.064   7.160
 3370SOL    MW413801   0.693   6.123   7.101
 3371SOL     OW13802   1.243   6.338   5.808
 3371SOL    HW213803   1.290   6.356   5.727
 3371SOL    HW313804   1.209   6.422   5.836
 3371SOL    MW413805   1.245   6.352   5.801
 3372SOL     OW13806   0.356   6.516   6.302
 3372SOL    HW213807   0.414   6.572   6.250
 3372SOL    HW313808   0.400   6.431   6.304
 3372SOL    MW413809   0.369   6.513   6.295
 3373SOL     OW13810   1.496   5.868   6.139
 3373SOL    HW213811   1.418   5.818   6.164
 3373SOL    HW313812   1.467   5.959   6.139
 3373SOL    MW413813   1.482   5.872   6.142
 3374SOL     OW13814   1.082   5.830   6.298
 3374SOL    HW213815   1.102   5.905   6.242
 3374SOL    HW313816   1.062   5.869   6.383
 3374SOL    MW413817   1.083   5.846   6.302
 3375SOL     OW13818   0.978   7.080   5.630
 3375SOL    HW213819   1.005   7.158   5.582
 3375SOL    HW313820   0.885   7.095   5.649
 3375SOL    MW413821   0.969   7.093   5.626
 3376SOL     OW13822   1.842   6.603   7.317
 3376SOL    HW213823   1.755   6.583   7.353
 3376SOL    HW313824   1.896   6.529   7.342
 3376SOL    MW413825   1.837   6.592   7.325
 3377SOL     OW13826   0.063   7.116   6.474
 3377SOL    HW213827   0.095   7.120   6.565
 3377SOL    HW313828  -0.032   7.124   6.482
 3377SOL    MW413829   0.055   7.119   6.487
 3378SOL     OW13830   0.018   6.242   6.021
 3378SOL    HW213831  -0.042   6.214   6.091
 3378SOL    HW313832   0.092   6.182   6.027
 3378SOL    MW413833   0.020   6.231   6.030
 3379SOL     OW13834   1.586   7.454   7.455
 3379SOL    HW213835   1.631   7.378   7.420
 3379SOL    HW313836   1.624   7.467   7.542
 3379SOL    MW413837   1.596   7.447   7.461
 3380SOL     OW13838   1.186   6.973   6.181
 3380SOL    HW213839   1.209   6.924   6.259
 3380SOL    HW313840   1.267   7.015   6.153
 3380SOL    MW413841   1.199   6.973   6.188
 3381SOL     OW13842   0.444   5.981   6.910
 3381SOL    HW213843   0.477   6.062   6.950
 3381SOL    HW313844   0.417   6.007   6.822
 3381SOL    MW413845   0.443   5.995   6.904
 3382SOL     OW13846   0.398   5.948   6.646
 3382SOL    HW213847   0.428   5.862   6.617
 3382SOL    HW313848   0.303   5.941   6.649
 3382SOL    MW413849   0.390   5.937   6.644
 3383SOL     OW13850   1.227   6.157   7.337
 3383SOL    HW213851   1.279   6.092   7.290
 3383SOL    HW313852   1.185   6.208   7.267
 3383SOL    MW413853   1.228   6.154   7.320
 3384SOL     OW13854   1.326   5.952   7.198
 3384SOL    HW213855   1.233   5.936   7.185
 3384SOL    HW313856   1.352   5.890   7.266
 3384SOL    MW413857   1.316   5.942   7.205
 3385SOL     OW13858   0.541   5.726   6.537
 3385SOL    HW213859   0.551   5.635   6.563
 3385SOL    HW313860   0.497   5.722   6.452
 3385SOL    MW413861   0.537   5.714   6.529
 3386SOL     OW13862   0.635   7.341   7.083
 3386SOL    HW213863   0.552   7.326   7.128
 3386SOL    HW313864   0.694   7.274   7.118
 3386SOL    MW413865   0.633   7.331   7.093
 3387SOL     OW13866   1.692   6.048   6.708
 3387SOL    HW213867   1.625   6.081   6.768
 3387SOL    HW313868   1.735   6.126   6.674
 3387SOL    MW413869   1.690   6.063   6.712
 3388SOL     OW13870   1.870   6.768   6.678
 3388SOL    HW213871   1.863   6.708   6.603
 3388SOL    HW313872   1.796   6.828   6.667
 3388SOL    MW413873   1.860   6.768   6.667
 3389SOL     OW13874   1.252   6.630   6.596
 3389SOL    HW213875   1.266   6.602   6.687
 3389SOL    HW313876   1.338   6.661   6.568
 3389SOL    MW413877   1.265   6.631   6.605
 3390SOL     OW13878   1.335   6.125   6.875
 3390SOL    HW213879   1.356   6.126   6.782
 3390SOL    HW313880   1.380   6.047   6.908
 3390SOL    MW413881   1.342   6.115   6.867
 3391SOL     OW13882   1.828   6.256   7.417
 3391SOL    HW213883   1.865   6.201   7.486
 3391SOL    HW313884   1.853   6.213   7.335
 3391SOL    MW413885   1.835   6.244   7.416
 3392SOL     OW13886   1.375   6.554   7.468
 3392SOL    HW213887   1.441   6.502   7.422
 3392SOL    HW313888   1.395   6.541   7.561
 3392SOL    MW413889   1.386   6.545   7.475
 3393SOL     OW13890   1.326   5.640   5.817
 3393SOL    HW213891   1.400   5.684   5.860
 3393SOL    HW313892   1.250   5.694   5.839
 3393SOL    MW413893   1.326   5.652   5.825
 3394SOL     OW13894   1.386   6.415   6.095
 3394SOL    HW213895   1.301   6.385   6.065
 3394SOL    HW313896   1.378   6.422   6.190
 3394SOL    MW413897   1.374   6.413   6.104
 3395SOL     OW13898   0.462   6.878   6.826
 3395SOL    HW213899   0.474   6.905   6.917
 3395SOL    HW313900   0.443   6.959   6.779
 3395SOL    MW413901   0.461   6.893   6.831
 3396SOL     OW13902   0.746   5.858   6.649
 3396SOL    HW213903   0.719   5.860   6.740
 3396SOL    HW313904   0.676   5.810   6.604
 3396SOL    MW413905   0.734   5.854   6.656
 3397SOL     OW13906   0.600   7.350   6.811
 3397SOL    HW213907   0.652   7.427   6.788
 3397SOL    HW313908   0.609   7.342   6.906
 3397SOL    MW413909   0.609   7.357   6.822
 3398SOL     OW13910   1.502   6.935   7.043
 3398SOL    HW213911   1.487   6.864   7.106
 3398SOL    HW313912   1.548   6.893   6.971
 3398SOL    MW413913   1.508   6.919   7.043
 3399SOL     OW13914   0.576   6.666   7.160
 3399SOL    HW213915   0.613   6.671   7.072
 3399SOL    HW313916   0.615   6.739   7.207
 3399SOL    MW413917   0.586   6.676   7.155
 3400SOL     OW13918   0.756   6.709   6.972
 3400SOL    HW213919   0.815   6.655   7.025
 3400SOL    HW313920   0.771   6.681   6.882
 3400SOL    MW413921   0.766   6.698   6.968
 3401SOL     OW13922   0.759   6.081   5.821
 3401SOL    HW213923   0.832   6.130   5.784
 3401SOL    HW313924   0.775   5.990   5.795
 3401SOL    MW413925   0.771   6.076   5.814
 3402SOL     OW13926   1.567   7.198   7.144
 3402SOL    HW213927   1.609   7.183   7.229
 3402SOL    HW313928   1.558   7.111   7.106
 3402SOL    MW413929   1.571   7.186   7.151
 3403SOL     OW13930   1.227   5.677   6.735
 3403SOL    HW213931   1.282   5.686   6.657
 3403SOL    HW313932   1.282   5.711   6.806
 3403SOL    MW413933   1.241   5.682   6.734
 3404SOL     OW13934   0.234   6.590   5.919
 3404SOL    HW213935   0.171   6.606   5.848
 3404SOL    HW313936   0.181   6.553   5.990
 3404SOL    MW413937   0.219   6.587   5.919
 3405SOL     OW13938   0.590   6.944   5.778
 3405SOL    HW213939   0.605   6.920   5.870
 3405SOL    HW313940   0.498   6.922   5.762
 3405SOL    MW413941   0.580   6.937   5.788
 3406SOL     OW13942   1.129   7.175   5.930
 3406SOL    HW213943   1.137   7.093   5.881
 3406SOL    HW313944   1.048   7.214   5.897
 3406SOL    MW413945   1.119   7.170   5.920
 3407SOL     OW13946   0.388   7.333   6.499
 3407SOL    HW213947   0.392   7.244   6.534
 3407SOL    HW313948   0.414   7.324   6.408
 3407SOL    MW413949   0.391   7.321   6.491
 3408SOL     OW13950   1.005   6.811   6.742
 3408SOL    HW213951   0.937   6.745   6.758
 3408SOL    HW313952   1.023   6.805   6.649
 3408SOL    MW413953   0.998   6.802   6.733
 3409SOL     OW13954   0.094   7.086   6.993
 3409SOL    HW213955   0.084   7.044   7.079
 3409SOL    HW313956   0.015   7.139   6.983
 3409SOL    MW413957   0.083   7.087   7.004
 3410SOL     OW13958   0.998   5.950   6.563
 3410SOL    HW213959   0.928   5.902   6.608
 3410SOL    HW313960   1.030   6.013   6.627
 3410SOL    MW413961   0.993   5.952   6.577
 3411SOL     OW13962   0.649   6.386   7.183
 3411SOL    HW213963   0.642   6.481   7.171
 3411SOL    HW313964   0.658   6.375   7.278
 3411SOL    MW413965   0.650   6.398   7.193
 3412SOL     OW13966   0.370   6.901   7.441
 3412SOL    HW213967   0.442   6.903   7.378
 3412SOL    HW313968   0.340   6.810   7.440
 3412SOL    MW413969   0.375   6.890   7.433
 3413SOL     OW13970   1.454   5.664   6.908
 3413SOL    HW213971   1.525   5.610   6.872
 3413SOL    HW313972   1.453   5.643   7.001
 3413SOL    MW413973   1.463   5.655   6.916
 3414SOL     OW13974   1.654   7.194   7.392
 3414SOL    HW213975   1.627   7.191   7.483
 3414SOL    HW313976   1.750   7.198   7.395
 3414SOL    MW413977   1.664   7.194   7.404
 3415SOL     OW13978   0.465   6.056   6.376
 3415SOL    HW213979   0.536   6.004   6.339
 3415SOL    HW313980   0.451   6.021   6.463
 3415SOL    MW413981   0.473   6.045   6.383
 3416SOL     OW13982   0.020   7.391   7.448
 3416SOL    HW213983   0.070   7.369   7.370
 3416SOL    HW313984   0.028   7.486   7.456
 3416SOL    MW413985   0.028   7.400   7.439
 3417SOL     OW13986   0.781   7.149   6.452
 3417SOL    HW213987   0.709   7.086   6.465
 3417SOL    HW313988   0.742   7.234   6.470
 3417SOL    MW413989   0.765   7.152   6.455
 3418SOL     OW13990   1.101   5.997   6.100
 3418SOL    HW213991   1.123   5.934   6.032
 3418SOL    HW313992   1.006   5.989   6.111
 3418SOL    MW413993   1.091   5.988   6.092
 3419SOL     OW13994   0.186   5.687   6.032
 3419SOL    HW213995   0.257   5.708   5.971
 3419SOL    HW313996   0.140   5.615   5.990
 3419SOL    MW413997   0.190   5.681   6.018
 3420SOL     OW13998   0.017   6.154   7.175
 3420SOL    HW213999   0.081   6.220   7.150
 3420SOL    HW314000  -0.064   6.181   7.132
 3420SOL    MW414001   0.015   6.166   7.167
 3421SOL     OW14002   1.755   7.061   6.132
 3421SOL    HW214003   1.725   6.994   6.193
 3421SOL    HW314004   1.849   7.067   6.146
 3421SOL    MW414005   1.763   7.053   6.142
 3422SOL     OW14006   1.311   6.738   6.062
 3422SOL    HW214007   1.283   6.824   6.095
 3422SOL    HW314008   1.339   6.754   5.972
 3422SOL    MW414009   1.311   6.752   6.054
 3423SOL     OW14010   0.973   5.658   6.115
 3423SOL    HW214011   1.010   5.717   6.180
 3423SOL    HW314012   0.950   5.714   6.041
 3423SOL    MW414013   0.974   5.673   6.114
 3424SOL     OW14014   1.826   6.540   6.537
 3424SOL    HW214015   1.817   6.572   6.448
 3424SOL    HW314016   1.779   6.456   6.537
 3424SOL    MW414017   1.819   6.533   6.527
 3425SOL     OW14018   0.202   6.380   7.116
 3425SOL    HW214019   0.223   6.449   7.054
 3425SOL    HW314020   0.282   6.327   7.121
 3425SOL    MW414021   0.215   6.381   7.110
 3426SOL     OW14022   1.738   6.471   6.238
 3426SOL    HW214023   1.832   6.460   6.226
 3426SOL    HW314024   1.714   6.543   6.179
 3426SOL    MW414025   1.748   6.479   6.229
 3427SOL     OW14026   0.187   6.395   7.383
 3427SOL    HW214027   0.113   6.339   7.409
 3427SOL    HW314028   0.182   6.398   7.288
 3427SOL    MW414029   0.176   6.388   7.373
 3428SOL     OW14030   0.353   5.682   6.833
 3428SOL    HW214031   0.396   5.766   6.853
 3428SOL    HW314032   0.426   5.620   6.826
 3428SOL    MW414033   0.368   5.685   6.834
 3429SOL     OW14034   0.394   6.349   6.011
 3429SOL    HW214035   0.394   6.444   5.996
 3429SOL    HW314036   0.471   6.333   6.065
 3429SOL    MW414037   0.404   6.360   6.016
 3430SOL     OW14038   1.170   6.208   7.075
 3430SOL    HW214039   1.206   6.181   6.991
 3430SOL    HW314040   1.083   6.242   7.054
 3430SOL    MW414041   1.164   6.209   7.062
 3431SOL     OW14042   0.153   6.080   6.300
 3431SOL    HW214043   0.215   6.087   6.373
 3431SOL    HW314044   0.153   5.987   6.277
 3431SOL    MW414045   0.161   6.069   6.307
 3432SOL     OW14046   1.700   7.420   5.832
 3432SOL    HW214047   1.767   7.453   5.772
 3432SOL    HW314048   1.657   7.499   5.866
 3432SOL    MW414049   1.702   7.435   5.828
 3433SOL     OW14050   0.835   6.341   6.784
 3433SOL    HW214051   0.793   6.259   6.760
 3433SOL    HW314052   0.836   6.340   6.880
 3433SOL    MW414053   0.828   6.330   6.793
 3434SOL     OW14054   1.506   7.474   7.183
 3434SOL    HW214055   1.509   7.380   7.166
 3434SOL    HW314056   1.529   7.482   7.275
 3434SOL    MW414057   1.509   7.462   7.193
 3435SOL     OW14058   0.639   5.811   6.889
 3435SOL    HW214059   0.570   5.874   6.910
 3435SOL    HW314060   0.666   5.775   6.974
 3435SOL    MW414061   0.633   5.814   6.902
 3436SOL     OW14062   0.022   6.652   5.758
 3436SOL    HW214063  -0.009   6.717   5.821
 3436SOL    HW314064  -0.029   6.574   5.777
 3436SOL    MW414065   0.012   6.649   5.768
 3437SOL     OW14066   1.434   5.664   6.506
 3437SOL    HW214067   1.522   5.673   6.543
 3437SOL    HW314068   1.444   5.605   6.432
 3437SOL    MW414069   1.448   5.658   6.500
 3438SOL     OW14070   1.466   6.403   6.350
 3438SOL    HW214071   1.546   6.418   6.299
 3438SOL    HW314072   1.459   6.308   6.356
 3438SOL    MW414073   1.475   6.392   6.345
 3439SOL     OW14074   0.606   7.452   5.700
 3439SOL    HW214075   0.511   7.452   5.692
 3439SOL    HW314076   0.622   7.398   5.778
 3439SOL    MW414077   0.596   7.446   5.709
 3440SOL     OW14078   0.916   6.329   7.047
 3440SOL    HW214079   0.985   6.396   7.044
 3440SOL    HW314080   0.849   6.367   7.103
 3440SOL    MW414081   0.917   6.342   7.054
 3441SOL     OW14082   0.334   6.629   7.295
 3441SOL    HW214083   0.288   6.545   7.297
 3441SOL    HW314084   0.391   6.623   7.219
 3441SOL    MW414085   0.336   6.617   7.287
 3442SOL     OW14086   1.451   6.272   5.615
 3442SOL    HW214087   1.379   6.248   5.557
 3442SOL    HW314088   1.517   6.309   5.557
 3442SOL    MW414089   1.450   6.274   5.600
 3443SOL     OW14090   0.585   7.004   6.296
 3443SOL    HW214091   0.650   6.937   6.317
 3443SOL    HW314092   0.637   7.081   6.273
 3443SOL    MW414093   0.600   7.006   6.295
 3444SOL     OW14094   0.846   6.169   6.426
 3444SOL    HW214095   0.786   6.187   6.498
 3444SOL    HW314096   0.880   6.081   6.445
 3444SOL    MW414097   0.842   6.159   6.439
 3445SOL     OW14098   1.787   5.668   7.095
 3445SOL    HW214099   1.708   5.714   7.123
 3445SOL    HW314100   1.822   5.722   7.024
 3445SOL    MW414101   1.781   5.681   7.089
 3446SOL     OW14102   1.071   6.752   6.445
 3446SOL    HW214103   1.163   6.733   6.463
 3446SOL    HW314104   1.044   6.682   6.385
 3446SOL    MW414105   1.079   6.740   6.439
 3447SOL     OW14106   0.864   6.572   5.800
 3447SOL    HW214107   0.850   6.484   5.765
 3447SOL    HW314108   0.815   6.629   5.741
 3447SOL    MW414109   0.856   6.567   5.788
 3448SOL     OW14110   1.345   6.990   6.541
 3448SOL    HW214111   1.318   7.074   6.506
 3448SOL    HW314112   1.305   6.985   6.628
 3448SOL    MW414113   1.338   6.999   6.547
 3449SOL     OW14114   1.264   6.938   6.809
 3449SOL    HW214115   1.275   6.905   6.898
 3449SOL    HW314116   1.183   6.897   6.778
 3449SOL    MW414117   1.254   6.930   6.815
 3450SOL     OW14118   0.277   6.296   6.579
 3450SOL    HW214119   0.227   6.295   6.660
 3450SOL    HW314120   0.297   6.388   6.563
 3450SOL    MW414121   0.273   6.308   6.587
 3451SOL     OW14122   1.344   7.060   7.341
 3451SOL    HW214123   1.344   7.154   7.357
 3451SOL    HW314124   1.389   7.050   7.257
 3451SOL    MW414125   1.350   7.070   7.332
 3452SOL     OW14126   1.583   5.778   5.902
 3452SOL    HW214127   1.576   5.782   5.997
 3452SOL    HW314128   1.595   5.869   5.875
 3452SOL    MW414129   1.584   5.791   5.910
 3453SOL     OW14130   0.872   6.341   6.016
 3453SOL    HW214131   0.852   6.327   5.923
 3453SOL    HW314132   0.965   6.320   6.023
 3453SOL    MW414133   0.882   6.336   6.005
 3454SOL     OW14134   0.199   5.964   7.320
 3454SOL    HW214135   0.156   6.023   7.257
 3454SOL    HW314136   0.267   6.019   7.360
 3454SOL    MW414137   0.203   5.979   7.317
 3455SOL     OW14138   1.311   6.584   6.865
 3455SOL    HW214139   1.374   6.581   6.938
 3455SOL    HW314140   1.227   6.602   6.907
 3455SOL    MW414141   1.307   6.586   6.880
 3456SOL     OW14142   0.855   7.299   6.054
 3456SOL    HW214143   0.913   7.370   6.081
 3456SOL    HW314144   0.878   7.227   6.112
 3456SOL    MW414145   0.866   7.299   6.065
 3457SOL     OW14146   1.650   5.761   6.644
 3457SOL    HW214147   1.695   5.679   6.663
 3457SOL    HW314148   1.670   5.817   6.720
 3457SOL    MW414149   1.660   5.757   6.656
 3458SOL     OW14150   0.098   5.604   6.743
 3458SOL    HW214151   0.089   5.605   6.648
 3458SOL    HW314152   0.192   5.616   6.758
 3458SOL    MW414153   0.110   5.607   6.734
 3459SOL     OW14154   1.735   6.797   6.363
 3459SOL    HW214155   1.714   6.743   6.286
 3459SOL    HW314156   1.831   6.795   6.367
 3459SOL    MW414157   1.744   6.790   6.352
 3460SOL     OW14158   0.427   6.942   7.106
 3460SOL    HW214159   0.348   6.892   7.129
 3460SOL    HW314160   0.497   6.901   7.156
 3460SOL    MW414161   0.425   6.930   7.116
 3461SOL     OW14162   0.311   5.731   5.789
 3461SOL    HW214163   0.240   5.786   5.757
 3461SOL    HW314164   0.353   5.697   5.710
 3461SOL    MW414165   0.307   5.733   5.775
 3462SOL     OW14166   1.435   6.228   6.625
 3462SOL    HW214167   1.358   6.274   6.591
 3462SOL    HW314168   1.492   6.297   6.659
 3462SOL    MW414169   1.432   6.243   6.625
 3463SOL     OW14170   0.067   5.830   5.638
 3463SOL    HW214171   0.034   5.909   5.682
 3463SOL    HW314172   0.122   5.863   5.567
 3463SOL    MW414173   0.070   5.844   5.635
 3464SOL     OW14174   0.101   7.087   5.827
 3464SOL    HW214175   0.118   7.171   5.869
 3464SOL    HW314176   0.136   7.096   5.739
 3464SOL    MW414177   0.106   7.100   5.821
 3465SOL     OW14178   1.373   7.176   6.044
 3465SOL    HW214179   1.436   7.166   5.973
 3465SOL    HW314180   1.290   7.196   5.999
 3465SOL    MW414181   1.370   7.177   6.029
 3466SOL     OW14182   3.604   0.839   0.257
 3466SOL    HW214183   3.645   0.781   0.322
 3466SOL    HW314184   3.511   0.831   0.274
 3466SOL    MW414185   3.598   0.831   0.267
 3467SOL     OW14186   3.470   0.771   1.252
 3467SOL    HW214187   3.425   0.838   1.303
 3467SOL    HW314188   3.558   0.807   1.238
 3467SOL    MW414189   3.476   0.784   1.256
 3468SOL     OW14190   2.398   1.022   0.486
 3468SOL    HW214191   2.488   0.997   0.470
 3468SOL    HW314192   2.394   1.115   0.463
 3468SOL    MW414193   2.410   1.031   0.481
 3469SOL     OW14194   3.514   1.725   0.628
 3469SOL    HW214195   3.526   1.671   0.706
 3469SOL    HW314196   3.551   1.673   0.557
 3469SOL    MW414197   3.520   1.710   0.629
 3470SOL     OW14198   2.893   1.610   1.629
 3470SOL    HW214199   2.934   1.646   1.550
 3470SOL    HW314200   2.928   1.521   1.636
 3470SOL    MW414201   2.904   1.603   1.620
 3471SOL     OW14202   3.450   1.165   1.233
 3471SOL    HW214203   3.371   1.130   1.191
 3471SOL    HW314204   3.477   1.237   1.177
 3471SOL    MW414205   3.443   1.170   1.220
 3472SOL     OW14206   2.682   0.478   0.499
 3472SOL    HW214207   2.657   0.566   0.527
 3472SOL    HW314208   2.679   0.481   0.403
 3472SOL    MW414209   2.678   0.490   0.491
 3473SOL     OW14210   2.124   0.506   0.427
 3473SOL    HW214211   2.156   0.594   0.409
 3473SOL    HW314212   2.112   0.504   0.522
 3473SOL    MW414213   2.127   0.518   0.439
 3474SOL     OW14214   2.202   0.919   1.328
 3474SOL    HW214215   2.265   0.866   1.279
 3474SOL    HW314216   2.183   0.993   1.271
 3474SOL    MW414217   2.208   0.921   1.315
 3475SOL     OW14218   2.523   0.261   0.514
 3475SOL    HW214219   2.581   0.337   0.516
 3475SOL    HW314220   2.458   0.282   0.447
 3475SOL    MW414221   2.522   0.273   0.505
 3476SOL     OW14222   2.610   1.188   0.689
 3476SOL    HW214223   2.690   1.191   0.741
 3476SOL    HW314224   2.638   1.155   0.603
 3476SOL    MW414225   2.624   1.184   0.684
 3477SOL     OW14226   2.635   1.529   1.592
 3477SOL    HW214227   2.719   1.555   1.631
 3477SOL    HW314228   2.659   1.473   1.518
 3477SOL    MW414229   2.649   1.525   1.587
 3478SOL     OW14230   2.387   0.692   0.680
 3478SOL    HW214231   2.372   0.612   0.731
 3478SOL    HW314232   2.469   0.727   0.714
 3478SOL    MW414233   2.395   0.684   0.692
 3479SOL     OW14234   2.724   1.378   1.365
 3479SOL    HW214235   2.688   1.444   1.305
 3479SOL    HW314236   2.652   1.316   1.378
 3479SOL    MW414237   2.710   1.378   1.359
 3480SOL     OW14238   2.529   0.518   1.057
 3480SOL    HW214239   2.435   0.514   1.075
 3480SOL    HW314240   2.559   0.427   1.066
 3480SOL    MW414241   2.520   0.506   1.060
 3481SOL     OW14242   2.275   0.932   0.961
 3481SOL    HW214243   2.230   0.939   0.877
 3481SOL    HW314244   2.255   1.015   1.005
 3481SOL    MW414245   2.267   0.944   0.955
 3482SOL     OW14246   1.972   1.778   0.836
 3482SOL    HW214247   2.061   1.770   0.871
 3482SOL    HW314248   1.936   1.690   0.841
 3482SOL    MW414249   1.979   1.765   0.841
 3483SOL     OW14250   3.237   1.170   0.205
 3483SOL    HW214251   3.155   1.206   0.171
 3483SOL    HW314252   3.305   1.213   0.154
 3483SOL    MW414253   3.235   1.180   0.193
 3484SOL     OW14254   2.236   1.305   0.871
 3484SOL    HW214255   2.212   1.358   0.947
 3484SOL    HW314256   2.292   1.363   0.819
 3484SOL    MW414257   2.240   1.320   0.874
 3485SOL     OW14258   2.798   0.949   0.681
 3485SOL    HW214259   2.712   0.936   0.721
 3485SOL    HW314260   2.851   0.876   0.713
 3485SOL    MW414261   2.794   0.938   0.690
 3486SOL     OW14262   2.206   1.601   1.466
 3486SOL    HW214263   2.114   1.577   1.451
 3486SOL    HW314264   2.250   1.518   1.483
 3486SOL    MW414265   2.200   1.586   1.465
 3487SOL     OW14266   2.789   1.311   0.398
 3487SOL    HW214267   2.766   1.373   0.466
 3487SOL    HW314268   2.746   1.229   0.424
 3487SOL    MW414269   2.781   1.307   0.409
 3488SOL     OW14270   3.662   0.312   0.854
 3488SOL    HW214271   3.599   0.292   0.923
 3488SOL    HW314272   3.652   0.241   0.791
 3488SOL    MW414273   3.652   0.299   0.855
 3489SOL     OW14274   2.286   0.284   0.366
 3489SOL    HW214275   2.260   0.246   0.282
 3489SOL    HW314276   2.223   0.354   0.382
 3489SOL    MW414277   2.275   0.287   0.357
 3490SOL     OW14278   2.121   1.245   0.403
 3490SOL    HW214279   2.069   1.313   0.359
 3490SOL    HW314280   2.118   1.171   0.343
 3490SOL    MW414281   2.113   1.244   0.390
 3491SOL     OW14282   2.783   1.708   0.181
 3491SOL    HW214283   2.738   1.724   0.264
 3491SOL    HW314284   2.714   1.673   0.123
 3491SOL    MW414285   2.769   1.705   0.183
 3492SOL     OW14286   3.718   0.481   0.156
 3492SOL    HW214287   3.627   0.483   0.184
 3492SOL    HW314288   3.763   0.543   0.214
 3492SOL    MW414289   3.711   0.489   0.166
 3493SOL     OW14290   3.463   1.084   0.506
 3493SOL    HW214291   3.373   1.084   0.541
 3493SOL    HW314292   3.456   1.130   0.423
 3493SOL    MW414293   3.450   1.090   0.500
 3494SOL     OW14294   3.263   0.719   1.578
 3494SOL    HW214295   3.332   0.657   1.555
 3494SOL    HW314296   3.188   0.693   1.525
 3494SOL    MW414297   3.263   0.706   1.569
 3495SOL     OW14298   2.004   1.599   1.130
 3495SOL    HW214299   1.987   1.545   1.207
 3495SOL    HW314300   1.992   1.689   1.160
 3495SOL    MW414301   2.001   1.603   1.144
 3496SOL     OW14302   2.999   1.106   1.570
 3496SOL    HW214303   2.984   1.199   1.555
 3496SOL    HW314304   3.094   1.096   1.570
 3496SOL    MW414305   3.008   1.116   1.567
 3497SOL     OW14306   2.795   0.530   1.771
 3497SOL    HW214307   2.885   0.531   1.738
 3497SOL    HW314308   2.754   0.455   1.729
 3497SOL    MW414309   2.801   0.520   1.762
 3498SOL     OW14310   3.370   1.062   0.898
 3498SOL    HW214311   3.373   0.996   0.829
 3498SOL    HW314312   3.455   1.105   0.894
 3498SOL    MW414313   3.382   1.058   0.889
 3499SOL     OW14314   2.990   0.665   0.467
 3499SOL    HW214315   3.016   0.689   0.378
 3499SOL    HW314316   2.972   0.572   0.463
 3499SOL    MW414317   2.992   0.657   0.454
 3500SOL     OW14318   3.655   1.285   0.318
 3500SOL    HW214319   3.611   1.326   0.393
 3500SOL    HW314320   3.712   1.353   0.283
 3500SOL    MW414321   3.657   1.299   0.323
 3501SOL     OW14322   2.575   0.334   1.721
 3501SOL    HW214323   2.585   0.260   1.661
 3501SOL    HW314324   2.611   0.303   1.804
 3501SOL    MW414325   2.581   0.320   1.723
 3502SOL     OW14326   2.311   1.701   0.636
 3502SOL    HW214327   2.343   1.789   0.614
 3502SOL    HW314328   2.264   1.673   0.558
 3502SOL    MW414329   2.310   1.709   0.623
 3503SOL     OW14330   3.695   0.063   0.685
 3503SOL    HW214331   3.749   0.014   0.747
 3503SOL    HW314332   3.638  -0.003   0.646
 3503SOL    MW414333   3.695   0.047   0.687
 3504SOL     OW14334   2.027   1.761   0.213
 3504SOL    HW214335   2.056   1.851   0.205
 3504SOL    HW314336   1.977   1.744   0.134
 3504SOL    MW414337   2.025   1.769   0.202
 3505SOL     OW14338   2.814   0.016   1.098
 3505SOL    HW214339   2.773   0.094   1.060
 3505SOL    HW314340   2.908   0.034   1.093
 3505SOL    MW414341   2.820   0.028   1.093
 3506SOL     OW14342   3.431   1.569   0.184
 3506SOL    HW214343   3.479   1.638   0.230
 3506SOL    HW314344   3.352   1.613   0.153
 3506SOL    MW414345   3.426   1.583   0.187
 3507SOL     OW14346   2.829   0.694   0.128
 3507SOL    HW214347   2.831   0.641   0.049
 3507SOL    HW314348   2.917   0.731   0.134
 3507SOL    MW414349   2.841   0.693   0.117
 3508SOL     OW14350   3.443   0.620   0.464
 3508SOL    HW214351   3.482   0.620   0.551
 3508SOL    HW314352   3.384   0.696   0.464
 3508SOL    MW414353   3.440   0.631   0.475
 3509SOL     OW14354   2.760   0.987   1.593
 3509SOL    HW214355   2.737   0.967   1.683
 3509SOL    HW314356   2.845   1.031   1.598
 3509SOL    MW414357   2.767   0.990   1.605
 3510SOL     OW14358   2.840   0.124   1.353
 3510SOL    HW214359   2.846   0.086   1.266
 3510SOL    HW314360   2.829   0.218   1.338
 3510SOL    MW414361   2.841   0.132   1.341
 3511SOL     OW14362   2.929   0.613   1.187
 3511SOL    HW214363   3.004   0.642   1.134
 3511SOL    HW314364   2.861   0.678   1.171
 3511SOL    MW414365   2.930   0.625   1.177
 3512SOL     OW14366   3.479   0.581   1.464
 3512SOL    HW214367   3.460   0.490   1.443
 3512SOL    HW314368   3.457   0.630   1.385
 3512SOL    MW414369   3.474   0.574   1.451
 3513SOL     OW14370   3.621   1.675   1.368
 3513SOL    HW214371   3.549   1.637   1.419
 3513SOL    HW314372   3.638   1.760   1.409
 3513SOL    MW414373   3.615   1.680   1.380
 3514SOL     OW14374   2.926   0.319   1.570
 3514SOL    HW214375   2.892   0.358   1.489
 3514SOL    HW314376   2.904   0.227   1.563
 3514SOL    MW414377   2.919   0.312   1.560
 3515SOL     OW14378   3.335   1.133   1.646
 3515SOL    HW214379   3.417   1.174   1.676
 3515SOL    HW314380   3.298   1.095   1.726
 3515SOL    MW414381   3.341   1.134   1.661
 3516SOL     OW14382   3.630   0.506   0.630
 3516SOL    HW214383   3.719   0.475   0.647
 3516SOL    HW314384   3.573   0.446   0.678
 3516SOL    MW414385   3.633   0.494   0.639
 3517SOL     OW14386   2.056   0.220   0.659
 3517SOL    HW214387   2.047   0.160   0.585
 3517SOL    HW314388   1.989   0.191   0.722
 3517SOL    MW414389   2.046   0.207   0.657
 3518SOL     OW14390   2.999   1.313   0.220
 3518SOL    HW214391   2.949   1.315   0.302
 3518SOL    HW314392   2.933   1.331   0.152
 3518SOL    MW414393   2.985   1.315   0.222
 3519SOL     OW14394   2.003   0.393   1.022
 3519SOL    HW214395   1.975   0.484   1.031
 3519SOL    HW314396   1.940   0.354   0.961
 3519SOL    MW414397   1.990   0.399   1.016
 3520SOL     OW14398   2.462   1.731   0.328
 3520SOL    HW214399   2.383   1.689   0.361
 3520SOL    HW314400   2.528   1.714   0.395
 3520SOL    MW414401   2.461   1.723   0.341
 3521SOL     OW14402   3.590   1.251   1.725
 3521SOL    HW214403   3.640   1.177   1.757
 3521SOL    HW314404   3.536   1.278   1.800
 3521SOL    MW414405   3.590   1.245   1.738
 3522SOL     OW14406   2.598   1.146   0.035
 3522SOL    HW214407   2.520   1.092   0.022
 3522SOL    HW314408   2.569   1.219   0.088
 3522SOL    MW414409   2.584   1.148   0.040
 3523SOL     OW14410   3.724   0.886   1.227
 3523SOL    HW214411   3.740   0.924   1.140
 3523SOL    HW314412   3.758   0.952   1.288
 3523SOL    MW414413   3.731   0.899   1.223
 3524SOL     OW14414   3.516   1.595   0.896
 3524SOL    HW214415   3.545   1.662   0.957
 3524SOL    HW314416   3.497   1.519   0.951
 3524SOL    MW414417   3.518   1.595   0.911
 3525SOL     OW14418   3.179   1.662   0.103
 3525SOL    HW214419   3.105   1.625   0.153
 3525SOL    HW314420   3.187   1.752   0.136
 3525SOL    MW414421   3.170   1.669   0.115
 3526SOL     OW14422   1.987   0.668   1.192
 3526SOL    HW214423   2.049   0.698   1.258
 3526SOL    HW314424   1.921   0.737   1.186
 3526SOL    MW414425   1.986   0.681   1.199
 3527SOL     OW14426   3.403   1.336   0.045
 3527SOL    HW214427   3.350   1.385  -0.019
 3527SOL    HW314428   3.434   1.402   0.106
 3527SOL    MW414429   3.401   1.350   0.043
 3528SOL     OW14430   2.628   0.225   0.100
 3528SOL    HW214431   2.576   0.145   0.088
 3528SOL    HW314432   2.715   0.202   0.068
 3528SOL    MW414433   2.631   0.211   0.094
 3529SOL     OW14434   2.082   1.777   1.644
 3529SOL    HW214435   2.056   1.845   1.582
 3529SOL    HW314436   2.130   1.714   1.592
 3529SOL    MW414437   2.084   1.777   1.630
 3530SOL     OW14438   2.134   1.096   1.151
 3530SOL    HW214439   2.187   1.171   1.176
 3530SOL    HW314440   2.053   1.134   1.117
 3530SOL    MW414441   2.130   1.111   1.151
 3531SOL     OW14442   2.674   1.000   1.139
 3531SOL    HW214443   2.702   0.909   1.151
 3531SOL    HW314444   2.603   0.994   1.075
 3531SOL    MW414445   2.667   0.988   1.134
 3532SOL     OW14446   1.989   0.865   0.557
 3532SOL    HW214447   2.080   0.880   0.584
 3532SOL    HW314448   1.992   0.786   0.503
 3532SOL    MW414449   2.001   0.857   0.555
 3533SOL     OW14450   2.225   0.573   1.811
 3533SOL    HW214451   2.172   0.653   1.818
 3533SOL    HW314452   2.295   0.585   1.876
 3533SOL    MW414453   2.227   0.586   1.819
 3534SOL     OW14454   2.611   0.123   1.518
 3534SOL    HW214455   2.588   0.031   1.520
 3534SOL    HW314456   2.697   0.125   1.475
 3534SOL    MW414457   2.618   0.113   1.514
 3535SOL     OW14458   2.295   0.647   1.557
 3535SOL    HW214459   2.375   0.697   1.543
 3535SOL    HW314460   2.286   0.641   1.652
 3535SOL    MW414461   2.304   0.653   1.567
 3536SOL     OW14462   2.616   1.797   0.931
 3536SOL    HW214463   2.705   1.812   0.961
 3536SOL    HW314464   2.611   1.844   0.847
 3536SOL    MW414465   2.626   1.805   0.924
 3537SOL     OW14466   3.272   0.172   1.828
 3537SOL    HW214467   3.328   0.099   1.854
 3537SOL    HW314468   3.242   0.210   1.910
 3537SOL    MW414469   3.276   0.167   1.841
 3538SOL     OW14470   1.997   1.477   0.596
 3538SOL    HW214471   1.969   1.516   0.678
 3538SOL    HW314472   2.017   1.386   0.618
 3538SOL    MW414473   1.995   1.469   0.609
 3539SOL     OW14474   2.830   1.520   0.631
 3539SOL    HW214475   2.913   1.474   0.615
 3539SOL    HW314476   2.820   1.519   0.727
 3539SOL    MW414477   2.840   1.513   0.641
 3540SOL     OW14478   3.662   0.665   0.945
 3540SOL    HW214479   3.751   0.695   0.927
 3540SOL    HW314480   3.642   0.605   0.874
 3540SOL    MW414481   3.671   0.662   0.934
 3541SOL     OW14482   3.513   0.844   1.825
 3541SOL    HW214483   3.568   0.768   1.806
 3541SOL    HW314484   3.515   0.852   1.920
 3541SOL    MW414485   3.521   0.835   1.833
 3542SOL     OW14486   2.563   1.577   0.036
 3542SOL    HW214487   2.503   1.646   0.006
 3542SOL    HW314488   2.508   1.519   0.089
 3542SOL    MW414489   2.547   1.579   0.038
 3543SOL     OW14490   3.001   0.222   0.259
 3543SOL    HW214491   2.934   0.198   0.196
 3543SOL    HW314492   3.066   0.271   0.208
 3543SOL    MW414493   3.001   0.224   0.244
 3544SOL     OW14494   2.808   0.406   1.344
 3544SOL    HW214495   2.727   0.447   1.372
 3544SOL    HW314496   2.855   0.474   1.296
 3544SOL    MW414497   2.803   0.421   1.342
 3545SOL     OW14498   3.068   0.744   0.967
 3545SOL    HW214499   3.081   0.838   0.977
 3545SOL    HW314500   3.029   0.734   0.881
 3545SOL    MW414501   3.064   0.755   0.957
 3546SOL     OW14502   2.520   0.939   0.771
 3546SOL    HW214503   2.431   0.930   0.804
 3546SOL    HW314504   2.524   1.029   0.739
 3546SOL    MW414505   2.509   0.950   0.771
 3547SOL     OW14506   3.319   0.522   0.766
 3547SOL    HW214507   3.264   0.443   0.765
 3547SOL    HW314508   3.301   0.563   0.850
 3547SOL    MW414509   3.309   0.517   0.775
 3548SOL     OW14510   2.290   0.209   1.583
 3548SOL    HW214511   2.211   0.227   1.635
 3548SOL    HW314512   2.285   0.271   1.510
 3548SOL    MW414513   2.280   0.219   1.580
 3549SOL     OW14514   2.938   0.726   0.723
 3549SOL    HW214515   2.875   0.658   0.747
 3549SOL    HW314516   2.958   0.707   0.631
 3549SOL    MW414517   2.932   0.713   0.715
 3550SOL     OW14518   2.194   1.621   0.425
 3550SOL    HW214519   2.155   1.668   0.351
 3550SOL    HW314520   2.128   1.556   0.450
 3550SOL    MW414521   2.181   1.619   0.419
 3551SOL     OW14522   2.686   1.030   0.449
 3551SOL    HW214523   2.688   1.004   0.356
 3551SOL    HW314524   2.744   0.967   0.492
 3551SOL    MW414525   2.694   1.019   0.443
 3552SOL     OW14526   3.239   1.590   1.221
 3552SOL    HW214527   3.164   1.636   1.259
 3552SOL    HW314528   3.221   1.497   1.238
 3552SOL    MW414529   3.228   1.584   1.229
 3553SOL     OW14530   3.243   1.798   0.651
 3553SOL    HW214531   3.186   1.751   0.590
 3553SOL    HW314532   3.329   1.759   0.638
 3553SOL    MW414533   3.246   1.789   0.641
 3554SOL     OW14534   3.196   0.274   0.782
 3554SOL    HW214535   3.224   0.206   0.843
 3554SOL    HW314536   3.110   0.245   0.752
 3554SOL    MW414537   3.189   0.261   0.786
 3555SOL     OW14538   2.001   1.208   0.716
 3555SOL    HW214539   2.065   1.240   0.779
 3555SOL    HW314540   2.050   1.144   0.664
 3555SOL    MW414541   2.016   1.204   0.717
 3556SOL     OW14542   2.501   1.284   1.698
 3556SOL    HW214543   2.549   1.367   1.685
 3556SOL    HW314544   2.558   1.232   1.754
 3556SOL    MW414545   2.515   1.288   1.704
 3557SOL     OW14546   2.077   1.526   1.838
 3557SOL    HW214547   2.133   1.450   1.853
 3557SOL    HW314548   2.026   1.504   1.760
 3557SOL    MW414549   2.077   1.513   1.829
 3558SOL     OW14550   3.176   0.378   0.117
 3558SOL    HW214551   3.149   0.444   0.053
 3558SOL    HW314552   3.246   0.421   0.167
 3558SOL    MW414553   3.181   0.391   0.114
 3559SOL     OW14554   2.844   0.083   0.054
 3559SOL    HW214555   2.900   0.075  -0.024
 3559SOL    HW314556   2.821  -0.007   0.076
 3559SOL    MW414557   2.849   0.070   0.047
 3560SOL     OW14558   3.349   0.934   0.259
 3560SOL    HW214559   3.316   1.023   0.249
 3560SOL    HW314560   3.314   0.905   0.344
 3560SOL    MW414561   3.339   0.943   0.270
 3561SOL     OW14562   2.962   1.363   1.447
 3561SOL    HW214563   2.873   1.369   1.415
 3561SOL    HW314564   3.006   1.442   1.415
 3561SOL    MW414565   2.957   1.373   1.439
 3562SOL     OW14566   2.255   0.031   1.789
 3562SOL    HW214567   2.183  -0.004   1.737
 3562SOL    HW314568   2.313   0.072   1.724
 3562SOL    MW414569   2.253   0.032   1.774
 3563SOL     OW14570   2.279   1.521   1.088
 3563SOL    HW214571   2.324   1.583   1.145
 3563SOL    HW314572   2.186   1.540   1.101
 3563SOL    MW414573   2.272   1.531   1.095
 3564SOL     OW14574   3.719   1.050   1.442
 3564SOL    HW214575   3.634   1.063   1.401
 3564SOL    HW314576   3.699   1.014   1.529
 3564SOL    MW414577   3.706   1.046   1.447
 3565SOL     OW14578   2.701   1.589   1.196
 3565SOL    HW214579   2.725   1.578   1.105
 3565SOL    HW314580   2.624   1.646   1.194
 3565SOL    MW414581   2.693   1.594   1.185
 3566SOL     OW14582   2.343   0.972   0.051
 3566SOL    HW214583   2.266   0.985   0.107
 3566SOL    HW314584   2.307   0.936  -0.030
 3566SOL    MW414585   2.329   0.968   0.048
 3567SOL     OW14586   2.996   0.945   0.294
 3567SOL    HW214587   2.906   0.966   0.269
 3567SOL    HW314588   3.023   1.018   0.350
 3567SOL    MW414589   2.988   0.957   0.297
 3568SOL     OW14590   2.496   1.294   0.986
 3568SOL    HW214591   2.489   1.273   1.080
 3568SOL    HW314592   2.414   1.262   0.949
 3568SOL    MW414593   2.484   1.288   0.993
 3569SOL     OW14594   3.360   0.304   1.388
 3569SOL    HW214595   3.307   0.306   1.468
 3569SOL    HW314596   3.345   0.217   1.351
 3569SOL    MW414597   3.352   0.294   1.393
 3570SOL     OW14598   3.696   0.228   1.261
 3570SOL    HW214599   3.677   0.295   1.196
 3570SOL    HW314600   3.753   0.166   1.216
 3570SOL    MW414601   3.700   0.229   1.247
 3571SOL     OW14602   1.942   1.386   1.649
 3571SOL    HW214603   1.986   1.319   1.595
 3571SOL    HW314604   1.857   1.348   1.669
 3571SOL    MW414605   1.937   1.372   1.645
 3572SOL     OW14606   2.625   0.061   0.701
 3572SOL    HW214607   2.554   0.122   0.683
 3572SOL    HW314608   2.676   0.058   0.620
 3572SOL    MW414609   2.621   0.067   0.688
 3573SOL     OW14610   2.383   1.301   0.450
 3573SOL    HW214611   2.376   1.333   0.540
 3573SOL    HW314612   2.293   1.285   0.422
 3573SOL    MW414613   2.371   1.303   0.457
 3574SOL     OW14614   2.978   1.694   1.359
 3574SOL    HW214615   2.898   1.679   1.309
 3574SOL    HW314616   2.985   1.789   1.366
 3574SOL    MW414617   2.969   1.705   1.353
 3575SOL     OW14618   3.092   1.659   0.849
 3575SOL    HW214619   3.139   1.732   0.808
 3575SOL    HW314620   3.013   1.698   0.885
 3575SOL    MW414621   3.087   1.674   0.848
 3576SOL     OW14622   3.500   1.754   1.124
 3576SOL    HW214623   3.543   1.724   1.204
 3576SOL    HW314624   3.419   1.702   1.121
 3576SOL    MW414625   3.495   1.743   1.134
 3577SOL     OW14626   2.585   0.718   1.831
 3577SOL    HW214627   2.655   0.660   1.803
 3577SOL    HW314628   2.528   0.663   1.886
 3577SOL    MW414629   2.587   0.705   1.835
 3578SOL     OW14630   3.372   0.930   1.464
 3578SOL    HW214631   3.377   0.983   1.544
 3578SOL    HW314632   3.334   0.847   1.492
 3578SOL    MW414633   3.368   0.925   1.479
 3579SOL     OW14634   3.012   0.065   1.710
 3579SOL    HW214635   3.007  -0.028   1.691
 3579SOL    HW314636   3.095   0.076   1.756
 3579SOL    MW414637   3.020   0.054   1.714
 3580SOL     OW14638   2.386   0.585   0.164
 3580SOL    HW214639   2.352   0.641   0.234
 3580SOL    HW314640   2.457   0.535   0.204
 3580SOL    MW414641   2.392   0.586   0.178
 3581SOL     OW14642   3.482   1.336   0.986
 3581SOL    HW214643   3.517   1.318   0.899
 3581SOL    HW314644   3.387   1.337   0.973
 3581SOL    MW414645   3.474   1.333   0.973
 3582SOL     OW14646   2.911   0.984   1.355
 3582SOL    HW214647   2.954   1.019   1.433
 3582SOL    HW314648   2.894   1.061   1.301
 3582SOL    MW414649   2.914   0.999   1.358
 3583SOL     OW14650   3.442   0.471   0.228
 3583SOL    HW214651   3.434   0.542   0.165
 3583SOL    HW314652   3.460   0.515   0.311
 3583SOL    MW414653   3.443   0.485   0.230
 3584SOL     OW14654   2.302   0.126   0.657
 3584SOL    HW214655   2.352   0.169   0.588
 3584SOL    HW314656   2.217   0.170   0.657
 3584SOL    MW414657   2.299   0.139   0.648
 3585SOL     OW14658   2.061   1.188   1.517
 3585SOL    HW214659   2.089   1.141   1.595
 3585SOL    HW314660   1.982   1.143   1.488
 3585SOL    MW414661   2.054   1.177   1.523
 3586SOL     OW14662   2.569   0.515   1.484
 3586SOL    HW214663   2.541   0.603   1.508
 3586SOL    HW314664   2.538   0.459   1.555
 3586SOL    MW414665   2.561   0.518   1.496
 3587SOL     OW14666   3.111   0.733   0.203
 3587SOL    HW214667   3.158   0.751   0.122
 3587SOL    HW314668   3.077   0.817   0.231
 3587SOL    MW414669   3.113   0.747   0.196
 3588SOL     OW14670   2.224   0.911   0.697
 3588SOL    HW214671   2.282   0.967   0.645
 3588SOL    HW314672   2.268   0.826   0.699
 3588SOL    MW414673   2.237   0.908   0.690
 3589SOL     OW14674   3.364   0.263   0.534
 3589SOL    HW214675   3.286   0.213   0.559
 3589SOL    HW314676   3.335   0.354   0.534
 3589SOL    MW414677   3.350   0.267   0.537
 3590SOL     OW14678   2.950   0.225   0.693
 3590SOL    HW214679   2.970   0.300   0.637
 3590SOL    HW314680   2.930   0.264   0.778
 3590SOL    MW414681   2.951   0.241   0.697
 3591SOL     OW14682   2.846   1.475   0.025
 3591SOL    HW214683   2.873   1.553  -0.023
 3591SOL    HW314684   2.753   1.490   0.044
 3591SOL    MW414685   2.837   1.488   0.021
 3592SOL     OW14686   3.710   0.998   1.712
 3592SOL    HW214687   3.623   0.978   1.748
 3592SOL    HW314688   3.764   0.924   1.737
 3592SOL    MW414689   3.705   0.987   1.720
 3593SOL     OW14690   1.931   1.511   0.869
 3593SOL    HW214691   1.963   1.515   0.960
 3593SOL    HW314692   1.836   1.519   0.877
 3593SOL    MW414693   1.923   1.514   0.882
 3594SOL     OW14694   1.886   0.637   0.416
 3594SOL    HW214695   1.826   0.609   0.486
 3594SOL    HW314696   1.960   0.577   0.422
 3594SOL    MW414697   1.888   0.626   0.425
 3595SOL     OW14698   3.454   1.849   1.850
 3595SOL    HW214699   3.499   1.773   1.815
 3595SOL    HW314700   3.492   1.862   1.937
 3595SOL    MW414701   3.464   1.842   1.856
 3596SOL     OW14702   3.054   1.368   0.576
 3596SOL    HW214703   3.077   1.319   0.654
 3596SOL    HW314704   3.135   1.410   0.548
 3596SOL    MW414705   3.067   1.368   0.583
 3597SOL     OW14706   2.312   0.376   1.305
 3597SOL    HW214707   2.345   0.457   1.345
 3597SOL    HW314708   2.285   0.402   1.217
 3597SOL    MW414709   2.311   0.390   1.299
 3598SOL     OW14710   2.266   0.343   1.041
 3598SOL    HW214711   2.296   0.257   1.012
 3598SOL    HW314712   2.171   0.336   1.044
 3598SOL    MW414713   2.258   0.332   1.039
 3599SOL     OW14714   3.095   0.552   1.732
 3599SOL    HW214715   3.147   0.487   1.685
 3599SOL    HW314716   3.053   0.603   1.662
 3599SOL    MW414717   3.096   0.549   1.715
 3600SOL     OW14718   3.194   0.347   1.593
 3600SOL    HW214719   3.101   0.331   1.580
 3600SOL    HW314720   3.220   0.285   1.661
 3600SOL    MW414721   3.184   0.337   1.600
 3601SOL     OW14722   2.409   0.121   0.932
 3601SOL    HW214723   2.419   0.030   0.958
 3601SOL    HW314724   2.365   0.117   0.847
 3601SOL    MW414725   2.405   0.109   0.924
 3602SOL     OW14726   2.503   1.736   1.478
 3602SOL    HW214727   2.420   1.721   1.523
 3602SOL    HW314728   2.562   1.669   1.513
 3602SOL    MW414729   2.501   1.726   1.488
 3603SOL     OW14730   3.560   0.443   1.103
 3603SOL    HW214731   3.493   0.476   1.163
 3603SOL    HW314732   3.603   0.521   1.069
 3603SOL    MW414733   3.558   0.458   1.107
 3604SOL     OW14734   3.738   1.163   1.073
 3604SOL    HW214735   3.731   1.103   0.998
 3604SOL    HW314736   3.664   1.223   1.062
 3604SOL    MW414737   3.728   1.163   1.062
 3605SOL     OW14738   3.120   1.025   0.991
 3605SOL    HW214739   3.134   0.997   1.082
 3605SOL    HW314740   3.206   1.056   0.963
 3605SOL    MW414741   3.133   1.026   1.000
 3606SOL     OW14742   3.203   0.520   1.270
 3606SOL    HW214743   3.224   0.521   1.177
 3606SOL    HW314744   3.248   0.442   1.303
 3606SOL    MW414745   3.210   0.510   1.262
 3607SOL     OW14746   3.696   0.651   1.812
 3607SOL    HW214747   3.733   0.596   1.881
 3607SOL    HW314748   3.721   0.608   1.730
 3607SOL    MW414749   3.703   0.639   1.811
 3608SOL     OW14750   3.243   0.949   1.863
 3608SOL    HW214751   3.309   0.897   1.817
 3608SOL    HW314752   3.263   0.936   1.956
 3608SOL    MW414753   3.254   0.940   1.870
 3609SOL     OW14754   3.194   0.035   0.212
 3609SOL    HW214755   3.268   0.079   0.255
 3609SOL    HW314756   3.118   0.089   0.234
 3609SOL    MW414757   3.194   0.047   0.220
 3610SOL     OW14758   3.254   0.810   0.490
 3610SOL    HW214759   3.169   0.780   0.460
 3610SOL    HW314760   3.246   0.817   0.585
 3610SOL    MW414761   3.242   0.808   0.499
 3611SOL     OW14762   2.330   1.273   1.221
 3611SOL    HW214763   2.342   1.300   1.312
 3611SOL    HW314764   2.311   1.354   1.174
 3611SOL    MW414765   2.329   1.288   1.226
 3612SOL     OW14766   2.614   0.253   1.044
 3612SOL    HW214767   2.587   0.255   1.135
 3612SOL    HW314768   2.544   0.205   0.999
 3612SOL    MW414769   2.602   0.249   1.051
 3613SOL     OW14770   2.468   1.745   1.206
 3613SOL    HW214771   2.520   1.822   1.183
 3613SOL    HW314772   2.477   1.737   1.301
 3613SOL    MW414773   2.477   1.752   1.217
 3614SOL     OW14774   3.370   1.330   1.438
 3614SOL    HW214775   3.355   1.259   1.501
 3614SOL    HW314776   3.416   1.288   1.366
 3614SOL    MW414777   3.376   1.314   1.438
 3615SOL     OW14778   2.444   1.061   1.555
 3615SOL    HW214779   2.481   1.066   1.467
 3615SOL    HW314780   2.483   1.134   1.602
 3615SOL    MW414781   2.454   1.071   1.550
 3616SOL     OW14782   2.624   1.104   1.367
 3616SOL    HW214783   2.683   1.050   1.420
 3616SOL    HW314784   2.639   1.076   1.277
 3616SOL    MW414785   2.634   1.093   1.363
 3617SOL     OW14786   2.627   0.476   0.216
 3617SOL    HW214787   2.700   0.525   0.179
 3617SOL    HW314788   2.643   0.385   0.190
 3617SOL    MW414789   2.639   0.471   0.209
 3618SOL     OW14790   3.435   1.593   1.539
 3618SOL    HW214791   3.477   1.578   1.624
 3618SOL    HW314792   3.426   1.506   1.501
 3618SOL    MW414793   3.439   1.581   1.546
 3619SOL     OW14794   3.095   0.072   1.130
 3619SOL    HW214795   3.150   0.081   1.052
 3619SOL    HW314796   3.150   0.106   1.201
 3619SOL    MW414797   3.109   0.077   1.129
 3620SOL     OW14798   2.102   0.985   0.314
 3620SOL    HW214799   2.039   1.001   0.243
 3620SOL    HW314800   2.049   0.948   0.385
 3620SOL    MW414801   2.087   0.982   0.314
 3621SOL     OW14802   2.458   1.339   0.173
 3621SOL    HW214803   2.473   1.315   0.265
 3621SOL    HW314804   2.366   1.317   0.157
 3621SOL    MW414805   2.448   1.332   0.183
 3622SOL     OW14806   2.997   1.570   0.325
 3622SOL    HW214807   3.005   1.488   0.276
 3622SOL    HW314808   2.916   1.609   0.292
 3622SOL    MW414809   2.987   1.565   0.315
 3623SOL     OW14810   2.256   1.728   0.894
 3623SOL    HW214811   2.260   1.639   0.929
 3623SOL    HW314812   2.282   1.719   0.803
 3623SOL    MW414813   2.259   1.716   0.886
 3624SOL     OW14814   2.873   1.206   1.137
 3624SOL    HW214815   2.805   1.140   1.153
 3624SOL    HW314816   2.891   1.200   1.044
 3624SOL    MW414817   2.866   1.197   1.128
 3625SOL     OW14818   1.962   1.481   1.388
 3625SOL    HW214819   1.952   1.439   1.474
 3625SOL    HW314820   1.883   1.534   1.378
 3625SOL    MW414821   1.951   1.482   1.399
 3626SOL     OW14822   2.866   0.345   0.958
 3626SOL    HW214823   2.796   0.297   1.003
 3626SOL    HW314824   2.898   0.408   1.022
 3626SOL    MW414825   2.861   0.347   0.972
 3627SOL     OW14826   2.517   0.781   1.578
 3627SOL    HW214827   2.510   0.876   1.566
 3627SOL    HW314828   2.526   0.770   1.673
 3627SOL    MW414829   2.518   0.793   1.588
 3628SOL     OW14830   2.238   1.296   1.836
 3628SOL    HW214831   2.310   1.298   1.773
 3628SOL    HW314832   2.208   1.205   1.835
 3628SOL    MW414833   2.243   1.285   1.828
 3629SOL     OW14834   3.322   0.059   1.303
 3629SOL    HW214835   3.393   0.005   1.267
 3629SOL    HW314836   3.321   0.038   1.396
 3629SOL    MW414837   3.331   0.050   1.311
 3630SOL     OW14838   3.522   1.589   1.787
 3630SOL    HW214839   3.495   1.586   1.878
 3630SOL    HW314840   3.618   1.593   1.790
 3630SOL    MW414841   3.532   1.589   1.799
 3631SOL     OW14842   2.333   0.451   0.771
 3631SOL    HW214843   2.404   0.399   0.734
 3631SOL    HW314844   2.319   0.416   0.858
 3631SOL    MW414845   2.341   0.440   0.778
 3632SOL     OW14846   1.888   1.786   1.843
 3632SOL    HW214847   1.938   1.764   1.765
 3632SOL    HW314848   1.896   1.881   1.851
 3632SOL    MW414849   1.896   1.795   1.834
 3633SOL     OW14850   2.649   1.544   0.847
 3633SOL    HW214851   2.577   1.481   0.860
 3633SOL    HW314852   2.610   1.629   0.865
 3633SOL    MW414853   2.633   1.547   0.850
 3634SOL     OW14854   2.969   0.392   0.495
 3634SOL    HW214855   2.991   0.329   0.427
 3634SOL    HW314856   2.874   0.384   0.506
 3634SOL    MW414857   2.959   0.383   0.487
 3635SOL     OW14858   2.054   0.082   0.427
 3635SOL    HW214859   2.125   0.103   0.366
 3635SOL    HW314860   2.008   0.010   0.385
 3635SOL    MW414861   2.058   0.076   0.413
 3636SOL     OW14862   1.885   0.549   1.570
 3636SOL    HW214863   1.949   0.615   1.545
 3636SOL    HW314864   1.804   0.576   1.527
 3636SOL    MW414865   1.883   0.561   1.562
 3637SOL     OW14866   3.623   1.456   0.527
 3637SOL    HW214867   3.593   1.389   0.588
 3637SOL    HW314868   3.717   1.462   0.541
 3637SOL    MW414869   3.631   1.448   0.537
 3638SOL     OW14870   3.179   1.133   0.457
 3638SOL    HW214871   3.151   1.219   0.490
 3638SOL    HW314872   3.207   1.149   0.367
 3638SOL    MW414873   3.179   1.147   0.449
 3639SOL     OW14874   2.841   0.053   0.510
 3639SOL    HW214875   2.878   0.112   0.575
 3639SOL    HW314876   2.818   0.109   0.436
 3639SOL    MW414877   2.842   0.068   0.509
 3640SOL     OW14878   3.694   0.935   0.932
 3640SOL    HW214879   3.685   0.967   0.843
 3640SOL    HW314880   3.647   0.851   0.932
 3640SOL    MW414881   3.687   0.928   0.922
 3641SOL     OW14882   2.070   0.775   1.511
 3641SOL    HW214883   2.091   0.844   1.449
 3641SOL    HW314884   2.150   0.722   1.516
 3641SOL    MW414885   2.083   0.776   1.505
 3642SOL     OW14886   3.606   0.866   0.633
 3642SOL    HW214887   3.700   0.855   0.621
 3642SOL    HW314888   3.582   0.938   0.574
 3642SOL    MW414889   3.616   0.874   0.624
 3643SOL     OW14890   2.055   0.790   1.778
 3643SOL    HW214891   1.981   0.734   1.804
 3643SOL    HW314892   2.050   0.793   1.683
 3643SOL    MW414893   2.044   0.783   1.768
 3644SOL     OW14894   2.221   0.077   1.228
 3644SOL    HW214895   2.264   0.161   1.248
 3644SOL    HW314896   2.294   0.015   1.221
 3644SOL    MW414897   2.236   0.080   1.229
 3645SOL     OW14898   2.262   0.744   0.406
 3645SOL    HW214899   2.262   0.839   0.391
 3645SOL    HW314900   2.339   0.728   0.460
 3645SOL    MW414901   2.272   0.755   0.411
 3646SOL     OW14902   3.038   0.603   1.470
 3646SOL    HW214903   3.074   0.576   1.386
 3646SOL    HW314904   2.951   0.637   1.449
 3646SOL    MW414905   3.032   0.604   1.457
 3647SOL     OW14906   2.021   0.475   0.695
 3647SOL    HW214907   2.083   0.482   0.768
 3647SOL    HW314908   2.021   0.382   0.672
 3647SOL    MW414909   2.029   0.464   0.702
 3648SOL     OW14910   3.568   1.815   0.227
 3648SOL    HW214911   3.635   1.848   0.167
 3648SOL    HW314912   3.525   1.894   0.261
 3648SOL    MW414913   3.570   1.830   0.223
 3649SOL     OW14914   2.703   0.736   1.179
 3649SOL    HW214915   2.661   0.654   1.155
 3649SOL    HW314916   2.704   0.735   1.275
 3649SOL    MW414917   2.696   0.725   1.188
 3650SOL     OW14918   3.374   1.869   1.578
 3650SOL    HW214919   3.377   1.775   1.561
 3650SOL    HW314920   3.397   1.877   1.670
 3650SOL    MW414921   3.377   1.857   1.588
 3651SOL     OW14922   2.507   0.206   1.284
 3651SOL    HW214923   2.438   0.269   1.305
 3651SOL    HW314924   2.534   0.170   1.369
 3651SOL    MW414925   2.501   0.209   1.297
 3652SOL     OW14926   1.890   1.047   0.153
 3652SOL    HW214927   1.859   1.112   0.216
 3652SOL    HW314928   1.839   0.969   0.172
 3652SOL    MW414929   1.880   1.044   0.163
 3653SOL     OW14930   3.302   0.059   0.901
 3653SOL    HW214931   3.390   0.068   0.938
 3653SOL    HW314932   3.312   0.000   0.827
 3653SOL    MW414933   3.316   0.053   0.895
 3654SOL     OW14934   3.334   0.798   0.745
 3654SOL    HW214935   3.414   0.813   0.694
 3654SOL    HW314936   3.327   0.703   0.751
 3654SOL    MW414937   3.343   0.787   0.740
 3655SOL     OW14938   2.474   1.847   0.095
 3655SOL    HW214939   2.379   1.847   0.087
 3655SOL    HW314940   2.490   1.793   0.173
 3655SOL    MW414941   2.464   1.841   0.104
 3656SOL     OW14942   2.784   0.724   1.442
 3656SOL    HW214943   2.853   0.791   1.439
 3656SOL    HW314944   2.717   0.762   1.498
 3656SOL    MW414945   2.785   0.737   1.449
 3657SOL     OW14946   2.202   1.024   1.690
 3657SOL    HW214947   2.156   0.940   1.692
 3657SOL    HW314948   2.259   1.018   1.614
 3657SOL    MW414949   2.204   1.012   1.682
 3658SOL     OW14950   3.319   0.667   0.011
 3658SOL    HW214951   3.247   0.643  -0.047
 3658SOL    HW314952   3.385   0.704  -0.047
 3658SOL    MW414953   3.318   0.669  -0.004
 3659SOL     OW14954   2.453   1.399   0.691
 3659SOL    HW214955   2.518   1.332   0.712
 3659SOL    HW314956   2.505   1.476   0.668
 3659SOL    MW414957   2.468   1.401   0.690
 3660SOL     OW14958   2.714   0.564   0.821
 3660SOL    HW214959   2.654   0.582   0.893
 3660SOL    HW314960   2.748   0.476   0.840
 3660SOL    MW414961   2.710   0.554   0.834
 3661SOL     OW14962   3.655   0.063   1.490
 3661SOL    HW214963   3.576   0.109   1.518
 3661SOL    HW314964   3.690   0.117   1.419
 3661SOL    MW414965   3.649   0.076   1.484
 3662SOL     OW14966   2.939   1.147   0.840
 3662SOL    HW214967   3.031   1.128   0.858
 3662SOL    HW314968   2.912   1.077   0.780
 3662SOL    MW414969   2.947   1.135   0.834
 3663SOL     OW14970   2.732   0.967   0.195
 3663SOL    HW214971   2.718   0.879   0.160
 3663SOL    HW314972   2.683   1.024   0.136
 3663SOL    MW414973   2.724   0.962   0.183
 3664SOL     OW14974   3.213   1.385   0.936
 3664SOL    HW214975   3.186   1.469   0.901
 3664SOL    HW314976   3.173   1.380   1.023
 3664SOL    MW414977   3.206   1.394   0.942
 3665SOL     OW14978   3.132   1.333   1.204
 3665SOL    HW214979   3.143   1.300   1.293
 3665SOL    HW314980   3.051   1.292   1.173
 3665SOL    MW414981   3.122   1.325   1.210
 3666SOL     OW14982   2.145   0.691   0.974
 3666SOL    HW214983   2.095   0.690   1.055
 3666SOL    HW314984   2.165   0.783   0.958
 3666SOL    MW414985   2.141   0.703   0.982
 3667SOL     OW14986   3.212   1.455   1.736
 3667SOL    HW214987   3.212   1.549   1.752
 3667SOL    HW314988   3.257   1.445   1.652
 3667SOL    MW414989   3.218   1.465   1.727
 3668SOL     OW14990   3.451   0.173   0.297
 3668SOL    HW214991   3.444   0.177   0.392
 3668SOL    HW314992   3.463   0.264   0.270
 3668SOL    MW414993   3.452   0.186   0.305
 3669SOL     OW14994   2.740   0.736   0.411
 3669SOL    HW214995   2.720   0.722   0.318
 3669SOL    HW314996   2.833   0.715   0.418
 3669SOL    MW414997   2.750   0.731   0.400
 3670SOL     OW14998   2.067   0.359   1.715
 3670SOL    HW214999   2.024   0.418   1.652
 3670SOL    HW315000   2.135   0.414   1.755
 3670SOL    MW415001   2.071   0.374   1.712
 3671SOL     OW15002   3.179   0.979   1.260
 3671SOL    HW215003   3.242   0.976   1.333
 3671SOL    HW315004   3.095   0.997   1.302
 3671SOL    MW415005   3.175   0.981   1.275
 3672SOL     OW15006   2.723   1.694   0.449
 3672SOL    HW215007   2.781   1.765   0.476
 3672SOL    HW315008   2.746   1.622   0.507
 3672SOL    MW415009   2.734   1.694   0.460
 3673SOL     OW15010   3.518   0.156   1.039
 3673SOL    HW215011   3.563   0.074   1.058
 3673SOL    HW315012   3.538   0.212   1.115
 3673SOL    MW415013   3.528   0.152   1.051
 3674SOL     OW15014   1.966  -0.001   1.138
 3674SOL    HW215015   1.957   0.000   1.043
 3674SOL    HW315016   2.060   0.011   1.153
 3674SOL    MW415017   1.978   0.002   1.129
 3675SOL     OW15018   3.603   1.192   0.758
 3675SOL    HW215019   3.582   1.138   0.681
 3675SOL    HW315020   3.699   1.190   0.762
 3675SOL    MW415021   3.612   1.185   0.747
 3676SOL     OW15022   2.295   1.337   1.501
 3676SOL    HW215023   2.216   1.287   1.524
 3676SOL    HW315024   2.365   1.296   1.551
 3676SOL    MW415025   2.293   1.325   1.511
 3677SOL     OW15026   2.179   0.126   0.184
 3677SOL    HW215027   2.108   0.181   0.152
 3677SOL    HW315028   2.221   0.092   0.105
 3677SOL    MW415029   2.175   0.128   0.170
 3678SOL     OW15030   3.303   0.623   1.020
 3678SOL    HW215031   3.226   0.669   0.986
 3678SOL    HW315032   3.360   0.692   1.054
 3678SOL    MW415033   3.300   0.638   1.020
 3679SOL     OW15034   1.935   0.225   0.033
 3679SOL    HW215035   1.902   0.304   0.077
 3679SOL    HW315036   1.990   0.258  -0.038
 3679SOL    MW415037   1.938   0.239   0.030
 3680SOL     OW15038   1.969   1.482   0.222
 3680SOL    HW215039   1.986   1.566   0.264
 3680SOL    HW315040   2.004   1.491   0.134
 3680SOL    MW415041   1.974   1.495   0.216
 3681SOL     OW15042   3.241   1.571   0.439
 3681SOL    HW215043   3.304   1.561   0.368
 3681SOL    HW315044   3.158   1.591   0.394
 3681SOL    MW415045   3.238   1.572   0.424
 3682SOL     OW15046   3.604   0.839   2.125
 3682SOL    HW215047   3.645   0.781   2.190
 3682SOL    HW315048   3.511   0.831   2.142
 3682SOL    MW415049   3.598   0.831   2.135
 3683SOL     OW15050   3.470   0.771   3.120
 3683SOL    HW215051   3.425   0.838   3.171
 3683SOL    HW315052   3.558   0.807   3.106
 3683SOL    MW415053   3.476   0.784   3.124
 3684SOL     OW15054   2.398   1.022   2.354
 3684SOL    HW215055   2.488   0.997   2.338
 3684SOL    HW315056   2.394   1.115   2.331
 3684SOL    MW415057   2.410   1.031   2.349
 3685SOL     OW15058   3.514   1.725   2.496
 3685SOL    HW215059   3.526   1.671   2.574
 3685SOL    HW315060   3.551   1.673   2.425
 3685SOL    MW415061   3.520   1.710   2.497
 3686SOL     OW15062   2.893   1.610   3.497
 3686SOL    HW215063   2.934   1.646   3.418
 3686SOL    HW315064   2.928   1.521   3.504
 3686SOL    MW415065   2.904   1.603   3.488
 3687SOL     OW15066   3.450   1.165   3.101
 3687SOL    HW215067   3.371   1.130   3.059
 3687SOL    HW315068   3.477   1.237   3.045
 3687SOL    MW415069   3.443   1.170   3.088
 3688SOL     OW15070   2.682   0.478   2.367
 3688SOL    HW215071   2.657   0.566   2.395
 3688SOL    HW315072   2.679   0.481   2.271
 3688SOL    MW415073   2.678   0.490   2.359
 3689SOL     OW15074   2.124   0.506   2.295
 3689SOL    HW215075   2.156   0.594   2.277
 3689SOL    HW315076   2.112   0.504   2.390
 3689SOL    MW415077   2.127   0.518   2.307
 3690SOL     OW15078   2.202   0.919   3.196
 3690SOL    HW215079   2.265   0.866   3.147
 3690SOL    HW315080   2.183   0.993   3.139
 3690SOL    MW415081   2.208   0.921   3.183
 3691SOL     OW15082   2.523   0.261   2.382
 3691SOL    HW215083   2.581   0.337   2.384
 3691SOL    HW315084   2.458   0.282   2.315
 3691SOL    MW415085   2.522   0.273   2.373
 3692SOL     OW15086   2.610   1.188   2.557
 3692SOL    HW215087   2.690   1.191   2.609
 3692SOL    HW315088   2.638   1.155   2.471
 3692SOL    MW415089   2.624   1.184   2.552
 3693SOL     OW15090   2.635   1.529   3.460
 3693SOL    HW215091   2.719   1.555   3.499
 3693SOL    HW315092   2.659   1.473   3.386
 3693SOL    MW415093   2.649   1.525   3.455
 3694SOL     OW15094   2.387   0.692   2.548
 3694SOL    HW215095   2.372   0.612   2.599
 3694SOL    HW315096   2.469   0.727   2.582
 3694SOL    MW415097   2.395   0.684   2.560
 3695SOL     OW15098   2.724   1.378   3.233
 3695SOL    HW215099   2.688   1.444   3.173
 3695SOL    HW315100   2.652   1.316   3.246
 3695SOL    MW415101   2.710   1.378   3.227
 3696SOL     OW15102   2.529   0.518   2.925
 3696SOL    HW215103   2.435   0.514   2.943
 3696SOL    HW315104   2.559   0.427   2.934
 3696SOL    MW415105   2.520   0.506   2.928
 3697SOL     OW15106   2.275   0.932   2.829
 3697SOL    HW215107   2.230   0.939   2.745
 3697SOL    HW315108   2.255   1.015   2.873
 3697SOL    MW415109   2.267   0.944   2.823
 3698SOL     OW15110   1.972   1.778   2.704
 3698SOL    HW215111   2.061   1.770   2.739
 3698SOL    HW315112   1.936   1.690   2.709
 3698SOL    MW415113   1.979   1.765   2.709
 3699SOL     OW15114   3.237   1.170   2.073
 3699SOL    HW215115   3.155   1.206   2.039
 3699SOL    HW315116   3.305   1.213   2.022
 3699SOL    MW415117   3.235   1.180   2.061
 3700SOL     OW15118   2.236   1.305   2.739
 3700SOL    HW215119   2.212   1.358   2.815
 3700SOL    HW315120   2.292   1.363   2.687
 3700SOL    MW415121   2.240   1.320   2.742
 3701SOL     OW15122   2.798   0.949   2.549
 3701SOL    HW215123   2.712   0.936   2.589
 3701SOL    HW315124   2.851   0.876   2.581
 3701SOL    MW415125   2.794   0.938   2.558
 3702SOL     OW15126   2.206   1.601   3.334
 3702SOL    HW215127   2.114   1.577   3.319
 3702SOL    HW315128   2.250   1.518   3.351
 3702SOL    MW415129   2.200   1.586   3.333
 3703SOL     OW15130   2.789   1.311   2.266
 3703SOL    HW215131   2.766   1.373   2.334
 3703SOL    HW315132   2.746   1.229   2.292
 3703SOL    MW415133   2.781   1.307   2.277
 3704SOL     OW15134   3.662   0.312   2.722
 3704SOL    HW215135   3.599   0.292   2.791
 3704SOL    HW315136   3.652   0.241   2.659
 3704SOL    MW415137   3.652   0.299   2.723
 3705SOL     OW15138   2.286   0.284   2.234
 3705SOL    HW215139   2.260   0.246   2.150
 3705SOL    HW315140   2.223   0.354   2.250
 3705SOL    MW415141   2.275   0.287   2.225
 3706SOL     OW15142   2.121   1.245   2.271
 3706SOL    HW215143   2.069   1.313   2.227
 3706SOL    HW315144   2.118   1.171   2.211
 3706SOL    MW415145   2.113   1.244   2.258
 3707SOL     OW15146   2.783   1.708   2.049
 3707SOL    HW215147   2.738   1.724   2.132
 3707SOL    HW315148   2.714   1.673   1.991
 3707SOL    MW415149   2.769   1.705   2.051
 3708SOL     OW15150   3.718   0.481   2.024
 3708SOL    HW215151   3.627   0.483   2.052
 3708SOL    HW315152   3.763   0.543   2.082
 3708SOL    MW415153   3.711   0.489   2.034
 3709SOL     OW15154   3.463   1.084   2.374
 3709SOL    HW215155   3.373   1.084   2.409
 3709SOL    HW315156   3.456   1.130   2.291
 3709SOL    MW415157   3.450   1.090   2.368
 3710SOL     OW15158   3.263   0.719   3.446
 3710SOL    HW215159   3.332   0.657   3.423
 3710SOL    HW315160   3.188   0.693   3.393
 3710SOL    MW415161   3.263   0.706   3.437
 3711SOL     OW15162   2.004   1.599   2.998
 3711SOL    HW215163   1.987   1.545   3.075
 3711SOL    HW315164   1.992   1.689   3.028
 3711SOL    MW415165   2.001   1.603   3.012
 3712SOL     OW15166   2.999   1.106   3.438
 3712SOL    HW215167   2.984   1.199   3.423
 3712SOL    HW315168   3.094   1.096   3.438
 3712SOL    MW415169   3.008   1.116   3.435
 3713SOL     OW15170   2.795   0.530   3.639
 3713SOL    HW215171   2.885   0.531   3.606
 3713SOL    HW315172   2.754   0.455   3.597
 3713SOL    MW415173   2.801   0.520   3.630
 3714SOL     OW15174   3.370   1.062   2.766
 3714SOL    HW215175   3.373   0.996   2.697
 3714SOL    HW315176   3.455   1.105   2.762
 3714SOL    MW415177   3.382   1.058   2.757
 3715SOL     OW15178   2.990   0.665   2.335
 3715SOL    HW215179   3.016   0.689   2.246
 3715SOL    HW315180   2.972   0.572   2.331
 3715SOL    MW415181   2.992   0.657   2.322
 3716SOL     OW15182   3.655   1.285   2.186
 3716SOL    HW215183   3.611   1.326   2.261
 3716SOL    HW315184   3.712   1.353   2.151
 3716SOL    MW415185   3.657   1.299   2.191
 3717SOL     OW15186   2.575   0.334   3.589
 3717SOL    HW215187   2.585   0.260   3.529
 3717SOL    HW315188   2.611   0.303   3.672
 3717SOL    MW415189   2.581   0.320   3.591
 3718SOL     OW15190   2.311   1.701   2.504
 3718SOL    HW215191   2.343   1.789   2.482
 3718SOL    HW315192   2.264   1.673   2.426
 3718SOL    MW415193   2.310   1.709   2.491
 3719SOL     OW15194   3.695   0.063   2.553
 3719SOL    HW215195   3.749   0.014   2.615
 3719SOL    HW315196   3.638  -0.003   2.514
 3719SOL    MW415197   3.695   0.047   2.555
 3720SOL     OW15198   2.027   1.761   2.081
 3720SOL    HW215199   2.056   1.851   2.073
 3720SOL    HW315200   1.977   1.744   2.002
 3720SOL    MW415201   2.025   1.769   2.070
 3721SOL     OW15202   2.814   0.016   2.966
 3721SOL    HW215203   2.773   0.094   2.928
 3721SOL    HW315204   2.908   0.034   2.961
 3721SOL    MW415205   2.820   0.028   2.961
 3722SOL     OW15206   3.431   1.569   2.052
 3722SOL    HW215207   3.479   1.638   2.098
 3722SOL    HW315208   3.352   1.613   2.021
 3722SOL    MW415209   3.426   1.583   2.055
 3723SOL     OW15210   2.829   0.694   1.996
 3723SOL    HW215211   2.831   0.641   1.917
 3723SOL    HW315212   2.917   0.731   2.002
 3723SOL    MW415213   2.841   0.693   1.985
 3724SOL     OW15214   3.443   0.620   2.332
 3724SOL    HW215215   3.482   0.620   2.419
 3724SOL    HW315216   3.384   0.696   2.332
 3724SOL    MW415217   3.440   0.631   2.343
 3725SOL     OW15218   2.760   0.987   3.461
 3725SOL    HW215219   2.737   0.967   3.551
 3725SOL    HW315220   2.845   1.031   3.466
 3725SOL    MW415221   2.767   0.990   3.473
 3726SOL     OW15222   2.840   0.124   3.221
 3726SOL    HW215223   2.846   0.086   3.134
 3726SOL    HW315224   2.829   0.218   3.206
 3726SOL    MW415225   2.841   0.132   3.209
 3727SOL     OW15226   2.929   0.613   3.055
 3727SOL    HW215227   3.004   0.642   3.002
 3727SOL    HW315228   2.861   0.678   3.039
 3727SOL    MW415229   2.930   0.625   3.045
 3728SOL     OW15230   3.479   0.581   3.332
 3728SOL    HW215231   3.460   0.490   3.311
 3728SOL    HW315232   3.457   0.630   3.253
 3728SOL    MW415233   3.474   0.574   3.319
 3729SOL     OW15234   3.621   1.675   3.236
 3729SOL    HW215235   3.549   1.637   3.287
 3729SOL    HW315236   3.638   1.760   3.277
 3729SOL    MW415237   3.615   1.680   3.248
 3730SOL     OW15238   2.926   0.319   3.438
 3730SOL    HW215239   2.892   0.358   3.357
 3730SOL    HW315240   2.904   0.227   3.431
 3730SOL    MW415241   2.919   0.312   3.428
 3731SOL     OW15242   3.335   1.133   3.514
 3731SOL    HW215243   3.417   1.174   3.544
 3731SOL    HW315244   3.298   1.095   3.594
 3731SOL    MW415245   3.341   1.134   3.529
 3732SOL     OW15246   3.630   0.506   2.498
 3732SOL    HW215247   3.719   0.475   2.515
 3732SOL    HW315248   3.573   0.446   2.546
 3732SOL    MW415249   3.633   0.494   2.507
 3733SOL     OW15250   2.056   0.220   2.527
 3733SOL    HW215251   2.047   0.160   2.453
 3733SOL    HW315252   1.989   0.191   2.590
 3733SOL    MW415253   2.046   0.207   2.525
 3734SOL     OW15254   2.999   1.313   2.088
 3734SOL    HW215255   2.949   1.315   2.170
 3734SOL    HW315256   2.933   1.331   2.020
 3734SOL    MW415257   2.985   1.315   2.090
 3735SOL     OW15258   2.003   0.393   2.890
 3735SOL    HW215259   1.975   0.484   2.899
 3735SOL    HW315260   1.940   0.354   2.829
 3735SOL    MW415261   1.990   0.399   2.884
 3736SOL     OW15262   2.462   1.731   2.196
 3736SOL    HW215263   2.383   1.689   2.229
 3736SOL    HW315264   2.528   1.714   2.263
 3736SOL    MW415265   2.461   1.723   2.209
 3737SOL     OW15266   3.590   1.251   3.593
 3737SOL    HW215267   3.640   1.177   3.625
 3737SOL    HW315268   3.536   1.278   3.668
 3737SOL    MW415269   3.590   1.245   3.606
 3738SOL     OW15270   2.598   1.146   1.903
 3738SOL    HW215271   2.520   1.092   1.890
 3738SOL    HW315272   2.569   1.219   1.956
 3738SOL    MW415273   2.584   1.148   1.908
 3739SOL     OW15274   3.724   0.886   3.095
 3739SOL    HW215275   3.740   0.924   3.008
 3739SOL    HW315276   3.758   0.952   3.156
 3739SOL    MW415277   3.731   0.899   3.091
 3740SOL     OW15278   3.516   1.595   2.764
 3740SOL    HW215279   3.545   1.662   2.825
 3740SOL    HW315280   3.497   1.519   2.819
 3740SOL    MW415281   3.518   1.595   2.779
 3741SOL     OW15282   3.179   1.662   1.971
 3741SOL    HW215283   3.105   1.625   2.021
 3741SOL    HW315284   3.187   1.752   2.004
 3741SOL    MW415285   3.170   1.669   1.983
 3742SOL     OW15286   1.987   0.668   3.060
 3742SOL    HW215287   2.049   0.698   3.126
 3742SOL    HW315288   1.921   0.737   3.054
 3742SOL    MW415289   1.986   0.681   3.067
 3743SOL     OW15290   3.403   1.336   1.913
 3743SOL    HW215291   3.350   1.385   1.849
 3743SOL    HW315292   3.434   1.402   1.974
 3743SOL    MW415293   3.401   1.350   1.911
 3744SOL     OW15294   2.628   0.225   1.968
 3744SOL    HW215295   2.576   0.145   1.956
 3744SOL    HW315296   2.715   0.202   1.936
 3744SOL    MW415297   2.631   0.211   1.962
 3745SOL     OW15298   2.082   1.777   3.512
 3745SOL    HW215299   2.056   1.845   3.450
 3745SOL    HW315300   2.130   1.714   3.460
 3745SOL    MW415301   2.084   1.777   3.498
 3746SOL     OW15302   2.134   1.096   3.019
 3746SOL    HW215303   2.187   1.171   3.044
 3746SOL    HW315304   2.053   1.134   2.985
 3746SOL    MW415305   2.130   1.111   3.019
 3747SOL     OW15306   2.674   1.000   3.007
 3747SOL    HW215307   2.702   0.909   3.019
 3747SOL    HW315308   2.603   0.994   2.943
 3747SOL    MW415309   2.667   0.988   3.002
 3748SOL     OW15310   1.989   0.865   2.425
 3748SOL    HW215311   2.080   0.880   2.452
 3748SOL    HW315312   1.992   0.786   2.371
 3748SOL    MW415313   2.001   0.857   2.423
 3749SOL     OW15314   2.225   0.573   3.679
 3749SOL    HW215315   2.172   0.653   3.686
 3749SOL    HW315316   2.295   0.585   3.744
 3749SOL    MW415317   2.227   0.586   3.687
 3750SOL     OW15318   2.611   0.123   3.386
 3750SOL    HW215319   2.588   0.031   3.388
 3750SOL    HW315320   2.697   0.125   3.343
 3750SOL    MW415321   2.618   0.113   3.382
 3751SOL     OW15322   2.295   0.647   3.425
 3751SOL    HW215323   2.375   0.697   3.411
 3751SOL    HW315324   2.286   0.641   3.520
 3751SOL    MW415325   2.304   0.653   3.435
 3752SOL     OW15326   2.616   1.797   2.799
 3752SOL    HW215327   2.705   1.812   2.829
 3752SOL    HW315328   2.611   1.844   2.715
 3752SOL    MW415329   2.626   1.805   2.792
 3753SOL     OW15330   3.272   0.172   3.696
 3753SOL    HW215331   3.328   0.099   3.722
 3753SOL    HW315332   3.242   0.210   3.778
 3753SOL    MW415333   3.276   0.167   3.709
 3754SOL     OW15334   1.997   1.477   2.464
 3754SOL    HW215335   1.969   1.516   2.546
 3754SOL    HW315336   2.017   1.386   2.486
 3754SOL    MW415337   1.995   1.469   2.477
 3755SOL     OW15338   2.830   1.520   2.499
 3755SOL    HW215339   2.913   1.474   2.483
 3755SOL    HW315340   2.820   1.519   2.595
 3755SOL    MW415341   2.840   1.513   2.509
 3756SOL     OW15342   3.662   0.665   2.813
 3756SOL    HW215343   3.751   0.695   2.795
 3756SOL    HW315344   3.642   0.605   2.742
 3756SOL    MW415345   3.671   0.662   2.802
 3757SOL     OW15346   3.513   0.844   3.693
 3757SOL    HW215347   3.568   0.768   3.674
 3757SOL    HW315348   3.515   0.852   3.788
 3757SOL    MW415349   3.521   0.835   3.701
 3758SOL     OW15350   2.563   1.577   1.904
 3758SOL    HW215351   2.503   1.646   1.874
 3758SOL    HW315352   2.508   1.519   1.957
 3758SOL    MW415353   2.547   1.579   1.906
 3759SOL     OW15354   3.001   0.222   2.127
 3759SOL    HW215355   2.934   0.198   2.064
 3759SOL    HW315356   3.066   0.271   2.076
 3759SOL    MW415357   3.001   0.224   2.112
 3760SOL     OW15358   2.808   0.406   3.212
 3760SOL    HW215359   2.727   0.447   3.240
 3760SOL    HW315360   2.855   0.474   3.164
 3760SOL    MW415361   2.803   0.421   3.210
 3761SOL     OW15362   3.068   0.744   2.835
 3761SOL    HW215363   3.081   0.838   2.845
 3761SOL    HW315364   3.029   0.734   2.749
 3761SOL    MW415365   3.064   0.755   2.825
 3762SOL     OW15366   2.520   0.939   2.639
 3762SOL    HW215367   2.431   0.930   2.672
 3762SOL    HW315368   2.524   1.029   2.607
 3762SOL    MW415369   2.509   0.950   2.639
 3763SOL     OW15370   3.319   0.522   2.634
 3763SOL    HW215371   3.264   0.443   2.633
 3763SOL    HW315372   3.301   0.563   2.718
 3763SOL    MW415373   3.309   0.517   2.643
 3764SOL     OW15374   2.290   0.209   3.451
 3764SOL    HW215375   2.211   0.227   3.503
 3764SOL    HW315376   2.285   0.271   3.378
 3764SOL    MW415377   2.280   0.219   3.448
 3765SOL     OW15378   2.938   0.726   2.591
 3765SOL    HW215379   2.875   0.658   2.615
 3765SOL    HW315380   2.958   0.707   2.499
 3765SOL    MW415381   2.932   0.713   2.583
 3766SOL     OW15382   2.194   1.621   2.293
 3766SOL    HW215383   2.155   1.668   2.219
 3766SOL    HW315384   2.128   1.556   2.318
 3766SOL    MW415385   2.181   1.619   2.287
 3767SOL     OW15386   2.686   1.030   2.317
 3767SOL    HW215387   2.688   1.004   2.224
 3767SOL    HW315388   2.744   0.967   2.360
 3767SOL    MW415389   2.694   1.019   2.311
 3768SOL     OW15390   3.239   1.590   3.089
 3768SOL    HW215391   3.164   1.636   3.127
 3768SOL    HW315392   3.221   1.497   3.106
 3768SOL    MW415393   3.228   1.584   3.097
 3769SOL     OW15394   3.243   1.798   2.519
 3769SOL    HW215395   3.186   1.751   2.458
 3769SOL    HW315396   3.329   1.759   2.506
 3769SOL    MW415397   3.246   1.789   2.509
 3770SOL     OW15398   3.196   0.274   2.650
 3770SOL    HW215399   3.224   0.206   2.711
 3770SOL    HW315400   3.110   0.245   2.620
 3770SOL    MW415401   3.189   0.261   2.654
 3771SOL     OW15402   2.001   1.208   2.584
 3771SOL    HW215403   2.065   1.240   2.647
 3771SOL    HW315404   2.050   1.144   2.532
 3771SOL    MW415405   2.016   1.204   2.585
 3772SOL     OW15406   2.501   1.284   3.566
 3772SOL    HW215407   2.549   1.367   3.553
 3772SOL    HW315408   2.558   1.232   3.622
 3772SOL    MW415409   2.515   1.288   3.572
 3773SOL     OW15410   2.077   1.526   3.706
 3773SOL    HW215411   2.133   1.450   3.721
 3773SOL    HW315412   2.026   1.504   3.628
 3773SOL    MW415413   2.077   1.513   3.697
 3774SOL     OW15414   3.176   0.378   1.985
 3774SOL    HW215415   3.149   0.444   1.921
 3774SOL    HW315416   3.246   0.421   2.035
 3774SOL    MW415417   3.181   0.391   1.982
 3775SOL     OW15418   2.844   0.083   1.922
 3775SOL    HW215419   2.900   0.075   1.844
 3775SOL    HW315420   2.821  -0.007   1.944
 3775SOL    MW415421   2.849   0.070   1.915
 3776SOL     OW15422   3.349   0.934   2.127
 3776SOL    HW215423   3.316   1.023   2.117
 3776SOL    HW315424   3.314   0.905   2.212
 3776SOL    MW415425   3.339   0.943   2.138
 3777SOL     OW15426   2.962   1.363   3.315
 3777SOL    HW215427   2.873   1.369   3.283
 3777SOL    HW315428   3.006   1.442   3.283
 3777SOL    MW415429   2.957   1.373   3.307
 3778SOL     OW15430   2.255   0.031   3.657
 3778SOL    HW215431   2.183  -0.004   3.605
 3778SOL    HW315432   2.313   0.072   3.592
 3778SOL    MW415433   2.253   0.032   3.642
 3779SOL     OW15434   2.279   1.521   2.956
 3779SOL    HW215435   2.324   1.583   3.013
 3779SOL    HW315436   2.186   1.540   2.969
 3779SOL    MW415437   2.272   1.531   2.963
 3780SOL     OW15438   3.719   1.050   3.310
 3780SOL    HW215439   3.634   1.063   3.269
 3780SOL    HW315440   3.699   1.014   3.397
 3780SOL    MW415441   3.706   1.046   3.315
 3781SOL     OW15442   2.701   1.589   3.064
 3781SOL    HW215443   2.725   1.578   2.973
 3781SOL    HW315444   2.624   1.646   3.062
 3781SOL    MW415445   2.693   1.594   3.053
 3782SOL     OW15446   2.343   0.972   1.919
 3782SOL    HW215447   2.266   0.985   1.975
 3782SOL    HW315448   2.307   0.936   1.838
 3782SOL    MW415449   2.329   0.968   1.916
 3783SOL     OW15450   2.996   0.945   2.162
 3783SOL    HW215451   2.906   0.966   2.137
 3783SOL    HW315452   3.023   1.018   2.218
 3783SOL    MW415453   2.988   0.957   2.165
 3784SOL     OW15454   2.496   1.294   2.854
 3784SOL    HW215455   2.489   1.273   2.948
 3784SOL    HW315456   2.414   1.262   2.817
 3784SOL    MW415457   2.484   1.288   2.861
 3785SOL     OW15458   3.360   0.304   3.256
 3785SOL    HW215459   3.307   0.306   3.336
 3785SOL    HW315460   3.345   0.217   3.219
 3785SOL    MW415461   3.352   0.294   3.261
 3786SOL     OW15462   3.696   0.228   3.129
 3786SOL    HW215463   3.677   0.295   3.064
 3786SOL    HW315464   3.753   0.166   3.084
 3786SOL    MW415465   3.700   0.229   3.115
 3787SOL     OW15466   1.942   1.386   3.517
 3787SOL    HW215467   1.986   1.319   3.463
 3787SOL    HW315468   1.857   1.348   3.537
 3787SOL    MW415469   1.937   1.372   3.513
 3788SOL     OW15470   2.625   0.061   2.569
 3788SOL    HW215471   2.554   0.122   2.551
 3788SOL    HW315472   2.676   0.058   2.488
 3788SOL    MW415473   2.621   0.067   2.556
 3789SOL     OW15474   2.383   1.301   2.318
 3789SOL    HW215475   2.376   1.333   2.408
 3789SOL    HW315476   2.293   1.285   2.290
 3789SOL    MW415477   2.371   1.303   2.325
 3790SOL     OW15478   2.978   1.694   3.227
 3790SOL    HW215479   2.898   1.679   3.177
 3790SOL    HW315480   2.985   1.789   3.234
 3790SOL    MW415481   2.969   1.705   3.221
 3791SOL     OW15482   3.092   1.659   2.717
 3791SOL    HW215483   3.139   1.732   2.676
 3791SOL    HW315484   3.013   1.698   2.753
 3791SOL    MW415485   3.087   1.674   2.716
 3792SOL     OW15486   3.500   1.754   2.992
 3792SOL    HW215487   3.543   1.724   3.072
 3792SOL    HW315488   3.419   1.702   2.989
 3792SOL    MW415489   3.495   1.743   3.002
 3793SOL     OW15490   2.585   0.718   3.699
 3793SOL    HW215491   2.655   0.660   3.671
 3793SOL    HW315492   2.528   0.663   3.754
 3793SOL    MW415493   2.587   0.705   3.703
 3794SOL     OW15494   3.372   0.930   3.332
 3794SOL    HW215495   3.377   0.983   3.412
 3794SOL    HW315496   3.334   0.847   3.360
 3794SOL    MW415497   3.368   0.925   3.347
 3795SOL     OW15498   3.012   0.065   3.578
 3795SOL    HW215499   3.007  -0.028   3.559
 3795SOL    HW315500   3.095   0.076   3.624
 3795SOL    MW415501   3.020   0.054   3.582
 3796SOL     OW15502   2.386   0.585   2.032
 3796SOL    HW215503   2.352   0.641   2.102
 3796SOL    HW315504   2.457   0.535   2.072
 3796SOL    MW415505   2.392   0.586   2.046
 3797SOL     OW15506   3.482   1.336   2.854
 3797SOL    HW215507   3.517   1.318   2.767
 3797SOL    HW315508   3.387   1.337   2.841
 3797SOL    MW415509   3.474   1.333   2.841
 3798SOL     OW15510   2.911   0.984   3.223
 3798SOL    HW215511   2.954   1.019   3.301
 3798SOL    HW315512   2.894   1.061   3.169
 3798SOL    MW415513   2.914   0.999   3.226
 3799SOL     OW15514   3.442   0.471   2.096
 3799SOL    HW215515   3.434   0.542   2.033
 3799SOL    HW315516   3.460   0.515   2.179
 3799SOL    MW415517   3.443   0.485   2.098
 3800SOL     OW15518   2.302   0.126   2.525
 3800SOL    HW215519   2.352   0.169   2.456
 3800SOL    HW315520   2.217   0.170   2.525
 3800SOL    MW415521   2.299   0.139   2.516
 3801SOL     OW15522   2.061   1.188   3.385
 3801SOL    HW215523   2.089   1.141   3.463
 3801SOL    HW315524   1.982   1.143   3.356
 3801SOL    MW415525   2.054   1.177   3.391
 3802SOL     OW15526   2.569   0.515   3.352
 3802SOL    HW215527   2.541   0.603   3.376
 3802SOL    HW315528   2.538   0.459   3.423
 3802SOL    MW415529   2.561   0.518   3.364
 3803SOL     OW15530   3.111   0.733   2.071
 3803SOL    HW215531   3.158   0.751   1.990
 3803SOL    HW315532   3.077   0.817   2.099
 3803SOL    MW415533   3.113   0.747   2.064
 3804SOL     OW15534   2.224   0.911   2.565
 3804SOL    HW215535   2.282   0.967   2.513
 3804SOL    HW315536   2.268   0.826   2.567
 3804SOL    MW415537   2.237   0.908   2.558
 3805SOL     OW15538   3.364   0.263   2.402
 3805SOL    HW215539   3.286   0.213   2.427
 3805SOL    HW315540   3.335   0.354   2.402
 3805SOL    MW415541   3.350   0.267   2.405
 3806SOL     OW15542   2.950   0.225   2.561
 3806SOL    HW215543   2.970   0.300   2.505
 3806SOL    HW315544   2.930   0.264   2.646
 3806SOL    MW415545   2.951   0.241   2.565
 3807SOL     OW15546   2.846   1.475   1.893
 3807SOL    HW215547   2.873   1.553   1.845
 3807SOL    HW315548   2.753   1.490   1.912
 3807SOL    MW415549   2.837   1.488   1.889
 3808SOL     OW15550   3.710   0.998   3.580
 3808SOL    HW215551   3.623   0.978   3.616
 3808SOL    HW315552   3.764   0.924   3.605
 3808SOL    MW415553   3.705   0.987   3.588
 3809SOL     OW15554   1.931   1.511   2.737
 3809SOL    HW215555   1.963   1.515   2.828
 3809SOL    HW315556   1.836   1.519   2.745
 3809SOL    MW415557   1.923   1.514   2.750
 3810SOL     OW15558   1.886   0.637   2.284
 3810SOL    HW215559   1.826   0.609   2.354
 3810SOL    HW315560   1.960   0.577   2.290
 3810SOL    MW415561   1.888   0.626   2.293
 3811SOL     OW15562   3.454   1.849   3.718
 3811SOL    HW215563   3.499   1.773   3.683
 3811SOL    HW315564   3.492   1.862   3.805
 3811SOL    MW415565   3.464   1.842   3.724
 3812SOL     OW15566   3.054   1.368   2.444
 3812SOL    HW215567   3.077   1.319   2.522
 3812SOL    HW315568   3.135   1.410   2.416
 3812SOL    MW415569   3.067   1.368   2.451
 3813SOL     OW15570   2.312   0.376   3.173
 3813SOL    HW215571   2.345   0.457   3.213
 3813SOL    HW315572   2.285   0.402   3.085
 3813SOL    MW415573   2.311   0.390   3.167
 3814SOL     OW15574   2.266   0.343   2.909
 3814SOL    HW215575   2.296   0.257   2.880
 3814SOL    HW315576   2.171   0.336   2.912
 3814SOL    MW415577   2.258   0.332   2.907
 3815SOL     OW15578   3.095   0.552   3.600
 3815SOL    HW215579   3.147   0.487   3.553
 3815SOL    HW315580   3.053   0.603   3.530
 3815SOL    MW415581   3.096   0.549   3.583
 3816SOL     OW15582   3.194   0.347   3.461
 3816SOL    HW215583   3.101   0.331   3.448
 3816SOL    HW315584   3.220   0.285   3.529
 3816SOL    MW415585   3.184   0.337   3.468
 3817SOL     OW15586   2.409   0.121   2.800
 3817SOL    HW215587   2.419   0.030   2.826
 3817SOL    HW315588   2.365   0.117   2.715
 3817SOL    MW415589   2.405   0.109   2.792
 3818SOL     OW15590   2.503   1.736   3.346
 3818SOL    HW215591   2.420   1.721   3.391
 3818SOL    HW315592   2.562   1.669   3.381
 3818SOL    MW415593   2.501   1.726   3.356
 3819SOL     OW15594   3.560   0.443   2.971
 3819SOL    HW215595   3.493   0.476   3.031
 3819SOL    HW315596   3.603   0.521   2.937
 3819SOL    MW415597   3.558   0.458   2.975
 3820SOL     OW15598   3.738   1.163   2.941
 3820SOL    HW215599   3.731   1.103   2.866
 3820SOL    HW315600   3.664   1.223   2.930
 3820SOL    MW415601   3.728   1.163   2.930
 3821SOL     OW15602   3.120   1.025   2.859
 3821SOL    HW215603   3.134   0.997   2.950
 3821SOL    HW315604   3.206   1.056   2.831
 3821SOL    MW415605   3.133   1.026   2.868
 3822SOL     OW15606   3.203   0.520   3.138
 3822SOL    HW215607   3.224   0.521   3.045
 3822SOL    HW315608   3.248   0.442   3.171
 3822SOL    MW415609   3.210   0.510   3.130
 3823SOL     OW15610   3.696   0.651   3.680
 3823SOL    HW215611   3.733   0.596   3.749
 3823SOL    HW315612   3.721   0.608   3.598
 3823SOL    MW415613   3.703   0.639   3.679
 3824SOL     OW15614   3.243   0.949   3.731
 3824SOL    HW215615   3.309   0.897   3.685
 3824SOL    HW315616   3.263   0.936   3.824
 3824SOL    MW415617   3.254   0.940   3.738
 3825SOL     OW15618   3.194   0.035   2.080
 3825SOL    HW215619   3.268   0.079   2.123
 3825SOL    HW315620   3.118   0.089   2.102
 3825SOL    MW415621   3.194   0.047   2.088
 3826SOL     OW15622   3.254   0.810   2.358
 3826SOL    HW215623   3.169   0.780   2.328
 3826SOL    HW315624   3.246   0.817   2.453
 3826SOL    MW415625   3.242   0.808   2.367
 3827SOL     OW15626   2.330   1.273   3.089
 3827SOL    HW215627   2.342   1.300   3.180
 3827SOL    HW315628   2.311   1.354   3.042
 3827SOL    MW415629   2.329   1.288   3.094
 3828SOL     OW15630   2.614   0.253   2.912
 3828SOL    HW215631   2.587   0.255   3.003
 3828SOL    HW315632   2.544   0.205   2.867
 3828SOL    MW415633   2.602   0.249   2.919
 3829SOL     OW15634   2.468   1.745   3.074
 3829SOL    HW215635   2.520   1.822   3.051
 3829SOL    HW315636   2.477   1.737   3.169
 3829SOL    MW415637   2.477   1.752   3.085
 3830SOL     OW15638   3.370   1.330   3.306
 3830SOL    HW215639   3.355   1.259   3.369
 3830SOL    HW315640   3.416   1.288   3.234
 3830SOL    MW415641   3.376   1.314   3.306
 3831SOL     OW15642   2.444   1.061   3.423
 3831SOL    HW215643   2.481   1.066   3.335
 3831SOL    HW315644   2.483   1.134   3.470
 3831SOL    MW415645   2.454   1.071   3.418
 3832SOL     OW15646   2.624   1.104   3.235
 3832SOL    HW215647   2.683   1.050   3.288
 3832SOL    HW315648   2.639   1.076   3.145
 3832SOL    MW415649   2.634   1.093   3.231
 3833SOL     OW15650   2.627   0.476   2.084
 3833SOL    HW215651   2.700   0.525   2.047
 3833SOL    HW315652   2.643   0.385   2.058
 3833SOL    MW415653   2.639   0.471   2.077
 3834SOL     OW15654   3.435   1.593   3.407
 3834SOL    HW215655   3.477   1.578   3.492
 3834SOL    HW315656   3.426   1.506   3.369
 3834SOL    MW415657   3.439   1.581   3.414
 3835SOL     OW15658   3.095   0.072   2.998
 3835SOL    HW215659   3.150   0.081   2.920
 3835SOL    HW315660   3.150   0.106   3.069
 3835SOL    MW415661   3.109   0.077   2.997
 3836SOL     OW15662   2.102   0.985   2.182
 3836SOL    HW215663   2.039   1.001   2.111
 3836SOL    HW315664   2.049   0.948   2.253
 3836SOL    MW415665   2.087   0.982   2.182
 3837SOL     OW15666   2.458   1.339   2.041
 3837SOL    HW215667   2.473   1.315   2.133
 3837SOL    HW315668   2.366   1.317   2.025
 3837SOL    MW415669   2.448   1.332   2.051
 3838SOL     OW15670   2.997   1.570   2.193
 3838SOL    HW215671   3.005   1.488   2.144
 3838SOL    HW315672   2.916   1.609   2.160
 3838SOL    MW415673   2.987   1.565   2.183
 3839SOL     OW15674   2.256   1.728   2.762
 3839SOL    HW215675   2.260   1.639   2.797
 3839SOL    HW315676   2.282   1.719   2.671
 3839SOL    MW415677   2.259   1.716   2.754
 3840SOL     OW15678   2.873   1.206   3.005
 3840SOL    HW215679   2.805   1.140   3.021
 3840SOL    HW315680   2.891   1.200   2.912
 3840SOL    MW415681   2.866   1.197   2.996
 3841SOL     OW15682   1.962   1.481   3.256
 3841SOL    HW215683   1.952   1.439   3.342
 3841SOL    HW315684   1.883   1.534   3.246
 3841SOL    MW415685   1.951   1.482   3.267
 3842SOL     OW15686   2.866   0.345   2.826
 3842SOL    HW215687   2.796   0.297   2.871
 3842SOL    HW315688   2.898   0.408   2.890
 3842SOL    MW415689   2.861   0.347   2.840
 3843SOL     OW15690   2.517   0.781   3.446
 3843SOL    HW215691   2.510   0.876   3.434
 3843SOL    HW315692   2.526   0.770   3.541
 3843SOL    MW415693   2.518   0.793   3.456
 3844SOL     OW15694   2.238   1.296   3.704
 3844SOL    HW215695   2.310   1.298   3.641
 3844SOL    HW315696   2.208   1.205   3.703
 3844SOL    MW415697   2.243   1.285   3.696
 3845SOL     OW15698   3.322   0.059   3.171
 3845SOL    HW215699   3.393   0.005   3.135
 3845SOL    HW315700   3.321   0.038   3.264
 3845SOL    MW415701   3.331   0.050   3.179
 3846SOL     OW15702   3.522   1.589   3.655
 3846SOL    HW215703   3.495   1.586   3.746
 3846SOL    HW315704   3.618   1.593   3.658
 3846SOL    MW415705   3.532   1.589   3.667
 3847SOL     OW15706   2.333   0.451   2.639
 3847SOL    HW215707   2.404   0.399   2.602
 3847SOL    HW315708   2.319   0.416   2.726
 3847SOL    MW415709   2.341   0.440   2.646
 3848SOL     OW15710   1.888   1.786   3.711
 3848SOL    HW215711   1.938   1.764   3.633
 3848SOL    HW315712   1.896   1.881   3.719
 3848SOL    MW415713   1.896   1.795   3.702
 3849SOL     OW15714   2.649   1.544   2.715
 3849SOL    HW215715   2.577   1.481   2.728
 3849SOL    HW315716   2.610   1.629   2.733
 3849SOL    MW415717   2.633   1.547   2.718
 3850SOL     OW15718   2.969   0.392   2.363
 3850SOL    HW215719   2.991   0.329   2.295
 3850SOL    HW315720   2.874   0.384   2.374
 3850SOL    MW415721   2.959   0.383   2.355
 3851SOL     OW15722   2.054   0.082   2.295
 3851SOL    HW215723   2.125   0.103   2.234
 3851SOL    HW315724   2.008   0.010   2.253
 3851SOL    MW415725   2.058   0.076   2.281
 3852SOL     OW15726   1.885   0.549   3.438
 3852SOL    HW215727   1.949   0.615   3.413
 3852SOL    HW315728   1.804   0.576   3.395
 3852SOL    MW415729   1.883   0.561   3.430
 3853SOL     OW15730   3.623   1.456   2.395
 3853SOL    HW215731   3.593   1.389   2.456
 3853SOL    HW315732   3.717   1.462   2.409
 3853SOL    MW415733   3.631   1.448   2.405
 3854SOL     OW15734   3.179   1.133   2.325
 3854SOL    HW215735   3.151   1.219   2.358
 3854SOL    HW315736   3.207   1.149   2.235
 3854SOL    MW415737   3.179   1.147   2.317
 3855SOL     OW15738   2.841   0.053   2.378
 3855SOL    HW215739   2.878   0.112   2.443
 3855SOL    HW315740   2.818   0.109   2.304
 3855SOL    MW415741   2.842   0.068   2.377
 3856SOL     OW15742   3.694   0.935   2.800
 3856SOL    HW215743   3.685   0.967   2.711
 3856SOL    HW315744   3.647   0.851   2.800
 3856SOL    MW415745   3.687   0.928   2.790
 3857SOL     OW15746   2.070   0.775   3.379
 3857SOL    HW215747   2.091   0.844   3.317
 3857SOL    HW315748   2.150   0.722   3.384
 3857SOL    MW415749   2.083   0.776   3.373
 3858SOL     OW15750   3.606   0.866   2.501
 3858SOL    HW215751   3.700   0.855   2.489
 3858SOL    HW315752   3.582   0.938   2.442
 3858SOL    MW415753   3.616   0.874   2.492
 3859SOL     OW15754   2.055   0.790   3.646
 3859SOL    HW215755   1.981   0.734   3.672
 3859SOL    HW315756   2.050   0.793   3.551
 3859SOL    MW415757   2.044   0.783   3.636
 3860SOL     OW15758   2.221   0.077   3.096
 3860SOL    HW215759   2.264   0.161   3.116
 3860SOL    HW315760   2.294   0.015   3.089
 3860SOL    MW415761   2.236   0.080   3.097
 3861SOL     OW15762   2.262   0.744   2.274
 3861SOL    HW215763   2.262   0.839   2.259
 3861SOL    HW315764   2.339   0.728   2.328
 3861SOL    MW415765   2.272   0.755   2.279
 3862SOL     OW15766   3.038   0.603   3.338
 3862SOL    HW215767   3.074   0.576   3.254
 3862SOL    HW315768   2.951   0.637   3.317
 3862SOL    MW415769   3.032   0.604   3.325
 3863SOL     OW15770   2.021   0.475   2.563
 3863SOL    HW215771   2.083   0.482   2.636
 3863SOL    HW315772   2.021   0.382   2.540
 3863SOL    MW415773   2.029   0.464   2.570
 3864SOL     OW15774   3.568   1.815   2.095
 3864SOL    HW215775   3.635   1.848   2.035
 3864SOL    HW315776   3.525   1.894   2.129
 3864SOL    MW415777   3.570   1.830   2.091
 3865SOL     OW15778   2.703   0.736   3.047
 3865SOL    HW215779   2.661   0.654   3.023
 3865SOL    HW315780   2.704   0.735   3.143
 3865SOL    MW415781   2.696   0.725   3.056
 3866SOL     OW15782   3.374   1.869   3.446
 3866SOL    HW215783   3.377   1.775   3.429
 3866SOL    HW315784   3.397   1.877   3.538
 3866SOL    MW415785   3.377   1.857   3.456
 3867SOL     OW15786   2.507   0.206   3.152
 3867SOL    HW215787   2.438   0.269   3.173
 3867SOL    HW315788   2.534   0.170   3.237
 3867SOL    MW415789   2.501   0.209   3.165
 3868SOL     OW15790   1.890   1.047   2.021
 3868SOL    HW215791   1.859   1.112   2.084
 3868SOL    HW315792   1.839   0.969   2.040
 3868SOL    MW415793   1.880   1.044   2.031
 3869SOL     OW15794   3.302   0.059   2.769
 3869SOL    HW215795   3.390   0.068   2.806
 3869SOL    HW315796   3.312   0.000   2.695
 3869SOL    MW415797   3.316   0.053   2.763
 3870SOL     OW15798   3.334   0.798   2.613
 3870SOL    HW215799   3.414   0.813   2.562
 3870SOL    HW315800   3.327   0.703   2.619
 3870SOL    MW415801   3.343   0.787   2.608
 3871SOL     OW15802   2.474   1.847   1.963
 3871SOL    HW215803   2.379   1.847   1.955
 3871SOL    HW315804   2.490   1.793   2.041
 3871SOL    MW415805   2.464   1.841   1.972
 3872SOL     OW15806   2.784   0.724   3.310
 3872SOL    HW215807   2.853   0.791   3.307
 3872SOL    HW315808   2.717   0.762   3.366
 3872SOL    MW415809   2.785   0.737   3.317
 3873SOL     OW15810   2.202   1.024   3.558
 3873SOL    HW215811   2.156   0.940   3.560
 3873SOL    HW315812   2.259   1.018   3.482
 3873SOL    MW415813   2.204   1.012   3.550
 3874SOL     OW15814   3.319   0.667   1.879
 3874SOL    HW215815   3.247   0.643   1.821
 3874SOL    HW315816   3.385   0.704   1.821
 3874SOL    MW415817   3.318   0.669   1.864
 3875SOL     OW15818   2.453   1.399   2.559
 3875SOL    HW215819   2.518   1.332   2.580
 3875SOL    HW315820   2.505   1.476   2.536
 3875SOL    MW415821   2.468   1.401   2.558
 3876SOL     OW15822   2.714   0.564   2.689
 3876SOL    HW215823   2.654   0.582   2.761
 3876SOL    HW315824   2.748   0.476   2.708
 3876SOL    MW415825   2.710   0.554   2.702
 3877SOL     OW15826   3.655   0.063   3.358
 3877SOL    HW215827   3.576   0.109   3.386
 3877SOL    HW315828   3.690   0.117   3.287
 3877SOL    MW415829   3.649   0.076   3.352
 3878SOL     OW15830   2.939   1.147   2.708
 3878SOL    HW215831   3.031   1.128   2.726
 3878SOL    HW315832   2.912   1.077   2.648
 3878SOL    MW415833   2.947   1.135   2.702
 3879SOL     OW15834   2.732   0.967   2.063
 3879SOL    HW215835   2.718   0.879   2.028
 3879SOL    HW315836   2.683   1.024   2.004
 3879SOL    MW415837   2.724   0.962   2.051
 3880SOL     OW15838   3.213   1.385   2.804
 3880SOL    HW215839   3.186   1.469   2.769
 3880SOL    HW315840   3.173   1.380   2.891
 3880SOL    MW415841   3.206   1.394   2.810
 3881SOL     OW15842   3.132   1.333   3.072
 3881SOL    HW215843   3.143   1.300   3.161
 3881SOL    HW315844   3.051   1.292   3.041
 3881SOL    MW415845   3.122   1.325   3.078
 3882SOL     OW15846   2.145   0.691   2.842
 3882SOL    HW215847   2.095   0.690   2.923
 3882SOL    HW315848   2.165   0.783   2.826
 3882SOL    MW415849   2.141   0.703   2.850
 3883SOL     OW15850   3.212   1.455   3.604
 3883SOL    HW215851   3.212   1.549   3.620
 3883SOL    HW315852   3.257   1.445   3.520
 3883SOL    MW415853   3.218   1.465   3.595
 3884SOL     OW15854   3.451   0.173   2.165
 3884SOL    HW215855   3.444   0.177   2.260
 3884SOL    HW315856   3.463   0.264   2.138
 3884SOL    MW415857   3.452   0.186   2.173
 3885SOL     OW15858   2.740   0.736   2.279
 3885SOL    HW215859   2.720   0.722   2.186
 3885SOL    HW315860   2.833   0.715   2.286
 3885SOL    MW415861   2.750   0.731   2.268
 3886SOL     OW15862   2.067   0.359   3.583
 3886SOL    HW215863   2.024   0.418   3.520
 3886SOL    HW315864   2.135   0.414   3.623
 3886SOL    MW415865   2.071   0.374   3.580
 3887SOL     OW15866   3.179   0.979   3.128
 3887SOL    HW215867   3.242   0.976   3.201
 3887SOL    HW315868   3.095   0.997   3.170
 3887SOL    MW415869   3.175   0.981   3.143
 3888SOL     OW15870   2.723   1.694   2.317
 3888SOL    HW215871   2.781   1.765   2.344
 3888SOL    HW315872   2.746   1.622   2.375
 3888SOL    MW415873   2.734   1.694   2.328
 3889SOL     OW15874   3.518   0.156   2.907
 3889SOL    HW215875   3.563   0.074   2.926
 3889SOL    HW315876   3.538   0.212   2.983
 3889SOL    MW415877   3.528   0.152   2.919
 3890SOL     OW15878   1.966  -0.001   3.006
 3890SOL    HW215879   1.957   0.000   2.911
 3890SOL    HW315880   2.060   0.011   3.021
 3890SOL    MW415881   1.978   0.002   2.997
 3891SOL     OW15882   3.603   1.192   2.626
 3891SOL    HW215883   3.582   1.138   2.549
 3891SOL    HW315884   3.699   1.190   2.630
 3891SOL    MW415885   3.612   1.185   2.615
 3892SOL     OW15886   2.295   1.337   3.369
 3892SOL    HW215887   2.216   1.287   3.392
 3892SOL    HW315888   2.365   1.296   3.419
 3892SOL    MW415889   2.293   1.325   3.379
 3893SOL     OW15890   2.179   0.126   2.052
 3893SOL    HW215891   2.108   0.181   2.020
 3893SOL    HW315892   2.221   0.092   1.973
 3893SOL    MW415893   2.175   0.128   2.038
 3894SOL     OW15894   3.303   0.623   2.888
 3894SOL    HW215895   3.226   0.669   2.854
 3894SOL    HW315896   3.360   0.692   2.922
 3894SOL    MW415897   3.300   0.638   2.888
 3895SOL     OW15898   1.935   0.225   1.901
 3895SOL    HW215899   1.902   0.304   1.945
 3895SOL    HW315900   1.990   0.258   1.830
 3895SOL    MW415901   1.938   0.239   1.898
 3896SOL     OW15902   1.969   1.482   2.090
 3896SOL    HW215903   1.986   1.566   2.132
 3896SOL    HW315904   2.004   1.491   2.002
 3896SOL    MW415905   1.974   1.495   2.084
 3897SOL     OW15906   3.241   1.571   2.307
 3897SOL    HW215907   3.304   1.561   2.236
 3897SOL    HW315908   3.158   1.591   2.262
 3897SOL    MW415909   3.238   1.572   2.292
 3898SOL     OW15910   3.604   0.839   3.993
 3898SOL    HW215911   3.645   0.781   4.058
 3898SOL    HW315912   3.511   0.831   4.010
 3898SOL    MW415913   3.598   0.831   4.003
 3899SOL     OW15914   3.470   0.771   4.988
 3899SOL    HW215915   3.425   0.838   5.039
 3899SOL    HW315916   3.558   0.807   4.974
 3899SOL    MW415917   3.476   0.784   4.992
 3900SOL     OW15918   2.398   1.022   4.222
 3900SOL    HW215919   2.488   0.997   4.206
 3900SOL    HW315920   2.394   1.115   4.199
 3900SOL    MW415921   2.410   1.031   4.217
 3901SOL     OW15922   3.514   1.725   4.364
 3901SOL    HW215923   3.526   1.671   4.442
 3901SOL    HW315924   3.551   1.673   4.293
 3901SOL    MW415925   3.520   1.710   4.365
 3902SOL     OW15926   2.893   1.610   5.365
 3902SOL    HW215927   2.934   1.646   5.286
 3902SOL    HW315928   2.928   1.521   5.372
 3902SOL    MW415929   2.904   1.603   5.356
 3903SOL     OW15930   3.450   1.165   4.969
 3903SOL    HW215931   3.371   1.130   4.927
 3903SOL    HW315932   3.477   1.237   4.913
 3903SOL    MW415933   3.443   1.170   4.956
 3904SOL     OW15934   2.682   0.478   4.235
 3904SOL    HW215935   2.657   0.566   4.263
 3904SOL    HW315936   2.679   0.481   4.139
 3904SOL    MW415937   2.678   0.490   4.227
 3905SOL     OW15938   2.124   0.506   4.163
 3905SOL    HW215939   2.156   0.594   4.145
 3905SOL    HW315940   2.112   0.504   4.258
 3905SOL    MW415941   2.127   0.518   4.175
 3906SOL     OW15942   2.202   0.919   5.064
 3906SOL    HW215943   2.265   0.866   5.015
 3906SOL    HW315944   2.183   0.993   5.007
 3906SOL    MW415945   2.208   0.921   5.051
 3907SOL     OW15946   2.523   0.261   4.250
 3907SOL    HW215947   2.581   0.337   4.252
 3907SOL    HW315948   2.458   0.282   4.183
 3907SOL    MW415949   2.522   0.273   4.241
 3908SOL     OW15950   2.610   1.188   4.425
 3908SOL    HW215951   2.690   1.191   4.477
 3908SOL    HW315952   2.638   1.155   4.339
 3908SOL    MW415953   2.624   1.184   4.420
 3909SOL     OW15954   2.635   1.529   5.328
 3909SOL    HW215955   2.719   1.555   5.367
 3909SOL    HW315956   2.659   1.473   5.254
 3909SOL    MW415957   2.649   1.525   5.323
 3910SOL     OW15958   2.387   0.692   4.416
 3910SOL    HW215959   2.372   0.612   4.467
 3910SOL    HW315960   2.469   0.727   4.450
 3910SOL    MW415961   2.395   0.684   4.428
 3911SOL     OW15962   2.724   1.378   5.101
 3911SOL    HW215963   2.688   1.444   5.041
 3911SOL    HW315964   2.652   1.316   5.114
 3911SOL    MW415965   2.710   1.378   5.095
 3912SOL     OW15966   2.529   0.518   4.793
 3912SOL    HW215967   2.435   0.514   4.811
 3912SOL    HW315968   2.559   0.427   4.802
 3912SOL    MW415969   2.520   0.506   4.796
 3913SOL     OW15970   2.275   0.932   4.697
 3913SOL    HW215971   2.230   0.939   4.613
 3913SOL    HW315972   2.255   1.015   4.741
 3913SOL    MW415973   2.267   0.944   4.691
 3914SOL     OW15974   1.972   1.778   4.572
 3914SOL    HW215975   2.061   1.770   4.607
 3914SOL    HW315976   1.936   1.690   4.577
 3914SOL    MW415977   1.979   1.765   4.577
 3915SOL     OW15978   3.237   1.170   3.941
 3915SOL    HW215979   3.155   1.206   3.907
 3915SOL    HW315980   3.305   1.213   3.890
 3915SOL    MW415981   3.235   1.180   3.929
 3916SOL     OW15982   2.236   1.305   4.607
 3916SOL    HW215983   2.212   1.358   4.683
 3916SOL    HW315984   2.292   1.363   4.555
 3916SOL    MW415985   2.240   1.320   4.610
 3917SOL     OW15986   2.798   0.949   4.417
 3917SOL    HW215987   2.712   0.936   4.457
 3917SOL    HW315988   2.851   0.876   4.449
 3917SOL    MW415989   2.794   0.938   4.426
 3918SOL     OW15990   2.206   1.601   5.202
 3918SOL    HW215991   2.114   1.577   5.187
 3918SOL    HW315992   2.250   1.518   5.219
 3918SOL    MW415993   2.200   1.586   5.201
 3919SOL     OW15994   2.789   1.311   4.134
 3919SOL    HW215995   2.766   1.373   4.202
 3919SOL    HW315996   2.746   1.229   4.160
 3919SOL    MW415997   2.781   1.307   4.145
 3920SOL     OW15998   3.662   0.312   4.590
 3920SOL    HW215999   3.599   0.292   4.659
 3920SOL    HW316000   3.652   0.241   4.527
 3920SOL    MW416001   3.652   0.299   4.591
 3921SOL     OW16002   2.286   0.284   4.102
 3921SOL    HW216003   2.260   0.246   4.018
 3921SOL    HW316004   2.223   0.354   4.118
 3921SOL    MW416005   2.275   0.287   4.093
 3922SOL     OW16006   2.121   1.245   4.139
 3922SOL    HW216007   2.069   1.313   4.095
 3922SOL    HW316008   2.118   1.171   4.079
 3922SOL    MW416009   2.113   1.244   4.126
 3923SOL     OW16010   2.783   1.708   3.917
 3923SOL    HW216011   2.738   1.724   4.000
 3923SOL    HW316012   2.714   1.673   3.859
 3923SOL    MW416013   2.769   1.705   3.919
 3924SOL     OW16014   3.718   0.481   3.892
 3924SOL    HW216015   3.627   0.483   3.920
 3924SOL    HW316016   3.763   0.543   3.950
 3924SOL    MW416017   3.711   0.489   3.902
 3925SOL     OW16018   3.463   1.084   4.242
 3925SOL    HW216019   3.373   1.084   4.277
 3925SOL    HW316020   3.456   1.130   4.159
 3925SOL    MW416021   3.450   1.090   4.236
 3926SOL     OW16022   3.263   0.719   5.314
 3926SOL    HW216023   3.332   0.657   5.291
 3926SOL    HW316024   3.188   0.693   5.261
 3926SOL    MW416025   3.263   0.706   5.305
 3927SOL     OW16026   2.004   1.599   4.866
 3927SOL    HW216027   1.987   1.545   4.943
 3927SOL    HW316028   1.992   1.689   4.896
 3927SOL    MW416029   2.001   1.603   4.880
 3928SOL     OW16030   2.999   1.106   5.306
 3928SOL    HW216031   2.984   1.199   5.291
 3928SOL    HW316032   3.094   1.096   5.306
 3928SOL    MW416033   3.008   1.116   5.303
 3929SOL     OW16034   2.795   0.530   5.507
 3929SOL    HW216035   2.885   0.531   5.474
 3929SOL    HW316036   2.754   0.455   5.465
 3929SOL    MW416037   2.801   0.520   5.498
 3930SOL     OW16038   3.370   1.062   4.634
 3930SOL    HW216039   3.373   0.996   4.565
 3930SOL    HW316040   3.455   1.105   4.630
 3930SOL    MW416041   3.382   1.058   4.625
 3931SOL     OW16042   2.990   0.665   4.203
 3931SOL    HW216043   3.016   0.689   4.114
 3931SOL    HW316044   2.972   0.572   4.199
 3931SOL    MW416045   2.992   0.657   4.190
 3932SOL     OW16046   3.655   1.285   4.054
 3932SOL    HW216047   3.611   1.326   4.129
 3932SOL    HW316048   3.712   1.353   4.019
 3932SOL    MW416049   3.657   1.299   4.059
 3933SOL     OW16050   2.575   0.334   5.457
 3933SOL    HW216051   2.585   0.260   5.397
 3933SOL    HW316052   2.611   0.303   5.540
 3933SOL    MW416053   2.581   0.320   5.459
 3934SOL     OW16054   2.311   1.701   4.372
 3934SOL    HW216055   2.343   1.789   4.350
 3934SOL    HW316056   2.264   1.673   4.294
 3934SOL    MW416057   2.310   1.709   4.359
 3935SOL     OW16058   3.695   0.063   4.421
 3935SOL    HW216059   3.749   0.014   4.483
 3935SOL    HW316060   3.638  -0.003   4.382
 3935SOL    MW416061   3.695   0.047   4.423
 3936SOL     OW16062   2.027   1.761   3.949
 3936SOL    HW216063   2.056   1.851   3.941
 3936SOL    HW316064   1.977   1.744   3.870
 3936SOL    MW416065   2.025   1.769   3.938
 3937SOL     OW16066   2.814   0.016   4.834
 3937SOL    HW216067   2.773   0.094   4.796
 3937SOL    HW316068   2.908   0.034   4.829
 3937SOL    MW416069   2.820   0.028   4.829
 3938SOL     OW16070   3.431   1.569   3.920
 3938SOL    HW216071   3.479   1.638   3.966
 3938SOL    HW316072   3.352   1.613   3.889
 3938SOL    MW416073   3.426   1.583   3.923
 3939SOL     OW16074   2.829   0.694   3.864
 3939SOL    HW216075   2.831   0.641   3.785
 3939SOL    HW316076   2.917   0.731   3.870
 3939SOL    MW416077   2.841   0.693   3.853
 3940SOL     OW16078   3.443   0.620   4.200
 3940SOL    HW216079   3.482   0.620   4.287
 3940SOL    HW316080   3.384   0.696   4.200
 3940SOL    MW416081   3.440   0.631   4.211
 3941SOL     OW16082   2.760   0.987   5.329
 3941SOL    HW216083   2.737   0.967   5.419
 3941SOL    HW316084   2.845   1.031   5.334
 3941SOL    MW416085   2.767   0.990   5.341
 3942SOL     OW16086   2.840   0.124   5.089
 3942SOL    HW216087   2.846   0.086   5.002
 3942SOL    HW316088   2.829   0.218   5.074
 3942SOL    MW416089   2.841   0.132   5.077
 3943SOL     OW16090   2.929   0.613   4.923
 3943SOL    HW216091   3.004   0.642   4.870
 3943SOL    HW316092   2.861   0.678   4.907
 3943SOL    MW416093   2.930   0.625   4.913
 3944SOL     OW16094   3.479   0.581   5.200
 3944SOL    HW216095   3.460   0.490   5.179
 3944SOL    HW316096   3.457   0.630   5.121
 3944SOL    MW416097   3.474   0.574   5.187
 3945SOL     OW16098   3.621   1.675   5.104
 3945SOL    HW216099   3.549   1.637   5.155
 3945SOL    HW316100   3.638   1.760   5.145
 3945SOL    MW416101   3.615   1.680   5.116
 3946SOL     OW16102   2.926   0.319   5.306
 3946SOL    HW216103   2.892   0.358   5.225
 3946SOL    HW316104   2.904   0.227   5.299
 3946SOL    MW416105   2.919   0.312   5.296
 3947SOL     OW16106   3.335   1.133   5.382
 3947SOL    HW216107   3.417   1.174   5.412
 3947SOL    HW316108   3.298   1.095   5.462
 3947SOL    MW416109   3.341   1.134   5.397
 3948SOL     OW16110   3.630   0.506   4.366
 3948SOL    HW216111   3.719   0.475   4.383
 3948SOL    HW316112   3.573   0.446   4.414
 3948SOL    MW416113   3.633   0.494   4.375
 3949SOL     OW16114   2.056   0.220   4.395
 3949SOL    HW216115   2.047   0.160   4.321
 3949SOL    HW316116   1.989   0.191   4.458
 3949SOL    MW416117   2.046   0.207   4.393
 3950SOL     OW16118   2.999   1.313   3.956
 3950SOL    HW216119   2.949   1.315   4.038
 3950SOL    HW316120   2.933   1.331   3.888
 3950SOL    MW416121   2.985   1.315   3.958
 3951SOL     OW16122   2.003   0.393   4.758
 3951SOL    HW216123   1.975   0.484   4.767
 3951SOL    HW316124   1.940   0.354   4.697
 3951SOL    MW416125   1.990   0.399   4.752
 3952SOL     OW16126   2.462   1.731   4.064
 3952SOL    HW216127   2.383   1.689   4.097
 3952SOL    HW316128   2.528   1.714   4.131
 3952SOL    MW416129   2.461   1.723   4.077
 3953SOL     OW16130   3.590   1.251   5.461
 3953SOL    HW216131   3.640   1.177   5.493
 3953SOL    HW316132   3.536   1.278   5.536
 3953SOL    MW416133   3.590   1.245   5.474
 3954SOL     OW16134   2.598   1.146   3.771
 3954SOL    HW216135   2.520   1.092   3.758
 3954SOL    HW316136   2.569   1.219   3.824
 3954SOL    MW416137   2.584   1.148   3.776
 3955SOL     OW16138   3.724   0.886   4.963
 3955SOL    HW216139   3.740   0.924   4.876
 3955SOL    HW316140   3.758   0.952   5.024
 3955SOL    MW416141   3.731   0.899   4.959
 3956SOL     OW16142   3.516   1.595   4.632
 3956SOL    HW216143   3.545   1.662   4.693
 3956SOL    HW316144   3.497   1.519   4.687
 3956SOL    MW416145   3.518   1.595   4.647
 3957SOL     OW16146   3.179   1.662   3.839
 3957SOL    HW216147   3.105   1.625   3.889
 3957SOL    HW316148   3.187   1.752   3.872
 3957SOL    MW416149   3.170   1.669   3.851
 3958SOL     OW16150   1.987   0.668   4.928
 3958SOL    HW216151   2.049   0.698   4.994
 3958SOL    HW316152   1.921   0.737   4.922
 3958SOL    MW416153   1.986   0.681   4.935
 3959SOL     OW16154   3.403   1.336   3.781
 3959SOL    HW216155   3.350   1.385   3.717
 3959SOL    HW316156   3.434   1.402   3.842
 3959SOL    MW416157   3.401   1.350   3.779
 3960SOL     OW16158   2.628   0.225   3.836
 3960SOL    HW216159   2.576   0.145   3.824
 3960SOL    HW316160   2.715   0.202   3.804
 3960SOL    MW416161   2.631   0.211   3.830
 3961SOL     OW16162   2.082   1.777   5.380
 3961SOL    HW216163   2.056   1.845   5.318
 3961SOL    HW316164   2.130   1.714   5.328
 3961SOL    MW416165   2.084   1.777   5.366
 3962SOL     OW16166   2.134   1.096   4.887
 3962SOL    HW216167   2.187   1.171   4.912
 3962SOL    HW316168   2.053   1.134   4.853
 3962SOL    MW416169   2.130   1.111   4.887
 3963SOL     OW16170   2.674   1.000   4.875
 3963SOL    HW216171   2.702   0.909   4.887
 3963SOL    HW316172   2.603   0.994   4.811
 3963SOL    MW416173   2.667   0.988   4.870
 3964SOL     OW16174   1.989   0.865   4.293
 3964SOL    HW216175   2.080   0.880   4.320
 3964SOL    HW316176   1.992   0.786   4.239
 3964SOL    MW416177   2.001   0.857   4.291
 3965SOL     OW16178   2.225   0.573   5.547
 3965SOL    HW216179   2.172   0.653   5.554
 3965SOL    HW316180   2.295   0.585   5.612
 3965SOL    MW416181   2.227   0.586   5.555
 3966SOL     OW16182   2.611   0.123   5.254
 3966SOL    HW216183   2.588   0.031   5.256
 3966SOL    HW316184   2.697   0.125   5.211
 3966SOL    MW416185   2.618   0.113   5.250
 3967SOL     OW16186   2.295   0.647   5.293
 3967SOL    HW216187   2.375   0.697   5.279
 3967SOL    HW316188   2.286   0.641   5.388
 3967SOL    MW416189   2.304   0.653   5.303
 3968SOL     OW16190   2.616   1.797   4.667
 3968SOL    HW216191   2.705   1.812   4.697
 3968SOL    HW316192   2.611   1.844   4.583
 3968SOL    MW416193   2.626   1.805   4.660
 3969SOL     OW16194   3.272   0.172   5.564
 3969SOL    HW216195   3.328   0.099   5.590
 3969SOL    HW316196   3.242   0.210   5.646
 3969SOL    MW416197   3.276   0.167   5.577
 3970SOL     OW16198   1.997   1.477   4.332
 3970SOL    HW216199   1.969   1.516   4.414
 3970SOL    HW316200   2.017   1.386   4.354
 3970SOL    MW416201   1.995   1.469   4.345
 3971SOL     OW16202   2.830   1.520   4.367
 3971SOL    HW216203   2.913   1.474   4.351
 3971SOL    HW316204   2.820   1.519   4.463
 3971SOL    MW416205   2.840   1.513   4.377
 3972SOL     OW16206   3.662   0.665   4.681
 3972SOL    HW216207   3.751   0.695   4.663
 3972SOL    HW316208   3.642   0.605   4.610
 3972SOL    MW416209   3.671   0.662   4.670
 3973SOL     OW16210   3.513   0.844   5.561
 3973SOL    HW216211   3.568   0.768   5.542
 3973SOL    HW316212   3.515   0.852   5.656
 3973SOL    MW416213   3.521   0.835   5.569
 3974SOL     OW16214   2.563   1.577   3.772
 3974SOL    HW216215   2.503   1.646   3.742
 3974SOL    HW316216   2.508   1.519   3.825
 3974SOL    MW416217   2.547   1.579   3.774
 3975SOL     OW16218   3.001   0.222   3.995
 3975SOL    HW216219   2.934   0.198   3.932
 3975SOL    HW316220   3.066   0.271   3.944
 3975SOL    MW416221   3.001   0.224   3.980
 3976SOL     OW16222   2.808   0.406   5.080
 3976SOL    HW216223   2.727   0.447   5.108
 3976SOL    HW316224   2.855   0.474   5.032
 3976SOL    MW416225   2.803   0.421   5.078
 3977SOL     OW16226   3.068   0.744   4.703
 3977SOL    HW216227   3.081   0.838   4.713
 3977SOL    HW316228   3.029   0.734   4.617
 3977SOL    MW416229   3.064   0.755   4.693
 3978SOL     OW16230   2.520   0.939   4.507
 3978SOL    HW216231   2.431   0.930   4.540
 3978SOL    HW316232   2.524   1.029   4.475
 3978SOL    MW416233   2.509   0.950   4.507
 3979SOL     OW16234   3.319   0.522   4.502
 3979SOL    HW216235   3.264   0.443   4.501
 3979SOL    HW316236   3.301   0.563   4.586
 3979SOL    MW416237   3.309   0.517   4.511
 3980SOL     OW16238   2.290   0.209   5.319
 3980SOL    HW216239   2.211   0.227   5.371
 3980SOL    HW316240   2.285   0.271   5.246
 3980SOL    MW416241   2.280   0.219   5.316
 3981SOL     OW16242   2.938   0.726   4.459
 3981SOL    HW216243   2.875   0.658   4.483
 3981SOL    HW316244   2.958   0.707   4.367
 3981SOL    MW416245   2.932   0.713   4.451
 3982SOL     OW16246   2.194   1.621   4.161
 3982SOL    HW216247   2.155   1.668   4.087
 3982SOL    HW316248   2.128   1.556   4.186
 3982SOL    MW416249   2.181   1.619   4.155
 3983SOL     OW16250   2.686   1.030   4.185
 3983SOL    HW216251   2.688   1.004   4.092
 3983SOL    HW316252   2.744   0.967   4.228
 3983SOL    MW416253   2.694   1.019   4.179
 3984SOL     OW16254   3.239   1.590   4.957
 3984SOL    HW216255   3.164   1.636   4.995
 3984SOL    HW316256   3.221   1.497   4.974
 3984SOL    MW416257   3.228   1.584   4.965
 3985SOL     OW16258   3.243   1.798   4.387
 3985SOL    HW216259   3.186   1.751   4.326
 3985SOL    HW316260   3.329   1.759   4.374
 3985SOL    MW416261   3.246   1.789   4.377
 3986SOL     OW16262   3.196   0.274   4.518
 3986SOL    HW216263   3.224   0.206   4.579
 3986SOL    HW316264   3.110   0.245   4.488
 3986SOL    MW416265   3.189   0.261   4.522
 3987SOL     OW16266   2.001   1.208   4.452
 3987SOL    HW216267   2.065   1.240   4.515
 3987SOL    HW316268   2.050   1.144   4.400
 3987SOL    MW416269   2.016   1.204   4.453
 3988SOL     OW16270   2.501   1.284   5.434
 3988SOL    HW216271   2.549   1.367   5.421
 3988SOL    HW316272   2.558   1.232   5.490
 3988SOL    MW416273   2.515   1.288   5.440
 3989SOL     OW16274   2.077   1.526   5.574
 3989SOL    HW216275   2.133   1.450   5.589
 3989SOL    HW316276   2.026   1.504   5.496
 3989SOL    MW416277   2.077   1.513   5.565
 3990SOL     OW16278   3.176   0.378   3.853
 3990SOL    HW216279   3.149   0.444   3.789
 3990SOL    HW316280   3.246   0.421   3.903
 3990SOL    MW416281   3.181   0.391   3.850
 3991SOL     OW16282   2.844   0.083   3.790
 3991SOL    HW216283   2.900   0.075   3.712
 3991SOL    HW316284   2.821  -0.007   3.812
 3991SOL    MW416285   2.849   0.070   3.783
 3992SOL     OW16286   3.349   0.934   3.995
 3992SOL    HW216287   3.316   1.023   3.985
 3992SOL    HW316288   3.314   0.905   4.080
 3992SOL    MW416289   3.339   0.943   4.006
 3993SOL     OW16290   2.962   1.363   5.183
 3993SOL    HW216291   2.873   1.369   5.151
 3993SOL    HW316292   3.006   1.442   5.151
 3993SOL    MW416293   2.957   1.373   5.175
 3994SOL     OW16294   2.255   0.031   5.525
 3994SOL    HW216295   2.183  -0.004   5.473
 3994SOL    HW316296   2.313   0.072   5.460
 3994SOL    MW416297   2.253   0.032   5.510
 3995SOL     OW16298   2.279   1.521   4.824
 3995SOL    HW216299   2.324   1.583   4.881
 3995SOL    HW316300   2.186   1.540   4.837
 3995SOL    MW416301   2.272   1.531   4.831
 3996SOL     OW16302   3.719   1.050   5.178
 3996SOL    HW216303   3.634   1.063   5.137
 3996SOL    HW316304   3.699   1.014   5.265
 3996SOL    MW416305   3.706   1.046   5.183
 3997SOL     OW16306   2.701   1.589   4.932
 3997SOL    HW216307   2.725   1.578   4.841
 3997SOL    HW316308   2.624   1.646   4.930
 3997SOL    MW416309   2.693   1.594   4.921
 3998SOL     OW16310   2.343   0.972   3.787
 3998SOL    HW216311   2.266   0.985   3.843
 3998SOL    HW316312   2.307   0.936   3.706
 3998SOL    MW416313   2.329   0.968   3.784
 3999SOL     OW16314   2.996   0.945   4.030
 3999SOL    HW216315   2.906   0.966   4.005
 3999SOL    HW316316   3.023   1.018   4.086
 3999SOL    MW416317   2.988   0.957   4.033
 4000SOL     OW16318   2.496   1.294   4.722
 4000SOL    HW216319   2.489   1.273   4.816
 4000SOL    HW316320   2.414   1.262   4.685
 4000SOL    MW416321   2.484   1.288   4.729
 4001SOL     OW16322   3.360   0.304   5.124
 4001SOL    HW216323   3.307   0.306   5.204
 4001SOL    HW316324   3.345   0.217   5.087
 4001SOL    MW416325   3.352   0.294   5.129
 4002SOL     OW16326   3.696   0.228   4.997
 4002SOL    HW216327   3.677   0.295   4.932
 4002SOL    HW316328   3.753   0.166   4.952
 4002SOL    MW416329   3.700   0.229   4.983
 4003SOL     OW16330   1.942   1.386   5.385
 4003SOL    HW216331   1.986   1.319   5.331
 4003SOL    HW316332   1.857   1.348   5.405
 4003SOL    MW416333   1.937   1.372   5.381
 4004SOL     OW16334   2.625   0.061   4.437
 4004SOL    HW216335   2.554   0.122   4.419
 4004SOL    HW316336   2.676   0.058   4.356
 4004SOL    MW416337   2.621   0.067   4.424
 4005SOL     OW16338   2.383   1.301   4.186
 4005SOL    HW216339   2.376   1.333   4.276
 4005SOL    HW316340   2.293   1.285   4.158
 4005SOL    MW416341   2.371   1.303   4.193
 4006SOL     OW16342   2.978   1.694   5.095
 4006SOL    HW216343   2.898   1.679   5.045
 4006SOL    HW316344   2.985   1.789   5.102
 4006SOL    MW416345   2.969   1.705   5.089
 4007SOL     OW16346   3.092   1.659   4.585
 4007SOL    HW216347   3.139   1.732   4.544
 4007SOL    HW316348   3.013   1.698   4.621
 4007SOL    MW416349   3.087   1.674   4.584
 4008SOL     OW16350   3.500   1.754   4.860
 4008SOL    HW216351   3.543   1.724   4.940
 4008SOL    HW316352   3.419   1.702   4.857
 4008SOL    MW416353   3.495   1.743   4.870
 4009SOL     OW16354   2.585   0.718   5.567
 4009SOL    HW216355   2.655   0.660   5.539
 4009SOL    HW316356   2.528   0.663   5.622
 4009SOL    MW416357   2.587   0.705   5.571
 4010SOL     OW16358   3.372   0.930   5.200
 4010SOL    HW216359   3.377   0.983   5.280
 4010SOL    HW316360   3.334   0.847   5.228
 4010SOL    MW416361   3.368   0.925   5.215
 4011SOL     OW16362   3.012   0.065   5.446
 4011SOL    HW216363   3.007  -0.028   5.427
 4011SOL    HW316364   3.095   0.076   5.492
 4011SOL    MW416365   3.020   0.054   5.450
 4012SOL     OW16366   2.386   0.585   3.900
 4012SOL    HW216367   2.352   0.641   3.970
 4012SOL    HW316368   2.457   0.535   3.940
 4012SOL    MW416369   2.392   0.586   3.914
 4013SOL     OW16370   3.482   1.336   4.722
 4013SOL    HW216371   3.517   1.318   4.635
 4013SOL    HW316372   3.387   1.337   4.709
 4013SOL    MW416373   3.474   1.333   4.709
 4014SOL     OW16374   2.911   0.984   5.091
 4014SOL    HW216375   2.954   1.019   5.169
 4014SOL    HW316376   2.894   1.061   5.037
 4014SOL    MW416377   2.914   0.999   5.094
 4015SOL     OW16378   3.442   0.471   3.964
 4015SOL    HW216379   3.434   0.542   3.901
 4015SOL    HW316380   3.460   0.515   4.047
 4015SOL    MW416381   3.443   0.485   3.966
 4016SOL     OW16382   2.302   0.126   4.393
 4016SOL    HW216383   2.352   0.169   4.324
 4016SOL    HW316384   2.217   0.170   4.393
 4016SOL    MW416385   2.299   0.139   4.384
 4017SOL     OW16386   2.061   1.188   5.253
 4017SOL    HW216387   2.089   1.141   5.331
 4017SOL    HW316388   1.982   1.143   5.224
 4017SOL    MW416389   2.054   1.177   5.259
 4018SOL     OW16390   2.569   0.515   5.220
 4018SOL    HW216391   2.541   0.603   5.244
 4018SOL    HW316392   2.538   0.459   5.291
 4018SOL    MW416393   2.561   0.518   5.232
 4019SOL     OW16394   3.111   0.733   3.939
 4019SOL    HW216395   3.158   0.751   3.858
 4019SOL    HW316396   3.077   0.817   3.967
 4019SOL    MW416397   3.113   0.747   3.932
 4020SOL     OW16398   2.224   0.911   4.433
 4020SOL    HW216399   2.282   0.967   4.381
 4020SOL    HW316400   2.268   0.826   4.435
 4020SOL    MW416401   2.237   0.908   4.426
 4021SOL     OW16402   3.364   0.263   4.270
 4021SOL    HW216403   3.286   0.213   4.295
 4021SOL    HW316404   3.335   0.354   4.270
 4021SOL    MW416405   3.350   0.267   4.273
 4022SOL     OW16406   2.950   0.225   4.429
 4022SOL    HW216407   2.970   0.300   4.373
 4022SOL    HW316408   2.930   0.264   4.514
 4022SOL    MW416409   2.951   0.241   4.433
 4023SOL     OW16410   2.846   1.475   3.761
 4023SOL    HW216411   2.873   1.553   3.713
 4023SOL    HW316412   2.753   1.490   3.780
 4023SOL    MW416413   2.837   1.488   3.757
 4024SOL     OW16414   3.710   0.998   5.448
 4024SOL    HW216415   3.623   0.978   5.484
 4024SOL    HW316416   3.764   0.924   5.473
 4024SOL    MW416417   3.705   0.987   5.456
 4025SOL     OW16418   1.931   1.511   4.605
 4025SOL    HW216419   1.963   1.515   4.696
 4025SOL    HW316420   1.836   1.519   4.613
 4025SOL    MW416421   1.923   1.514   4.618
 4026SOL     OW16422   1.886   0.637   4.152
 4026SOL    HW216423   1.826   0.609   4.222
 4026SOL    HW316424   1.960   0.577   4.158
 4026SOL    MW416425   1.888   0.626   4.161
 4027SOL     OW16426   3.454   1.849   5.586
 4027SOL    HW216427   3.499   1.773   5.551
 4027SOL    HW316428   3.492   1.862   5.673
 4027SOL    MW416429   3.464   1.842   5.592
 4028SOL     OW16430   3.054   1.368   4.312
 4028SOL    HW216431   3.077   1.319   4.390
 4028SOL    HW316432   3.135   1.410   4.284
 4028SOL    MW416433   3.067   1.368   4.319
 4029SOL     OW16434   2.312   0.376   5.041
 4029SOL    HW216435   2.345   0.457   5.081
 4029SOL    HW316436   2.285   0.402   4.953
 4029SOL    MW416437   2.311   0.390   5.035
 4030SOL     OW16438   2.266   0.343   4.777
 4030SOL    HW216439   2.296   0.257   4.748
 4030SOL    HW316440   2.171   0.336   4.780
 4030SOL    MW416441   2.258   0.332   4.775
 4031SOL     OW16442   3.095   0.552   5.468
 4031SOL    HW216443   3.147   0.487   5.421
 4031SOL    HW316444   3.053   0.603   5.398
 4031SOL    MW416445   3.096   0.549   5.451
 4032SOL     OW16446   3.194   0.347   5.329
 4032SOL    HW216447   3.101   0.331   5.316
 4032SOL    HW316448   3.220   0.285   5.397
 4032SOL    MW416449   3.184   0.337   5.336
 4033SOL     OW16450   2.409   0.121   4.668
 4033SOL    HW216451   2.419   0.030   4.694
 4033SOL    HW316452   2.365   0.117   4.583
 4033SOL    MW416453   2.405   0.109   4.660
 4034SOL     OW16454   2.503   1.736   5.214
 4034SOL    HW216455   2.420   1.721   5.259
 4034SOL    HW316456   2.562   1.669   5.249
 4034SOL    MW416457   2.501   1.726   5.224
 4035SOL     OW16458   3.560   0.443   4.839
 4035SOL    HW216459   3.493   0.476   4.899
 4035SOL    HW316460   3.603   0.521   4.805
 4035SOL    MW416461   3.558   0.458   4.843
 4036SOL     OW16462   3.738   1.163   4.809
 4036SOL    HW216463   3.731   1.103   4.734
 4036SOL    HW316464   3.664   1.223   4.798
 4036SOL    MW416465   3.728   1.163   4.798
 4037SOL     OW16466   3.120   1.025   4.727
 4037SOL    HW216467   3.134   0.997   4.818
 4037SOL    HW316468   3.206   1.056   4.699
 4037SOL    MW416469   3.133   1.026   4.736
 4038SOL     OW16470   3.203   0.520   5.006
 4038SOL    HW216471   3.224   0.521   4.913
 4038SOL    HW316472   3.248   0.442   5.039
 4038SOL    MW416473   3.210   0.510   4.998
 4039SOL     OW16474   3.696   0.651   5.548
 4039SOL    HW216475   3.733   0.596   5.617
 4039SOL    HW316476   3.721   0.608   5.466
 4039SOL    MW416477   3.703   0.639   5.547
 4040SOL     OW16478   3.243   0.949   5.600
 4040SOL    HW216479   3.309   0.897   5.554
 4040SOL    HW316480   3.263   0.936   5.693
 4040SOL    MW416481   3.254   0.940   5.607
 4041SOL     OW16482   3.194   0.035   3.948
 4041SOL    HW216483   3.268   0.079   3.991
 4041SOL    HW316484   3.118   0.089   3.970
 4041SOL    MW416485   3.194   0.047   3.956
 4042SOL     OW16486   3.254   0.810   4.226
 4042SOL    HW216487   3.169   0.780   4.196
 4042SOL    HW316488   3.246   0.817   4.321
 4042SOL    MW416489   3.242   0.808   4.235
 4043SOL     OW16490   2.330   1.273   4.957
 4043SOL    HW216491   2.342   1.300   5.048
 4043SOL    HW316492   2.311   1.354   4.910
 4043SOL    MW416493   2.329   1.288   4.962
 4044SOL     OW16494   2.614   0.253   4.780
 4044SOL    HW216495   2.587   0.255   4.871
 4044SOL    HW316496   2.544   0.205   4.735
 4044SOL    MW416497   2.602   0.249   4.787
 4045SOL     OW16498   2.468   1.745   4.942
 4045SOL    HW216499   2.520   1.822   4.919
 4045SOL    HW316500   2.477   1.737   5.037
 4045SOL    MW416501   2.477   1.752   4.953
 4046SOL     OW16502   3.370   1.330   5.174
 4046SOL    HW216503   3.355   1.259   5.237
 4046SOL    HW316504   3.416   1.288   5.102
 4046SOL    MW416505   3.376   1.314   5.174
 4047SOL     OW16506   2.444   1.061   5.291
 4047SOL    HW216507   2.481   1.066   5.203
 4047SOL    HW316508   2.483   1.134   5.338
 4047SOL    MW416509   2.454   1.071   5.286
 4048SOL     OW16510   2.624   1.104   5.103
 4048SOL    HW216511   2.683   1.050   5.156
 4048SOL    HW316512   2.639   1.076   5.013
 4048SOL    MW416513   2.634   1.093   5.099
 4049SOL     OW16514   2.627   0.476   3.952
 4049SOL    HW216515   2.700   0.525   3.915
 4049SOL    HW316516   2.643   0.385   3.926
 4049SOL    MW416517   2.639   0.471   3.945
 4050SOL     OW16518   3.435   1.593   5.275
 4050SOL    HW216519   3.477   1.578   5.360
 4050SOL    HW316520   3.426   1.506   5.237
 4050SOL    MW416521   3.439   1.581   5.282
 4051SOL     OW16522   3.095   0.072   4.866
 4051SOL    HW216523   3.150   0.081   4.788
 4051SOL    HW316524   3.150   0.106   4.937
 4051SOL    MW416525   3.109   0.077   4.865
 4052SOL     OW16526   2.102   0.985   4.050
 4052SOL    HW216527   2.039   1.001   3.979
 4052SOL    HW316528   2.049   0.948   4.121
 4052SOL    MW416529   2.087   0.982   4.050
 4053SOL     OW16530   2.458   1.339   3.909
 4053SOL    HW216531   2.473   1.315   4.001
 4053SOL    HW316532   2.366   1.317   3.893
 4053SOL    MW416533   2.448   1.332   3.919
 4054SOL     OW16534   2.997   1.570   4.061
 4054SOL    HW216535   3.005   1.488   4.012
 4054SOL    HW316536   2.916   1.609   4.028
 4054SOL    MW416537   2.987   1.565   4.051
 4055SOL     OW16538   2.256   1.728   4.630
 4055SOL    HW216539   2.260   1.639   4.665
 4055SOL    HW316540   2.282   1.719   4.539
 4055SOL    MW416541   2.259   1.716   4.622
 4056SOL     OW16542   2.873   1.206   4.873
 4056SOL    HW216543   2.805   1.140   4.889
 4056SOL    HW316544   2.891   1.200   4.780
 4056SOL    MW416545   2.866   1.197   4.864
 4057SOL     OW16546   1.962   1.481   5.124
 4057SOL    HW216547   1.952   1.439   5.210
 4057SOL    HW316548   1.883   1.534   5.114
 4057SOL    MW416549   1.951   1.482   5.135
 4058SOL     OW16550   2.866   0.345   4.694
 4058SOL    HW216551   2.796   0.297   4.739
 4058SOL    HW316552   2.898   0.408   4.758
 4058SOL    MW416553   2.861   0.347   4.708
 4059SOL     OW16554   2.517   0.781   5.314
 4059SOL    HW216555   2.510   0.876   5.302
 4059SOL    HW316556   2.526   0.770   5.409
 4059SOL    MW416557   2.518   0.793   5.324
 4060SOL     OW16558   2.238   1.296   5.572
 4060SOL    HW216559   2.310   1.298   5.509
 4060SOL    HW316560   2.208   1.205   5.571
 4060SOL    MW416561   2.243   1.285   5.564
 4061SOL     OW16562   3.322   0.059   5.039
 4061SOL    HW216563   3.393   0.005   5.003
 4061SOL    HW316564   3.321   0.038   5.132
 4061SOL    MW416565   3.331   0.050   5.047
 4062SOL     OW16566   3.522   1.589   5.523
 4062SOL    HW216567   3.495   1.586   5.614
 4062SOL    HW316568   3.618   1.593   5.526
 4062SOL    MW416569   3.532   1.589   5.535
 4063SOL     OW16570   2.333   0.451   4.507
 4063SOL    HW216571   2.404   0.399   4.470
 4063SOL    HW316572   2.319   0.416   4.594
 4063SOL    MW416573   2.341   0.440   4.514
 4064SOL     OW16574   1.888   1.786   5.579
 4064SOL    HW216575   1.938   1.764   5.501
 4064SOL    HW316576   1.896   1.881   5.587
 4064SOL    MW416577   1.896   1.795   5.570
 4065SOL     OW16578   2.649   1.544   4.583
 4065SOL    HW216579   2.577   1.481   4.596
 4065SOL    HW316580   2.610   1.629   4.601
 4065SOL    MW416581   2.633   1.547   4.586
 4066SOL     OW16582   2.969   0.392   4.231
 4066SOL    HW216583   2.991   0.329   4.163
 4066SOL    HW316584   2.874   0.384   4.242
 4066SOL    MW416585   2.959   0.383   4.223
 4067SOL     OW16586   2.054   0.082   4.163
 4067SOL    HW216587   2.125   0.103   4.102
 4067SOL    HW316588   2.008   0.010   4.121
 4067SOL    MW416589   2.058   0.076   4.149
 4068SOL     OW16590   1.885   0.549   5.306
 4068SOL    HW216591   1.949   0.615   5.281
 4068SOL    HW316592   1.804   0.576   5.263
 4068SOL    MW416593   1.883   0.561   5.298
 4069SOL     OW16594   3.623   1.456   4.263
 4069SOL    HW216595   3.593   1.389   4.324
 4069SOL    HW316596   3.717   1.462   4.277
 4069SOL    MW416597   3.631   1.448   4.273
 4070SOL     OW16598   3.179   1.133   4.193
 4070SOL    HW216599   3.151   1.219   4.226
 4070SOL    HW316600   3.207   1.149   4.103
 4070SOL    MW416601   3.179   1.147   4.185
 4071SOL     OW16602   2.841   0.053   4.246
 4071SOL    HW216603   2.878   0.112   4.311
 4071SOL    HW316604   2.818   0.109   4.172
 4071SOL    MW416605   2.842   0.068   4.245
 4072SOL     OW16606   3.694   0.935   4.668
 4072SOL    HW216607   3.685   0.967   4.579
 4072SOL    HW316608   3.647   0.851   4.668
 4072SOL    MW416609   3.687   0.928   4.658
 4073SOL     OW16610   2.070   0.775   5.247
 4073SOL    HW216611   2.091   0.844   5.185
 4073SOL    HW316612   2.150   0.722   5.252
 4073SOL    MW416613   2.083   0.776   5.241
 4074SOL     OW16614   3.606   0.866   4.369
 4074SOL    HW216615   3.700   0.855   4.357
 4074SOL    HW316616   3.582   0.938   4.310
 4074SOL    MW416617   3.616   0.874   4.360
 4075SOL     OW16618   2.055   0.790   5.514
 4075SOL    HW216619   1.981   0.734   5.540
 4075SOL    HW316620   2.050   0.793   5.419
 4075SOL    MW416621   2.044   0.783   5.504
 4076SOL     OW16622   2.221   0.077   4.964
 4076SOL    HW216623   2.264   0.161   4.984
 4076SOL    HW316624   2.294   0.015   4.957
 4076SOL    MW416625   2.236   0.080   4.965
 4077SOL     OW16626   2.262   0.744   4.142
 4077SOL    HW216627   2.262   0.839   4.127
 4077SOL    HW316628   2.339   0.728   4.196
 4077SOL    MW416629   2.272   0.755   4.147
 4078SOL     OW16630   3.038   0.603   5.206
 4078SOL    HW216631   3.074   0.576   5.122
 4078SOL    HW316632   2.951   0.637   5.185
 4078SOL    MW416633   3.032   0.604   5.193
 4079SOL     OW16634   2.021   0.475   4.431
 4079SOL    HW216635   2.083   0.482   4.504
 4079SOL    HW316636   2.021   0.382   4.408
 4079SOL    MW416637   2.029   0.464   4.438
 4080SOL     OW16638   3.568   1.815   3.963
 4080SOL    HW216639   3.635   1.848   3.903
 4080SOL    HW316640   3.525   1.894   3.997
 4080SOL    MW416641   3.570   1.830   3.959
 4081SOL     OW16642   2.703   0.736   4.915
 4081SOL    HW216643   2.661   0.654   4.891
 4081SOL    HW316644   2.704   0.735   5.011
 4081SOL    MW416645   2.696   0.725   4.924
 4082SOL     OW16646   3.374   1.869   5.314
 4082SOL    HW216647   3.377   1.775   5.297
 4082SOL    HW316648   3.397   1.877   5.406
 4082SOL    MW416649   3.377   1.857   5.324
 4083SOL     OW16650   2.507   0.206   5.020
 4083SOL    HW216651   2.438   0.269   5.041
 4083SOL    HW316652   2.534   0.170   5.105
 4083SOL    MW416653   2.501   0.209   5.033
 4084SOL     OW16654   1.890   1.047   3.889
 4084SOL    HW216655   1.859   1.112   3.952
 4084SOL    HW316656   1.839   0.969   3.908
 4084SOL    MW416657   1.880   1.044   3.899
 4085SOL     OW16658   3.302   0.059   4.637
 4085SOL    HW216659   3.390   0.068   4.674
 4085SOL    HW316660   3.312   0.000   4.563
 4085SOL    MW416661   3.316   0.053   4.631
 4086SOL     OW16662   3.334   0.798   4.481
 4086SOL    HW216663   3.414   0.813   4.430
 4086SOL    HW316664   3.327   0.703   4.487
 4086SOL    MW416665   3.343   0.787   4.476
 4087SOL     OW16666   2.474   1.847   3.831
 4087SOL    HW216667   2.379   1.847   3.823
 4087SOL    HW316668   2.490   1.793   3.909
 4087SOL    MW416669   2.464   1.841   3.840
 4088SOL     OW16670   2.784   0.724   5.178
 4088SOL    HW216671   2.853   0.791   5.175
 4088SOL    HW316672   2.717   0.762   5.234
 4088SOL    MW416673   2.785   0.737   5.185
 4089SOL     OW16674   2.202   1.024   5.426
 4089SOL    HW216675   2.156   0.940   5.428
 4089SOL    HW316676   2.259   1.018   5.350
 4089SOL    MW416677   2.204   1.012   5.418
 4090SOL     OW16678   3.319   0.667   3.747
 4090SOL    HW216679   3.247   0.643   3.689
 4090SOL    HW316680   3.385   0.704   3.689
 4090SOL    MW416681   3.318   0.669   3.732
 4091SOL     OW16682   2.453   1.399   4.427
 4091SOL    HW216683   2.518   1.332   4.448
 4091SOL    HW316684   2.505   1.476   4.404
 4091SOL    MW416685   2.468   1.401   4.426
 4092SOL     OW16686   2.714   0.564   4.557
 4092SOL    HW216687   2.654   0.582   4.629
 4092SOL    HW316688   2.748   0.476   4.576
 4092SOL    MW416689   2.710   0.554   4.570
 4093SOL     OW16690   3.655   0.063   5.226
 4093SOL    HW216691   3.576   0.109   5.254
 4093SOL    HW316692   3.690   0.117   5.155
 4093SOL    MW416693   3.649   0.076   5.220
 4094SOL     OW16694   2.939   1.147   4.576
 4094SOL    HW216695   3.031   1.128   4.594
 4094SOL    HW316696   2.912   1.077   4.516
 4094SOL    MW416697   2.947   1.135   4.570
 4095SOL     OW16698   2.732   0.967   3.931
 4095SOL    HW216699   2.718   0.879   3.896
 4095SOL    HW316700   2.683   1.024   3.872
 4095SOL    MW416701   2.724   0.962   3.919
 4096SOL     OW16702   3.213   1.385   4.672
 4096SOL    HW216703   3.186   1.469   4.637
 4096SOL    HW316704   3.173   1.380   4.759
 4096SOL    MW416705   3.206   1.394   4.678
 4097SOL     OW16706   3.132   1.333   4.940
 4097SOL    HW216707   3.143   1.300   5.029
 4097SOL    HW316708   3.051   1.292   4.909
 4097SOL    MW416709   3.122   1.325   4.946
 4098SOL     OW16710   2.145   0.691   4.710
 4098SOL    HW216711   2.095   0.690   4.791
 4098SOL    HW316712   2.165   0.783   4.694
 4098SOL    MW416713   2.141   0.703   4.718
 4099SOL     OW16714   3.212   1.455   5.472
 4099SOL    HW216715   3.212   1.549   5.488
 4099SOL    HW316716   3.257   1.445   5.388
 4099SOL    MW416717   3.218   1.465   5.463
 4100SOL     OW16718   3.451   0.173   4.033
 4100SOL    HW216719   3.444   0.177   4.128
 4100SOL    HW316720   3.463   0.264   4.006
 4100SOL    MW416721   3.452   0.186   4.041
 4101SOL     OW16722   2.740   0.736   4.147
 4101SOL    HW216723   2.720   0.722   4.054
 4101SOL    HW316724   2.833   0.715   4.154
 4101SOL    MW416725   2.750   0.731   4.136
 4102SOL     OW16726   2.067   0.359   5.451
 4102SOL    HW216727   2.024   0.418   5.388
 4102SOL    HW316728   2.135   0.414   5.491
 4102SOL    MW416729   2.071   0.374   5.448
 4103SOL     OW16730   3.179   0.979   4.996
 4103SOL    HW216731   3.242   0.976   5.069
 4103SOL    HW316732   3.095   0.997   5.038
 4103SOL    MW416733   3.175   0.981   5.011
 4104SOL     OW16734   2.723   1.694   4.185
 4104SOL    HW216735   2.781   1.765   4.212
 4104SOL    HW316736   2.746   1.622   4.243
 4104SOL    MW416737   2.734   1.694   4.196
 4105SOL     OW16738   3.518   0.156   4.775
 4105SOL    HW216739   3.563   0.074   4.794
 4105SOL    HW316740   3.538   0.212   4.851
 4105SOL    MW416741   3.528   0.152   4.787
 4106SOL     OW16742   1.966  -0.001   4.874
 4106SOL    HW216743   1.957   0.000   4.779
 4106SOL    HW316744   2.060   0.011   4.889
 4106SOL    MW416745   1.978   0.002   4.865
 4107SOL     OW16746   3.603   1.192   4.494
 4107SOL    HW216747   3.582   1.138   4.417
 4107SOL    HW316748   3.699   1.190   4.498
 4107SOL    MW416749   3.612   1.185   4.483
 4108SOL     OW16750   2.295   1.337   5.237
 4108SOL    HW216751   2.216   1.287   5.260
 4108SOL    HW316752   2.365   1.296   5.287
 4108SOL    MW416753   2.293   1.325   5.247
 4109SOL     OW16754   2.179   0.126   3.920
 4109SOL    HW216755   2.108   0.181   3.888
 4109SOL    HW316756   2.221   0.092   3.841
 4109SOL    MW416757   2.175   0.128   3.906
 4110SOL     OW16758   3.303   0.623   4.756
 4110SOL    HW216759   3.226   0.669   4.722
 4110SOL    HW316760   3.360   0.692   4.790
 4110SOL    MW416761   3.300   0.638   4.756
 4111SOL     OW16762   1.935   0.225   3.769
 4111SOL    HW216763   1.902   0.304   3.813
 4111SOL    HW316764   1.990   0.258   3.698
 4111SOL    MW416765   1.938   0.239   3.766
 4112SOL     OW16766   1.969   1.482   3.958
 4112SOL    HW216767   1.986   1.566   4.000
 4112SOL    HW316768   2.004   1.491   3.870
 4112SOL    MW416769   1.974   1.495   3.952
 4113SOL     OW16770   3.241   1.571   4.175
 4113SOL    HW216771   3.304   1.561   4.104
 4113SOL    HW316772   3.158   1.591   4.130
 4113SOL    MW416773   3.238   1.572   4.160
 4114SOL     OW16774   3.604   0.839   5.862
 4114SOL    HW216775   3.645   0.781   5.927
 4114SOL    HW316776   3.511   0.831   5.879
 4114SOL    MW416777   3.598   0.831   5.872
 4115SOL     OW16778   3.470   0.771   6.857
 4115SOL    HW216779   3.425   0.838   6.908
 4115SOL    HW316780   3.558   0.807   6.843
 4115SOL    MW416781   3.476   0.784   6.861
 4116SOL     OW16782   2.398   1.022   6.091
 4116SOL    HW216783   2.488   0.997   6.075
 4116SOL    HW316784   2.394   1.115   6.068
 4116SOL    MW416785   2.410   1.031   6.086
 4117SOL     OW16786   3.514   1.725   6.233
 4117SOL    HW216787   3.526   1.671   6.311
 4117SOL    HW316788   3.551   1.673   6.162
 4117SOL    MW416789   3.520   1.710   6.234
 4118SOL     OW16790   2.893   1.610   7.234
 4118SOL    HW216791   2.934   1.646   7.155
 4118SOL    HW316792   2.928   1.521   7.241
 4118SOL    MW416793   2.904   1.603   7.225
 4119SOL     OW16794   3.450   1.165   6.838
 4119SOL    HW216795   3.371   1.130   6.796
 4119SOL    HW316796   3.477   1.237   6.782
 4119SOL    MW416797   3.443   1.170   6.825
 4120SOL     OW16798   2.682   0.478   6.104
 4120SOL    HW216799   2.657   0.566   6.132
 4120SOL    HW316800   2.679   0.481   6.008
 4120SOL    MW416801   2.678   0.490   6.096
 4121SOL     OW16802   2.124   0.506   6.032
 4121SOL    HW216803   2.156   0.594   6.014
 4121SOL    HW316804   2.112   0.504   6.127
 4121SOL    MW416805   2.127   0.518   6.044
 4122SOL     OW16806   2.202   0.919   6.933
 4122SOL    HW216807   2.265   0.866   6.884
 4122SOL    HW316808   2.183   0.993   6.876
 4122SOL    MW416809   2.208   0.921   6.920
 4123SOL     OW16810   2.523   0.261   6.119
 4123SOL    HW216811   2.581   0.337   6.121
 4123SOL    HW316812   2.458   0.282   6.052
 4123SOL    MW416813   2.522   0.273   6.110
 4124SOL     OW16814   2.610   1.188   6.294
 4124SOL    HW216815   2.690   1.191   6.346
 4124SOL    HW316816   2.638   1.155   6.208
 4124SOL    MW416817   2.624   1.184   6.289
 4125SOL     OW16818   2.635   1.529   7.197
 4125SOL    HW216819   2.719   1.555   7.236
 4125SOL    HW316820   2.659   1.473   7.123
 4125SOL    MW416821   2.649   1.525   7.192
 4126SOL     OW16822   2.387   0.692   6.285
 4126SOL    HW216823   2.372   0.612   6.336
 4126SOL    HW316824   2.469   0.727   6.319
 4126SOL    MW416825   2.395   0.684   6.297
 4127SOL     OW16826   2.724   1.378   6.970
 4127SOL    HW216827   2.688   1.444   6.910
 4127SOL    HW316828   2.652   1.316   6.983
 4127SOL    MW416829   2.710   1.378   6.964
 4128SOL     OW16830   2.529   0.518   6.662
 4128SOL    HW216831   2.435   0.514   6.680
 4128SOL    HW316832   2.559   0.427   6.671
 4128SOL    MW416833   2.520   0.506   6.665
 4129SOL     OW16834   2.275   0.932   6.566
 4129SOL    HW216835   2.230   0.939   6.482
 4129SOL    HW316836   2.255   1.015   6.610
 4129SOL    MW416837   2.267   0.944   6.560
 4130SOL     OW16838   1.972   1.778   6.441
 4130SOL    HW216839   2.061   1.770   6.476
 4130SOL    HW316840   1.936   1.690   6.446
 4130SOL    MW416841   1.979   1.765   6.446
 4131SOL     OW16842   3.237   1.170   5.810
 4131SOL    HW216843   3.155   1.206   5.776
 4131SOL    HW316844   3.305   1.213   5.759
 4131SOL    MW416845   3.235   1.180   5.798
 4132SOL     OW16846   2.236   1.305   6.476
 4132SOL    HW216847   2.212   1.358   6.552
 4132SOL    HW316848   2.292   1.363   6.424
 4132SOL    MW416849   2.240   1.320   6.479
 4133SOL     OW16850   2.798   0.949   6.286
 4133SOL    HW216851   2.712   0.936   6.326
 4133SOL    HW316852   2.851   0.876   6.318
 4133SOL    MW416853   2.794   0.938   6.295
 4134SOL     OW16854   2.206   1.601   7.071
 4134SOL    HW216855   2.114   1.577   7.056
 4134SOL    HW316856   2.250   1.518   7.088
 4134SOL    MW416857   2.200   1.586   7.070
 4135SOL     OW16858   2.789   1.311   6.003
 4135SOL    HW216859   2.766   1.373   6.071
 4135SOL    HW316860   2.746   1.229   6.029
 4135SOL    MW416861   2.781   1.307   6.014
 4136SOL     OW16862   3.662   0.312   6.459
 4136SOL    HW216863   3.599   0.292   6.528
 4136SOL    HW316864   3.652   0.241   6.396
 4136SOL    MW416865   3.652   0.299   6.460
 4137SOL     OW16866   2.286   0.284   5.971
 4137SOL    HW216867   2.260   0.246   5.887
 4137SOL    HW316868   2.223   0.354   5.987
 4137SOL    MW416869   2.275   0.287   5.962
 4138SOL     OW16870   2.121   1.245   6.008
 4138SOL    HW216871   2.069   1.313   5.964
 4138SOL    HW316872   2.118   1.171   5.948
 4138SOL    MW416873   2.113   1.244   5.995
 4139SOL     OW16874   2.783   1.708   5.786
 4139SOL    HW216875   2.738   1.724   5.869
 4139SOL    HW316876   2.714   1.673   5.728
 4139SOL    MW416877   2.769   1.705   5.788
 4140SOL     OW16878   3.718   0.481   5.761
 4140SOL    HW216879   3.627   0.483   5.789
 4140SOL    HW316880   3.763   0.543   5.819
 4140SOL    MW416881   3.711   0.489   5.771
 4141SOL     OW16882   3.463   1.084   6.111
 4141SOL    HW216883   3.373   1.084   6.146
 4141SOL    HW316884   3.456   1.130   6.028
 4141SOL    MW416885   3.450   1.090   6.105
 4142SOL     OW16886   3.263   0.719   7.183
 4142SOL    HW216887   3.332   0.657   7.160
 4142SOL    HW316888   3.188   0.693   7.130
 4142SOL    MW416889   3.263   0.706   7.174
 4143SOL     OW16890   2.004   1.599   6.735
 4143SOL    HW216891   1.987   1.545   6.812
 4143SOL    HW316892   1.992   1.689   6.765
 4143SOL    MW416893   2.001   1.603   6.749
 4144SOL     OW16894   2.999   1.106   7.175
 4144SOL    HW216895   2.984   1.199   7.160
 4144SOL    HW316896   3.094   1.096   7.175
 4144SOL    MW416897   3.008   1.116   7.172
 4145SOL     OW16898   2.795   0.530   7.376
 4145SOL    HW216899   2.885   0.531   7.343
 4145SOL    HW316900   2.754   0.455   7.334
 4145SOL    MW416901   2.801   0.520   7.367
 4146SOL     OW16902   3.370   1.062   6.503
 4146SOL    HW216903   3.373   0.996   6.434
 4146SOL    HW316904   3.455   1.105   6.499
 4146SOL    MW416905   3.382   1.058   6.494
 4147SOL     OW16906   2.990   0.665   6.072
 4147SOL    HW216907   3.016   0.689   5.983
 4147SOL    HW316908   2.972   0.572   6.068
 4147SOL    MW416909   2.992   0.657   6.059
 4148SOL     OW16910   3.655   1.285   5.923
 4148SOL    HW216911   3.611   1.326   5.998
 4148SOL    HW316912   3.712   1.353   5.888
 4148SOL    MW416913   3.657   1.299   5.928
 4149SOL     OW16914   2.575   0.334   7.326
 4149SOL    HW216915   2.585   0.260   7.266
 4149SOL    HW316916   2.611   0.303   7.409
 4149SOL    MW416917   2.581   0.320   7.328
 4150SOL     OW16918   2.311   1.701   6.241
 4150SOL    HW216919   2.343   1.789   6.219
 4150SOL    HW316920   2.264   1.673   6.163
 4150SOL    MW416921   2.310   1.709   6.228
 4151SOL     OW16922   3.695   0.063   6.290
 4151SOL    HW216923   3.749   0.014   6.352
 4151SOL    HW316924   3.638  -0.003   6.251
 4151SOL    MW416925   3.695   0.047   6.292
 4152SOL     OW16926   2.027   1.761   5.818
 4152SOL    HW216927   2.056   1.851   5.810
 4152SOL    HW316928   1.977   1.744   5.739
 4152SOL    MW416929   2.025   1.769   5.807
 4153SOL     OW16930   2.814   0.016   6.703
 4153SOL    HW216931   2.773   0.094   6.665
 4153SOL    HW316932   2.908   0.034   6.698
 4153SOL    MW416933   2.820   0.028   6.698
 4154SOL     OW16934   3.431   1.569   5.789
 4154SOL    HW216935   3.479   1.638   5.835
 4154SOL    HW316936   3.352   1.613   5.758
 4154SOL    MW416937   3.426   1.583   5.792
 4155SOL     OW16938   2.829   0.694   5.733
 4155SOL    HW216939   2.831   0.641   5.654
 4155SOL    HW316940   2.917   0.731   5.739
 4155SOL    MW416941   2.841   0.693   5.722
 4156SOL     OW16942   3.443   0.620   6.069
 4156SOL    HW216943   3.482   0.620   6.156
 4156SOL    HW316944   3.384   0.696   6.069
 4156SOL    MW416945   3.440   0.631   6.080
 4157SOL     OW16946   2.760   0.987   7.198
 4157SOL    HW216947   2.737   0.967   7.288
 4157SOL    HW316948   2.845   1.031   7.203
 4157SOL    MW416949   2.767   0.990   7.210
 4158SOL     OW16950   2.840   0.124   6.958
 4158SOL    HW216951   2.846   0.086   6.871
 4158SOL    HW316952   2.829   0.218   6.943
 4158SOL    MW416953   2.841   0.132   6.946
 4159SOL     OW16954   2.929   0.613   6.792
 4159SOL    HW216955   3.004   0.642   6.739
 4159SOL    HW316956   2.861   0.678   6.776
 4159SOL    MW416957   2.930   0.625   6.782
 4160SOL     OW16958   3.479   0.581   7.069
 4160SOL    HW216959   3.460   0.490   7.048
 4160SOL    HW316960   3.457   0.630   6.990
 4160SOL    MW416961   3.474   0.574   7.056
 4161SOL     OW16962   3.621   1.675   6.973
 4161SOL    HW216963   3.549   1.637   7.024
 4161SOL    HW316964   3.638   1.760   7.014
 4161SOL    MW416965   3.615   1.680   6.985
 4162SOL     OW16966   2.926   0.319   7.175
 4162SOL    HW216967   2.892   0.358   7.094
 4162SOL    HW316968   2.904   0.227   7.168
 4162SOL    MW416969   2.919   0.312   7.165
 4163SOL     OW16970   3.335   1.133   7.251
 4163SOL    HW216971   3.417   1.174   7.281
 4163SOL    HW316972   3.298   1.095   7.331
 4163SOL    MW416973   3.341   1.134   7.266
 4164SOL     OW16974   3.630   0.506   6.235
 4164SOL    HW216975   3.719   0.475   6.252
 4164SOL    HW316976   3.573   0.446   6.283
 4164SOL    MW416977   3.633   0.494   6.244
 4165SOL     OW16978   2.056   0.220   6.264
 4165SOL    HW216979   2.047   0.160   6.190
 4165SOL    HW316980   1.989   0.191   6.327
 4165SOL    MW416981   2.046   0.207   6.262
 4166SOL     OW16982   2.999   1.313   5.825
 4166SOL    HW216983   2.949   1.315   5.907
 4166SOL    HW316984   2.933   1.331   5.757
 4166SOL    MW416985   2.985   1.315   5.827
 4167SOL     OW16986   2.003   0.393   6.627
 4167SOL    HW216987   1.975   0.484   6.636
 4167SOL    HW316988   1.940   0.354   6.566
 4167SOL    MW416989   1.990   0.399   6.621
 4168SOL     OW16990   2.462   1.731   5.933
 4168SOL    HW216991   2.383   1.689   5.966
 4168SOL    HW316992   2.528   1.714   6.000
 4168SOL    MW416993   2.461   1.723   5.946
 4169SOL     OW16994   3.590   1.251   7.330
 4169SOL    HW216995   3.640   1.177   7.362
 4169SOL    HW316996   3.536   1.278   7.405
 4169SOL    MW416997   3.590   1.245   7.343
 4170SOL     OW16998   2.598   1.146   5.640
 4170SOL    HW216999   2.520   1.092   5.627
 4170SOL    HW317000   2.569   1.219   5.693
 4170SOL    MW417001   2.584   1.148   5.645
 4171SOL     OW17002   3.724   0.886   6.832
 4171SOL    HW217003   3.740   0.924   6.745
 4171SOL    HW317004   3.758   0.952   6.893
 4171SOL    MW417005   3.731   0.899   6.828
 4172SOL     OW17006   3.516   1.595   6.501
 4172SOL    HW217007   3.545   1.662   6.562
 4172SOL    HW317008   3.497   1.519   6.556
 4172SOL    MW417009   3.518   1.595   6.516
 4173SOL     OW17010   3.179   1.662   5.708
 4173SOL    HW217011   3.105   1.625   5.758
 4173SOL    HW317012   3.187   1.752   5.741
 4173SOL    MW417013   3.170   1.669   5.720
 4174SOL     OW17014   1.987   0.668   6.797
 4174SOL    HW217015   2.049   0.698   6.863
 4174SOL    HW317016   1.921   0.737   6.791
 4174SOL    MW417017   1.986   0.681   6.804
 4175SOL     OW17018   3.403   1.336   5.650
 4175SOL    HW217019   3.350   1.385   5.586
 4175SOL    HW317020   3.434   1.402   5.711
 4175SOL    MW417021   3.401   1.350   5.648
 4176SOL     OW17022   2.628   0.225   5.705
 4176SOL    HW217023   2.576   0.145   5.693
 4176SOL    HW317024   2.715   0.202   5.673
 4176SOL    MW417025   2.631   0.211   5.699
 4177SOL     OW17026   2.082   1.777   7.249
 4177SOL    HW217027   2.056   1.845   7.187
 4177SOL    HW317028   2.130   1.714   7.197
 4177SOL    MW417029   2.084   1.777   7.235
 4178SOL     OW17030   2.134   1.096   6.756
 4178SOL    HW217031   2.187   1.171   6.781
 4178SOL    HW317032   2.053   1.134   6.722
 4178SOL    MW417033   2.130   1.111   6.756
 4179SOL     OW17034   2.674   1.000   6.744
 4179SOL    HW217035   2.702   0.909   6.756
 4179SOL    HW317036   2.603   0.994   6.680
 4179SOL    MW417037   2.667   0.988   6.739
 4180SOL     OW17038   1.989   0.865   6.162
 4180SOL    HW217039   2.080   0.880   6.189
 4180SOL    HW317040   1.992   0.786   6.108
 4180SOL    MW417041   2.001   0.857   6.160
 4181SOL     OW17042   2.225   0.573   7.416
 4181SOL    HW217043   2.172   0.653   7.423
 4181SOL    HW317044   2.295   0.585   7.481
 4181SOL    MW417045   2.227   0.586   7.424
 4182SOL     OW17046   2.611   0.123   7.123
 4182SOL    HW217047   2.588   0.031   7.125
 4182SOL    HW317048   2.697   0.125   7.080
 4182SOL    MW417049   2.618   0.113   7.119
 4183SOL     OW17050   2.295   0.647   7.162
 4183SOL    HW217051   2.375   0.697   7.148
 4183SOL    HW317052   2.286   0.641   7.257
 4183SOL    MW417053   2.304   0.653   7.172
 4184SOL     OW17054   2.616   1.797   6.536
 4184SOL    HW217055   2.705   1.812   6.566
 4184SOL    HW317056   2.611   1.844   6.452
 4184SOL    MW417057   2.626   1.805   6.529
 4185SOL     OW17058   3.272   0.172   7.433
 4185SOL    HW217059   3.328   0.099   7.459
 4185SOL    HW317060   3.242   0.210   7.515
 4185SOL    MW417061   3.276   0.167   7.446
 4186SOL     OW17062   1.997   1.477   6.201
 4186SOL    HW217063   1.969   1.516   6.283
 4186SOL    HW317064   2.017   1.386   6.223
 4186SOL    MW417065   1.995   1.469   6.214
 4187SOL     OW17066   2.830   1.520   6.236
 4187SOL    HW217067   2.913   1.474   6.220
 4187SOL    HW317068   2.820   1.519   6.332
 4187SOL    MW417069   2.840   1.513   6.246
 4188SOL     OW17070   3.662   0.665   6.550
 4188SOL    HW217071   3.751   0.695   6.532
 4188SOL    HW317072   3.642   0.605   6.479
 4188SOL    MW417073   3.671   0.662   6.539
 4189SOL     OW17074   3.513   0.844   7.430
 4189SOL    HW217075   3.568   0.768   7.411
 4189SOL    HW317076   3.515   0.852   7.525
 4189SOL    MW417077   3.521   0.835   7.438
 4190SOL     OW17078   2.563   1.577   5.641
 4190SOL    HW217079   2.503   1.646   5.611
 4190SOL    HW317080   2.508   1.519   5.694
 4190SOL    MW417081   2.547   1.579   5.643
 4191SOL     OW17082   3.001   0.222   5.864
 4191SOL    HW217083   2.934   0.198   5.801
 4191SOL    HW317084   3.066   0.271   5.813
 4191SOL    MW417085   3.001   0.224   5.849
 4192SOL     OW17086   2.808   0.406   6.949
 4192SOL    HW217087   2.727   0.447   6.977
 4192SOL    HW317088   2.855   0.474   6.901
 4192SOL    MW417089   2.803   0.421   6.947
 4193SOL     OW17090   3.068   0.744   6.572
 4193SOL    HW217091   3.081   0.838   6.582
 4193SOL    HW317092   3.029   0.734   6.486
 4193SOL    MW417093   3.064   0.755   6.562
 4194SOL     OW17094   2.520   0.939   6.376
 4194SOL    HW217095   2.431   0.930   6.409
 4194SOL    HW317096   2.524   1.029   6.344
 4194SOL    MW417097   2.509   0.950   6.376
 4195SOL     OW17098   3.319   0.522   6.371
 4195SOL    HW217099   3.264   0.443   6.370
 4195SOL    HW317100   3.301   0.563   6.455
 4195SOL    MW417101   3.309   0.517   6.380
 4196SOL     OW17102   2.290   0.209   7.188
 4196SOL    HW217103   2.211   0.227   7.240
 4196SOL    HW317104   2.285   0.271   7.115
 4196SOL    MW417105   2.280   0.219   7.185
 4197SOL     OW17106   2.938   0.726   6.328
 4197SOL    HW217107   2.875   0.658   6.352
 4197SOL    HW317108   2.958   0.707   6.236
 4197SOL    MW417109   2.932   0.713   6.320
 4198SOL     OW17110   2.194   1.621   6.030
 4198SOL    HW217111   2.155   1.668   5.956
 4198SOL    HW317112   2.128   1.556   6.055
 4198SOL    MW417113   2.181   1.619   6.024
 4199SOL     OW17114   2.686   1.030   6.054
 4199SOL    HW217115   2.688   1.004   5.961
 4199SOL    HW317116   2.744   0.967   6.097
 4199SOL    MW417117   2.694   1.019   6.048
 4200SOL     OW17118   3.239   1.590   6.826
 4200SOL    HW217119   3.164   1.636   6.864
 4200SOL    HW317120   3.221   1.497   6.843
 4200SOL    MW417121   3.228   1.584   6.834
 4201SOL     OW17122   3.243   1.798   6.256
 4201SOL    HW217123   3.186   1.751   6.195
 4201SOL    HW317124   3.329   1.759   6.243
 4201SOL    MW417125   3.246   1.789   6.246
 4202SOL     OW17126   3.196   0.274   6.387
 4202SOL    HW217127   3.224   0.206   6.448
 4202SOL    HW317128   3.110   0.245   6.357
 4202SOL    MW417129   3.189   0.261   6.391
 4203SOL     OW17130   2.001   1.208   6.321
 4203SOL    HW217131   2.065   1.240   6.384
 4203SOL    HW317132   2.050   1.144   6.269
 4203SOL    MW417133   2.016   1.204   6.322
 4204SOL     OW17134   2.501   1.284   7.303
 4204SOL    HW217135   2.549   1.367   7.290
 4204SOL    HW317136   2.558   1.232   7.359
 4204SOL    MW417137   2.515   1.288   7.309
 4205SOL     OW17138   2.077   1.526   7.443
 4205SOL    HW217139   2.133   1.450   7.458
 4205SOL    HW317140   2.026   1.504   7.365
 4205SOL    MW417141   2.077   1.513   7.434
 4206SOL     OW17142   3.176   0.378   5.722
 4206SOL    HW217143   3.149   0.444   5.658
 4206SOL    HW317144   3.246   0.421   5.772
 4206SOL    MW417145   3.181   0.391   5.719
 4207SOL     OW17146   2.844   0.083   5.659
 4207SOL    HW217147   2.900   0.075   5.581
 4207SOL    HW317148   2.821  -0.007   5.681
 4207SOL    MW417149   2.849   0.070   5.652
 4208SOL     OW17150   3.349   0.934   5.864
 4208SOL    HW217151   3.316   1.023   5.854
 4208SOL    HW317152   3.314   0.905   5.949
 4208SOL    MW417153   3.339   0.943   5.875
 4209SOL     OW17154   2.962   1.363   7.052
 4209SOL    HW217155   2.873   1.369   7.020
 4209SOL    HW317156   3.006   1.442   7.020
 4209SOL    MW417157   2.957   1.373   7.044
 4210SOL     OW17158   2.255   0.031   7.394
 4210SOL    HW217159   2.183  -0.004   7.342
 4210SOL    HW317160   2.313   0.072   7.329
 4210SOL    MW417161   2.253   0.032   7.379
 4211SOL     OW17162   2.279   1.521   6.693
 4211SOL    HW217163   2.324   1.583   6.750
 4211SOL    HW317164   2.186   1.540   6.706
 4211SOL    MW417165   2.272   1.531   6.700
 4212SOL     OW17166   3.719   1.050   7.047
 4212SOL    HW217167   3.634   1.063   7.006
 4212SOL    HW317168   3.699   1.014   7.134
 4212SOL    MW417169   3.706   1.046   7.052
 4213SOL     OW17170   2.701   1.589   6.801
 4213SOL    HW217171   2.725   1.578   6.710
 4213SOL    HW317172   2.624   1.646   6.799
 4213SOL    MW417173   2.693   1.594   6.790
 4214SOL     OW17174   2.343   0.972   5.656
 4214SOL    HW217175   2.266   0.985   5.712
 4214SOL    HW317176   2.307   0.936   5.575
 4214SOL    MW417177   2.329   0.968   5.653
 4215SOL     OW17178   2.996   0.945   5.899
 4215SOL    HW217179   2.906   0.966   5.874
 4215SOL    HW317180   3.023   1.018   5.955
 4215SOL    MW417181   2.988   0.957   5.902
 4216SOL     OW17182   2.496   1.294   6.591
 4216SOL    HW217183   2.489   1.273   6.685
 4216SOL    HW317184   2.414   1.262   6.554
 4216SOL    MW417185   2.484   1.288   6.598
 4217SOL     OW17186   3.360   0.304   6.993
 4217SOL    HW217187   3.307   0.306   7.073
 4217SOL    HW317188   3.345   0.217   6.956
 4217SOL    MW417189   3.352   0.294   6.998
 4218SOL     OW17190   3.696   0.228   6.866
 4218SOL    HW217191   3.677   0.295   6.801
 4218SOL    HW317192   3.753   0.166   6.821
 4218SOL    MW417193   3.700   0.229   6.852
 4219SOL     OW17194   1.942   1.386   7.254
 4219SOL    HW217195   1.986   1.319   7.200
 4219SOL    HW317196   1.857   1.348   7.274
 4219SOL    MW417197   1.937   1.372   7.250
 4220SOL     OW17198   2.625   0.061   6.306
 4220SOL    HW217199   2.554   0.122   6.288
 4220SOL    HW317200   2.676   0.058   6.225
 4220SOL    MW417201   2.621   0.067   6.293
 4221SOL     OW17202   2.383   1.301   6.055
 4221SOL    HW217203   2.376   1.333   6.145
 4221SOL    HW317204   2.293   1.285   6.027
 4221SOL    MW417205   2.371   1.303   6.062
 4222SOL     OW17206   2.978   1.694   6.964
 4222SOL    HW217207   2.898   1.679   6.914
 4222SOL    HW317208   2.985   1.789   6.971
 4222SOL    MW417209   2.969   1.705   6.958
 4223SOL     OW17210   3.092   1.659   6.454
 4223SOL    HW217211   3.139   1.732   6.413
 4223SOL    HW317212   3.013   1.698   6.490
 4223SOL    MW417213   3.087   1.674   6.453
 4224SOL     OW17214   3.500   1.754   6.729
 4224SOL    HW217215   3.543   1.724   6.809
 4224SOL    HW317216   3.419   1.702   6.726
 4224SOL    MW417217   3.495   1.743   6.739
 4225SOL     OW17218   2.585   0.718   7.436
 4225SOL    HW217219   2.655   0.660   7.408
 4225SOL    HW317220   2.528   0.663   7.491
 4225SOL    MW417221   2.587   0.705   7.440
 4226SOL     OW17222   3.372   0.930   7.069
 4226SOL    HW217223   3.377   0.983   7.149
 4226SOL    HW317224   3.334   0.847   7.097
 4226SOL    MW417225   3.368   0.925   7.084
 4227SOL     OW17226   3.012   0.065   7.315
 4227SOL    HW217227   3.007  -0.028   7.296
 4227SOL    HW317228   3.095   0.076   7.361
 4227SOL    MW417229   3.020   0.054   7.319
 4228SOL     OW17230   2.386   0.585   5.769
 4228SOL    HW217231   2.352   0.641   5.839
 4228SOL    HW317232   2.457   0.535   5.809
 4228SOL    MW417233   2.392   0.586   5.783
 4229SOL     OW17234   3.482   1.336   6.591
 4229SOL    HW217235   3.517   1.318   6.504
 4229SOL    HW317236   3.387   1.337   6.578
 4229SOL    MW417237   3.474   1.333   6.578
 4230SOL     OW17238   2.911   0.984   6.960
 4230SOL    HW217239   2.954   1.019   7.038
 4230SOL    HW317240   2.894   1.061   6.906
 4230SOL    MW417241   2.914   0.999   6.963
 4231SOL     OW17242   3.442   0.471   5.833
 4231SOL    HW217243   3.434   0.542   5.770
 4231SOL    HW317244   3.460   0.515   5.916
 4231SOL    MW417245   3.443   0.485   5.835
 4232SOL     OW17246   2.302   0.126   6.262
 4232SOL    HW217247   2.352   0.169   6.193
 4232SOL    HW317248   2.217   0.170   6.262
 4232SOL    MW417249   2.299   0.139   6.253
 4233SOL     OW17250   2.061   1.188   7.122
 4233SOL    HW217251   2.089   1.141   7.200
 4233SOL    HW317252   1.982   1.143   7.093
 4233SOL    MW417253   2.054   1.177   7.128
 4234SOL     OW17254   2.569   0.515   7.089
 4234SOL    HW217255   2.541   0.603   7.113
 4234SOL    HW317256   2.538   0.459   7.160
 4234SOL    MW417257   2.561   0.518   7.101
 4235SOL     OW17258   3.111   0.733   5.808
 4235SOL    HW217259   3.158   0.751   5.727
 4235SOL    HW317260   3.077   0.817   5.836
 4235SOL    MW417261   3.113   0.747   5.801
 4236SOL     OW17262   2.224   0.911   6.302
 4236SOL    HW217263   2.282   0.967   6.250
 4236SOL    HW317264   2.268   0.826   6.304
 4236SOL    MW417265   2.237   0.908   6.295
 4237SOL     OW17266   3.364   0.263   6.139
 4237SOL    HW217267   3.286   0.213   6.164
 4237SOL    HW317268   3.335   0.354   6.139
 4237SOL    MW417269   3.350   0.267   6.142
 4238SOL     OW17270   2.950   0.225   6.298
 4238SOL    HW217271   2.970   0.300   6.242
 4238SOL    HW317272   2.930   0.264   6.383
 4238SOL    MW417273   2.951   0.241   6.302
 4239SOL     OW17274   2.846   1.475   5.630
 4239SOL    HW217275   2.873   1.553   5.582
 4239SOL    HW317276   2.753   1.490   5.649
 4239SOL    MW417277   2.837   1.488   5.626
 4240SOL     OW17278   1.931   1.511   6.474
 4240SOL    HW217279   1.963   1.515   6.565
 4240SOL    HW317280   1.836   1.519   6.482
 4240SOL    MW417281   1.923   1.514   6.487
 4241SOL     OW17282   1.886   0.637   6.021
 4241SOL    HW217283   1.826   0.609   6.091
 4241SOL    HW317284   1.960   0.577   6.027
 4241SOL    MW417285   1.888   0.626   6.030
 4242SOL     OW17286   3.454   1.849   7.455
 4242SOL    HW217287   3.499   1.773   7.420
 4242SOL    HW317288   3.492   1.862   7.542
 4242SOL    MW417289   3.464   1.842   7.461
 4243SOL     OW17290   3.054   1.368   6.181
 4243SOL    HW217291   3.077   1.319   6.259
 4243SOL    HW317292   3.135   1.410   6.153
 4243SOL    MW417293   3.067   1.368   6.188
 4244SOL     OW17294   2.312   0.376   6.910
 4244SOL    HW217295   2.345   0.457   6.950
 4244SOL    HW317296   2.285   0.402   6.822
 4244SOL    MW417297   2.311   0.390   6.904
 4245SOL     OW17298   2.266   0.343   6.646
 4245SOL    HW217299   2.296   0.257   6.617
 4245SOL    HW317300   2.171   0.336   6.649
 4245SOL    MW417301   2.258   0.332   6.644
 4246SOL     OW17302   3.095   0.552   7.337
 4246SOL    HW217303   3.147   0.487   7.290
 4246SOL    HW317304   3.053   0.603   7.267
 4246SOL    MW417305   3.096   0.549   7.320
 4247SOL     OW17306   3.194   0.347   7.198
 4247SOL    HW217307   3.101   0.331   7.185
 4247SOL    HW317308   3.220   0.285   7.266
 4247SOL    MW417309   3.184   0.337   7.205
 4248SOL     OW17310   2.409   0.121   6.537
 4248SOL    HW217311   2.419   0.030   6.563
 4248SOL    HW317312   2.365   0.117   6.452
 4248SOL    MW417313   2.405   0.109   6.529
 4249SOL     OW17314   2.503   1.736   7.083
 4249SOL    HW217315   2.420   1.721   7.128
 4249SOL    HW317316   2.562   1.669   7.118
 4249SOL    MW417317   2.501   1.726   7.093
 4250SOL     OW17318   3.560   0.443   6.708
 4250SOL    HW217319   3.493   0.476   6.768
 4250SOL    HW317320   3.603   0.521   6.674
 4250SOL    MW417321   3.558   0.458   6.712
 4251SOL     OW17322   3.738   1.163   6.678
 4251SOL    HW217323   3.731   1.103   6.603
 4251SOL    HW317324   3.664   1.223   6.667
 4251SOL    MW417325   3.728   1.163   6.667
 4252SOL     OW17326   3.120   1.025   6.596
 4252SOL    HW217327   3.134   0.997   6.687
 4252SOL    HW317328   3.206   1.056   6.568
 4252SOL    MW417329   3.133   1.026   6.605
 4253SOL     OW17330   3.203   0.520   6.875
 4253SOL    HW217331   3.224   0.521   6.782
 4253SOL    HW317332   3.248   0.442   6.908
 4253SOL    MW417333   3.210   0.510   6.867
 4254SOL     OW17334   3.696   0.651   7.417
 4254SOL    HW217335   3.733   0.596   7.486
 4254SOL    HW317336   3.721   0.608   7.335
 4254SOL    MW417337   3.703   0.639   7.416
 4255SOL     OW17338   3.243   0.949   7.468
 4255SOL    HW217339   3.309   0.897   7.422
 4255SOL    HW317340   3.263   0.936   7.561
 4255SOL    MW417341   3.254   0.940   7.475
 4256SOL     OW17342   3.194   0.035   5.817
 4256SOL    HW217343   3.268   0.079   5.860
 4256SOL    HW317344   3.118   0.089   5.839
 4256SOL    MW417345   3.194   0.047   5.825
 4257SOL     OW17346   3.254   0.810   6.095
 4257SOL    HW217347   3.169   0.780   6.065
 4257SOL    HW317348   3.246   0.817   6.190
 4257SOL    MW417349   3.242   0.808   6.104
 4258SOL     OW17350   2.330   1.273   6.826
 4258SOL    HW217351   2.342   1.300   6.917
 4258SOL    HW317352   2.311   1.354   6.779
 4258SOL    MW417353   2.329   1.288   6.831
 4259SOL     OW17354   2.614   0.253   6.649
 4259SOL    HW217355   2.587   0.255   6.740
 4259SOL    HW317356   2.544   0.205   6.604
 4259SOL    MW417357   2.602   0.249   6.656
 4260SOL     OW17358   2.468   1.745   6.811
 4260SOL    HW217359   2.520   1.822   6.788
 4260SOL    HW317360   2.477   1.737   6.906
 4260SOL    MW417361   2.477   1.752   6.822
 4261SOL     OW17362   3.370   1.330   7.043
 4261SOL    HW217363   3.355   1.259   7.106
 4261SOL    HW317364   3.416   1.288   6.971
 4261SOL    MW417365   3.376   1.314   7.043
 4262SOL     OW17366   2.444   1.061   7.160
 4262SOL    HW217367   2.481   1.066   7.072
 4262SOL    HW317368   2.483   1.134   7.207
 4262SOL    MW417369   2.454   1.071   7.155
 4263SOL     OW17370   2.624   1.104   6.972
 4263SOL    HW217371   2.683   1.050   7.025
 4263SOL    HW317372   2.639   1.076   6.882
 4263SOL    MW417373   2.634   1.093   6.968
 4264SOL     OW17374   2.627   0.476   5.821
 4264SOL    HW217375   2.700   0.525   5.784
 4264SOL    HW317376   2.643   0.385   5.795
 4264SOL    MW417377   2.639   0.471   5.814
 4265SOL     OW17378   3.435   1.593   7.144
 4265SOL    HW217379   3.477   1.578   7.229
 4265SOL    HW317380   3.426   1.506   7.106
 4265SOL    MW417381   3.439   1.581   7.151
 4266SOL     OW17382   3.095   0.072   6.735
 4266SOL    HW217383   3.150   0.081   6.657
 4266SOL    HW317384   3.150   0.106   6.806
 4266SOL    MW417385   3.109   0.077   6.734
 4267SOL     OW17386   2.102   0.985   5.919
 4267SOL    HW217387   2.039   1.001   5.848
 4267SOL    HW317388   2.049   0.948   5.990
 4267SOL    MW417389   2.087   0.982   5.919
 4268SOL     OW17390   2.458   1.339   5.778
 4268SOL    HW217391   2.473   1.315   5.870
 4268SOL    HW317392   2.366   1.317   5.762
 4268SOL    MW417393   2.448   1.332   5.788
 4269SOL     OW17394   2.997   1.570   5.930
 4269SOL    HW217395   3.005   1.488   5.881
 4269SOL    HW317396   2.916   1.609   5.897
 4269SOL    MW417397   2.987   1.565   5.920
 4270SOL     OW17398   2.256   1.728   6.499
 4270SOL    HW217399   2.260   1.639   6.534
 4270SOL    HW317400   2.282   1.719   6.408
 4270SOL    MW417401   2.259   1.716   6.491
 4271SOL     OW17402   2.873   1.206   6.742
 4271SOL    HW217403   2.805   1.140   6.758
 4271SOL    HW317404   2.891   1.200   6.649
 4271SOL    MW417405   2.866   1.197   6.733
 4272SOL     OW17406   1.962   1.481   6.993
 4272SOL    HW217407   1.952   1.439   7.079
 4272SOL    HW317408   1.883   1.534   6.983
 4272SOL    MW417409   1.951   1.482   7.004
 4273SOL     OW17410   2.866   0.345   6.563
 4273SOL    HW217411   2.796   0.297   6.608
 4273SOL    HW317412   2.898   0.408   6.627
 4273SOL    MW417413   2.861   0.347   6.577
 4274SOL     OW17414   2.517   0.781   7.183
 4274SOL    HW217415   2.510   0.876   7.171
 4274SOL    HW317416   2.526   0.770   7.278
 4274SOL    MW417417   2.518   0.793   7.193
 4275SOL     OW17418   2.238   1.296   7.441
 4275SOL    HW217419   2.310   1.298   7.378
 4275SOL    HW317420   2.208   1.205   7.440
 4275SOL    MW417421   2.243   1.285   7.433
 4276SOL     OW17422   3.322   0.059   6.908
 4276SOL    HW217423   3.393   0.005   6.872
 4276SOL    HW317424   3.321   0.038   7.001
 4276SOL    MW417425   3.331   0.050   6.916
 4277SOL     OW17426   3.522   1.589   7.392
 4277SOL    HW217427   3.495   1.586   7.483
 4277SOL    HW317428   3.618   1.593   7.395
 4277SOL    MW417429   3.532   1.589   7.404
 4278SOL     OW17430   2.333   0.451   6.376
 4278SOL    HW217431   2.404   0.399   6.339
 4278SOL    HW317432   2.319   0.416   6.463
 4278SOL    MW417433   2.341   0.440   6.383
 4279SOL     OW17434   1.888   1.786   7.448
 4279SOL    HW217435   1.938   1.764   7.370
 4279SOL    HW317436   1.896   1.881   7.456
 4279SOL    MW417437   1.896   1.795   7.439
 4280SOL     OW17438   2.649   1.544   6.452
 4280SOL    HW217439   2.577   1.481   6.465
 4280SOL    HW317440   2.610   1.629   6.470
 4280SOL    MW417441   2.633   1.547   6.455
 4281SOL     OW17442   2.969   0.392   6.100
 4281SOL    HW217443   2.991   0.329   6.032
 4281SOL    HW317444   2.874   0.384   6.111
 4281SOL    MW417445   2.959   0.383   6.092
 4282SOL     OW17446   2.054   0.082   6.032
 4282SOL    HW217447   2.125   0.103   5.971
 4282SOL    HW317448   2.008   0.010   5.990
 4282SOL    MW417449   2.058   0.076   6.018
 4283SOL     OW17450   1.885   0.549   7.175
 4283SOL    HW217451   1.949   0.615   7.150
 4283SOL    HW317452   1.804   0.576   7.132
 4283SOL    MW417453   1.883   0.561   7.167
 4284SOL     OW17454   3.623   1.456   6.132
 4284SOL    HW217455   3.593   1.389   6.193
 4284SOL    HW317456   3.717   1.462   6.146
 4284SOL    MW417457   3.631   1.448   6.142
 4285SOL     OW17458   3.179   1.133   6.062
 4285SOL    HW217459   3.151   1.219   6.095
 4285SOL    HW317460   3.207   1.149   5.972
 4285SOL    MW417461   3.179   1.147   6.054
 4286SOL     OW17462   2.841   0.053   6.115
 4286SOL    HW217463   2.878   0.112   6.180
 4286SOL    HW317464   2.818   0.109   6.041
 4286SOL    MW417465   2.842   0.068   6.114
 4287SOL     OW17466   3.694   0.935   6.537
 4287SOL    HW217467   3.685   0.967   6.448
 4287SOL    HW317468   3.647   0.851   6.537
 4287SOL    MW417469   3.687   0.928   6.527
 4288SOL     OW17470   2.070   0.775   7.116
 4288SOL    HW217471   2.091   0.844   7.054
 4288SOL    HW317472   2.150   0.722   7.121
 4288SOL    MW417473   2.083   0.776   7.110
 4289SOL     OW17474   3.606   0.866   6.238
 4289SOL    HW217475   3.700   0.855   6.226
 4289SOL    HW317476   3.582   0.938   6.179
 4289SOL    MW417477   3.616   0.874   6.229
 4290SOL     OW17478   2.055   0.790   7.383
 4290SOL    HW217479   1.981   0.734   7.409
 4290SOL    HW317480   2.050   0.793   7.288
 4290SOL    MW417481   2.044   0.783   7.373
 4291SOL     OW17482   2.221   0.077   6.833
 4291SOL    HW217483   2.264   0.161   6.853
 4291SOL    HW317484   2.294   0.015   6.826
 4291SOL    MW417485   2.236   0.080   6.834
 4292SOL     OW17486   2.262   0.744   6.011
 4292SOL    HW217487   2.262   0.839   5.996
 4292SOL    HW317488   2.339   0.728   6.065
 4292SOL    MW417489   2.272   0.755   6.016
 4293SOL     OW17490   3.038   0.603   7.075
 4293SOL    HW217491   3.074   0.576   6.991
 4293SOL    HW317492   2.951   0.637   7.054
 4293SOL    MW417493   3.032   0.604   7.062
 4294SOL     OW17494   2.021   0.475   6.300
 4294SOL    HW217495   2.083   0.482   6.373
 4294SOL    HW317496   2.021   0.382   6.277
 4294SOL    MW417497   2.029   0.464   6.307
 4295SOL     OW17498   3.568   1.815   5.832
 4295SOL    HW217499   3.635   1.848   5.772
 4295SOL    HW317500   3.525   1.894   5.866
 4295SOL    MW417501   3.570   1.830   5.828
 4296SOL     OW17502   2.703   0.736   6.784
 4296SOL    HW217503   2.661   0.654   6.760
 4296SOL    HW317504   2.704   0.735   6.880
 4296SOL    MW417505   2.696   0.725   6.793
 4297SOL     OW17506   3.374   1.869   7.183
 4297SOL    HW217507   3.377   1.775   7.166
 4297SOL    HW317508   3.397   1.877   7.275
 4297SOL    MW417509   3.377   1.857   7.193
 4298SOL     OW17510   2.507   0.206   6.889
 4298SOL    HW217511   2.438   0.269   6.910
 4298SOL    HW317512   2.534   0.170   6.974
 4298SOL    MW417513   2.501   0.209   6.902
 4299SOL     OW17514   1.890   1.047   5.758
 4299SOL    HW217515   1.859   1.112   5.821
 4299SOL    HW317516   1.839   0.969   5.777
 4299SOL    MW417517   1.880   1.044   5.768
 4300SOL     OW17518   3.302   0.059   6.506
 4300SOL    HW217519   3.390   0.068   6.543
 4300SOL    HW317520   3.312   0.000   6.432
 4300SOL    MW417521   3.316   0.053   6.500
 4301SOL     OW17522   3.334   0.798   6.350
 4301SOL    HW217523   3.414   0.813   6.299
 4301SOL    HW317524   3.327   0.703   6.356
 4301SOL    MW417525   3.343   0.787   6.345
 4302SOL     OW17526   2.474   1.847   5.700
 4302SOL    HW217527   2.379   1.847   5.692
 4302SOL    HW317528   2.490   1.793   5.778
 4302SOL    MW417529   2.464   1.841   5.709
 4303SOL     OW17530   2.784   0.724   7.047
 4303SOL    HW217531   2.853   0.791   7.044
 4303SOL    HW317532   2.717   0.762   7.103
 4303SOL    MW417533   2.785   0.737   7.054
 4304SOL     OW17534   2.202   1.024   7.295
 4304SOL    HW217535   2.156   0.940   7.297
 4304SOL    HW317536   2.259   1.018   7.219
 4304SOL    MW417537   2.204   1.012   7.287
 4305SOL     OW17538   3.319   0.667   5.615
 4305SOL    HW217539   3.247   0.643   5.557
 4305SOL    HW317540   3.385   0.704   5.557
 4305SOL    MW417541   3.318   0.669   5.600
 4306SOL     OW17542   2.453   1.399   6.296
 4306SOL    HW217543   2.518   1.332   6.317
 4306SOL    HW317544   2.505   1.476   6.273
 4306SOL    MW417545   2.468   1.401   6.295
 4307SOL     OW17546   2.714   0.564   6.426
 4307SOL    HW217547   2.654   0.582   6.498
 4307SOL    HW317548   2.748   0.476   6.445
 4307SOL    MW417549   2.710   0.554   6.439
 4308SOL     OW17550   3.655   0.063   7.095
 4308SOL    HW217551   3.576   0.109   7.123
 4308SOL    HW317552   3.690   0.117   7.024
 4308SOL    MW417553   3.649   0.076   7.089
 4309SOL     OW17554   2.939   1.147   6.445
 4309SOL    HW217555   3.031   1.128   6.463
 4309SOL    HW317556   2.912   1.077   6.385
 4309SOL    MW417557   2.947   1.135   6.439
 4310SOL     OW17558   2.732   0.967   5.800
 4310SOL    HW217559   2.718   0.879   5.765
 4310SOL    HW317560   2.683   1.024   5.741
 4310SOL    MW417561   2.724   0.962   5.788
 4311SOL     OW17562   3.213   1.385   6.541
 4311SOL    HW217563   3.186   1.469   6.506
 4311SOL    HW317564   3.173   1.380   6.628
 4311SOL    MW417565   3.206   1.394   6.547
 4312SOL     OW17566   2.145   0.691   6.579
 4312SOL    HW217567   2.095   0.690   6.660
 4312SOL    HW317568   2.165   0.783   6.563
 4312SOL    MW417569   2.141   0.703   6.587
 4313SOL     OW17570   3.212   1.455   7.341
 4313SOL    HW217571   3.212   1.549   7.357
 4313SOL    HW317572   3.257   1.445   7.257
 4313SOL    MW417573   3.218   1.465   7.332
 4314SOL     OW17574   3.451   0.173   5.902
 4314SOL    HW217575   3.444   0.177   5.997
 4314SOL    HW317576   3.463   0.264   5.875
 4314SOL    MW417577   3.452   0.186   5.910
 4315SOL     OW17578   2.740   0.736   6.016
 4315SOL    HW217579   2.720   0.722   5.923
 4315SOL    HW317580   2.833   0.715   6.023
 4315SOL    MW417581   2.750   0.731   6.005
 4316SOL     OW17582   2.067   0.359   7.320
 4316SOL    HW217583   2.024   0.418   7.257
 4316SOL    HW317584   2.135   0.414   7.360
 4316SOL    MW417585   2.071   0.374   7.317
 4317SOL     OW17586   3.179   0.979   6.865
 4317SOL    HW217587   3.242   0.976   6.938
 4317SOL    HW317588   3.095   0.997   6.907
 4317SOL    MW417589   3.175   0.981   6.880
 4318SOL     OW17590   2.723   1.694   6.054
 4318SOL    HW217591   2.781   1.765   6.081
 4318SOL    HW317592   2.746   1.622   6.112
 4318SOL    MW417593   2.734   1.694   6.065
 4319SOL     OW17594   3.518   0.156   6.644
 4319SOL    HW217595   3.563   0.074   6.663
 4319SOL    HW317596   3.538   0.212   6.720
 4319SOL    MW417597   3.528   0.152   6.656
 4320SOL     OW17598   1.966  -0.001   6.743
 4320SOL    HW217599   1.957   0.000   6.648
 4320SOL    HW317600   2.060   0.011   6.758
 4320SOL    MW417601   1.978   0.002   6.734
 4321SOL     OW17602   3.603   1.192   6.363
 4321SOL    HW217603   3.582   1.138   6.286
 4321SOL    HW317604   3.699   1.190   6.367
 4321SOL    MW417605   3.612   1.185   6.352
 4322SOL     OW17606   2.295   1.337   7.106
 4322SOL    HW217607   2.216   1.287   7.129
 4322SOL    HW317608   2.365   1.296   7.156
 4322SOL    MW417609   2.293   1.325   7.116
 4323SOL     OW17610   2.179   0.126   5.789
 4323SOL    HW217611   2.108   0.181   5.757
 4323SOL    HW317612   2.221   0.092   5.710
 4323SOL    MW417613   2.175   0.128   5.775
 4324SOL     OW17614   3.303   0.623   6.625
 4324SOL    HW217615   3.226   0.669   6.591
 4324SOL    HW317616   3.360   0.692   6.659
 4324SOL    MW417617   3.300   0.638   6.625
 4325SOL     OW17618   1.935   0.225   5.638
 4325SOL    HW217619   1.902   0.304   5.682
 4325SOL    HW317620   1.990   0.258   5.567
 4325SOL    MW417621   1.938   0.239   5.635
 4326SOL     OW17622   1.969   1.482   5.827
 4326SOL    HW217623   1.986   1.566   5.869
 4326SOL    HW317624   2.004   1.491   5.739
 4326SOL    MW417625   1.974   1.495   5.821
 4327SOL     OW17626   3.241   1.571   6.044
 4327SOL    HW217627   3.304   1.561   5.973
 4327SOL    HW317628   3.158   1.591   5.999
 4327SOL    MW417629   3.238   1.572   6.029
 4328SOL     OW17630   3.604   2.707   0.257
 4328SOL    HW217631   3.645   2.649   0.322
 4328SOL    HW317632   3.511   2.699   0.274
 4328SOL    MW417633   3.598   2.699   0.267
 4329SOL     OW17634   3.470   2.639   1.252
 4329SOL    HW217635   3.425   2.706   1.303
 4329SOL    HW317636   3.558   2.675   1.238
 4329SOL    MW417637   3.476   2.652   1.256
 4330SOL     OW17638   2.398   2.890   0.486
 4330SOL    HW217639   2.488   2.865   0.470
 4330SOL    HW317640   2.394   2.983   0.463
 4330SOL    MW417641   2.410   2.899   0.481
 4331SOL     OW17642   3.514   3.593   0.628
 4331SOL    HW217643   3.526   3.539   0.706
 4331SOL    HW317644   3.551   3.541   0.557
 4331SOL    MW417645   3.520   3.578   0.629
 4332SOL     OW17646   2.893   3.478   1.629
 4332SOL    HW217647   2.934   3.514   1.550
 4332SOL    HW317648   2.928   3.389   1.636
 4332SOL    MW417649   2.904   3.471   1.620
 4333SOL     OW17650   3.450   3.033   1.233
 4333SOL    HW217651   3.371   2.998   1.191
 4333SOL    HW317652   3.477   3.105   1.177
 4333SOL    MW417653   3.443   3.038   1.220
 4334SOL     OW17654   2.682   2.346   0.499
 4334SOL    HW217655   2.657   2.434   0.527
 4334SOL    HW317656   2.679   2.349   0.403
 4334SOL    MW417657   2.678   2.358   0.491
 4335SOL     OW17658   2.124   2.374   0.427
 4335SOL    HW217659   2.156   2.462   0.409
 4335SOL    HW317660   2.112   2.372   0.522
 4335SOL    MW417661   2.127   2.386   0.439
 4336SOL     OW17662   2.202   2.787   1.328
 4336SOL    HW217663   2.265   2.734   1.279
 4336SOL    HW317664   2.183   2.861   1.271
 4336SOL    MW417665   2.208   2.789   1.315
 4337SOL     OW17666   2.523   2.129   0.514
 4337SOL    HW217667   2.581   2.205   0.516
 4337SOL    HW317668   2.458   2.150   0.447
 4337SOL    MW417669   2.522   2.141   0.505
 4338SOL     OW17670   2.610   3.056   0.689
 4338SOL    HW217671   2.690   3.059   0.741
 4338SOL    HW317672   2.638   3.023   0.603
 4338SOL    MW417673   2.624   3.052   0.684
 4339SOL     OW17674   2.635   3.397   1.592
 4339SOL    HW217675   2.719   3.423   1.631
 4339SOL    HW317676   2.659   3.341   1.518
 4339SOL    MW417677   2.649   3.393   1.587
 4340SOL     OW17678   2.387   2.560   0.680
 4340SOL    HW217679   2.372   2.480   0.731
 4340SOL    HW317680   2.469   2.595   0.714
 4340SOL    MW417681   2.395   2.552   0.692
 4341SOL     OW17682   2.724   3.246   1.365
 4341SOL    HW217683   2.688   3.312   1.305
 4341SOL    HW317684   2.652   3.184   1.378
 4341SOL    MW417685   2.710   3.246   1.359
 4342SOL     OW17686   2.529   2.386   1.057
 4342SOL    HW217687   2.435   2.382   1.075
 4342SOL    HW317688   2.559   2.295   1.066
 4342SOL    MW417689   2.520   2.374   1.060
 4343SOL     OW17690   2.275   2.800   0.961
 4343SOL    HW217691   2.230   2.807   0.877
 4343SOL    HW317692   2.255   2.883   1.005
 4343SOL    MW417693   2.267   2.812   0.955
 4344SOL     OW17694   1.972   3.646   0.836
 4344SOL    HW217695   2.061   3.638   0.871
 4344SOL    HW317696   1.936   3.558   0.841
 4344SOL    MW417697   1.979   3.633   0.841
 4345SOL     OW17698   3.237   3.038   0.205
 4345SOL    HW217699   3.155   3.074   0.171
 4345SOL    HW317700   3.305   3.081   0.154
 4345SOL    MW417701   3.235   3.048   0.193
 4346SOL     OW17702   2.236   3.173   0.871
 4346SOL    HW217703   2.212   3.226   0.947
 4346SOL    HW317704   2.292   3.231   0.819
 4346SOL    MW417705   2.240   3.188   0.874
 4347SOL     OW17706   2.798   2.817   0.681
 4347SOL    HW217707   2.712   2.804   0.721
 4347SOL    HW317708   2.851   2.744   0.713
 4347SOL    MW417709   2.794   2.806   0.690
 4348SOL     OW17710   2.206   3.469   1.466
 4348SOL    HW217711   2.114   3.445   1.451
 4348SOL    HW317712   2.250   3.386   1.483
 4348SOL    MW417713   2.200   3.454   1.465
 4349SOL     OW17714   2.789   3.179   0.398
 4349SOL    HW217715   2.766   3.241   0.466
 4349SOL    HW317716   2.746   3.097   0.424
 4349SOL    MW417717   2.781   3.175   0.409
 4350SOL     OW17718   3.662   2.180   0.854
 4350SOL    HW217719   3.599   2.160   0.923
 4350SOL    HW317720   3.652   2.109   0.791
 4350SOL    MW417721   3.652   2.167   0.855
 4351SOL     OW17722   2.286   2.152   0.366
 4351SOL    HW217723   2.260   2.114   0.282
 4351SOL    HW317724   2.223   2.222   0.382
 4351SOL    MW417725   2.275   2.155   0.357
 4352SOL     OW17726   2.121   3.113   0.403
 4352SOL    HW217727   2.069   3.181   0.359
 4352SOL    HW317728   2.118   3.039   0.343
 4352SOL    MW417729   2.113   3.112   0.390
 4353SOL     OW17730   2.783   3.576   0.181
 4353SOL    HW217731   2.738   3.592   0.264
 4353SOL    HW317732   2.714   3.541   0.123
 4353SOL    MW417733   2.769   3.573   0.183
 4354SOL     OW17734   3.718   2.349   0.156
 4354SOL    HW217735   3.627   2.351   0.184
 4354SOL    HW317736   3.763   2.411   0.214
 4354SOL    MW417737   3.711   2.357   0.166
 4355SOL     OW17738   3.463   2.952   0.506
 4355SOL    HW217739   3.373   2.952   0.541
 4355SOL    HW317740   3.456   2.998   0.423
 4355SOL    MW417741   3.450   2.958   0.500
 4356SOL     OW17742   3.263   2.587   1.578
 4356SOL    HW217743   3.332   2.525   1.555
 4356SOL    HW317744   3.188   2.561   1.525
 4356SOL    MW417745   3.263   2.574   1.569
 4357SOL     OW17746   2.004   3.467   1.130
 4357SOL    HW217747   1.987   3.413   1.207
 4357SOL    HW317748   1.992   3.557   1.160
 4357SOL    MW417749   2.001   3.471   1.144
 4358SOL     OW17750   2.999   2.974   1.570
 4358SOL    HW217751   2.984   3.067   1.555
 4358SOL    HW317752   3.094   2.964   1.570
 4358SOL    MW417753   3.008   2.984   1.567
 4359SOL     OW17754   2.795   2.398   1.771
 4359SOL    HW217755   2.885   2.399   1.738
 4359SOL    HW317756   2.754   2.323   1.729
 4359SOL    MW417757   2.801   2.388   1.762
 4360SOL     OW17758   3.370   2.930   0.898
 4360SOL    HW217759   3.373   2.864   0.829
 4360SOL    HW317760   3.455   2.973   0.894
 4360SOL    MW417761   3.382   2.926   0.889
 4361SOL     OW17762   2.990   2.533   0.467
 4361SOL    HW217763   3.016   2.557   0.378
 4361SOL    HW317764   2.972   2.440   0.463
 4361SOL    MW417765   2.992   2.525   0.454
 4362SOL     OW17766   3.655   3.153   0.318
 4362SOL    HW217767   3.611   3.194   0.393
 4362SOL    HW317768   3.712   3.221   0.283
 4362SOL    MW417769   3.657   3.167   0.323
 4363SOL     OW17770   2.575   2.202   1.721
 4363SOL    HW217771   2.585   2.128   1.661
 4363SOL    HW317772   2.611   2.171   1.804
 4363SOL    MW417773   2.581   2.188   1.723
 4364SOL     OW17774   2.311   3.569   0.636
 4364SOL    HW217775   2.343   3.657   0.614
 4364SOL    HW317776   2.264   3.541   0.558
 4364SOL    MW417777   2.310   3.577   0.623
 4365SOL     OW17778   3.695   1.931   0.685
 4365SOL    HW217779   3.749   1.882   0.747
 4365SOL    HW317780   3.638   1.865   0.646
 4365SOL    MW417781   3.695   1.915   0.687
 4366SOL     OW17782   2.027   3.629   0.213
 4366SOL    HW217783   2.056   3.719   0.205
 4366SOL    HW317784   1.977   3.612   0.134
 4366SOL    MW417785   2.025   3.637   0.202
 4367SOL     OW17786   2.814   1.884   1.098
 4367SOL    HW217787   2.773   1.962   1.060
 4367SOL    HW317788   2.908   1.902   1.093
 4367SOL    MW417789   2.820   1.896   1.093
 4368SOL     OW17790   3.431   3.437   0.184
 4368SOL    HW217791   3.479   3.506   0.230
 4368SOL    HW317792   3.352   3.481   0.153
 4368SOL    MW417793   3.426   3.451   0.187
 4369SOL     OW17794   2.829   2.562   0.128
 4369SOL    HW217795   2.831   2.509   0.049
 4369SOL    HW317796   2.917   2.599   0.134
 4369SOL    MW417797   2.841   2.561   0.117
 4370SOL     OW17798   3.443   2.488   0.464
 4370SOL    HW217799   3.482   2.488   0.551
 4370SOL    HW317800   3.384   2.564   0.464
 4370SOL    MW417801   3.440   2.499   0.475
 4371SOL     OW17802   2.760   2.855   1.593
 4371SOL    HW217803   2.737   2.835   1.683
 4371SOL    HW317804   2.845   2.899   1.598
 4371SOL    MW417805   2.767   2.858   1.605
 4372SOL     OW17806   2.840   1.992   1.353
 4372SOL    HW217807   2.846   1.954   1.266
 4372SOL    HW317808   2.829   2.086   1.338
 4372SOL    MW417809   2.841   2.000   1.341
 4373SOL     OW17810   2.929   2.481   1.187
 4373SOL    HW217811   3.004   2.510   1.134
 4373SOL    HW317812   2.861   2.546   1.171
 4373SOL    MW417813   2.930   2.493   1.177
 4374SOL     OW17814   3.479   2.449   1.464
 4374SOL    HW217815   3.460   2.358   1.443
 4374SOL    HW317816   3.457   2.498   1.385
 4374SOL    MW417817   3.474   2.442   1.451
 4375SOL     OW17818   3.621   3.543   1.368
 4375SOL    HW217819   3.549   3.505   1.419
 4375SOL    HW317820   3.638   3.628   1.409
 4375SOL    MW417821   3.615   3.548   1.380
 4376SOL     OW17822   2.926   2.187   1.570
 4376SOL    HW217823   2.892   2.226   1.489
 4376SOL    HW317824   2.904   2.095   1.563
 4376SOL    MW417825   2.919   2.180   1.560
 4377SOL     OW17826   3.335   3.001   1.646
 4377SOL    HW217827   3.417   3.042   1.676
 4377SOL    HW317828   3.298   2.963   1.726
 4377SOL    MW417829   3.341   3.002   1.661
 4378SOL     OW17830   3.630   2.374   0.630
 4378SOL    HW217831   3.719   2.343   0.647
 4378SOL    HW317832   3.573   2.314   0.678
 4378SOL    MW417833   3.633   2.362   0.639
 4379SOL     OW17834   2.056   2.088   0.659
 4379SOL    HW217835   2.047   2.028   0.585
 4379SOL    HW317836   1.989   2.059   0.722
 4379SOL    MW417837   2.046   2.075   0.657
 4380SOL     OW17838   2.999   3.181   0.220
 4380SOL    HW217839   2.949   3.183   0.302
 4380SOL    HW317840   2.933   3.199   0.152
 4380SOL    MW417841   2.985   3.183   0.222
 4381SOL     OW17842   2.003   2.261   1.022
 4381SOL    HW217843   1.975   2.352   1.031
 4381SOL    HW317844   1.940   2.222   0.961
 4381SOL    MW417845   1.990   2.267   1.016
 4382SOL     OW17846   2.462   3.599   0.328
 4382SOL    HW217847   2.383   3.557   0.361
 4382SOL    HW317848   2.528   3.582   0.395
 4382SOL    MW417849   2.461   3.591   0.341
 4383SOL     OW17850   3.590   3.119   1.725
 4383SOL    HW217851   3.640   3.045   1.757
 4383SOL    HW317852   3.536   3.146   1.800
 4383SOL    MW417853   3.590   3.113   1.738
 4384SOL     OW17854   2.598   3.014   0.035
 4384SOL    HW217855   2.520   2.960   0.022
 4384SOL    HW317856   2.569   3.087   0.088
 4384SOL    MW417857   2.584   3.016   0.040
 4385SOL     OW17858   3.724   2.754   1.227
 4385SOL    HW217859   3.740   2.792   1.140
 4385SOL    HW317860   3.758   2.820   1.288
 4385SOL    MW417861   3.731   2.767   1.223
 4386SOL     OW17862   3.516   3.463   0.896
 4386SOL    HW217863   3.545   3.530   0.957
 4386SOL    HW317864   3.497   3.387   0.951
 4386SOL    MW417865   3.518   3.463   0.911
 4387SOL     OW17866   3.179   3.530   0.103
 4387SOL    HW217867   3.105   3.493   0.153
 4387SOL    HW317868   3.187   3.620   0.136
 4387SOL    MW417869   3.170   3.537   0.115
 4388SOL     OW17870   1.987   2.536   1.192
 4388SOL    HW217871   2.049   2.566   1.258
 4388SOL    HW317872   1.921   2.605   1.186
 4388SOL    MW417873   1.986   2.549   1.199
 4389SOL     OW17874   3.403   3.204   0.045
 4389SOL    HW217875   3.350   3.253  -0.019
 4389SOL    HW317876   3.434   3.270   0.106
 4389SOL    MW417877   3.401   3.218   0.043
 4390SOL     OW17878   2.628   2.093   0.100
 4390SOL    HW217879   2.576   2.013   0.088
 4390SOL    HW317880   2.715   2.070   0.068
 4390SOL    MW417881   2.631   2.079   0.094
 4391SOL     OW17882   2.082   3.645   1.644
 4391SOL    HW217883   2.056   3.713   1.582
 4391SOL    HW317884   2.130   3.582   1.592
 4391SOL    MW417885   2.084   3.645   1.630
 4392SOL     OW17886   2.134   2.964   1.151
 4392SOL    HW217887   2.187   3.039   1.176
 4392SOL    HW317888   2.053   3.002   1.117
 4392SOL    MW417889   2.130   2.979   1.151
 4393SOL     OW17890   2.674   2.868   1.139
 4393SOL    HW217891   2.702   2.777   1.151
 4393SOL    HW317892   2.603   2.862   1.075
 4393SOL    MW417893   2.667   2.856   1.134
 4394SOL     OW17894   1.989   2.733   0.557
 4394SOL    HW217895   2.080   2.748   0.584
 4394SOL    HW317896   1.992   2.654   0.503
 4394SOL    MW417897   2.001   2.725   0.555
 4395SOL     OW17898   2.225   2.441   1.811
 4395SOL    HW217899   2.172   2.521   1.818
 4395SOL    HW317900   2.295   2.453   1.876
 4395SOL    MW417901   2.227   2.454   1.819
 4396SOL     OW17902   2.611   1.991   1.518
 4396SOL    HW217903   2.588   1.899   1.520
 4396SOL    HW317904   2.697   1.993   1.475
 4396SOL    MW417905   2.618   1.981   1.514
 4397SOL     OW17906   2.295   2.515   1.557
 4397SOL    HW217907   2.375   2.565   1.543
 4397SOL    HW317908   2.286   2.509   1.652
 4397SOL    MW417909   2.304   2.521   1.567
 4398SOL     OW17910   2.616   3.665   0.931
 4398SOL    HW217911   2.705   3.680   0.961
 4398SOL    HW317912   2.611   3.712   0.847
 4398SOL    MW417913   2.626   3.673   0.924
 4399SOL     OW17914   3.272   2.040   1.828
 4399SOL    HW217915   3.328   1.967   1.854
 4399SOL    HW317916   3.242   2.078   1.910
 4399SOL    MW417917   3.276   2.035   1.841
 4400SOL     OW17918   1.997   3.345   0.596
 4400SOL    HW217919   1.969   3.384   0.678
 4400SOL    HW317920   2.017   3.254   0.618
 4400SOL    MW417921   1.995   3.337   0.609
 4401SOL     OW17922   2.830   3.388   0.631
 4401SOL    HW217923   2.913   3.342   0.615
 4401SOL    HW317924   2.820   3.387   0.727
 4401SOL    MW417925   2.840   3.381   0.641
 4402SOL     OW17926   3.662   2.533   0.945
 4402SOL    HW217927   3.751   2.563   0.927
 4402SOL    HW317928   3.642   2.473   0.874
 4402SOL    MW417929   3.671   2.530   0.934
 4403SOL     OW17930   3.513   2.712   1.825
 4403SOL    HW217931   3.568   2.636   1.806
 4403SOL    HW317932   3.515   2.720   1.920
 4403SOL    MW417933   3.521   2.703   1.833
 4404SOL     OW17934   2.563   3.445   0.036
 4404SOL    HW217935   2.503   3.514   0.006
 4404SOL    HW317936   2.508   3.387   0.089
 4404SOL    MW417937   2.547   3.447   0.038
 4405SOL     OW17938   3.001   2.090   0.259
 4405SOL    HW217939   2.934   2.066   0.196
 4405SOL    HW317940   3.066   2.139   0.208
 4405SOL    MW417941   3.001   2.092   0.244
 4406SOL     OW17942   2.808   2.274   1.344
 4406SOL    HW217943   2.727   2.315   1.372
 4406SOL    HW317944   2.855   2.342   1.296
 4406SOL    MW417945   2.803   2.289   1.342
 4407SOL     OW17946   3.068   2.612   0.967
 4407SOL    HW217947   3.081   2.706   0.977
 4407SOL    HW317948   3.029   2.602   0.881
 4407SOL    MW417949   3.064   2.623   0.957
 4408SOL     OW17950   2.520   2.807   0.771
 4408SOL    HW217951   2.431   2.798   0.804
 4408SOL    HW317952   2.524   2.897   0.739
 4408SOL    MW417953   2.509   2.818   0.771
 4409SOL     OW17954   3.319   2.390   0.766
 4409SOL    HW217955   3.264   2.311   0.765
 4409SOL    HW317956   3.301   2.431   0.850
 4409SOL    MW417957   3.309   2.385   0.775
 4410SOL     OW17958   2.290   2.077   1.583
 4410SOL    HW217959   2.211   2.095   1.635
 4410SOL    HW317960   2.285   2.139   1.510
 4410SOL    MW417961   2.280   2.087   1.580
 4411SOL     OW17962   2.938   2.594   0.723
 4411SOL    HW217963   2.875   2.526   0.747
 4411SOL    HW317964   2.958   2.575   0.631
 4411SOL    MW417965   2.932   2.581   0.715
 4412SOL     OW17966   2.194   3.489   0.425
 4412SOL    HW217967   2.155   3.536   0.351
 4412SOL    HW317968   2.128   3.424   0.450
 4412SOL    MW417969   2.181   3.487   0.419
 4413SOL     OW17970   2.686   2.898   0.449
 4413SOL    HW217971   2.688   2.872   0.356
 4413SOL    HW317972   2.744   2.835   0.492
 4413SOL    MW417973   2.694   2.887   0.443
 4414SOL     OW17974   3.239   3.458   1.221
 4414SOL    HW217975   3.164   3.504   1.259
 4414SOL    HW317976   3.221   3.365   1.238
 4414SOL    MW417977   3.228   3.452   1.229
 4415SOL     OW17978   3.243   3.666   0.651
 4415SOL    HW217979   3.186   3.619   0.590
 4415SOL    HW317980   3.329   3.627   0.638
 4415SOL    MW417981   3.246   3.657   0.641
 4416SOL     OW17982   3.196   2.142   0.782
 4416SOL    HW217983   3.224   2.074   0.843
 4416SOL    HW317984   3.110   2.113   0.752
 4416SOL    MW417985   3.189   2.129   0.786
 4417SOL     OW17986   2.001   3.076   0.716
 4417SOL    HW217987   2.065   3.108   0.779
 4417SOL    HW317988   2.050   3.012   0.664
 4417SOL    MW417989   2.016   3.072   0.717
 4418SOL     OW17990   2.501   3.152   1.698
 4418SOL    HW217991   2.549   3.235   1.685
 4418SOL    HW317992   2.558   3.100   1.754
 4418SOL    MW417993   2.515   3.156   1.704
 4419SOL     OW17994   2.077   3.394   1.838
 4419SOL    HW217995   2.133   3.318   1.853
 4419SOL    HW317996   2.026   3.372   1.760
 4419SOL    MW417997   2.077   3.381   1.829
 4420SOL     OW17998   3.176   2.246   0.117
 4420SOL    HW217999   3.149   2.312   0.053
 4420SOL    HW318000   3.246   2.289   0.167
 4420SOL    MW418001   3.181   2.259   0.114
 4421SOL     OW18002   2.844   1.951   0.054
 4421SOL    HW218003   2.900   1.943  -0.024
 4421SOL    HW318004   2.821   1.861   0.076
 4421SOL    MW418005   2.849   1.938   0.047
 4422SOL     OW18006   3.349   2.802   0.259
 4422SOL    HW218007   3.316   2.891   0.249
 4422SOL    HW318008   3.314   2.773   0.344
 4422SOL    MW418009   3.339   2.811   0.270
 4423SOL     OW18010   2.962   3.231   1.447
 4423SOL    HW218011   2.873   3.237   1.415
 4423SOL    HW318012   3.006   3.310   1.415
 4423SOL    MW418013   2.957   3.241   1.439
 4424SOL     OW18014   2.255   1.899   1.789
 4424SOL    HW218015   2.183   1.864   1.737
 4424SOL    HW318016   2.313   1.940   1.724
 4424SOL    MW418017   2.253   1.900   1.774
 4425SOL     OW18018   2.279   3.389   1.088
 4425SOL    HW218019   2.324   3.451   1.145
 4425SOL    HW318020   2.186   3.408   1.101
 4425SOL    MW418021   2.272   3.399   1.095
 4426SOL     OW18022   3.719   2.918   1.442
 4426SOL    HW218023   3.634   2.931   1.401
 4426SOL    HW318024   3.699   2.882   1.529
 4426SOL    MW418025   3.706   2.914   1.447
 4427SOL     OW18026   2.701   3.457   1.196
 4427SOL    HW218027   2.725   3.446   1.105
 4427SOL    HW318028   2.624   3.514   1.194
 4427SOL    MW418029   2.693   3.462   1.185
 4428SOL     OW18030   2.343   2.840   0.051
 4428SOL    HW218031   2.266   2.853   0.107
 4428SOL    HW318032   2.307   2.804  -0.030
 4428SOL    MW418033   2.329   2.836   0.048
 4429SOL     OW18034   2.996   2.813   0.294
 4429SOL    HW218035   2.906   2.834   0.269
 4429SOL    HW318036   3.023   2.886   0.350
 4429SOL    MW418037   2.988   2.825   0.297
 4430SOL     OW18038   2.496   3.162   0.986
 4430SOL    HW218039   2.489   3.141   1.080
 4430SOL    HW318040   2.414   3.130   0.949
 4430SOL    MW418041   2.484   3.156   0.993
 4431SOL     OW18042   3.696   2.096   1.261
 4431SOL    HW218043   3.677   2.163   1.196
 4431SOL    HW318044   3.753   2.034   1.216
 4431SOL    MW418045   3.700   2.097   1.247
 4432SOL     OW18046   1.942   3.254   1.649
 4432SOL    HW218047   1.986   3.187   1.595
 4432SOL    HW318048   1.857   3.216   1.669
 4432SOL    MW418049   1.937   3.240   1.645
 4433SOL     OW18050   2.625   1.929   0.701
 4433SOL    HW218051   2.554   1.990   0.683
 4433SOL    HW318052   2.676   1.926   0.620
 4433SOL    MW418053   2.621   1.935   0.688
 4434SOL     OW18054   2.383   3.169   0.450
 4434SOL    HW218055   2.376   3.201   0.540
 4434SOL    HW318056   2.293   3.153   0.422
 4434SOL    MW418057   2.371   3.171   0.457
 4435SOL     OW18058   2.978   3.562   1.359
 4435SOL    HW218059   2.898   3.547   1.309
 4435SOL    HW318060   2.985   3.657   1.366
 4435SOL    MW418061   2.969   3.573   1.353
 4436SOL     OW18062   3.092   3.527   0.849
 4436SOL    HW218063   3.139   3.600   0.808
 4436SOL    HW318064   3.013   3.566   0.885
 4436SOL    MW418065   3.087   3.542   0.848
 4437SOL     OW18066   3.500   3.622   1.124
 4437SOL    HW218067   3.543   3.592   1.204
 4437SOL    HW318068   3.419   3.570   1.121
 4437SOL    MW418069   3.495   3.611   1.134
 4438SOL     OW18070   2.585   2.586   1.831
 4438SOL    HW218071   2.655   2.528   1.803
 4438SOL    HW318072   2.528   2.531   1.886
 4438SOL    MW418073   2.587   2.573   1.835
 4439SOL     OW18074   3.372   2.798   1.464
 4439SOL    HW218075   3.377   2.851   1.544
 4439SOL    HW318076   3.334   2.715   1.492
 4439SOL    MW418077   3.368   2.793   1.479
 4440SOL     OW18078   3.012   1.933   1.710
 4440SOL    HW218079   3.007   1.840   1.691
 4440SOL    HW318080   3.095   1.944   1.756
 4440SOL    MW418081   3.020   1.922   1.714
 4441SOL     OW18082   2.386   2.453   0.164
 4441SOL    HW218083   2.352   2.509   0.234
 4441SOL    HW318084   2.457   2.403   0.204
 4441SOL    MW418085   2.392   2.454   0.178
 4442SOL     OW18086   3.482   3.204   0.986
 4442SOL    HW218087   3.517   3.186   0.899
 4442SOL    HW318088   3.387   3.205   0.973
 4442SOL    MW418089   3.474   3.201   0.973
 4443SOL     OW18090   2.911   2.852   1.355
 4443SOL    HW218091   2.954   2.887   1.433
 4443SOL    HW318092   2.894   2.929   1.301
 4443SOL    MW418093   2.914   2.867   1.358
 4444SOL     OW18094   3.442   2.339   0.228
 4444SOL    HW218095   3.434   2.410   0.165
 4444SOL    HW318096   3.460   2.383   0.311
 4444SOL    MW418097   3.443   2.353   0.230
 4445SOL     OW18098   2.302   1.994   0.657
 4445SOL    HW218099   2.352   2.037   0.588
 4445SOL    HW318100   2.217   2.038   0.657
 4445SOL    MW418101   2.299   2.007   0.648
 4446SOL     OW18102   2.061   3.056   1.517
 4446SOL    HW218103   2.089   3.009   1.595
 4446SOL    HW318104   1.982   3.011   1.488
 4446SOL    MW418105   2.054   3.045   1.523
 4447SOL     OW18106   2.569   2.383   1.484
 4447SOL    HW218107   2.541   2.471   1.508
 4447SOL    HW318108   2.538   2.327   1.555
 4447SOL    MW418109   2.561   2.386   1.496
 4448SOL     OW18110   3.111   2.601   0.203
 4448SOL    HW218111   3.158   2.619   0.122
 4448SOL    HW318112   3.077   2.685   0.231
 4448SOL    MW418113   3.113   2.615   0.196
 4449SOL     OW18114   2.224   2.779   0.697
 4449SOL    HW218115   2.282   2.835   0.645
 4449SOL    HW318116   2.268   2.694   0.699
 4449SOL    MW418117   2.237   2.776   0.690
 4450SOL     OW18118   3.364   2.131   0.534
 4450SOL    HW218119   3.286   2.081   0.559
 4450SOL    HW318120   3.335   2.222   0.534
 4450SOL    MW418121   3.350   2.135   0.537
 4451SOL     OW18122   2.950   2.093   0.693
 4451SOL    HW218123   2.970   2.168   0.637
 4451SOL    HW318124   2.930   2.132   0.778
 4451SOL    MW418125   2.951   2.109   0.697
 4452SOL     OW18126   2.846   3.343   0.025
 4452SOL    HW218127   2.873   3.421  -0.023
 4452SOL    HW318128   2.753   3.358   0.044
 4452SOL    MW418129   2.837   3.356   0.021
 4453SOL     OW18130   3.710   2.866   1.712
 4453SOL    HW218131   3.623   2.846   1.748
 4453SOL    HW318132   3.764   2.792   1.737
 4453SOL    MW418133   3.705   2.855   1.720
 4454SOL     OW18134   1.931   3.379   0.869
 4454SOL    HW218135   1.963   3.383   0.960
 4454SOL    HW318136   1.836   3.387   0.877
 4454SOL    MW418137   1.923   3.382   0.882
 4455SOL     OW18138   3.454   3.717   1.850
 4455SOL    HW218139   3.499   3.641   1.815
 4455SOL    HW318140   3.492   3.730   1.937
 4455SOL    MW418141   3.464   3.710   1.856
 4456SOL     OW18142   3.054   3.236   0.576
 4456SOL    HW218143   3.077   3.187   0.654
 4456SOL    HW318144   3.135   3.278   0.548
 4456SOL    MW418145   3.067   3.236   0.583
 4457SOL     OW18146   2.312   2.244   1.305
 4457SOL    HW218147   2.345   2.325   1.345
 4457SOL    HW318148   2.285   2.270   1.217
 4457SOL    MW418149   2.311   2.258   1.299
 4458SOL     OW18150   2.266   2.211   1.041
 4458SOL    HW218151   2.296   2.125   1.012
 4458SOL    HW318152   2.171   2.204   1.044
 4458SOL    MW418153   2.258   2.200   1.039
 4459SOL     OW18154   3.095   2.420   1.732
 4459SOL    HW218155   3.147   2.355   1.685
 4459SOL    HW318156   3.053   2.471   1.662
 4459SOL    MW418157   3.096   2.417   1.715
 4460SOL     OW18158   3.194   2.215   1.593
 4460SOL    HW218159   3.101   2.199   1.580
 4460SOL    HW318160   3.220   2.153   1.661
 4460SOL    MW418161   3.184   2.205   1.600
 4461SOL     OW18162   2.409   1.989   0.932
 4461SOL    HW218163   2.419   1.898   0.958
 4461SOL    HW318164   2.365   1.985   0.847
 4461SOL    MW418165   2.405   1.977   0.924
 4462SOL     OW18166   2.503   3.604   1.478
 4462SOL    HW218167   2.420   3.589   1.523
 4462SOL    HW318168   2.562   3.537   1.513
 4462SOL    MW418169   2.501   3.594   1.488
 4463SOL     OW18170   3.560   2.311   1.103
 4463SOL    HW218171   3.493   2.344   1.163
 4463SOL    HW318172   3.603   2.389   1.069
 4463SOL    MW418173   3.558   2.326   1.107
 4464SOL     OW18174   3.738   3.031   1.073
 4464SOL    HW218175   3.731   2.971   0.998
 4464SOL    HW318176   3.664   3.091   1.062
 4464SOL    MW418177   3.728   3.031   1.062
 4465SOL     OW18178   3.120   2.893   0.991
 4465SOL    HW218179   3.134   2.865   1.082
 4465SOL    HW318180   3.206   2.924   0.963
 4465SOL    MW418181   3.133   2.894   1.000
 4466SOL     OW18182   3.203   2.388   1.270
 4466SOL    HW218183   3.224   2.389   1.177
 4466SOL    HW318184   3.248   2.310   1.303
 4466SOL    MW418185   3.210   2.378   1.262
 4467SOL     OW18186   3.696   2.519   1.812
 4467SOL    HW218187   3.733   2.464   1.881
 4467SOL    HW318188   3.721   2.476   1.730
 4467SOL    MW418189   3.703   2.507   1.811
 4468SOL     OW18190   3.243   2.817   1.863
 4468SOL    HW218191   3.309   2.765   1.817
 4468SOL    HW318192   3.263   2.804   1.956
 4468SOL    MW418193   3.254   2.808   1.870
 4469SOL     OW18194   3.194   1.903   0.212
 4469SOL    HW218195   3.268   1.947   0.255
 4469SOL    HW318196   3.118   1.957   0.234
 4469SOL    MW418197   3.194   1.915   0.220
 4470SOL     OW18198   3.254   2.678   0.490
 4470SOL    HW218199   3.169   2.648   0.460
 4470SOL    HW318200   3.246   2.685   0.585
 4470SOL    MW418201   3.242   2.676   0.499
 4471SOL     OW18202   2.330   3.141   1.221
 4471SOL    HW218203   2.342   3.168   1.312
 4471SOL    HW318204   2.311   3.222   1.174
 4471SOL    MW418205   2.329   3.156   1.226
 4472SOL     OW18206   2.614   2.121   1.044
 4472SOL    HW218207   2.587   2.123   1.135
 4472SOL    HW318208   2.544   2.073   0.999
 4472SOL    MW418209   2.602   2.117   1.051
 4473SOL     OW18210   2.468   3.613   1.206
 4473SOL    HW218211   2.520   3.690   1.183
 4473SOL    HW318212   2.477   3.605   1.301
 4473SOL    MW418213   2.477   3.620   1.217
 4474SOL     OW18214   3.370   3.198   1.438
 4474SOL    HW218215   3.355   3.127   1.501
 4474SOL    HW318216   3.416   3.156   1.366
 4474SOL    MW418217   3.376   3.182   1.438
 4475SOL     OW18218   2.444   2.929   1.555
 4475SOL    HW218219   2.481   2.934   1.467
 4475SOL    HW318220   2.483   3.002   1.602
 4475SOL    MW418221   2.454   2.939   1.550
 4476SOL     OW18222   2.624   2.972   1.367
 4476SOL    HW218223   2.683   2.918   1.420
 4476SOL    HW318224   2.639   2.944   1.277
 4476SOL    MW418225   2.634   2.961   1.363
 4477SOL     OW18226   2.627   2.344   0.216
 4477SOL    HW218227   2.700   2.393   0.179
 4477SOL    HW318228   2.643   2.253   0.190
 4477SOL    MW418229   2.639   2.339   0.209
 4478SOL     OW18230   3.435   3.461   1.539
 4478SOL    HW218231   3.477   3.446   1.624
 4478SOL    HW318232   3.426   3.374   1.501
 4478SOL    MW418233   3.439   3.449   1.546
 4479SOL     OW18234   3.095   1.940   1.130
 4479SOL    HW218235   3.150   1.949   1.052
 4479SOL    HW318236   3.150   1.974   1.201
 4479SOL    MW418237   3.109   1.945   1.129
 4480SOL     OW18238   2.102   2.853   0.314
 4480SOL    HW218239   2.039   2.869   0.243
 4480SOL    HW318240   2.049   2.816   0.385
 4480SOL    MW418241   2.087   2.850   0.314
 4481SOL     OW18242   2.458   3.207   0.173
 4481SOL    HW218243   2.473   3.183   0.265
 4481SOL    HW318244   2.366   3.185   0.157
 4481SOL    MW418245   2.448   3.200   0.183
 4482SOL     OW18246   2.997   3.438   0.325
 4482SOL    HW218247   3.005   3.356   0.276
 4482SOL    HW318248   2.916   3.477   0.292
 4482SOL    MW418249   2.987   3.433   0.315
 4483SOL     OW18250   2.256   3.596   0.894
 4483SOL    HW218251   2.260   3.507   0.929
 4483SOL    HW318252   2.282   3.587   0.803
 4483SOL    MW418253   2.259   3.584   0.886
 4484SOL     OW18254   2.873   3.074   1.137
 4484SOL    HW218255   2.805   3.008   1.153
 4484SOL    HW318256   2.891   3.068   1.044
 4484SOL    MW418257   2.866   3.065   1.128
 4485SOL     OW18258   1.962   3.349   1.388
 4485SOL    HW218259   1.952   3.307   1.474
 4485SOL    HW318260   1.883   3.402   1.378
 4485SOL    MW418261   1.951   3.350   1.399
 4486SOL     OW18262   2.866   2.213   0.958
 4486SOL    HW218263   2.796   2.165   1.003
 4486SOL    HW318264   2.898   2.276   1.022
 4486SOL    MW418265   2.861   2.215   0.972
 4487SOL     OW18266   2.517   2.649   1.578
 4487SOL    HW218267   2.510   2.744   1.566
 4487SOL    HW318268   2.526   2.638   1.673
 4487SOL    MW418269   2.518   2.661   1.588
 4488SOL     OW18270   2.238   3.164   1.836
 4488SOL    HW218271   2.310   3.166   1.773
 4488SOL    HW318272   2.208   3.073   1.835
 4488SOL    MW418273   2.243   3.153   1.828
 4489SOL     OW18274   3.322   1.927   1.303
 4489SOL    HW218275   3.393   1.873   1.267
 4489SOL    HW318276   3.321   1.906   1.396
 4489SOL    MW418277   3.331   1.918   1.311
 4490SOL     OW18278   3.522   3.457   1.787
 4490SOL    HW218279   3.495   3.454   1.878
 4490SOL    HW318280   3.618   3.461   1.790
 4490SOL    MW418281   3.532   3.457   1.799
 4491SOL     OW18282   2.333   2.319   0.771
 4491SOL    HW218283   2.404   2.267   0.734
 4491SOL    HW318284   2.319   2.284   0.858
 4491SOL    MW418285   2.341   2.308   0.778
 4492SOL     OW18286   1.888   3.654   1.843
 4492SOL    HW218287   1.938   3.632   1.765
 4492SOL    HW318288   1.896   3.749   1.851
 4492SOL    MW418289   1.896   3.663   1.834
 4493SOL     OW18290   2.649   3.412   0.847
 4493SOL    HW218291   2.577   3.349   0.860
 4493SOL    HW318292   2.610   3.497   0.865
 4493SOL    MW418293   2.633   3.415   0.850
 4494SOL     OW18294   2.969   2.260   0.495
 4494SOL    HW218295   2.991   2.197   0.427
 4494SOL    HW318296   2.874   2.252   0.506
 4494SOL    MW418297   2.959   2.251   0.487
 4495SOL     OW18298   2.054   1.950   0.427
 4495SOL    HW218299   2.125   1.971   0.366
 4495SOL    HW318300   2.008   1.878   0.385
 4495SOL    MW418301   2.058   1.944   0.413
 4496SOL     OW18302   1.885   2.417   1.570
 4496SOL    HW218303   1.949   2.483   1.545
 4496SOL    HW318304   1.804   2.444   1.527
 4496SOL    MW418305   1.883   2.429   1.562
 4497SOL     OW18306   3.623   3.324   0.527
 4497SOL    HW218307   3.593   3.257   0.588
 4497SOL    HW318308   3.717   3.330   0.541
 4497SOL    MW418309   3.631   3.316   0.537
 4498SOL     OW18310   3.179   3.001   0.457
 4498SOL    HW218311   3.151   3.087   0.490
 4498SOL    HW318312   3.207   3.017   0.367
 4498SOL    MW418313   3.179   3.015   0.449
 4499SOL     OW18314   2.841   1.921   0.510
 4499SOL    HW218315   2.878   1.980   0.575
 4499SOL    HW318316   2.818   1.977   0.436
 4499SOL    MW418317   2.842   1.936   0.509
 4500SOL     OW18318   3.694   2.803   0.932
 4500SOL    HW218319   3.685   2.835   0.843
 4500SOL    HW318320   3.647   2.719   0.932
 4500SOL    MW418321   3.687   2.796   0.922
 4501SOL     OW18322   2.070   2.643   1.511
 4501SOL    HW218323   2.091   2.712   1.449
 4501SOL    HW318324   2.150   2.590   1.516
 4501SOL    MW418325   2.083   2.644   1.505
 4502SOL     OW18326   3.606   2.734   0.633
 4502SOL    HW218327   3.700   2.723   0.621
 4502SOL    HW318328   3.582   2.806   0.574
 4502SOL    MW418329   3.616   2.742   0.624
 4503SOL     OW18330   2.055   2.658   1.778
 4503SOL    HW218331   1.981   2.602   1.804
 4503SOL    HW318332   2.050   2.661   1.683
 4503SOL    MW418333   2.044   2.651   1.768
 4504SOL     OW18334   2.221   1.945   1.228
 4504SOL    HW218335   2.264   2.029   1.248
 4504SOL    HW318336   2.294   1.883   1.221
 4504SOL    MW418337   2.236   1.948   1.229
 4505SOL     OW18338   2.262   2.612   0.406
 4505SOL    HW218339   2.262   2.707   0.391
 4505SOL    HW318340   2.339   2.596   0.460
 4505SOL    MW418341   2.272   2.623   0.411
 4506SOL     OW18342   3.038   2.471   1.470
 4506SOL    HW218343   3.074   2.444   1.386
 4506SOL    HW318344   2.951   2.505   1.449
 4506SOL    MW418345   3.032   2.472   1.457
 4507SOL     OW18346   2.021   2.343   0.695
 4507SOL    HW218347   2.083   2.350   0.768
 4507SOL    HW318348   2.021   2.250   0.672
 4507SOL    MW418349   2.029   2.332   0.702
 4508SOL     OW18350   3.568   3.683   0.227
 4508SOL    HW218351   3.635   3.716   0.167
 4508SOL    HW318352   3.525   3.762   0.261
 4508SOL    MW418353   3.570   3.698   0.223
 4509SOL     OW18354   2.703   2.604   1.179
 4509SOL    HW218355   2.661   2.522   1.155
 4509SOL    HW318356   2.704   2.603   1.275
 4509SOL    MW418357   2.696   2.593   1.188
 4510SOL     OW18358   3.374   3.737   1.578
 4510SOL    HW218359   3.377   3.643   1.561
 4510SOL    HW318360   3.397   3.745   1.670
 4510SOL    MW418361   3.377   3.725   1.588
 4511SOL     OW18362   2.507   2.074   1.284
 4511SOL    HW218363   2.438   2.137   1.305
 4511SOL    HW318364   2.534   2.038   1.369
 4511SOL    MW418365   2.501   2.077   1.297
 4512SOL     OW18366   1.890   2.915   0.153
 4512SOL    HW218367   1.859   2.980   0.216
 4512SOL    HW318368   1.839   2.837   0.172
 4512SOL    MW418369   1.880   2.912   0.163
 4513SOL     OW18370   3.302   1.927   0.901
 4513SOL    HW218371   3.390   1.936   0.938
 4513SOL    HW318372   3.312   1.868   0.827
 4513SOL    MW418373   3.316   1.921   0.895
 4514SOL     OW18374   3.334   2.666   0.745
 4514SOL    HW218375   3.414   2.681   0.694
 4514SOL    HW318376   3.327   2.571   0.751
 4514SOL    MW418377   3.343   2.655   0.740
 4515SOL     OW18378   2.474   3.715   0.095
 4515SOL    HW218379   2.379   3.715   0.087
 4515SOL    HW318380   2.490   3.661   0.173
 4515SOL    MW418381   2.464   3.709   0.104
 4516SOL     OW18382   2.784   2.592   1.442
 4516SOL    HW218383   2.853   2.659   1.439
 4516SOL    HW318384   2.717   2.630   1.498
 4516SOL    MW418385   2.785   2.605   1.449
 4517SOL     OW18386   2.202   2.892   1.690
 4517SOL    HW218387   2.156   2.808   1.692
 4517SOL    HW318388   2.259   2.886   1.614
 4517SOL    MW418389   2.204   2.880   1.682
 4518SOL     OW18390   3.319   2.535   0.011
 4518SOL    HW218391   3.247   2.511  -0.047
 4518SOL    HW318392   3.385   2.572  -0.047
 4518SOL    MW418393   3.318   2.537  -0.004
 4519SOL     OW18394   2.453   3.267   0.691
 4519SOL    HW218395   2.518   3.200   0.712
 4519SOL    HW318396   2.505   3.344   0.668
 4519SOL    MW418397   2.468   3.269   0.690
 4520SOL     OW18398   2.714   2.432   0.821
 4520SOL    HW218399   2.654   2.450   0.893
 4520SOL    HW318400   2.748   2.344   0.840
 4520SOL    MW418401   2.710   2.422   0.834
 4521SOL     OW18402   3.655   1.931   1.490
 4521SOL    HW218403   3.576   1.977   1.518
 4521SOL    HW318404   3.690   1.985   1.419
 4521SOL    MW418405   3.649   1.944   1.484
 4522SOL     OW18406   2.939   3.015   0.840
 4522SOL    HW218407   3.031   2.996   0.858
 4522SOL    HW318408   2.912   2.945   0.780
 4522SOL    MW418409   2.947   3.003   0.834
 4523SOL     OW18410   2.732   2.835   0.195
 4523SOL    HW218411   2.718   2.747   0.160
 4523SOL    HW318412   2.683   2.892   0.136
 4523SOL    MW418413   2.724   2.830   0.183
 4524SOL     OW18414   3.213   3.253   0.936
 4524SOL    HW218415   3.186   3.337   0.901
 4524SOL    HW318416   3.173   3.248   1.023
 4524SOL    MW418417   3.206   3.262   0.942
 4525SOL     OW18418   3.132   3.201   1.204
 4525SOL    HW218419   3.143   3.168   1.293
 4525SOL    HW318420   3.051   3.160   1.173
 4525SOL    MW418421   3.122   3.193   1.210
 4526SOL     OW18422   2.145   2.559   0.974
 4526SOL    HW218423   2.095   2.558   1.055
 4526SOL    HW318424   2.165   2.651   0.958
 4526SOL    MW418425   2.141   2.571   0.982
 4527SOL     OW18426   3.212   3.323   1.736
 4527SOL    HW218427   3.212   3.417   1.752
 4527SOL    HW318428   3.257   3.313   1.652
 4527SOL    MW418429   3.218   3.333   1.727
 4528SOL     OW18430   3.451   2.041   0.297
 4528SOL    HW218431   3.444   2.045   0.392
 4528SOL    HW318432   3.463   2.132   0.270
 4528SOL    MW418433   3.452   2.054   0.305
 4529SOL     OW18434   2.740   2.604   0.411
 4529SOL    HW218435   2.720   2.590   0.318
 4529SOL    HW318436   2.833   2.583   0.418
 4529SOL    MW418437   2.750   2.599   0.400
 4530SOL     OW18438   2.067   2.227   1.715
 4530SOL    HW218439   2.024   2.286   1.652
 4530SOL    HW318440   2.135   2.282   1.755
 4530SOL    MW418441   2.071   2.242   1.712
 4531SOL     OW18442   3.179   2.847   1.260
 4531SOL    HW218443   3.242   2.844   1.333
 4531SOL    HW318444   3.095   2.865   1.302
 4531SOL    MW418445   3.175   2.849   1.275
 4532SOL     OW18446   2.723   3.562   0.449
 4532SOL    HW218447   2.781   3.633   0.476
 4532SOL    HW318448   2.746   3.490   0.507
 4532SOL    MW418449   2.734   3.562   0.460
 4533SOL     OW18450   3.518   2.024   1.039
 4533SOL    HW218451   3.563   1.942   1.058
 4533SOL    HW318452   3.538   2.080   1.115
 4533SOL    MW418453   3.528   2.020   1.051
 4534SOL     OW18454   1.966   1.867   1.138
 4534SOL    HW218455   1.957   1.868   1.043
 4534SOL    HW318456   2.060   1.879   1.153
 4534SOL    MW418457   1.978   1.870   1.129
 4535SOL     OW18458   3.603   3.060   0.758
 4535SOL    HW218459   3.582   3.006   0.681
 4535SOL    HW318460   3.699   3.058   0.762
 4535SOL    MW418461   3.612   3.053   0.747
 4536SOL     OW18462   2.295   3.205   1.501
 4536SOL    HW218463   2.216   3.155   1.524
 4536SOL    HW318464   2.365   3.164   1.551
 4536SOL    MW418465   2.293   3.193   1.511
 4537SOL     OW18466   2.179   1.994   0.184
 4537SOL    HW218467   2.108   2.049   0.152
 4537SOL    HW318468   2.221   1.960   0.105
 4537SOL    MW418469   2.175   1.996   0.170
 4538SOL     OW18470   3.303   2.491   1.020
 4538SOL    HW218471   3.226   2.537   0.986
 4538SOL    HW318472   3.360   2.560   1.054
 4538SOL    MW418473   3.300   2.506   1.020
 4539SOL     OW18474   1.935   2.093   0.033
 4539SOL    HW218475   1.902   2.172   0.077
 4539SOL    HW318476   1.990   2.126  -0.038
 4539SOL    MW418477   1.938   2.107   0.030
 4540SOL     OW18478   1.969   3.350   0.222
 4540SOL    HW218479   1.986   3.434   0.264
 4540SOL    HW318480   2.004   3.359   0.134
 4540SOL    MW418481   1.974   3.363   0.216
 4541SOL     OW18482   3.241   3.439   0.439
 4541SOL    HW218483   3.304   3.429   0.368
 4541SOL    HW318484   3.158   3.459   0.394
 4541SOL    MW418485   3.238   3.440   0.424
 4542SOL     OW18486   3.604   2.707   2.125
 4542SOL    HW218487   3.645   2.649   2.190
 4542SOL    HW318488   3.511   2.699   2.142
 4542SOL    MW418489   3.598   2.699   2.135
 4543SOL     OW18490   3.470   2.639   3.120
 4543SOL    HW218491   3.425   2.706   3.171
 4543SOL    HW318492   3.558   2.675   3.106
 4543SOL    MW418493   3.476   2.652   3.124
 4544SOL     OW18494   2.398   2.890   2.354
 4544SOL    HW218495   2.488   2.865   2.338
 4544SOL    HW318496   2.394   2.983   2.331
 4544SOL    MW418497   2.410   2.899   2.349
 4545SOL     OW18498   3.514   3.593   2.496
 4545SOL    HW218499   3.526   3.539   2.574
 4545SOL    HW318500   3.551   3.541   2.425
 4545SOL    MW418501   3.520   3.578   2.497
 4546SOL     OW18502   2.893   3.478   3.497
 4546SOL    HW218503   2.934   3.514   3.418
 4546SOL    HW318504   2.928   3.389   3.504
 4546SOL    MW418505   2.904   3.471   3.488
 4547SOL     OW18506   3.450   3.033   3.101
 4547SOL    HW218507   3.371   2.998   3.059
 4547SOL    HW318508   3.477   3.105   3.045
 4547SOL    MW418509   3.443   3.038   3.088
 4548SOL     OW18510   2.682   2.346   2.367
 4548SOL    HW218511   2.657   2.434   2.395
 4548SOL    HW318512   2.679   2.349   2.271
 4548SOL    MW418513   2.678   2.358   2.359
 4549SOL     OW18514   2.124   2.374   2.295
 4549SOL    HW218515   2.156   2.462   2.277
 4549SOL    HW318516   2.112   2.372   2.390
 4549SOL    MW418517   2.127   2.386   2.307
 4550SOL     OW18518   2.202   2.787   3.196
 4550SOL    HW218519   2.265   2.734   3.147
 4550SOL    HW318520   2.183   2.861   3.139
 4550SOL    MW418521   2.208   2.789   3.183
 4551SOL     OW18522   2.523   2.129   2.382
 4551SOL    HW218523   2.581   2.205   2.384
 4551SOL    HW318524   2.458   2.150   2.315
 4551SOL    MW418525   2.522   2.141   2.373
 4552SOL     OW18526   2.610   3.056   2.557
 4552SOL    HW218527   2.690   3.059   2.609
 4552SOL    HW318528   2.638   3.023   2.471
 4552SOL    MW418529   2.624   3.052   2.552
 4553SOL     OW18530   2.635   3.397   3.460
 4553SOL    HW218531   2.719   3.423   3.499
 4553SOL    HW318532   2.659   3.341   3.386
 4553SOL    MW418533   2.649   3.393   3.455
 4554SOL     OW18534   2.387   2.560   2.548
 4554SOL    HW218535   2.372   2.480   2.599
 4554SOL    HW318536   2.469   2.595   2.582
 4554SOL    MW418537   2.395   2.552   2.560
 4555SOL     OW18538   2.724   3.246   3.233
 4555SOL    HW218539   2.688   3.312   3.173
 4555SOL    HW318540   2.652   3.184   3.246
 4555SOL    MW418541   2.710   3.246   3.227
 4556SOL     OW18542   2.529   2.386   2.925
 4556SOL    HW218543   2.435   2.382   2.943
 4556SOL    HW318544   2.559   2.295   2.934
 4556SOL    MW418545   2.520   2.374   2.928
 4557SOL     OW18546   2.275   2.800   2.829
 4557SOL    HW218547   2.230   2.807   2.745
 4557SOL    HW318548   2.255   2.883   2.873
 4557SOL    MW418549   2.267   2.812   2.823
 4558SOL     OW18550   1.972   3.646   2.704
 4558SOL    HW218551   2.061   3.638   2.739
 4558SOL    HW318552   1.936   3.558   2.709
 4558SOL    MW418553   1.979   3.633   2.709
 4559SOL     OW18554   3.237   3.038   2.073
 4559SOL    HW218555   3.155   3.074   2.039
 4559SOL    HW318556   3.305   3.081   2.022
 4559SOL    MW418557   3.235   3.048   2.061
 4560SOL     OW18558   2.236   3.173   2.739
 4560SOL    HW218559   2.212   3.226   2.815
 4560SOL    HW318560   2.292   3.231   2.687
 4560SOL    MW418561   2.240   3.188   2.742
 4561SOL     OW18562   2.798   2.817   2.549
 4561SOL    HW218563   2.712   2.804   2.589
 4561SOL    HW318564   2.851   2.744   2.581
 4561SOL    MW418565   2.794   2.806   2.558
 4562SOL     OW18566   2.206   3.469   3.334
 4562SOL    HW218567   2.114   3.445   3.319
 4562SOL    HW318568   2.250   3.386   3.351
 4562SOL    MW418569   2.200   3.454   3.333
 4563SOL     OW18570   2.789   3.179   2.266
 4563SOL    HW218571   2.766   3.241   2.334
 4563SOL    HW318572   2.746   3.097   2.292
 4563SOL    MW418573   2.781   3.175   2.277
 4564SOL     OW18574   3.662   2.180   2.722
 4564SOL    HW218575   3.599   2.160   2.791
 4564SOL    HW318576   3.652   2.109   2.659
 4564SOL    MW418577   3.652   2.167   2.723
 4565SOL     OW18578   2.286   2.152   2.234
 4565SOL    HW218579   2.260   2.114   2.150
 4565SOL    HW318580   2.223   2.222   2.250
 4565SOL    MW418581   2.275   2.155   2.225
 4566SOL     OW18582   2.121   3.113   2.271
 4566SOL    HW218583   2.069   3.181   2.227
 4566SOL    HW318584   2.118   3.039   2.211
 4566SOL    MW418585   2.113   3.112   2.258
 4567SOL     OW18586   2.783   3.576   2.049
 4567SOL    HW218587   2.738   3.592   2.132
 4567SOL    HW318588   2.714   3.541   1.991
 4567SOL    MW418589   2.769   3.573   2.051
 4568SOL     OW18590   3.718   2.349   2.024
 4568SOL    HW218591   3.627   2.351   2.052
 4568SOL    HW318592   3.763   2.411   2.082
 4568SOL    MW418593   3.711   2.357   2.034
 4569SOL     OW18594   3.463   2.952   2.374
 4569SOL    HW218595   3.373   2.952   2.409
 4569SOL    HW318596   3.456   2.998   2.291
 4569SOL    MW418597   3.450   2.958   2.368
 4570SOL     OW18598   3.263   2.587   3.446
 4570SOL    HW218599   3.332   2.525   3.423
 4570SOL    HW318600   3.188   2.561   3.393
 4570SOL    MW418601   3.263   2.574   3.437
 4571SOL     OW18602   2.004   3.467   2.998
 4571SOL    HW218603   1.987   3.413   3.075
 4571SOL    HW318604   1.992   3.557   3.028
 4571SOL    MW418605   2.001   3.471   3.012
 4572SOL     OW18606   2.999   2.974   3.438
 4572SOL    HW218607   2.984   3.067   3.423
 4572SOL    HW318608   3.094   2.964   3.438
 4572SOL    MW418609   3.008   2.984   3.435
 4573SOL     OW18610   2.795   2.398   3.639
 4573SOL    HW218611   2.885   2.399   3.606
 4573SOL    HW318612   2.754   2.323   3.597
 4573SOL    MW418613   2.801   2.388   3.630
 4574SOL     OW18614   3.370   2.930   2.766
 4574SOL    HW218615   3.373   2.864   2.697
 4574SOL    HW318616   3.455   2.973   2.762
 4574SOL    MW418617   3.382   2.926   2.757
 4575SOL     OW18618   2.990   2.533   2.335
 4575SOL    HW218619   3.016   2.557   2.246
 4575SOL    HW318620   2.972   2.440   2.331
 4575SOL    MW418621   2.992   2.525   2.322
 4576SOL     OW18622   3.655   3.153   2.186
 4576SOL    HW218623   3.611   3.194   2.261
 4576SOL    HW318624   3.712   3.221   2.151
 4576SOL    MW418625   3.657   3.167   2.191
 4577SOL     OW18626   2.575   2.202   3.589
 4577SOL    HW218627   2.585   2.128   3.529
 4577SOL    HW318628   2.611   2.171   3.672
 4577SOL    MW418629   2.581   2.188   3.591
 4578SOL     OW18630   2.311   3.569   2.504
 4578SOL    HW218631   2.343   3.657   2.482
 4578SOL    HW318632   2.264   3.541   2.426
 4578SOL    MW418633   2.310   3.577   2.491
 4579SOL     OW18634   3.695   1.931   2.553
 4579SOL    HW218635   3.749   1.882   2.615
 4579SOL    HW318636   3.638   1.865   2.514
 4579SOL    MW418637   3.695   1.915   2.555
 4580SOL     OW18638   2.027   3.629   2.081
 4580SOL    HW218639   2.056   3.719   2.073
 4580SOL    HW318640   1.977   3.612   2.002
 4580SOL    MW418641   2.025   3.637   2.070
 4581SOL     OW18642   2.814   1.884   2.966
 4581SOL    HW218643   2.773   1.962   2.928
 4581SOL    HW318644   2.908   1.902   2.961
 4581SOL    MW418645   2.820   1.896   2.961
 4582SOL     OW18646   3.431   3.437   2.052
 4582SOL    HW218647   3.479   3.506   2.098
 4582SOL    HW318648   3.352   3.481   2.021
 4582SOL    MW418649   3.426   3.451   2.055
 4583SOL     OW18650   2.829   2.562   1.996
 4583SOL    HW218651   2.831   2.509   1.917
 4583SOL    HW318652   2.917   2.599   2.002
 4583SOL    MW418653   2.841   2.561   1.985
 4584SOL     OW18654   3.443   2.488   2.332
 4584SOL    HW218655   3.482   2.488   2.419
 4584SOL    HW318656   3.384   2.564   2.332
 4584SOL    MW418657   3.440   2.499   2.343
 4585SOL     OW18658   2.760   2.855   3.461
 4585SOL    HW218659   2.737   2.835   3.551
 4585SOL    HW318660   2.845   2.899   3.466
 4585SOL    MW418661   2.767   2.858   3.473
 4586SOL     OW18662   2.840   1.992   3.221
 4586SOL    HW218663   2.846   1.954   3.134
 4586SOL    HW318664   2.829   2.086   3.206
 4586SOL    MW418665   2.841   2.000   3.209
 4587SOL     OW18666   2.929   2.481   3.055
 4587SOL    HW218667   3.004   2.510   3.002
 4587SOL    HW318668   2.861   2.546   3.039
 4587SOL    MW418669   2.930   2.493   3.045
 4588SOL     OW18670   3.479   2.449   3.332
 4588SOL    HW218671   3.460   2.358   3.311
 4588SOL    HW318672   3.457   2.498   3.253
 4588SOL    MW418673   3.474   2.442   3.319
 4589SOL     OW18674   3.621   3.543   3.236
 4589SOL    HW218675   3.549   3.505   3.287
 4589SOL    HW318676   3.638   3.628   3.277
 4589SOL    MW418677   3.615   3.548   3.248
 4590SOL     OW18678   2.926   2.187   3.438
 4590SOL    HW218679   2.892   2.226   3.357
 4590SOL    HW318680   2.904   2.095   3.431
 4590SOL    MW418681   2.919   2.180   3.428
 4591SOL     OW18682   3.335   3.001   3.514
 4591SOL    HW218683   3.417   3.042   3.544
 4591SOL    HW318684   3.298   2.963   3.594
 4591SOL    MW418685   3.341   3.002   3.529
 4592SOL     OW18686   3.630   2.374   2.498
 4592SOL    HW218687   3.719   2.343   2.515
 4592SOL    HW318688   3.573   2.314   2.546
 4592SOL    MW418689   3.633   2.362   2.507
 4593SOL     OW18690   2.056   2.088   2.527
 4593SOL    HW218691   2.047   2.028   2.453
 4593SOL    HW318692   1.989   2.059   2.590
 4593SOL    MW418693   2.046   2.075   2.525
 4594SOL     OW18694   2.999   3.181   2.088
 4594SOL    HW218695   2.949   3.183   2.170
 4594SOL    HW318696   2.933   3.199   2.020
 4594SOL    MW418697   2.985   3.183   2.090
 4595SOL     OW18698   2.003   2.261   2.890
 4595SOL    HW218699   1.975   2.352   2.899
 4595SOL    HW318700   1.940   2.222   2.829
 4595SOL    MW418701   1.990   2.267   2.884
 4596SOL     OW18702   2.462   3.599   2.196
 4596SOL    HW218703   2.383   3.557   2.229
 4596SOL    HW318704   2.528   3.582   2.263
 4596SOL    MW418705   2.461   3.591   2.209
 4597SOL     OW18706   3.590   3.119   3.593
 4597SOL    HW218707   3.640   3.045   3.625
 4597SOL    HW318708   3.536   3.146   3.668
 4597SOL    MW418709   3.590   3.113   3.606
 4598SOL     OW18710   2.598   3.014   1.903
 4598SOL    HW218711   2.520   2.960   1.890
 4598SOL    HW318712   2.569   3.087   1.956
 4598SOL    MW418713   2.584   3.016   1.908
 4599SOL     OW18714   3.724   2.754   3.095
 4599SOL    HW218715   3.740   2.792   3.008
 4599SOL    HW318716   3.758   2.820   3.156
 4599SOL    MW418717   3.731   2.767   3.091
 4600SOL     OW18718   3.516   3.463   2.764
 4600SOL    HW218719   3.545   3.530   2.825
 4600SOL    HW318720   3.497   3.387   2.819
 4600SOL    MW418721   3.518   3.463   2.779
 4601SOL     OW18722   3.179   3.530   1.971
 4601SOL    HW218723   3.105   3.493   2.021
 4601SOL    HW318724   3.187   3.620   2.004
 4601SOL    MW418725   3.170   3.537   1.983
 4602SOL     OW18726   1.987   2.536   3.060
 4602SOL    HW218727   2.049   2.566   3.126
 4602SOL    HW318728   1.921   2.605   3.054
 4602SOL    MW418729   1.986   2.549   3.067
 4603SOL     OW18730   3.403   3.204   1.913
 4603SOL    HW218731   3.350   3.253   1.849
 4603SOL    HW318732   3.434   3.270   1.974
 4603SOL    MW418733   3.401   3.218   1.911
 4604SOL     OW18734   2.628   2.093   1.968
 4604SOL    HW218735   2.576   2.013   1.956
 4604SOL    HW318736   2.715   2.070   1.936
 4604SOL    MW418737   2.631   2.079   1.962
 4605SOL     OW18738   2.082   3.645   3.512
 4605SOL    HW218739   2.056   3.713   3.450
 4605SOL    HW318740   2.130   3.582   3.460
 4605SOL    MW418741   2.084   3.645   3.498
 4606SOL     OW18742   2.134   2.964   3.019
 4606SOL    HW218743   2.187   3.039   3.044
 4606SOL    HW318744   2.053   3.002   2.985
 4606SOL    MW418745   2.130   2.979   3.019
 4607SOL     OW18746   2.674   2.868   3.007
 4607SOL    HW218747   2.702   2.777   3.019
 4607SOL    HW318748   2.603   2.862   2.943
 4607SOL    MW418749   2.667   2.856   3.002
 4608SOL     OW18750   1.989   2.733   2.425
 4608SOL    HW218751   2.080   2.748   2.452
 4608SOL    HW318752   1.992   2.654   2.371
 4608SOL    MW418753   2.001   2.725   2.423
 4609SOL     OW18754   2.225   2.441   3.679
 4609SOL    HW218755   2.172   2.521   3.686
 4609SOL    HW318756   2.295   2.453   3.744
 4609SOL    MW418757   2.227   2.454   3.687
 4610SOL     OW18758   2.611   1.991   3.386
 4610SOL    HW218759   2.588   1.899   3.388
 4610SOL    HW318760   2.697   1.993   3.343
 4610SOL    MW418761   2.618   1.981   3.382
 4611SOL     OW18762   2.295   2.515   3.425
 4611SOL    HW218763   2.375   2.565   3.411
 4611SOL    HW318764   2.286   2.509   3.520
 4611SOL    MW418765   2.304   2.521   3.435
 4612SOL     OW18766   2.616   3.665   2.799
 4612SOL    HW218767   2.705   3.680   2.829
 4612SOL    HW318768   2.611   3.712   2.715
 4612SOL    MW418769   2.626   3.673   2.792
 4613SOL     OW18770   3.272   2.040   3.696
 4613SOL    HW218771   3.328   1.967   3.722
 4613SOL    HW318772   3.242   2.078   3.778
 4613SOL    MW418773   3.276   2.035   3.709
 4614SOL     OW18774   1.997   3.345   2.464
 4614SOL    HW218775   1.969   3.384   2.546
 4614SOL    HW318776   2.017   3.254   2.486
 4614SOL    MW418777   1.995   3.337   2.477
 4615SOL     OW18778   2.830   3.388   2.499
 4615SOL    HW218779   2.913   3.342   2.483
 4615SOL    HW318780   2.820   3.387   2.595
 4615SOL    MW418781   2.840   3.381   2.509
 4616SOL     OW18782   3.662   2.533   2.813
 4616SOL    HW218783   3.751   2.563   2.795
 4616SOL    HW318784   3.642   2.473   2.742
 4616SOL    MW418785   3.671   2.530   2.802
 4617SOL     OW18786   3.513   2.712   3.693
 4617SOL    HW218787   3.568   2.636   3.674
 4617SOL    HW318788   3.515   2.720   3.788
 4617SOL    MW418789   3.521   2.703   3.701
 4618SOL     OW18790   2.563   3.445   1.904
 4618SOL    HW218791   2.503   3.514   1.874
 4618SOL    HW318792   2.508   3.387   1.957
 4618SOL    MW418793   2.547   3.447   1.906
 4619SOL     OW18794   3.001   2.090   2.127
 4619SOL    HW218795   2.934   2.066   2.064
 4619SOL    HW318796   3.066   2.139   2.076
 4619SOL    MW418797   3.001   2.092   2.112
 4620SOL     OW18798   2.808   2.274   3.212
 4620SOL    HW218799   2.727   2.315   3.240
 4620SOL    HW318800   2.855   2.342   3.164
 4620SOL    MW418801   2.803   2.289   3.210
 4621SOL     OW18802   3.068   2.612   2.835
 4621SOL    HW218803   3.081   2.706   2.845
 4621SOL    HW318804   3.029   2.602   2.749
 4621SOL    MW418805   3.064   2.623   2.825
 4622SOL     OW18806   2.520   2.807   2.639
 4622SOL    HW218807   2.431   2.798   2.672
 4622SOL    HW318808   2.524   2.897   2.607
 4622SOL    MW418809   2.509   2.818   2.639
 4623SOL     OW18810   3.319   2.390   2.634
 4623SOL    HW218811   3.264   2.311   2.633
 4623SOL    HW318812   3.301   2.431   2.718
 4623SOL    MW418813   3.309   2.385   2.643
 4624SOL     OW18814   2.290   2.077   3.451
 4624SOL    HW218815   2.211   2.095   3.503
 4624SOL    HW318816   2.285   2.139   3.378
 4624SOL    MW418817   2.280   2.087   3.448
 4625SOL     OW18818   2.938   2.594   2.591
 4625SOL    HW218819   2.875   2.526   2.615
 4625SOL    HW318820   2.958   2.575   2.499
 4625SOL    MW418821   2.932   2.581   2.583
 4626SOL     OW18822   2.194   3.489   2.293
 4626SOL    HW218823   2.155   3.536   2.219
 4626SOL    HW318824   2.128   3.424   2.318
 4626SOL    MW418825   2.181   3.487   2.287
 4627SOL     OW18826   2.686   2.898   2.317
 4627SOL    HW218827   2.688   2.872   2.224
 4627SOL    HW318828   2.744   2.835   2.360
 4627SOL    MW418829   2.694   2.887   2.311
 4628SOL     OW18830   3.239   3.458   3.089
 4628SOL    HW218831   3.164   3.504   3.127
 4628SOL    HW318832   3.221   3.365   3.106
 4628SOL    MW418833   3.228   3.452   3.097
 4629SOL     OW18834   3.243   3.666   2.519
 4629SOL    HW218835   3.186   3.619   2.458
 4629SOL    HW318836   3.329   3.627   2.506
 4629SOL    MW418837   3.246   3.657   2.509
 4630SOL     OW18838   3.196   2.142   2.650
 4630SOL    HW218839   3.224   2.074   2.711
 4630SOL    HW318840   3.110   2.113   2.620
 4630SOL    MW418841   3.189   2.129   2.654
 4631SOL     OW18842   2.001   3.076   2.584
 4631SOL    HW218843   2.065   3.108   2.647
 4631SOL    HW318844   2.050   3.012   2.532
 4631SOL    MW418845   2.016   3.072   2.585
 4632SOL     OW18846   2.501   3.152   3.566
 4632SOL    HW218847   2.549   3.235   3.553
 4632SOL    HW318848   2.558   3.100   3.622
 4632SOL    MW418849   2.515   3.156   3.572
 4633SOL     OW18850   2.077   3.394   3.706
 4633SOL    HW218851   2.133   3.318   3.721
 4633SOL    HW318852   2.026   3.372   3.628
 4633SOL    MW418853   2.077   3.381   3.697
 4634SOL     OW18854   3.176   2.246   1.985
 4634SOL    HW218855   3.149   2.312   1.921
 4634SOL    HW318856   3.246   2.289   2.035
 4634SOL    MW418857   3.181   2.259   1.982
 4635SOL     OW18858   2.844   1.951   1.922
 4635SOL    HW218859   2.900   1.943   1.844
 4635SOL    HW318860   2.821   1.861   1.944
 4635SOL    MW418861   2.849   1.938   1.915
 4636SOL     OW18862   3.349   2.802   2.127
 4636SOL    HW218863   3.316   2.891   2.117
 4636SOL    HW318864   3.314   2.773   2.212
 4636SOL    MW418865   3.339   2.811   2.138
 4637SOL     OW18866   2.962   3.231   3.315
 4637SOL    HW218867   2.873   3.237   3.283
 4637SOL    HW318868   3.006   3.310   3.283
 4637SOL    MW418869   2.957   3.241   3.307
 4638SOL     OW18870   2.255   1.899   3.657
 4638SOL    HW218871   2.183   1.864   3.605
 4638SOL    HW318872   2.313   1.940   3.592
 4638SOL    MW418873   2.253   1.900   3.642
 4639SOL     OW18874   2.279   3.389   2.956
 4639SOL    HW218875   2.324   3.451   3.013
 4639SOL    HW318876   2.186   3.408   2.969
 4639SOL    MW418877   2.272   3.399   2.963
 4640SOL     OW18878   3.719   2.918   3.310
 4640SOL    HW218879   3.634   2.931   3.269
 4640SOL    HW318880   3.699   2.882   3.397
 4640SOL    MW418881   3.706   2.914   3.315
 4641SOL     OW18882   2.701   3.457   3.064
 4641SOL    HW218883   2.725   3.446   2.973
 4641SOL    HW318884   2.624   3.514   3.062
 4641SOL    MW418885   2.693   3.462   3.053
 4642SOL     OW18886   2.343   2.840   1.919
 4642SOL    HW218887   2.266   2.853   1.975
 4642SOL    HW318888   2.307   2.804   1.838
 4642SOL    MW418889   2.329   2.836   1.916
 4643SOL     OW18890   2.996   2.813   2.162
 4643SOL    HW218891   2.906   2.834   2.137
 4643SOL    HW318892   3.023   2.886   2.218
 4643SOL    MW418893   2.988   2.825   2.165
 4644SOL     OW18894   2.496   3.162   2.854
 4644SOL    HW218895   2.489   3.141   2.948
 4644SOL    HW318896   2.414   3.130   2.817
 4644SOL    MW418897   2.484   3.156   2.861
 4645SOL     OW18898   3.360   2.172   3.256
 4645SOL    HW218899   3.307   2.174   3.336
 4645SOL    HW318900   3.345   2.085   3.219
 4645SOL    MW418901   3.352   2.162   3.261
 4646SOL     OW18902   3.696   2.096   3.129
 4646SOL    HW218903   3.677   2.163   3.064
 4646SOL    HW318904   3.753   2.034   3.084
 4646SOL    MW418905   3.700   2.097   3.115
 4647SOL     OW18906   1.942   3.254   3.517
 4647SOL    HW218907   1.986   3.187   3.463
 4647SOL    HW318908   1.857   3.216   3.537
 4647SOL    MW418909   1.937   3.240   3.513
 4648SOL     OW18910   2.625   1.929   2.569
 4648SOL    HW218911   2.554   1.990   2.551
 4648SOL    HW318912   2.676   1.926   2.488
 4648SOL    MW418913   2.621   1.935   2.556
 4649SOL     OW18914   2.383   3.169   2.318
 4649SOL    HW218915   2.376   3.201   2.408
 4649SOL    HW318916   2.293   3.153   2.290
 4649SOL    MW418917   2.371   3.171   2.325
 4650SOL     OW18918   2.978   3.562   3.227
 4650SOL    HW218919   2.898   3.547   3.177
 4650SOL    HW318920   2.985   3.657   3.234
 4650SOL    MW418921   2.969   3.573   3.221
 4651SOL     OW18922   3.092   3.527   2.717
 4651SOL    HW218923   3.139   3.600   2.676
 4651SOL    HW318924   3.013   3.566   2.753
 4651SOL    MW418925   3.087   3.542   2.716
 4652SOL     OW18926   3.500   3.622   2.992
 4652SOL    HW218927   3.543   3.592   3.072
 4652SOL    HW318928   3.419   3.570   2.989
 4652SOL    MW418929   3.495   3.611   3.002
 4653SOL     OW18930   2.585   2.586   3.699
 4653SOL    HW218931   2.655   2.528   3.671
 4653SOL    HW318932   2.528   2.531   3.754
 4653SOL    MW418933   2.587   2.573   3.703
 4654SOL     OW18934   3.372   2.798   3.332
 4654SOL    HW218935   3.377   2.851   3.412
 4654SOL    HW318936   3.334   2.715   3.360
 4654SOL    MW418937   3.368   2.793   3.347
 4655SOL     OW18938   3.012   1.933   3.578
 4655SOL    HW218939   3.007   1.840   3.559
 4655SOL    HW318940   3.095   1.944   3.624
 4655SOL    MW418941   3.020   1.922   3.582
 4656SOL     OW18942   2.386   2.453   2.032
 4656SOL    HW218943   2.352   2.509   2.102
 4656SOL    HW318944   2.457   2.403   2.072
 4656SOL    MW418945   2.392   2.454   2.046
 4657SOL     OW18946   3.482   3.204   2.854
 4657SOL    HW218947   3.517   3.186   2.767
 4657SOL    HW318948   3.387   3.205   2.841
 4657SOL    MW418949   3.474   3.201   2.841
 4658SOL     OW18950   2.911   2.852   3.223
 4658SOL    HW218951   2.954   2.887   3.301
 4658SOL    HW318952   2.894   2.929   3.169
 4658SOL    MW418953   2.914   2.867   3.226
 4659SOL     OW18954   3.442   2.339   2.096
 4659SOL    HW218955   3.434   2.410   2.033
 4659SOL    HW318956   3.460   2.383   2.179
 4659SOL    MW418957   3.443   2.353   2.098
 4660SOL     OW18958   2.302   1.994   2.525
 4660SOL    HW218959   2.352   2.037   2.456
 4660SOL    HW318960   2.217   2.038   2.525
 4660SOL    MW418961   2.299   2.007   2.516
 4661SOL     OW18962   2.061   3.056   3.385
 4661SOL    HW218963   2.089   3.009   3.463
 4661SOL    HW318964   1.982   3.011   3.356
 4661SOL    MW418965   2.054   3.045   3.391
 4662SOL     OW18966   2.569   2.383   3.352
 4662SOL    HW218967   2.541   2.471   3.376
 4662SOL    HW318968   2.538   2.327   3.423
 4662SOL    MW418969   2.561   2.386   3.364
 4663SOL     OW18970   3.111   2.601   2.071
 4663SOL    HW218971   3.158   2.619   1.990
 4663SOL    HW318972   3.077   2.685   2.099
 4663SOL    MW418973   3.113   2.615   2.064
 4664SOL     OW18974   2.224   2.779   2.565
 4664SOL    HW218975   2.282   2.835   2.513
 4664SOL    HW318976   2.268   2.694   2.567
 4664SOL    MW418977   2.237   2.776   2.558
 4665SOL     OW18978   3.364   2.131   2.402
 4665SOL    HW218979   3.286   2.081   2.427
 4665SOL    HW318980   3.335   2.222   2.402
 4665SOL    MW418981   3.350   2.135   2.405
 4666SOL     OW18982   2.950   2.093   2.561
 4666SOL    HW218983   2.970   2.168   2.505
 4666SOL    HW318984   2.930   2.132   2.646
 4666SOL    MW418985   2.951   2.109   2.565
 4667SOL     OW18986   2.846   3.343   1.893
 4667SOL    HW218987   2.873   3.421   1.845
 4667SOL    HW318988   2.753   3.358   1.912
 4667SOL    MW418989   2.837   3.356   1.889
 4668SOL     OW18990   3.710   2.866   3.580
 4668SOL    HW218991   3.623   2.846   3.616
 4668SOL    HW318992   3.764   2.792   3.605
 4668SOL    MW418993   3.705   2.855   3.588
 4669SOL     OW18994   1.931   3.379   2.737
 4669SOL    HW218995   1.963   3.383   2.828
 4669SOL    HW318996   1.836   3.387   2.745
 4669SOL    MW418997   1.923   3.382   2.750
 4670SOL     OW18998   1.886   2.505   2.284
 4670SOL    HW218999   1.826   2.477   2.354
 4670SOL    HW319000   1.960   2.445   2.290
 4670SOL    MW419001   1.888   2.494   2.293
 4671SOL     OW19002   3.454   3.717   3.718
 4671SOL    HW219003   3.499   3.641   3.683
 4671SOL    HW319004   3.492   3.730   3.805
 4671SOL    MW419005   3.464   3.710   3.724
 4672SOL     OW19006   3.054   3.236   2.444
 4672SOL    HW219007   3.077   3.187   2.522
 4672SOL    HW319008   3.135   3.278   2.416
 4672SOL    MW419009   3.067   3.236   2.451
 4673SOL     OW19010   2.312   2.244   3.173
 4673SOL    HW219011   2.345   2.325   3.213
 4673SOL    HW319012   2.285   2.270   3.085
 4673SOL    MW419013   2.311   2.258   3.167
 4674SOL     OW19014   2.266   2.211   2.909
 4674SOL    HW219015   2.296   2.125   2.880
 4674SOL    HW319016   2.171   2.204   2.912
 4674SOL    MW419017   2.258   2.200   2.907
 4675SOL     OW19018   3.095   2.420   3.600
 4675SOL    HW219019   3.147   2.355   3.553
 4675SOL    HW319020   3.053   2.471   3.530
 4675SOL    MW419021   3.096   2.417   3.583
 4676SOL     OW19022   3.194   2.215   3.461
 4676SOL    HW219023   3.101   2.199   3.448
 4676SOL    HW319024   3.220   2.153   3.529
 4676SOL    MW419025   3.184   2.205   3.468
 4677SOL     OW19026   2.409   1.989   2.800
 4677SOL    HW219027   2.419   1.898   2.826
 4677SOL    HW319028   2.365   1.985   2.715
 4677SOL    MW419029   2.405   1.977   2.792
 4678SOL     OW19030   3.560   2.311   2.971
 4678SOL    HW219031   3.493   2.344   3.031
 4678SOL    HW319032   3.603   2.389   2.937
 4678SOL    MW419033   3.558   2.326   2.975
 4679SOL     OW19034   3.738   3.031   2.941
 4679SOL    HW219035   3.731   2.971   2.866
 4679SOL    HW319036   3.664   3.091   2.930
 4679SOL    MW419037   3.728   3.031   2.930
 4680SOL     OW19038   3.120   2.893   2.859
 4680SOL    HW219039   3.134   2.865   2.950
 4680SOL    HW319040   3.206   2.924   2.831
 4680SOL    MW419041   3.133   2.894   2.868
 4681SOL     OW19042   3.203   2.388   3.138
 4681SOL    HW219043   3.224   2.389   3.045
 4681SOL    HW319044   3.248   2.310   3.171
 4681SOL    MW419045   3.210   2.378   3.130
 4682SOL     OW19046   3.696   2.519   3.680
 4682SOL    HW219047   3.733   2.464   3.749
 4682SOL    HW319048   3.721   2.476   3.598
 4682SOL    MW419049   3.703   2.507   3.679
 4683SOL     OW19050   3.243   2.817   3.731
 4683SOL    HW219051   3.309   2.765   3.685
 4683SOL    HW319052   3.263   2.804   3.824
 4683SOL    MW419053   3.254   2.808   3.738
 4684SOL     OW19054   3.194   1.903   2.080
 4684SOL    HW219055   3.268   1.947   2.123
 4684SOL    HW319056   3.118   1.957   2.102
 4684SOL    MW419057   3.194   1.915   2.088
 4685SOL     OW19058   3.254   2.678   2.358
 4685SOL    HW219059   3.169   2.648   2.328
 4685SOL    HW319060   3.246   2.685   2.453
 4685SOL    MW419061   3.242   2.676   2.367
 4686SOL     OW19062   2.330   3.141   3.089
 4686SOL    HW219063   2.342   3.168   3.180
 4686SOL    HW319064   2.311   3.222   3.042
 4686SOL    MW419065   2.329   3.156   3.094
 4687SOL     OW19066   2.614   2.121   2.912
 4687SOL    HW219067   2.587   2.123   3.003
 4687SOL    HW319068   2.544   2.073   2.867
 4687SOL    MW419069   2.602   2.117   2.919
 4688SOL     OW19070   2.468   3.613   3.074
 4688SOL    HW219071   2.520   3.690   3.051
 4688SOL    HW319072   2.477   3.605   3.169
 4688SOL    MW419073   2.477   3.620   3.085
 4689SOL     OW19074   2.444   2.929   3.423
 4689SOL    HW219075   2.481   2.934   3.335
 4689SOL    HW319076   2.483   3.002   3.470
 4689SOL    MW419077   2.454   2.939   3.418
 4690SOL     OW19078   2.624   2.972   3.235
 4690SOL    HW219079   2.683   2.918   3.288
 4690SOL    HW319080   2.639   2.944   3.145
 4690SOL    MW419081   2.634   2.961   3.231
 4691SOL     OW19082   2.627   2.344   2.084
 4691SOL    HW219083   2.700   2.393   2.047
 4691SOL    HW319084   2.643   2.253   2.058
 4691SOL    MW419085   2.639   2.339   2.077
 4692SOL     OW19086   3.435   3.461   3.407
 4692SOL    HW219087   3.477   3.446   3.492
 4692SOL    HW319088   3.426   3.374   3.369
 4692SOL    MW419089   3.439   3.449   3.414
 4693SOL     OW19090   3.095   1.940   2.998
 4693SOL    HW219091   3.150   1.949   2.920
 4693SOL    HW319092   3.150   1.974   3.069
 4693SOL    MW419093   3.109   1.945   2.997
 4694SOL     OW19094   2.102   2.853   2.182
 4694SOL    HW219095   2.039   2.869   2.111
 4694SOL    HW319096   2.049   2.816   2.253
 4694SOL    MW419097   2.087   2.850   2.182
 4695SOL     OW19098   2.458   3.207   2.041
 4695SOL    HW219099   2.473   3.183   2.133
 4695SOL    HW319100   2.366   3.185   2.025
 4695SOL    MW419101   2.448   3.200   2.051
 4696SOL     OW19102   2.997   3.438   2.193
 4696SOL    HW219103   3.005   3.356   2.144
 4696SOL    HW319104   2.916   3.477   2.160
 4696SOL    MW419105   2.987   3.433   2.183
 4697SOL     OW19106   2.256   3.596   2.762
 4697SOL    HW219107   2.260   3.507   2.797
 4697SOL    HW319108   2.282   3.587   2.671
 4697SOL    MW419109   2.259   3.584   2.754
 4698SOL     OW19110   2.873   3.074   3.005
 4698SOL    HW219111   2.805   3.008   3.021
 4698SOL    HW319112   2.891   3.068   2.912
 4698SOL    MW419113   2.866   3.065   2.996
 4699SOL     OW19114   1.962   3.349   3.256
 4699SOL    HW219115   1.952   3.307   3.342
 4699SOL    HW319116   1.883   3.402   3.246
 4699SOL    MW419117   1.951   3.350   3.267
 4700SOL     OW19118   2.866   2.213   2.826
 4700SOL    HW219119   2.796   2.165   2.871
 4700SOL    HW319120   2.898   2.276   2.890
 4700SOL    MW419121   2.861   2.215   2.840
 4701SOL     OW19122   2.517   2.649   3.446
 4701SOL    HW219123   2.510   2.744   3.434
 4701SOL    HW319124   2.526   2.638   3.541
 4701SOL    MW419125   2.518   2.661   3.456
 4702SOL     OW19126   2.238   3.164   3.704
 4702SOL    HW219127   2.310   3.166   3.641
 4702SOL    HW319128   2.208   3.073   3.703
 4702SOL    MW419129   2.243   3.153   3.696
 4703SOL     OW19130   3.322   1.927   3.171
 4703SOL    HW219131   3.393   1.873   3.135
 4703SOL    HW319132   3.321   1.906   3.264
 4703SOL    MW419133   3.331   1.918   3.179
 4704SOL     OW19134   3.522   3.457   3.655
 4704SOL    HW219135   3.495   3.454   3.746
 4704SOL    HW319136   3.618   3.461   3.658
 4704SOL    MW419137   3.532   3.457   3.667
 4705SOL     OW19138   2.333   2.319   2.639
 4705SOL    HW219139   2.404   2.267   2.602
 4705SOL    HW319140   2.319   2.284   2.726
 4705SOL    MW419141   2.341   2.308   2.646
 4706SOL     OW19142   1.888   3.654   3.711
 4706SOL    HW219143   1.938   3.632   3.633
 4706SOL    HW319144   1.896   3.749   3.719
 4706SOL    MW419145   1.896   3.663   3.702
 4707SOL     OW19146   2.649   3.412   2.715
 4707SOL    HW219147   2.577   3.349   2.728
 4707SOL    HW319148   2.610   3.497   2.733
 4707SOL    MW419149   2.633   3.415   2.718
 4708SOL     OW19150   2.969   2.260   2.363
 4708SOL    HW219151   2.991   2.197   2.295
 4708SOL    HW319152   2.874   2.252   2.374
 4708SOL    MW419153   2.959   2.251   2.355
 4709SOL     OW19154   2.054   1.950   2.295
 4709SOL    HW219155   2.125   1.971   2.234
 4709SOL    HW319156   2.008   1.878   2.253
 4709SOL    MW419157   2.058   1.944   2.281
 4710SOL     OW19158   1.885   2.417   3.438
 4710SOL    HW219159   1.949   2.483   3.413
 4710SOL    HW319160   1.804   2.444   3.395
 4710SOL    MW419161   1.883   2.429   3.430
 4711SOL     OW19162   3.623   3.324   2.395
 4711SOL    HW219163   3.593   3.257   2.456
 4711SOL    HW319164   3.717   3.330   2.409
 4711SOL    MW419165   3.631   3.316   2.405
 4712SOL     OW19166   3.179   3.001   2.325
 4712SOL    HW219167   3.151   3.087   2.358
 4712SOL    HW319168   3.207   3.017   2.235
 4712SOL    MW419169   3.179   3.015   2.317
 4713SOL     OW19170   2.841   1.921   2.378
 4713SOL    HW219171   2.878   1.980   2.443
 4713SOL    HW319172   2.818   1.977   2.304
 4713SOL    MW419173   2.842   1.936   2.377
 4714SOL     OW19174   3.694   2.803   2.800
 4714SOL    HW219175   3.685   2.835   2.711
 4714SOL    HW319176   3.647   2.719   2.800
 4714SOL    MW419177   3.687   2.796   2.790
 4715SOL     OW19178   2.070   2.643   3.379
 4715SOL    HW219179   2.091   2.712   3.317
 4715SOL    HW319180   2.150   2.590   3.384
 4715SOL    MW419181   2.083   2.644   3.373
 4716SOL     OW19182   3.606   2.734   2.501
 4716SOL    HW219183   3.700   2.723   2.489
 4716SOL    HW319184   3.582   2.806   2.442
 4716SOL    MW419185   3.616   2.742   2.492
 4717SOL     OW19186   2.055   2.658   3.646
 4717SOL    HW219187   1.981   2.602   3.672
 4717SOL    HW319188   2.050   2.661   3.551
 4717SOL    MW419189   2.044   2.651   3.636
 4718SOL     OW19190   2.221   1.945   3.096
 4718SOL    HW219191   2.264   2.029   3.116
 4718SOL    HW319192   2.294   1.883   3.089
 4718SOL    MW419193   2.236   1.948   3.097
 4719SOL     OW19194   2.262   2.612   2.274
 4719SOL    HW219195   2.262   2.707   2.259
 4719SOL    HW319196   2.339   2.596   2.328
 4719SOL    MW419197   2.272   2.623   2.279
 4720SOL     OW19198   3.038   2.471   3.338
 4720SOL    HW219199   3.074   2.444   3.254
 4720SOL    HW319200   2.951   2.505   3.317
 4720SOL    MW419201   3.032   2.472   3.325
 4721SOL     OW19202   2.021   2.343   2.563
 4721SOL    HW219203   2.083   2.350   2.636
 4721SOL    HW319204   2.021   2.250   2.540
 4721SOL    MW419205   2.029   2.332   2.570
 4722SOL     OW19206   3.568   3.683   2.095
 4722SOL    HW219207   3.635   3.716   2.035
 4722SOL    HW319208   3.525   3.762   2.129
 4722SOL    MW419209   3.570   3.698   2.091
 4723SOL     OW19210   2.703   2.604   3.047
 4723SOL    HW219211   2.661   2.522   3.023
 4723SOL    HW319212   2.704   2.603   3.143
 4723SOL    MW419213   2.696   2.593   3.056
 4724SOL     OW19214   3.374   3.737   3.446
 4724SOL    HW219215   3.377   3.643   3.429
 4724SOL    HW319216   3.397   3.745   3.538
 4724SOL    MW419217   3.377   3.725   3.456
 4725SOL     OW19218   2.507   2.074   3.152
 4725SOL    HW219219   2.438   2.137   3.173
 4725SOL    HW319220   2.534   2.038   3.237
 4725SOL    MW419221   2.501   2.077   3.165
 4726SOL     OW19222   1.890   2.915   2.021
 4726SOL    HW219223   1.859   2.980   2.084
 4726SOL    HW319224   1.839   2.837   2.040
 4726SOL    MW419225   1.880   2.912   2.031
 4727SOL     OW19226   3.302   1.927   2.769
 4727SOL    HW219227   3.390   1.936   2.806
 4727SOL    HW319228   3.312   1.868   2.695
 4727SOL    MW419229   3.316   1.921   2.763
 4728SOL     OW19230   3.334   2.666   2.613
 4728SOL    HW219231   3.414   2.681   2.562
 4728SOL    HW319232   3.327   2.571   2.619
 4728SOL    MW419233   3.343   2.655   2.608
 4729SOL     OW19234   2.474   3.715   1.963
 4729SOL    HW219235   2.379   3.715   1.955
 4729SOL    HW319236   2.490   3.661   2.041
 4729SOL    MW419237   2.464   3.709   1.972
 4730SOL     OW19238   2.784   2.592   3.310
 4730SOL    HW219239   2.853   2.659   3.307
 4730SOL    HW319240   2.717   2.630   3.366
 4730SOL    MW419241   2.785   2.605   3.317
 4731SOL     OW19242   2.202   2.892   3.558
 4731SOL    HW219243   2.156   2.808   3.560
 4731SOL    HW319244   2.259   2.886   3.482
 4731SOL    MW419245   2.204   2.880   3.550
 4732SOL     OW19246   3.319   2.535   1.879
 4732SOL    HW219247   3.247   2.511   1.821
 4732SOL    HW319248   3.385   2.572   1.821
 4732SOL    MW419249   3.318   2.537   1.864
 4733SOL     OW19250   2.453   3.267   2.559
 4733SOL    HW219251   2.518   3.200   2.580
 4733SOL    HW319252   2.505   3.344   2.536
 4733SOL    MW419253   2.468   3.269   2.558
 4734SOL     OW19254   2.714   2.432   2.689
 4734SOL    HW219255   2.654   2.450   2.761
 4734SOL    HW319256   2.748   2.344   2.708
 4734SOL    MW419257   2.710   2.422   2.702
 4735SOL     OW19258   3.655   1.931   3.358
 4735SOL    HW219259   3.576   1.977   3.386
 4735SOL    HW319260   3.690   1.985   3.287
 4735SOL    MW419261   3.649   1.944   3.352
 4736SOL     OW19262   2.939   3.015   2.708
 4736SOL    HW219263   3.031   2.996   2.726
 4736SOL    HW319264   2.912   2.945   2.648
 4736SOL    MW419265   2.947   3.003   2.702
 4737SOL     OW19266   2.732   2.835   2.063
 4737SOL    HW219267   2.718   2.747   2.028
 4737SOL    HW319268   2.683   2.892   2.004
 4737SOL    MW419269   2.724   2.830   2.051
 4738SOL     OW19270   3.213   3.253   2.804
 4738SOL    HW219271   3.186   3.337   2.769
 4738SOL    HW319272   3.173   3.248   2.891
 4738SOL    MW419273   3.206   3.262   2.810
 4739SOL     OW19274   3.132   3.201   3.072
 4739SOL    HW219275   3.143   3.168   3.161
 4739SOL    HW319276   3.051   3.160   3.041
 4739SOL    MW419277   3.122   3.193   3.078
 4740SOL     OW19278   2.145   2.559   2.842
 4740SOL    HW219279   2.095   2.558   2.923
 4740SOL    HW319280   2.165   2.651   2.826
 4740SOL    MW419281   2.141   2.571   2.850
 4741SOL     OW19282   3.212   3.323   3.604
 4741SOL    HW219283   3.212   3.417   3.620
 4741SOL    HW319284   3.257   3.313   3.520
 4741SOL    MW419285   3.218   3.333   3.595
 4742SOL     OW19286   3.451   2.041   2.165
 4742SOL    HW219287   3.444   2.045   2.260
 4742SOL    HW319288   3.463   2.132   2.138
 4742SOL    MW419289   3.452   2.054   2.173
 4743SOL     OW19290   2.740   2.604   2.279
 4743SOL    HW219291   2.720   2.590   2.186
 4743SOL    HW319292   2.833   2.583   2.286
 4743SOL    MW419293   2.750   2.599   2.268
 4744SOL     OW19294   2.067   2.227   3.583
 4744SOL    HW219295   2.024   2.286   3.520
 4744SOL    HW319296   2.135   2.282   3.623
 4744SOL    MW419297   2.071   2.242   3.580
 4745SOL     OW19298   3.179   2.847   3.128
 4745SOL    HW219299   3.242   2.844   3.201
 4745SOL    HW319300   3.095   2.865   3.170
 4745SOL    MW419301   3.175   2.849   3.143
 4746SOL     OW19302   2.723   3.562   2.317
 4746SOL    HW219303   2.781   3.633   2.344
 4746SOL    HW319304   2.746   3.490   2.375
 4746SOL    MW419305   2.734   3.562   2.328
 4747SOL     OW19306   3.518   2.024   2.907
 4747SOL    HW219307   3.563   1.942   2.926
 4747SOL    HW319308   3.538   2.080   2.983
 4747SOL    MW419309   3.528   2.020   2.919
 4748SOL     OW19310   1.966   1.867   3.006
 4748SOL    HW219311   1.957   1.868   2.911
 4748SOL    HW319312   2.060   1.879   3.021
 4748SOL    MW419313   1.978   1.870   2.997
 4749SOL     OW19314   3.603   3.060   2.626
 4749SOL    HW219315   3.582   3.006   2.549
 4749SOL    HW319316   3.699   3.058   2.630
 4749SOL    MW419317   3.612   3.053   2.615
 4750SOL     OW19318   2.295   3.205   3.369
 4750SOL    HW219319   2.216   3.155   3.392
 4750SOL    HW319320   2.365   3.164   3.419
 4750SOL    MW419321   2.293   3.193   3.379
 4751SOL     OW19322   2.179   1.994   2.052
 4751SOL    HW219323   2.108   2.049   2.020
 4751SOL    HW319324   2.221   1.960   1.973
 4751SOL    MW419325   2.175   1.996   2.038
 4752SOL     OW19326   3.303   2.491   2.888
 4752SOL    HW219327   3.226   2.537   2.854
 4752SOL    HW319328   3.360   2.560   2.922
 4752SOL    MW419329   3.300   2.506   2.888
 4753SOL     OW19330   1.935   2.093   1.901
 4753SOL    HW219331   1.902   2.172   1.945
 4753SOL    HW319332   1.990   2.126   1.830
 4753SOL    MW419333   1.938   2.107   1.898
 4754SOL     OW19334   1.969   3.350   2.090
 4754SOL    HW219335   1.986   3.434   2.132
 4754SOL    HW319336   2.004   3.359   2.002
 4754SOL    MW419337   1.974   3.363   2.084
 4755SOL     OW19338   3.241   3.439   2.307
 4755SOL    HW219339   3.304   3.429   2.236
 4755SOL    HW319340   3.158   3.459   2.262
 4755SOL    MW419341   3.238   3.440   2.292
 4756SOL     OW19342   3.604   2.707   3.993
 4756SOL    HW219343   3.645   2.649   4.058
 4756SOL    HW319344   3.511   2.699   4.010
 4756SOL    MW419345   3.598   2.699   4.003
 4757SOL     OW19346   3.470   2.639   4.988
 4757SOL    HW219347   3.425   2.706   5.039
 4757SOL    HW319348   3.558   2.675   4.974
 4757SOL    MW419349   3.476   2.652   4.992
 4758SOL     OW19350   2.398   2.890   4.222
 4758SOL    HW219351   2.488   2.865   4.206
 4758SOL    HW319352   2.394   2.983   4.199
 4758SOL    MW419353   2.410   2.899   4.217
 4759SOL     OW19354   3.514   3.593   4.364
 4759SOL    HW219355   3.526   3.539   4.442
 4759SOL    HW319356   3.551   3.541   4.293
 4759SOL    MW419357   3.520   3.578   4.365
 4760SOL     OW19358   2.893   3.478   5.365
 4760SOL    HW219359   2.934   3.514   5.286
 4760SOL    HW319360   2.928   3.389   5.372
 4760SOL    MW419361   2.904   3.471   5.356
 4761SOL     OW19362   3.450   3.033   4.969
 4761SOL    HW219363   3.371   2.998   4.927
 4761SOL    HW319364   3.477   3.105   4.913
 4761SOL    MW419365   3.443   3.038   4.956
 4762SOL     OW19366   2.682   2.346   4.235
 4762SOL    HW219367   2.657   2.434   4.263
 4762SOL    HW319368   2.679   2.349   4.139
 4762SOL    MW419369   2.678   2.358   4.227
 4763SOL     OW19370   2.124   2.374   4.163
 4763SOL    HW219371   2.156   2.462   4.145
 4763SOL    HW319372   2.112   2.372   4.258
 4763SOL    MW419373   2.127   2.386   4.175
 4764SOL     OW19374   2.202   2.787   5.064
 4764SOL    HW219375   2.265   2.734   5.015
 4764SOL    HW319376   2.183   2.861   5.007
 4764SOL    MW419377   2.208   2.789   5.051
 4765SOL     OW19378   2.523   2.129   4.250
 4765SOL    HW219379   2.581   2.205   4.252
 4765SOL    HW319380   2.458   2.150   4.183
 4765SOL    MW419381   2.522   2.141   4.241
 4766SOL     OW19382   2.610   3.056   4.425
 4766SOL    HW219383   2.690   3.059   4.477
 4766SOL    HW319384   2.638   3.023   4.339
 4766SOL    MW419385   2.624   3.052   4.420
 4767SOL     OW19386   2.635   3.397   5.328
 4767SOL    HW219387   2.719   3.423   5.367
 4767SOL    HW319388   2.659   3.341   5.254
 4767SOL    MW419389   2.649   3.393   5.323
 4768SOL     OW19390   2.387   2.560   4.416
 4768SOL    HW219391   2.372   2.480   4.467
 4768SOL    HW319392   2.469   2.595   4.450
 4768SOL    MW419393   2.395   2.552   4.428
 4769SOL     OW19394   2.724   3.246   5.101
 4769SOL    HW219395   2.688   3.312   5.041
 4769SOL    HW319396   2.652   3.184   5.114
 4769SOL    MW419397   2.710   3.246   5.095
 4770SOL     OW19398   2.529   2.386   4.793
 4770SOL    HW219399   2.435   2.382   4.811
 4770SOL    HW319400   2.559   2.295   4.802
 4770SOL    MW419401   2.520   2.374   4.796
 4771SOL     OW19402   2.275   2.800   4.697
 4771SOL    HW219403   2.230   2.807   4.613
 4771SOL    HW319404   2.255   2.883   4.741
 4771SOL    MW419405   2.267   2.812   4.691
 4772SOL     OW19406   1.972   3.646   4.572
 4772SOL    HW219407   2.061   3.638   4.607
 4772SOL    HW319408   1.936   3.558   4.577
 4772SOL    MW419409   1.979   3.633   4.577
 4773SOL     OW19410   3.237   3.038   3.941
 4773SOL    HW219411   3.155   3.074   3.907
 4773SOL    HW319412   3.305   3.081   3.890
 4773SOL    MW419413   3.235   3.048   3.929
 4774SOL     OW19414   2.236   3.173   4.607
 4774SOL    HW219415   2.212   3.226   4.683
 4774SOL    HW319416   2.292   3.231   4.555
 4774SOL    MW419417   2.240   3.188   4.610
 4775SOL     OW19418   2.798   2.817   4.417
 4775SOL    HW219419   2.712   2.804   4.457
 4775SOL    HW319420   2.851   2.744   4.449
 4775SOL    MW419421   2.794   2.806   4.426
 4776SOL     OW19422   2.206   3.469   5.202
 4776SOL    HW219423   2.114   3.445   5.187
 4776SOL    HW319424   2.250   3.386   5.219
 4776SOL    MW419425   2.200   3.454   5.201
 4777SOL     OW19426   2.789   3.179   4.134
 4777SOL    HW219427   2.766   3.241   4.202
 4777SOL    HW319428   2.746   3.097   4.160
 4777SOL    MW419429   2.781   3.175   4.145
 4778SOL     OW19430   3.662   2.180   4.590
 4778SOL    HW219431   3.599   2.160   4.659
 4778SOL    HW319432   3.652   2.109   4.527
 4778SOL    MW419433   3.652   2.167   4.591
 4779SOL     OW19434   2.286   2.152   4.102
 4779SOL    HW219435   2.260   2.114   4.018
 4779SOL    HW319436   2.223   2.222   4.118
 4779SOL    MW419437   2.275   2.155   4.093
 4780SOL     OW19438   2.121   3.113   4.139
 4780SOL    HW219439   2.069   3.181   4.095
 4780SOL    HW319440   2.118   3.039   4.079
 4780SOL    MW419441   2.113   3.112   4.126
 4781SOL     OW19442   2.783   3.576   3.917
 4781SOL    HW219443   2.738   3.592   4.000
 4781SOL    HW319444   2.714   3.541   3.859
 4781SOL    MW419445   2.769   3.573   3.919
 4782SOL     OW19446   3.718   2.349   3.892
 4782SOL    HW219447   3.627   2.351   3.920
 4782SOL    HW319448   3.763   2.411   3.950
 4782SOL    MW419449   3.711   2.357   3.902
 4783SOL     OW19450   3.463   2.952   4.242
 4783SOL    HW219451   3.373   2.952   4.277
 4783SOL    HW319452   3.456   2.998   4.159
 4783SOL    MW419453   3.450   2.958   4.236
 4784SOL     OW19454   3.263   2.587   5.314
 4784SOL    HW219455   3.332   2.525   5.291
 4784SOL    HW319456   3.188   2.561   5.261
 4784SOL    MW419457   3.263   2.574   5.305
 4785SOL     OW19458   2.004   3.467   4.866
 4785SOL    HW219459   1.987   3.413   4.943
 4785SOL    HW319460   1.992   3.557   4.896
 4785SOL    MW419461   2.001   3.471   4.880
 4786SOL     OW19462   2.999   2.974   5.306
 4786SOL    HW219463   2.984   3.067   5.291
 4786SOL    HW319464   3.094   2.964   5.306
 4786SOL    MW419465   3.008   2.984   5.303
 4787SOL     OW19466   2.795   2.398   5.507
 4787SOL    HW219467   2.885   2.399   5.474
 4787SOL    HW319468   2.754   2.323   5.465
 4787SOL    MW419469   2.801   2.388   5.498
 4788SOL     OW19470   3.370   2.930   4.634
 4788SOL    HW219471   3.373   2.864   4.565
 4788SOL    HW319472   3.455   2.973   4.630
 4788SOL    MW419473   3.382   2.926   4.625
 4789SOL     OW19474   2.990   2.533   4.203
 4789SOL    HW219475   3.016   2.557   4.114
 4789SOL    HW319476   2.972   2.440   4.199
 4789SOL    MW419477   2.992   2.525   4.190
 4790SOL     OW19478   3.655   3.153   4.054
 4790SOL    HW219479   3.611   3.194   4.129
 4790SOL    HW319480   3.712   3.221   4.019
 4790SOL    MW419481   3.657   3.167   4.059
 4791SOL     OW19482   2.575   2.202   5.457
 4791SOL    HW219483   2.585   2.128   5.397
 4791SOL    HW319484   2.611   2.171   5.540
 4791SOL    MW419485   2.581   2.188   5.459
 4792SOL     OW19486   2.311   3.569   4.372
 4792SOL    HW219487   2.343   3.657   4.350
 4792SOL    HW319488   2.264   3.541   4.294
 4792SOL    MW419489   2.310   3.577   4.359
 4793SOL     OW19490   3.695   1.931   4.421
 4793SOL    HW219491   3.749   1.882   4.483
 4793SOL    HW319492   3.638   1.865   4.382
 4793SOL    MW419493   3.695   1.915   4.423
 4794SOL     OW19494   2.027   3.629   3.949
 4794SOL    HW219495   2.056   3.719   3.941
 4794SOL    HW319496   1.977   3.612   3.870
 4794SOL    MW419497   2.025   3.637   3.938
 4795SOL     OW19498   2.814   1.884   4.834
 4795SOL    HW219499   2.773   1.962   4.796
 4795SOL    HW319500   2.908   1.902   4.829
 4795SOL    MW419501   2.820   1.896   4.829
 4796SOL     OW19502   3.431   3.437   3.920
 4796SOL    HW219503   3.479   3.506   3.966
 4796SOL    HW319504   3.352   3.481   3.889
 4796SOL    MW419505   3.426   3.451   3.923
 4797SOL     OW19506   2.829   2.562   3.864
 4797SOL    HW219507   2.831   2.509   3.785
 4797SOL    HW319508   2.917   2.599   3.870
 4797SOL    MW419509   2.841   2.561   3.853
 4798SOL     OW19510   3.443   2.488   4.200
 4798SOL    HW219511   3.482   2.488   4.287
 4798SOL    HW319512   3.384   2.564   4.200
 4798SOL    MW419513   3.440   2.499   4.211
 4799SOL     OW19514   2.760   2.855   5.329
 4799SOL    HW219515   2.737   2.835   5.419
 4799SOL    HW319516   2.845   2.899   5.334
 4799SOL    MW419517   2.767   2.858   5.341
 4800SOL     OW19518   2.840   1.992   5.089
 4800SOL    HW219519   2.846   1.954   5.002
 4800SOL    HW319520   2.829   2.086   5.074
 4800SOL    MW419521   2.841   2.000   5.077
 4801SOL     OW19522   2.929   2.481   4.923
 4801SOL    HW219523   3.004   2.510   4.870
 4801SOL    HW319524   2.861   2.546   4.907
 4801SOL    MW419525   2.930   2.493   4.913
 4802SOL     OW19526   3.479   2.449   5.200
 4802SOL    HW219527   3.460   2.358   5.179
 4802SOL    HW319528   3.457   2.498   5.121
 4802SOL    MW419529   3.474   2.442   5.187
 4803SOL     OW19530   3.621   3.543   5.104
 4803SOL    HW219531   3.549   3.505   5.155
 4803SOL    HW319532   3.638   3.628   5.145
 4803SOL    MW419533   3.615   3.548   5.116
 4804SOL     OW19534   2.926   2.187   5.306
 4804SOL    HW219535   2.892   2.226   5.225
 4804SOL    HW319536   2.904   2.095   5.299
 4804SOL    MW419537   2.919   2.180   5.296
 4805SOL     OW19538   3.335   3.001   5.382
 4805SOL    HW219539   3.417   3.042   5.412
 4805SOL    HW319540   3.298   2.963   5.462
 4805SOL    MW419541   3.341   3.002   5.397
 4806SOL     OW19542   3.630   2.374   4.366
 4806SOL    HW219543   3.719   2.343   4.383
 4806SOL    HW319544   3.573   2.314   4.414
 4806SOL    MW419545   3.633   2.362   4.375
 4807SOL     OW19546   2.056   2.088   4.395
 4807SOL    HW219547   2.047   2.028   4.321
 4807SOL    HW319548   1.989   2.059   4.458
 4807SOL    MW419549   2.046   2.075   4.393
 4808SOL     OW19550   2.999   3.181   3.956
 4808SOL    HW219551   2.949   3.183   4.038
 4808SOL    HW319552   2.933   3.199   3.888
 4808SOL    MW419553   2.985   3.183   3.958
 4809SOL     OW19554   2.003   2.261   4.758
 4809SOL    HW219555   1.975   2.352   4.767
 4809SOL    HW319556   1.940   2.222   4.697
 4809SOL    MW419557   1.990   2.267   4.752
 4810SOL     OW19558   2.462   3.599   4.064
 4810SOL    HW219559   2.383   3.557   4.097
 4810SOL    HW319560   2.528   3.582   4.131
 4810SOL    MW419561   2.461   3.591   4.077
 4811SOL     OW19562   3.590   3.119   5.461
 4811SOL    HW219563   3.640   3.045   5.493
 4811SOL    HW319564   3.536   3.146   5.536
 4811SOL    MW419565   3.590   3.113   5.474
 4812SOL     OW19566   2.598   3.014   3.771
 4812SOL    HW219567   2.520   2.960   3.758
 4812SOL    HW319568   2.569   3.087   3.824
 4812SOL    MW419569   2.584   3.016   3.776
 4813SOL     OW19570   3.724   2.754   4.963
 4813SOL    HW219571   3.740   2.792   4.876
 4813SOL    HW319572   3.758   2.820   5.024
 4813SOL    MW419573   3.731   2.767   4.959
 4814SOL     OW19574   3.516   3.463   4.632
 4814SOL    HW219575   3.545   3.530   4.693
 4814SOL    HW319576   3.497   3.387   4.687
 4814SOL    MW419577   3.518   3.463   4.647
 4815SOL     OW19578   3.179   3.530   3.839
 4815SOL    HW219579   3.105   3.493   3.889
 4815SOL    HW319580   3.187   3.620   3.872
 4815SOL    MW419581   3.170   3.537   3.851
 4816SOL     OW19582   1.987   2.536   4.928
 4816SOL    HW219583   2.049   2.566   4.994
 4816SOL    HW319584   1.921   2.605   4.922
 4816SOL    MW419585   1.986   2.549   4.935
 4817SOL     OW19586   3.403   3.204   3.781
 4817SOL    HW219587   3.350   3.253   3.717
 4817SOL    HW319588   3.434   3.270   3.842
 4817SOL    MW419589   3.401   3.218   3.779
 4818SOL     OW19590   2.628   2.093   3.836
 4818SOL    HW219591   2.576   2.013   3.824
 4818SOL    HW319592   2.715   2.070   3.804
 4818SOL    MW419593   2.631   2.079   3.830
 4819SOL     OW19594   2.082   3.645   5.380
 4819SOL    HW219595   2.056   3.713   5.318
 4819SOL    HW319596   2.130   3.582   5.328
 4819SOL    MW419597   2.084   3.645   5.366
 4820SOL     OW19598   2.134   2.964   4.887
 4820SOL    HW219599   2.187   3.039   4.912
 4820SOL    HW319600   2.053   3.002   4.853
 4820SOL    MW419601   2.130   2.979   4.887
 4821SOL     OW19602   2.674   2.868   4.875
 4821SOL    HW219603   2.702   2.777   4.887
 4821SOL    HW319604   2.603   2.862   4.811
 4821SOL    MW419605   2.667   2.856   4.870
 4822SOL     OW19606   1.989   2.733   4.293
 4822SOL    HW219607   2.080   2.748   4.320
 4822SOL    HW319608   1.992   2.654   4.239
 4822SOL    MW419609   2.001   2.725   4.291
 4823SOL     OW19610   2.225   2.441   5.547
 4823SOL    HW219611   2.172   2.521   5.554
 4823SOL    HW319612   2.295   2.453   5.612
 4823SOL    MW419613   2.227   2.454   5.555
 4824SOL     OW19614   2.611   1.991   5.254
 4824SOL    HW219615   2.588   1.899   5.256
 4824SOL    HW319616   2.697   1.993   5.211
 4824SOL    MW419617   2.618   1.981   5.250
 4825SOL     OW19618   2.295   2.515   5.293
 4825SOL    HW219619   2.375   2.565   5.279
 4825SOL    HW319620   2.286   2.509   5.388
 4825SOL    MW419621   2.304   2.521   5.303
 4826SOL     OW19622   2.616   3.665   4.667
 4826SOL    HW219623   2.705   3.680   4.697
 4826SOL    HW319624   2.611   3.712   4.583
 4826SOL    MW419625   2.626   3.673   4.660
 4827SOL     OW19626   3.272   2.040   5.564
 4827SOL    HW219627   3.328   1.967   5.590
 4827SOL    HW319628   3.242   2.078   5.646
 4827SOL    MW419629   3.276   2.035   5.577
 4828SOL     OW19630   1.997   3.345   4.332
 4828SOL    HW219631   1.969   3.384   4.414
 4828SOL    HW319632   2.017   3.254   4.354
 4828SOL    MW419633   1.995   3.337   4.345
 4829SOL     OW19634   2.830   3.388   4.367
 4829SOL    HW219635   2.913   3.342   4.351
 4829SOL    HW319636   2.820   3.387   4.463
 4829SOL    MW419637   2.840   3.381   4.377
 4830SOL     OW19638   3.662   2.533   4.681
 4830SOL    HW219639   3.751   2.563   4.663
 4830SOL    HW319640   3.642   2.473   4.610
 4830SOL    MW419641   3.671   2.530   4.670
 4831SOL     OW19642   3.513   2.712   5.561
 4831SOL    HW219643   3.568   2.636   5.542
 4831SOL    HW319644   3.515   2.720   5.656
 4831SOL    MW419645   3.521   2.703   5.569
 4832SOL     OW19646   2.563   3.445   3.772
 4832SOL    HW219647   2.503   3.514   3.742
 4832SOL    HW319648   2.508   3.387   3.825
 4832SOL    MW419649   2.547   3.447   3.774
 4833SOL     OW19650   3.001   2.090   3.995
 4833SOL    HW219651   2.934   2.066   3.932
 4833SOL    HW319652   3.066   2.139   3.944
 4833SOL    MW419653   3.001   2.092   3.980
 4834SOL     OW19654   2.808   2.274   5.080
 4834SOL    HW219655   2.727   2.315   5.108
 4834SOL    HW319656   2.855   2.342   5.032
 4834SOL    MW419657   2.803   2.289   5.078
 4835SOL     OW19658   3.068   2.612   4.703
 4835SOL    HW219659   3.081   2.706   4.713
 4835SOL    HW319660   3.029   2.602   4.617
 4835SOL    MW419661   3.064   2.623   4.693
 4836SOL     OW19662   2.520   2.807   4.507
 4836SOL    HW219663   2.431   2.798   4.540
 4836SOL    HW319664   2.524   2.897   4.475
 4836SOL    MW419665   2.509   2.818   4.507
 4837SOL     OW19666   3.319   2.390   4.502
 4837SOL    HW219667   3.264   2.311   4.501
 4837SOL    HW319668   3.301   2.431   4.586
 4837SOL    MW419669   3.309   2.385   4.511
 4838SOL     OW19670   2.290   2.077   5.319
 4838SOL    HW219671   2.211   2.095   5.371
 4838SOL    HW319672   2.285   2.139   5.246
 4838SOL    MW419673   2.280   2.087   5.316
 4839SOL     OW19674   2.938   2.594   4.459
 4839SOL    HW219675   2.875   2.526   4.483
 4839SOL    HW319676   2.958   2.575   4.367
 4839SOL    MW419677   2.932   2.581   4.451
 4840SOL     OW19678   2.194   3.489   4.161
 4840SOL    HW219679   2.155   3.536   4.087
 4840SOL    HW319680   2.128   3.424   4.186
 4840SOL    MW419681   2.181   3.487   4.155
 4841SOL     OW19682   2.686   2.898   4.185
 4841SOL    HW219683   2.688   2.872   4.092
 4841SOL    HW319684   2.744   2.835   4.228
 4841SOL    MW419685   2.694   2.887   4.179
 4842SOL     OW19686   3.239   3.458   4.957
 4842SOL    HW219687   3.164   3.504   4.995
 4842SOL    HW319688   3.221   3.365   4.974
 4842SOL    MW419689   3.228   3.452   4.965
 4843SOL     OW19690   3.243   3.666   4.387
 4843SOL    HW219691   3.186   3.619   4.326
 4843SOL    HW319692   3.329   3.627   4.374
 4843SOL    MW419693   3.246   3.657   4.377
 4844SOL     OW19694   3.196   2.142   4.518
 4844SOL    HW219695   3.224   2.074   4.579
 4844SOL    HW319696   3.110   2.113   4.488
 4844SOL    MW419697   3.189   2.129   4.522
 4845SOL     OW19698   2.001   3.076   4.452
 4845SOL    HW219699   2.065   3.108   4.515
 4845SOL    HW319700   2.050   3.012   4.400
 4845SOL    MW419701   2.016   3.072   4.453
 4846SOL     OW19702   2.501   3.152   5.434
 4846SOL    HW219703   2.549   3.235   5.421
 4846SOL    HW319704   2.558   3.100   5.490
 4846SOL    MW419705   2.515   3.156   5.440
 4847SOL     OW19706   2.077   3.394   5.574
 4847SOL    HW219707   2.133   3.318   5.589
 4847SOL    HW319708   2.026   3.372   5.496
 4847SOL    MW419709   2.077   3.381   5.565
 4848SOL     OW19710   3.176   2.246   3.853
 4848SOL    HW219711   3.149   2.312   3.789
 4848SOL    HW319712   3.246   2.289   3.903
 4848SOL    MW419713   3.181   2.259   3.850
 4849SOL     OW19714   2.844   1.951   3.790
 4849SOL    HW219715   2.900   1.943   3.712
 4849SOL    HW319716   2.821   1.861   3.812
 4849SOL    MW419717   2.849   1.938   3.783
 4850SOL     OW19718   3.349   2.802   3.995
 4850SOL    HW219719   3.316   2.891   3.985
 4850SOL    HW319720   3.314   2.773   4.080
 4850SOL    MW419721   3.339   2.811   4.006
 4851SOL     OW19722   2.962   3.231   5.183
 4851SOL    HW219723   2.873   3.237   5.151
 4851SOL    HW319724   3.006   3.310   5.151
 4851SOL    MW419725   2.957   3.241   5.175
 4852SOL     OW19726   2.255   1.899   5.525
 4852SOL    HW219727   2.183   1.864   5.473
 4852SOL    HW319728   2.313   1.940   5.460
 4852SOL    MW419729   2.253   1.900   5.510
 4853SOL     OW19730   2.279   3.389   4.824
 4853SOL    HW219731   2.324   3.451   4.881
 4853SOL    HW319732   2.186   3.408   4.837
 4853SOL    MW419733   2.272   3.399   4.831
 4854SOL     OW19734   3.719   2.918   5.178
 4854SOL    HW219735   3.634   2.931   5.137
 4854SOL    HW319736   3.699   2.882   5.265
 4854SOL    MW419737   3.706   2.914   5.183
 4855SOL     OW19738   2.701   3.457   4.932
 4855SOL    HW219739   2.725   3.446   4.841
 4855SOL    HW319740   2.624   3.514   4.930
 4855SOL    MW419741   2.693   3.462   4.921
 4856SOL     OW19742   2.343   2.840   3.787
 4856SOL    HW219743   2.266   2.853   3.843
 4856SOL    HW319744   2.307   2.804   3.706
 4856SOL    MW419745   2.329   2.836   3.784
 4857SOL     OW19746   2.996   2.813   4.030
 4857SOL    HW219747   2.906   2.834   4.005
 4857SOL    HW319748   3.023   2.886   4.086
 4857SOL    MW419749   2.988   2.825   4.033
 4858SOL     OW19750   2.496   3.162   4.722
 4858SOL    HW219751   2.489   3.141   4.816
 4858SOL    HW319752   2.414   3.130   4.685
 4858SOL    MW419753   2.484   3.156   4.729
 4859SOL     OW19754   3.360   2.172   5.124
 4859SOL    HW219755   3.307   2.174   5.204
 4859SOL    HW319756   3.345   2.085   5.087
 4859SOL    MW419757   3.352   2.162   5.129
 4860SOL     OW19758   3.696   2.096   4.997
 4860SOL    HW219759   3.677   2.163   4.932
 4860SOL    HW319760   3.753   2.034   4.952
 4860SOL    MW419761   3.700   2.097   4.983
 4861SOL     OW19762   1.942   3.254   5.385
 4861SOL    HW219763   1.986   3.187   5.331
 4861SOL    HW319764   1.857   3.216   5.405
 4861SOL    MW419765   1.937   3.240   5.381
 4862SOL     OW19766   2.625   1.929   4.437
 4862SOL    HW219767   2.554   1.990   4.419
 4862SOL    HW319768   2.676   1.926   4.356
 4862SOL    MW419769   2.621   1.935   4.424
 4863SOL     OW19770   2.383   3.169   4.186
 4863SOL    HW219771   2.376   3.201   4.276
 4863SOL    HW319772   2.293   3.153   4.158
 4863SOL    MW419773   2.371   3.171   4.193
 4864SOL     OW19774   2.978   3.562   5.095
 4864SOL    HW219775   2.898   3.547   5.045
 4864SOL    HW319776   2.985   3.657   5.102
 4864SOL    MW419777   2.969   3.573   5.089
 4865SOL     OW19778   3.092   3.527   4.585
 4865SOL    HW219779   3.139   3.600   4.544
 4865SOL    HW319780   3.013   3.566   4.621
 4865SOL    MW419781   3.087   3.542   4.584
 4866SOL     OW19782   3.500   3.622   4.860
 4866SOL    HW219783   3.543   3.592   4.940
 4866SOL    HW319784   3.419   3.570   4.857
 4866SOL    MW419785   3.495   3.611   4.870
 4867SOL     OW19786   2.585   2.586   5.567
 4867SOL    HW219787   2.655   2.528   5.539
 4867SOL    HW319788   2.528   2.531   5.622
 4867SOL    MW419789   2.587   2.573   5.571
 4868SOL     OW19790   3.372   2.798   5.200
 4868SOL    HW219791   3.377   2.851   5.280
 4868SOL    HW319792   3.334   2.715   5.228
 4868SOL    MW419793   3.368   2.793   5.215
 4869SOL     OW19794   3.012   1.933   5.446
 4869SOL    HW219795   3.007   1.840   5.427
 4869SOL    HW319796   3.095   1.944   5.492
 4869SOL    MW419797   3.020   1.922   5.450
 4870SOL     OW19798   2.386   2.453   3.900
 4870SOL    HW219799   2.352   2.509   3.970
 4870SOL    HW319800   2.457   2.403   3.940
 4870SOL    MW419801   2.392   2.454   3.914
 4871SOL     OW19802   3.482   3.204   4.722
 4871SOL    HW219803   3.517   3.186   4.635
 4871SOL    HW319804   3.387   3.205   4.709
 4871SOL    MW419805   3.474   3.201   4.709
 4872SOL     OW19806   2.911   2.852   5.091
 4872SOL    HW219807   2.954   2.887   5.169
 4872SOL    HW319808   2.894   2.929   5.037
 4872SOL    MW419809   2.914   2.867   5.094
 4873SOL     OW19810   3.442   2.339   3.964
 4873SOL    HW219811   3.434   2.410   3.901
 4873SOL    HW319812   3.460   2.383   4.047
 4873SOL    MW419813   3.443   2.353   3.966
 4874SOL     OW19814   2.302   1.994   4.393
 4874SOL    HW219815   2.352   2.037   4.324
 4874SOL    HW319816   2.217   2.038   4.393
 4874SOL    MW419817   2.299   2.007   4.384
 4875SOL     OW19818   2.061   3.056   5.253
 4875SOL    HW219819   2.089   3.009   5.331
 4875SOL    HW319820   1.982   3.011   5.224
 4875SOL    MW419821   2.054   3.045   5.259
 4876SOL     OW19822   2.569   2.383   5.220
 4876SOL    HW219823   2.541   2.471   5.244
 4876SOL    HW319824   2.538   2.327   5.291
 4876SOL    MW419825   2.561   2.386   5.232
 4877SOL     OW19826   3.111   2.601   3.939
 4877SOL    HW219827   3.158   2.619   3.858
 4877SOL    HW319828   3.077   2.685   3.967
 4877SOL    MW419829   3.113   2.615   3.932
 4878SOL     OW19830   2.224   2.779   4.433
 4878SOL    HW219831   2.282   2.835   4.381
 4878SOL    HW319832   2.268   2.694   4.435
 4878SOL    MW419833   2.237   2.776   4.426
 4879SOL     OW19834   3.364   2.131   4.270
 4879SOL    HW219835   3.286   2.081   4.295
 4879SOL    HW319836   3.335   2.222   4.270
 4879SOL    MW419837   3.350   2.135   4.273
 4880SOL     OW19838   2.950   2.093   4.429
 4880SOL    HW219839   2.970   2.168   4.373
 4880SOL    HW319840   2.930   2.132   4.514
 4880SOL    MW419841   2.951   2.109   4.433
 4881SOL     OW19842   2.846   3.343   3.761
 4881SOL    HW219843   2.873   3.421   3.713
 4881SOL    HW319844   2.753   3.358   3.780
 4881SOL    MW419845   2.837   3.356   3.757
 4882SOL     OW19846   3.710   2.866   5.448
 4882SOL    HW219847   3.623   2.846   5.484
 4882SOL    HW319848   3.764   2.792   5.473
 4882SOL    MW419849   3.705   2.855   5.456
 4883SOL     OW19850   1.931   3.379   4.605
 4883SOL    HW219851   1.963   3.383   4.696
 4883SOL    HW319852   1.836   3.387   4.613
 4883SOL    MW419853   1.923   3.382   4.618
 4884SOL     OW19854   1.886   2.505   4.152
 4884SOL    HW219855   1.826   2.477   4.222
 4884SOL    HW319856   1.960   2.445   4.158
 4884SOL    MW419857   1.888   2.494   4.161
 4885SOL     OW19858   3.454   3.717   5.586
 4885SOL    HW219859   3.499   3.641   5.551
 4885SOL    HW319860   3.492   3.730   5.673
 4885SOL    MW419861   3.464   3.710   5.592
 4886SOL     OW19862   3.054   3.236   4.312
 4886SOL    HW219863   3.077   3.187   4.390
 4886SOL    HW319864   3.135   3.278   4.284
 4886SOL    MW419865   3.067   3.236   4.319
 4887SOL     OW19866   2.312   2.244   5.041
 4887SOL    HW219867   2.345   2.325   5.081
 4887SOL    HW319868   2.285   2.270   4.953
 4887SOL    MW419869   2.311   2.258   5.035
 4888SOL     OW19870   2.266   2.211   4.777
 4888SOL    HW219871   2.296   2.125   4.748
 4888SOL    HW319872   2.171   2.204   4.780
 4888SOL    MW419873   2.258   2.200   4.775
 4889SOL     OW19874   3.095   2.420   5.468
 4889SOL    HW219875   3.147   2.355   5.421
 4889SOL    HW319876   3.053   2.471   5.398
 4889SOL    MW419877   3.096   2.417   5.451
 4890SOL     OW19878   3.194   2.215   5.329
 4890SOL    HW219879   3.101   2.199   5.316
 4890SOL    HW319880   3.220   2.153   5.397
 4890SOL    MW419881   3.184   2.205   5.336
 4891SOL     OW19882   2.409   1.989   4.668
 4891SOL    HW219883   2.419   1.898   4.694
 4891SOL    HW319884   2.365   1.985   4.583
 4891SOL    MW419885   2.405   1.977   4.660
 4892SOL     OW19886   2.503   3.604   5.214
 4892SOL    HW219887   2.420   3.589   5.259
 4892SOL    HW319888   2.562   3.537   5.249
 4892SOL    MW419889   2.501   3.594   5.224
 4893SOL     OW19890   3.560   2.311   4.839
 4893SOL    HW219891   3.493   2.344   4.899
 4893SOL    HW319892   3.603   2.389   4.805
 4893SOL    MW419893   3.558   2.326   4.843
 4894SOL     OW19894   3.738   3.031   4.809
 4894SOL    HW219895   3.731   2.971   4.734
 4894SOL    HW319896   3.664   3.091   4.798
 4894SOL    MW419897   3.728   3.031   4.798
 4895SOL     OW19898   3.120   2.893   4.727
 4895SOL    HW219899   3.134   2.865   4.818
 4895SOL    HW319900   3.206   2.924   4.699
 4895SOL    MW419901   3.133   2.894   4.736
 4896SOL     OW19902   3.203   2.388   5.006
 4896SOL    HW219903   3.224   2.389   4.913
 4896SOL    HW319904   3.248   2.310   5.039
 4896SOL    MW419905   3.210   2.378   4.998
 4897SOL     OW19906   3.696   2.519   5.548
 4897SOL    HW219907   3.733   2.464   5.617
 4897SOL    HW319908   3.721   2.476   5.466
 4897SOL    MW419909   3.703   2.507   5.547
 4898SOL     OW19910   3.243   2.817   5.600
 4898SOL    HW219911   3.309   2.765   5.554
 4898SOL    HW319912   3.263   2.804   5.693
 4898SOL    MW419913   3.254   2.808   5.607
 4899SOL     OW19914   3.194   1.903   3.948
 4899SOL    HW219915   3.268   1.947   3.991
 4899SOL    HW319916   3.118   1.957   3.970
 4899SOL    MW419917   3.194   1.915   3.956
 4900SOL     OW19918   3.254   2.678   4.226
 4900SOL    HW219919   3.169   2.648   4.196
 4900SOL    HW319920   3.246   2.685   4.321
 4900SOL    MW419921   3.242   2.676   4.235
 4901SOL     OW19922   2.330   3.141   4.957
 4901SOL    HW219923   2.342   3.168   5.048
 4901SOL    HW319924   2.311   3.222   4.910
 4901SOL    MW419925   2.329   3.156   4.962
 4902SOL     OW19926   2.614   2.121   4.780
 4902SOL    HW219927   2.587   2.123   4.871
 4902SOL    HW319928   2.544   2.073   4.735
 4902SOL    MW419929   2.602   2.117   4.787
 4903SOL     OW19930   2.468   3.613   4.942
 4903SOL    HW219931   2.520   3.690   4.919
 4903SOL    HW319932   2.477   3.605   5.037
 4903SOL    MW419933   2.477   3.620   4.953
 4904SOL     OW19934   3.370   3.198   5.174
 4904SOL    HW219935   3.355   3.127   5.237
 4904SOL    HW319936   3.416   3.156   5.102
 4904SOL    MW419937   3.376   3.182   5.174
 4905SOL     OW19938   2.444   2.929   5.291
 4905SOL    HW219939   2.481   2.934   5.203
 4905SOL    HW319940   2.483   3.002   5.338
 4905SOL    MW419941   2.454   2.939   5.286
 4906SOL     OW19942   2.624   2.972   5.103
 4906SOL    HW219943   2.683   2.918   5.156
 4906SOL    HW319944   2.639   2.944   5.013
 4906SOL    MW419945   2.634   2.961   5.099
 4907SOL     OW19946   2.627   2.344   3.952
 4907SOL    HW219947   2.700   2.393   3.915
 4907SOL    HW319948   2.643   2.253   3.926
 4907SOL    MW419949   2.639   2.339   3.945
 4908SOL     OW19950   3.435   3.461   5.275
 4908SOL    HW219951   3.477   3.446   5.360
 4908SOL    HW319952   3.426   3.374   5.237
 4908SOL    MW419953   3.439   3.449   5.282
 4909SOL     OW19954   3.095   1.940   4.866
 4909SOL    HW219955   3.150   1.949   4.788
 4909SOL    HW319956   3.150   1.974   4.937
 4909SOL    MW419957   3.109   1.945   4.865
 4910SOL     OW19958   2.102   2.853   4.050
 4910SOL    HW219959   2.039   2.869   3.979
 4910SOL    HW319960   2.049   2.816   4.121
 4910SOL    MW419961   2.087   2.850   4.050
 4911SOL     OW19962   2.458   3.207   3.909
 4911SOL    HW219963   2.473   3.183   4.001
 4911SOL    HW319964   2.366   3.185   3.893
 4911SOL    MW419965   2.448   3.200   3.919
 4912SOL     OW19966   2.997   3.438   4.061
 4912SOL    HW219967   3.005   3.356   4.012
 4912SOL    HW319968   2.916   3.477   4.028
 4912SOL    MW419969   2.987   3.433   4.051
 4913SOL     OW19970   2.256   3.596   4.630
 4913SOL    HW219971   2.260   3.507   4.665
 4913SOL    HW319972   2.282   3.587   4.539
 4913SOL    MW419973   2.259   3.584   4.622
 4914SOL     OW19974   2.873   3.074   4.873
 4914SOL    HW219975   2.805   3.008   4.889
 4914SOL    HW319976   2.891   3.068   4.780
 4914SOL    MW419977   2.866   3.065   4.864
 4915SOL     OW19978   1.962   3.349   5.124
 4915SOL    HW219979   1.952   3.307   5.210
 4915SOL    HW319980   1.883   3.402   5.114
 4915SOL    MW419981   1.951   3.350   5.135
 4916SOL     OW19982   2.866   2.213   4.694
 4916SOL    HW219983   2.796   2.165   4.739
 4916SOL    HW319984   2.898   2.276   4.758
 4916SOL    MW419985   2.861   2.215   4.708
 4917SOL     OW19986   2.517   2.649   5.314
 4917SOL    HW219987   2.510   2.744   5.302
 4917SOL    HW319988   2.526   2.638   5.409
 4917SOL    MW419989   2.518   2.661   5.324
 4918SOL     OW19990   2.238   3.164   5.572
 4918SOL    HW219991   2.310   3.166   5.509
 4918SOL    HW319992   2.208   3.073   5.571
 4918SOL    MW419993   2.243   3.153   5.564
 4919SOL     OW19994   3.522   3.457   5.523
 4919SOL    HW219995   3.495   3.454   5.614
 4919SOL    HW319996   3.618   3.461   5.526
 4919SOL    MW419997   3.532   3.457   5.535
 4920SOL     OW19998   2.333   2.319   4.507
 4920SOL    HW219999   2.404   2.267   4.470
 4920SOL    HW320000   2.319   2.284   4.594
 4920SOL    MW420001   2.341   2.308   4.514
 4921SOL     OW20002   1.888   3.654   5.579
 4921SOL    HW220003   1.938   3.632   5.501
 4921SOL    HW320004   1.896   3.749   5.587
 4921SOL    MW420005   1.896   3.663   5.570
 4922SOL     OW20006   2.649   3.412   4.583
 4922SOL    HW220007   2.577   3.349   4.596
 4922SOL    HW320008   2.610   3.497   4.601
 4922SOL    MW420009   2.633   3.415   4.586
 4923SOL     OW20010   2.969   2.260   4.231
 4923SOL    HW220011   2.991   2.197   4.163
 4923SOL    HW320012   2.874   2.252   4.242
 4923SOL    MW420013   2.959   2.251   4.223
 4924SOL     OW20014   2.054   1.950   4.163
 4924SOL    HW220015   2.125   1.971   4.102
 4924SOL    HW320016   2.008   1.878   4.121
 4924SOL    MW420017   2.058   1.944   4.149
 4925SOL     OW20018   1.885   2.417   5.306
 4925SOL    HW220019   1.949   2.483   5.281
 4925SOL    HW320020   1.804   2.444   5.263
 4925SOL    MW420021   1.883   2.429   5.298
 4926SOL     OW20022   3.623   3.324   4.263
 4926SOL    HW220023   3.593   3.257   4.324
 4926SOL    HW320024   3.717   3.330   4.277
 4926SOL    MW420025   3.631   3.316   4.273
 4927SOL     OW20026   3.179   3.001   4.193
 4927SOL    HW220027   3.151   3.087   4.226
 4927SOL    HW320028   3.207   3.017   4.103
 4927SOL    MW420029   3.179   3.015   4.185
 4928SOL     OW20030   2.841   1.921   4.246
 4928SOL    HW220031   2.878   1.980   4.311
 4928SOL    HW320032   2.818   1.977   4.172
 4928SOL    MW420033   2.842   1.936   4.245
 4929SOL     OW20034   3.694   2.803   4.668
 4929SOL    HW220035   3.685   2.835   4.579
 4929SOL    HW320036   3.647   2.719   4.668
 4929SOL    MW420037   3.687   2.796   4.658
 4930SOL     OW20038   2.070   2.643   5.247
 4930SOL    HW220039   2.091   2.712   5.185
 4930SOL    HW320040   2.150   2.590   5.252
 4930SOL    MW420041   2.083   2.644   5.241
 4931SOL     OW20042   3.606   2.734   4.369
 4931SOL    HW220043   3.700   2.723   4.357
 4931SOL    HW320044   3.582   2.806   4.310
 4931SOL    MW420045   3.616   2.742   4.360
 4932SOL     OW20046   2.055   2.658   5.514
 4932SOL    HW220047   1.981   2.602   5.540
 4932SOL    HW320048   2.050   2.661   5.419
 4932SOL    MW420049   2.044   2.651   5.504
 4933SOL     OW20050   2.221   1.945   4.964
 4933SOL    HW220051   2.264   2.029   4.984
 4933SOL    HW320052   2.294   1.883   4.957
 4933SOL    MW420053   2.236   1.948   4.965
 4934SOL     OW20054   2.262   2.612   4.142
 4934SOL    HW220055   2.262   2.707   4.127
 4934SOL    HW320056   2.339   2.596   4.196
 4934SOL    MW420057   2.272   2.623   4.147
 4935SOL     OW20058   3.038   2.471   5.206
 4935SOL    HW220059   3.074   2.444   5.122
 4935SOL    HW320060   2.951   2.505   5.185
 4935SOL    MW420061   3.032   2.472   5.193
 4936SOL     OW20062   2.021   2.343   4.431
 4936SOL    HW220063   2.083   2.350   4.504
 4936SOL    HW320064   2.021   2.250   4.408
 4936SOL    MW420065   2.029   2.332   4.438
 4937SOL     OW20066   3.568   3.683   3.963
 4937SOL    HW220067   3.635   3.716   3.903
 4937SOL    HW320068   3.525   3.762   3.997
 4937SOL    MW420069   3.570   3.698   3.959
 4938SOL     OW20070   2.703   2.604   4.915
 4938SOL    HW220071   2.661   2.522   4.891
 4938SOL    HW320072   2.704   2.603   5.011
 4938SOL    MW420073   2.696   2.593   4.924
 4939SOL     OW20074   3.374   3.737   5.314
 4939SOL    HW220075   3.377   3.643   5.297
 4939SOL    HW320076   3.397   3.745   5.406
 4939SOL    MW420077   3.377   3.725   5.324
 4940SOL     OW20078   2.507   2.074   5.020
 4940SOL    HW220079   2.438   2.137   5.041
 4940SOL    HW320080   2.534   2.038   5.105
 4940SOL    MW420081   2.501   2.077   5.033
 4941SOL     OW20082   1.890   2.915   3.889
 4941SOL    HW220083   1.859   2.980   3.952
 4941SOL    HW320084   1.839   2.837   3.908
 4941SOL    MW420085   1.880   2.912   3.899
 4942SOL     OW20086   3.302   1.927   4.637
 4942SOL    HW220087   3.390   1.936   4.674
 4942SOL    HW320088   3.312   1.868   4.563
 4942SOL    MW420089   3.316   1.921   4.631
 4943SOL     OW20090   3.334   2.666   4.481
 4943SOL    HW220091   3.414   2.681   4.430
 4943SOL    HW320092   3.327   2.571   4.487
 4943SOL    MW420093   3.343   2.655   4.476
 4944SOL     OW20094   2.474   3.715   3.831
 4944SOL    HW220095   2.379   3.715   3.823
 4944SOL    HW320096   2.490   3.661   3.909
 4944SOL    MW420097   2.464   3.709   3.840
 4945SOL     OW20098   2.784   2.592   5.178
 4945SOL    HW220099   2.853   2.659   5.175
 4945SOL    HW320100   2.717   2.630   5.234
 4945SOL    MW420101   2.785   2.605   5.185
 4946SOL     OW20102   2.202   2.892   5.426
 4946SOL    HW220103   2.156   2.808   5.428
 4946SOL    HW320104   2.259   2.886   5.350
 4946SOL    MW420105   2.204   2.880   5.418
 4947SOL     OW20106   3.319   2.535   3.747
 4947SOL    HW220107   3.247   2.511   3.689
 4947SOL    HW320108   3.385   2.572   3.689
 4947SOL    MW420109   3.318   2.537   3.732
 4948SOL     OW20110   2.453   3.267   4.427
 4948SOL    HW220111   2.518   3.200   4.448
 4948SOL    HW320112   2.505   3.344   4.404
 4948SOL    MW420113   2.468   3.269   4.426
 4949SOL     OW20114   2.714   2.432   4.557
 4949SOL    HW220115   2.654   2.450   4.629
 4949SOL    HW320116   2.748   2.344   4.576
 4949SOL    MW420117   2.710   2.422   4.570
 4950SOL     OW20118   3.655   1.931   5.226
 4950SOL    HW220119   3.576   1.977   5.254
 4950SOL    HW320120   3.690   1.985   5.155
 4950SOL    MW420121   3.649   1.944   5.220
 4951SOL     OW20122   2.939   3.015   4.576
 4951SOL    HW220123   3.031   2.996   4.594
 4951SOL    HW320124   2.912   2.945   4.516
 4951SOL    MW420125   2.947   3.003   4.570
 4952SOL     OW20126   2.732   2.835   3.931
 4952SOL    HW220127   2.718   2.747   3.896
 4952SOL    HW320128   2.683   2.892   3.872
 4952SOL    MW420129   2.724   2.830   3.919
 4953SOL     OW20130   3.213   3.253   4.672
 4953SOL    HW220131   3.186   3.337   4.637
 4953SOL    HW320132   3.173   3.248   4.759
 4953SOL    MW420133   3.206   3.262   4.678
 4954SOL     OW20134   3.132   3.201   4.940
 4954SOL    HW220135   3.143   3.168   5.029
 4954SOL    HW320136   3.051   3.160   4.909
 4954SOL    MW420137   3.122   3.193   4.946
 4955SOL     OW20138   2.145   2.559   4.710
 4955SOL    HW220139   2.095   2.558   4.791
 4955SOL    HW320140   2.165   2.651   4.694
 4955SOL    MW420141   2.141   2.571   4.718
 4956SOL     OW20142   3.212   3.323   5.472
 4956SOL    HW220143   3.212   3.417   5.488
 4956SOL    HW320144   3.257   3.313   5.388
 4956SOL    MW420145   3.218   3.333   5.463
 4957SOL     OW20146   3.451   2.041   4.033
 4957SOL    HW220147   3.444   2.045   4.128
 4957SOL    HW320148   3.463   2.132   4.006
 4957SOL    MW420149   3.452   2.054   4.041
 4958SOL     OW20150   2.740   2.604   4.147
 4958SOL    HW220151   2.720   2.590   4.054
 4958SOL    HW320152   2.833   2.583   4.154
 4958SOL    MW420153   2.750   2.599   4.136
 4959SOL     OW20154   2.067   2.227   5.451
 4959SOL    HW220155   2.024   2.286   5.388
 4959SOL    HW320156   2.135   2.282   5.491
 4959SOL    MW420157   2.071   2.242   5.448
 4960SOL     OW20158   3.179   2.847   4.996
 4960SOL    HW220159   3.242   2.844   5.069
 4960SOL    HW320160   3.095   2.865   5.038
 4960SOL    MW420161   3.175   2.849   5.011
 4961SOL     OW20162   2.723   3.562   4.185
 4961SOL    HW220163   2.781   3.633   4.212
 4961SOL    HW320164   2.746   3.490   4.243
 4961SOL    MW420165   2.734   3.562   4.196
 4962SOL     OW20166   3.518   2.024   4.775
 4962SOL    HW220167   3.563   1.942   4.794
 4962SOL    HW320168   3.538   2.080   4.851
 4962SOL    MW420169   3.528   2.020   4.787
 4963SOL     OW20170   1.966   1.867   4.874
 4963SOL    HW220171   1.957   1.868   4.779
 4963SOL    HW320172   2.060   1.879   4.889
 4963SOL    MW420173   1.978   1.870   4.865
 4964SOL     OW20174   3.603   3.060   4.494
 4964SOL    HW220175   3.582   3.006   4.417
 4964SOL    HW320176   3.699   3.058   4.498
 4964SOL    MW420177   3.612   3.053   4.483
 4965SOL     OW20178   2.295   3.205   5.237
 4965SOL    HW220179   2.216   3.155   5.260
 4965SOL    HW320180   2.365   3.164   5.287
 4965SOL    MW420181   2.293   3.193   5.247
 4966SOL     OW20182   2.179   1.994   3.920
 4966SOL    HW220183   2.108   2.049   3.888
 4966SOL    HW320184   2.221   1.960   3.841
 4966SOL    MW420185   2.175   1.996   3.906
 4967SOL     OW20186   3.303   2.491   4.756
 4967SOL    HW220187   3.226   2.537   4.722
 4967SOL    HW320188   3.360   2.560   4.790
 4967SOL    MW420189   3.300   2.506   4.756
 4968SOL     OW20190   1.935   2.093   3.769
 4968SOL    HW220191   1.902   2.172   3.813
 4968SOL    HW320192   1.990   2.126   3.698
 4968SOL    MW420193   1.938   2.107   3.766
 4969SOL     OW20194   1.969   3.350   3.958
 4969SOL    HW220195   1.986   3.434   4.000
 4969SOL    HW320196   2.004   3.359   3.870
 4969SOL    MW420197   1.974   3.363   3.952
 4970SOL     OW20198   3.241   3.439   4.175
 4970SOL    HW220199   3.304   3.429   4.104
 4970SOL    HW320200   3.158   3.459   4.130
 4970SOL    MW420201   3.238   3.440   4.160
 4971SOL     OW20202   3.604   2.707   5.862
 4971SOL    HW220203   3.645   2.649   5.927
 4971SOL    HW320204   3.511   2.699   5.879
 4971SOL    MW420205   3.598   2.699   5.872
 4972SOL     OW20206   3.470   2.639   6.857
 4972SOL    HW220207   3.425   2.706   6.908
 4972SOL    HW320208   3.558   2.675   6.843
 4972SOL    MW420209   3.476   2.652   6.861
 4973SOL     OW20210   2.398   2.890   6.091
 4973SOL    HW220211   2.488   2.865   6.075
 4973SOL    HW320212   2.394   2.983   6.068
 4973SOL    MW420213   2.410   2.899   6.086
 4974SOL     OW20214   3.514   3.593   6.233
 4974SOL    HW220215   3.526   3.539   6.311
 4974SOL    HW320216   3.551   3.541   6.162
 4974SOL    MW420217   3.520   3.578   6.234
 4975SOL     OW20218   2.893   3.478   7.234
 4975SOL    HW220219   2.934   3.514   7.155
 4975SOL    HW320220   2.928   3.389   7.241
 4975SOL    MW420221   2.904   3.471   7.225
 4976SOL     OW20222   3.450   3.033   6.838
 4976SOL    HW220223   3.371   2.998   6.796
 4976SOL    HW320224   3.477   3.105   6.782
 4976SOL    MW420225   3.443   3.038   6.825
 4977SOL     OW20226   2.682   2.346   6.104
 4977SOL    HW220227   2.657   2.434   6.132
 4977SOL    HW320228   2.679   2.349   6.008
 4977SOL    MW420229   2.678   2.358   6.096
 4978SOL     OW20230   2.124   2.374   6.032
 4978SOL    HW220231   2.156   2.462   6.014
 4978SOL    HW320232   2.112   2.372   6.127
 4978SOL    MW420233   2.127   2.386   6.044
 4979SOL     OW20234   2.202   2.787   6.933
 4979SOL    HW220235   2.265   2.734   6.884
 4979SOL    HW320236   2.183   2.861   6.876
 4979SOL    MW420237   2.208   2.789   6.920
 4980SOL     OW20238   2.523   2.129   6.119
 4980SOL    HW220239   2.581   2.205   6.121
 4980SOL    HW320240   2.458   2.150   6.052
 4980SOL    MW420241   2.522   2.141   6.110
 4981SOL     OW20242   2.610   3.056   6.294
 4981SOL    HW220243   2.690   3.059   6.346
 4981SOL    HW320244   2.638   3.023   6.208
 4981SOL    MW420245   2.624   3.052   6.289
 4982SOL     OW20246   2.635   3.397   7.197
 4982SOL    HW220247   2.719   3.423   7.236
 4982SOL    HW320248   2.659   3.341   7.123
 4982SOL    MW420249   2.649   3.393   7.192
 4983SOL     OW20250   2.387   2.560   6.285
 4983SOL    HW220251   2.372   2.480   6.336
 4983SOL    HW320252   2.469   2.595   6.319
 4983SOL    MW420253   2.395   2.552   6.297
 4984SOL     OW20254   2.724   3.246   6.970
 4984SOL    HW220255   2.688   3.312   6.910
 4984SOL    HW320256   2.652   3.184   6.983
 4984SOL    MW420257   2.710   3.246   6.964
 4985SOL     OW20258   2.529   2.386   6.662
 4985SOL    HW220259   2.435   2.382   6.680
 4985SOL    HW320260   2.559   2.295   6.671
 4985SOL    MW420261   2.520   2.374   6.665
 4986SOL     OW20262   2.275   2.800   6.566
 4986SOL    HW220263   2.230   2.807   6.482
 4986SOL    HW320264   2.255   2.883   6.610
 4986SOL    MW420265   2.267   2.812   6.560
 4987SOL     OW20266   1.972   3.646   6.441
 4987SOL    HW220267   2.061   3.638   6.476
 4987SOL    HW320268   1.936   3.558   6.446
 4987SOL    MW420269   1.979   3.633   6.446
 4988SOL     OW20270   3.237   3.038   5.810
 4988SOL    HW220271   3.155   3.074   5.776
 4988SOL    HW320272   3.305   3.081   5.759
 4988SOL    MW420273   3.235   3.048   5.798
 4989SOL     OW20274   2.236   3.173   6.476
 4989SOL    HW220275   2.212   3.226   6.552
 4989SOL    HW320276   2.292   3.231   6.424
 4989SOL    MW420277   2.240   3.188   6.479
 4990SOL     OW20278   2.798   2.817   6.286
 4990SOL    HW220279   2.712   2.804   6.326
 4990SOL    HW320280   2.851   2.744   6.318
 4990SOL    MW420281   2.794   2.806   6.295
 4991SOL     OW20282   2.206   3.469   7.071
 4991SOL    HW220283   2.114   3.445   7.056
 4991SOL    HW320284   2.250   3.386   7.088
 4991SOL    MW420285   2.200   3.454   7.070
 4992SOL     OW20286   2.789   3.179   6.003
 4992SOL    HW220287   2.766   3.241   6.071
 4992SOL    HW320288   2.746   3.097   6.029
 4992SOL    MW420289   2.781   3.175   6.014
 4993SOL     OW20290   3.662   2.180   6.459
 4993SOL    HW220291   3.599   2.160   6.528
 4993SOL    HW320292   3.652   2.109   6.396
 4993SOL    MW420293   3.652   2.167   6.460
 4994SOL     OW20294   2.286   2.152   5.971
 4994SOL    HW220295   2.260   2.114   5.887
 4994SOL    HW320296   2.223   2.222   5.987
 4994SOL    MW420297   2.275   2.155   5.962
 4995SOL     OW20298   2.121   3.113   6.008
 4995SOL    HW220299   2.069   3.181   5.964
 4995SOL    HW320300   2.118   3.039   5.948
 4995SOL    MW420301   2.113   3.112   5.995
 4996SOL     OW20302   2.783   3.576   5.786
 4996SOL    HW220303   2.738   3.592   5.869
 4996SOL    HW320304   2.714   3.541   5.728
 4996SOL    MW420305   2.769   3.573   5.788
 4997SOL     OW20306   3.718   2.349   5.761
 4997SOL    HW220307   3.627   2.351   5.789
 4997SOL    HW320308   3.763   2.411   5.819
 4997SOL    MW420309   3.711   2.357   5.771
 4998SOL     OW20310   3.463   2.952   6.111
 4998SOL    HW220311   3.373   2.952   6.146
 4998SOL    HW320312   3.456   2.998   6.028
 4998SOL    MW420313   3.450   2.958   6.105
 4999SOL     OW20314   3.263   2.587   7.183
 4999SOL    HW220315   3.332   2.525   7.160
 4999SOL    HW320316   3.188   2.561   7.130
 4999SOL    MW420317   3.263   2.574   7.174
 5000SOL     OW20318   2.004   3.467   6.735
 5000SOL    HW220319   1.987   3.413   6.812
 5000SOL    HW320320   1.992   3.557   6.765
 5000SOL    MW420321   2.001   3.471   6.749
 5001SOL     OW20322   2.999   2.974   7.175
 5001SOL    HW220323   2.984   3.067   7.160
 5001SOL    HW320324   3.094   2.964   7.175
 5001SOL    MW420325   3.008   2.984   7.172
 5002SOL     OW20326   2.795   2.398   7.376
 5002SOL    HW220327   2.885   2.399   7.343
 5002SOL    HW320328   2.754   2.323   7.334
 5002SOL    MW420329   2.801   2.388   7.367
 5003SOL     OW20330   3.370   2.930   6.503
 5003SOL    HW220331   3.373   2.864   6.434
 5003SOL    HW320332   3.455   2.973   6.499
 5003SOL    MW420333   3.382   2.926   6.494
 5004SOL     OW20334   2.990   2.533   6.072
 5004SOL    HW220335   3.016   2.557   5.983
 5004SOL    HW320336   2.972   2.440   6.068
 5004SOL    MW420337   2.992   2.525   6.059
 5005SOL     OW20338   3.655   3.153   5.923
 5005SOL    HW220339   3.611   3.194   5.998
 5005SOL    HW320340   3.712   3.221   5.888
 5005SOL    MW420341   3.657   3.167   5.928
 5006SOL     OW20342   2.575   2.202   7.326
 5006SOL    HW220343   2.585   2.128   7.266
 5006SOL    HW320344   2.611   2.171   7.409
 5006SOL    MW420345   2.581   2.188   7.328
 5007SOL     OW20346   2.311   3.569   6.241
 5007SOL    HW220347   2.343   3.657   6.219
 5007SOL    HW320348   2.264   3.541   6.163
 5007SOL    MW420349   2.310   3.577   6.228
 5008SOL     OW20350   3.695   1.931   6.290
 5008SOL    HW220351   3.749   1.882   6.352
 5008SOL    HW320352   3.638   1.865   6.251
 5008SOL    MW420353   3.695   1.915   6.292
 5009SOL     OW20354   2.027   3.629   5.818
 5009SOL    HW220355   2.056   3.719   5.810
 5009SOL    HW320356   1.977   3.612   5.739
 5009SOL    MW420357   2.025   3.637   5.807
 5010SOL     OW20358   2.814   1.884   6.703
 5010SOL    HW220359   2.773   1.962   6.665
 5010SOL    HW320360   2.908   1.902   6.698
 5010SOL    MW420361   2.820   1.896   6.698
 5011SOL     OW20362   3.431   3.437   5.789
 5011SOL    HW220363   3.479   3.506   5.835
 5011SOL    HW320364   3.352   3.481   5.758
 5011SOL    MW420365   3.426   3.451   5.792
 5012SOL     OW20366   2.829   2.562   5.733
 5012SOL    HW220367   2.831   2.509   5.654
 5012SOL    HW320368   2.917   2.599   5.739
 5012SOL    MW420369   2.841   2.561   5.722
 5013SOL     OW20370   3.443   2.488   6.069
 5013SOL    HW220371   3.482   2.488   6.156
 5013SOL    HW320372   3.384   2.564   6.069
 5013SOL    MW420373   3.440   2.499   6.080
 5014SOL     OW20374   2.760   2.855   7.198
 5014SOL    HW220375   2.737   2.835   7.288
 5014SOL    HW320376   2.845   2.899   7.203
 5014SOL    MW420377   2.767   2.858   7.210
 5015SOL     OW20378   2.840   1.992   6.958
 5015SOL    HW220379   2.846   1.954   6.871
 5015SOL    HW320380   2.829   2.086   6.943
 5015SOL    MW420381   2.841   2.000   6.946
 5016SOL     OW20382   2.929   2.481   6.792
 5016SOL    HW220383   3.004   2.510   6.739
 5016SOL    HW320384   2.861   2.546   6.776
 5016SOL    MW420385   2.930   2.493   6.782
 5017SOL     OW20386   3.479   2.449   7.069
 5017SOL    HW220387   3.460   2.358   7.048
 5017SOL    HW320388   3.457   2.498   6.990
 5017SOL    MW420389   3.474   2.442   7.056
 5018SOL     OW20390   3.621   3.543   6.973
 5018SOL    HW220391   3.549   3.505   7.024
 5018SOL    HW320392   3.638   3.628   7.014
 5018SOL    MW420393   3.615   3.548   6.985
 5019SOL     OW20394   2.926   2.187   7.175
 5019SOL    HW220395   2.892   2.226   7.094
 5019SOL    HW320396   2.904   2.095   7.168
 5019SOL    MW420397   2.919   2.180   7.165
 5020SOL     OW20398   3.335   3.001   7.251
 5020SOL    HW220399   3.417   3.042   7.281
 5020SOL    HW320400   3.298   2.963   7.331
 5020SOL    MW420401   3.341   3.002   7.266
 5021SOL     OW20402   3.630   2.374   6.235
 5021SOL    HW220403   3.719   2.343   6.252
 5021SOL    HW320404   3.573   2.314   6.283
 5021SOL    MW420405   3.633   2.362   6.244
 5022SOL     OW20406   2.056   2.088   6.264
 5022SOL    HW220407   2.047   2.028   6.190
 5022SOL    HW320408   1.989   2.059   6.327
 5022SOL    MW420409   2.046   2.075   6.262
 5023SOL     OW20410   2.999   3.181   5.825
 5023SOL    HW220411   2.949   3.183   5.907
 5023SOL    HW320412   2.933   3.199   5.757
 5023SOL    MW420413   2.985   3.183   5.827
 5024SOL     OW20414   2.003   2.261   6.627
 5024SOL    HW220415   1.975   2.352   6.636
 5024SOL    HW320416   1.940   2.222   6.566
 5024SOL    MW420417   1.990   2.267   6.621
 5025SOL     OW20418   2.462   3.599   5.933
 5025SOL    HW220419   2.383   3.557   5.966
 5025SOL    HW320420   2.528   3.582   6.000
 5025SOL    MW420421   2.461   3.591   5.946
 5026SOL     OW20422   3.590   3.119   7.330
 5026SOL    HW220423   3.640   3.045   7.362
 5026SOL    HW320424   3.536   3.146   7.405
 5026SOL    MW420425   3.590   3.113   7.343
 5027SOL     OW20426   2.598   3.014   5.640
 5027SOL    HW220427   2.520   2.960   5.627
 5027SOL    HW320428   2.569   3.087   5.693
 5027SOL    MW420429   2.584   3.016   5.645
 5028SOL     OW20430   3.724   2.754   6.832
 5028SOL    HW220431   3.740   2.792   6.745
 5028SOL    HW320432   3.758   2.820   6.893
 5028SOL    MW420433   3.731   2.767   6.828
 5029SOL     OW20434   3.516   3.463   6.501
 5029SOL    HW220435   3.545   3.530   6.562
 5029SOL    HW320436   3.497   3.387   6.556
 5029SOL    MW420437   3.518   3.463   6.516
 5030SOL     OW20438   3.179   3.530   5.708
 5030SOL    HW220439   3.105   3.493   5.758
 5030SOL    HW320440   3.187   3.620   5.741
 5030SOL    MW420441   3.170   3.537   5.720
 5031SOL     OW20442   1.987   2.536   6.797
 5031SOL    HW220443   2.049   2.566   6.863
 5031SOL    HW320444   1.921   2.605   6.791
 5031SOL    MW420445   1.986   2.549   6.804
 5032SOL     OW20446   3.403   3.204   5.650
 5032SOL    HW220447   3.350   3.253   5.586
 5032SOL    HW320448   3.434   3.270   5.711
 5032SOL    MW420449   3.401   3.218   5.648
 5033SOL     OW20450   2.628   2.093   5.705
 5033SOL    HW220451   2.576   2.013   5.693
 5033SOL    HW320452   2.715   2.070   5.673
 5033SOL    MW420453   2.631   2.079   5.699
 5034SOL     OW20454   2.082   3.645   7.249
 5034SOL    HW220455   2.056   3.713   7.187
 5034SOL    HW320456   2.130   3.582   7.197
 5034SOL    MW420457   2.084   3.645   7.235
 5035SOL     OW20458   2.134   2.964   6.756
 5035SOL    HW220459   2.187   3.039   6.781
 5035SOL    HW320460   2.053   3.002   6.722
 5035SOL    MW420461   2.130   2.979   6.756
 5036SOL     OW20462   2.674   2.868   6.744
 5036SOL    HW220463   2.702   2.777   6.756
 5036SOL    HW320464   2.603   2.862   6.680
 5036SOL    MW420465   2.667   2.856   6.739
 5037SOL     OW20466   1.989   2.733   6.162
 5037SOL    HW220467   2.080   2.748   6.189
 5037SOL    HW320468   1.992   2.654   6.108
 5037SOL    MW420469   2.001   2.725   6.160
 5038SOL     OW20470   2.225   2.441   7.416
 5038SOL    HW220471   2.172   2.521   7.423
 5038SOL    HW320472   2.295   2.453   7.481
 5038SOL    MW420473   2.227   2.454   7.424
 5039SOL     OW20474   2.611   1.991   7.123
 5039SOL    HW220475   2.588   1.899   7.125
 5039SOL    HW320476   2.697   1.993   7.080
 5039SOL    MW420477   2.618   1.981   7.119
 5040SOL     OW20478   2.295   2.515   7.162
 5040SOL    HW220479   2.375   2.565   7.148
 5040SOL    HW320480   2.286   2.509   7.257
 5040SOL    MW420481   2.304   2.521   7.172
 5041SOL     OW20482   2.616   3.665   6.536
 5041SOL    HW220483   2.705   3.680   6.566
 5041SOL    HW320484   2.611   3.712   6.452
 5041SOL    MW420485   2.626   3.673   6.529
 5042SOL     OW20486   3.272   2.040   7.433
 5042SOL    HW220487   3.328   1.967   7.459
 5042SOL    HW320488   3.242   2.078   7.515
 5042SOL    MW420489   3.276   2.035   7.446
 5043SOL     OW20490   1.997   3.345   6.201
 5043SOL    HW220491   1.969   3.384   6.283
 5043SOL    HW320492   2.017   3.254   6.223
 5043SOL    MW420493   1.995   3.337   6.214
 5044SOL     OW20494   2.830   3.388   6.236
 5044SOL    HW220495   2.913   3.342   6.220
 5044SOL    HW320496   2.820   3.387   6.332
 5044SOL    MW420497   2.840   3.381   6.246
 5045SOL     OW20498   3.662   2.533   6.550
 5045SOL    HW220499   3.751   2.563   6.532
 5045SOL    HW320500   3.642   2.473   6.479
 5045SOL    MW420501   3.671   2.530   6.539
 5046SOL     OW20502   3.513   2.712   7.430
 5046SOL    HW220503   3.568   2.636   7.411
 5046SOL    HW320504   3.515   2.720   7.525
 5046SOL    MW420505   3.521   2.703   7.438
 5047SOL     OW20506   2.563   3.445   5.641
 5047SOL    HW220507   2.503   3.514   5.611
 5047SOL    HW320508   2.508   3.387   5.694
 5047SOL    MW420509   2.547   3.447   5.643
 5048SOL     OW20510   3.001   2.090   5.864
 5048SOL    HW220511   2.934   2.066   5.801
 5048SOL    HW320512   3.066   2.139   5.813
 5048SOL    MW420513   3.001   2.092   5.849
 5049SOL     OW20514   2.808   2.274   6.949
 5049SOL    HW220515   2.727   2.315   6.977
 5049SOL    HW320516   2.855   2.342   6.901
 5049SOL    MW420517   2.803   2.289   6.947
 5050SOL     OW20518   3.068   2.612   6.572
 5050SOL    HW220519   3.081   2.706   6.582
 5050SOL    HW320520   3.029   2.602   6.486
 5050SOL    MW420521   3.064   2.623   6.562
 5051SOL     OW20522   2.520   2.807   6.376
 5051SOL    HW220523   2.431   2.798   6.409
 5051SOL    HW320524   2.524   2.897   6.344
 5051SOL    MW420525   2.509   2.818   6.376
 5052SOL     OW20526   3.319   2.390   6.371
 5052SOL    HW220527   3.264   2.311   6.370
 5052SOL    HW320528   3.301   2.431   6.455
 5052SOL    MW420529   3.309   2.385   6.380
 5053SOL     OW20530   2.290   2.077   7.188
 5053SOL    HW220531   2.211   2.095   7.240
 5053SOL    HW320532   2.285   2.139   7.115
 5053SOL    MW420533   2.280   2.087   7.185
 5054SOL     OW20534   2.938   2.594   6.328
 5054SOL    HW220535   2.875   2.526   6.352
 5054SOL    HW320536   2.958   2.575   6.236
 5054SOL    MW420537   2.932   2.581   6.320
 5055SOL     OW20538   2.194   3.489   6.030
 5055SOL    HW220539   2.155   3.536   5.956
 5055SOL    HW320540   2.128   3.424   6.055
 5055SOL    MW420541   2.181   3.487   6.024
 5056SOL     OW20542   2.686   2.898   6.054
 5056SOL    HW220543   2.688   2.872   5.961
 5056SOL    HW320544   2.744   2.835   6.097
 5056SOL    MW420545   2.694   2.887   6.048
 5057SOL     OW20546   3.239   3.458   6.826
 5057SOL    HW220547   3.164   3.504   6.864
 5057SOL    HW320548   3.221   3.365   6.843
 5057SOL    MW420549   3.228   3.452   6.834
 5058SOL     OW20550   3.243   3.666   6.256
 5058SOL    HW220551   3.186   3.619   6.195
 5058SOL    HW320552   3.329   3.627   6.243
 5058SOL    MW420553   3.246   3.657   6.246
 5059SOL     OW20554   3.196   2.142   6.387
 5059SOL    HW220555   3.224   2.074   6.448
 5059SOL    HW320556   3.110   2.113   6.357
 5059SOL    MW420557   3.189   2.129   6.391
 5060SOL     OW20558   2.001   3.076   6.321
 5060SOL    HW220559   2.065   3.108   6.384
 5060SOL    HW320560   2.050   3.012   6.269
 5060SOL    MW420561   2.016   3.072   6.322
 5061SOL     OW20562   2.501   3.152   7.303
 5061SOL    HW220563   2.549   3.235   7.290
 5061SOL    HW320564   2.558   3.100   7.359
 5061SOL    MW420565   2.515   3.156   7.309
 5062SOL     OW20566   2.077   3.394   7.443
 5062SOL    HW220567   2.133   3.318   7.458
 5062SOL    HW320568   2.026   3.372   7.365
 5062SOL    MW420569   2.077   3.381   7.434
 5063SOL     OW20570   3.176   2.246   5.722
 5063SOL    HW220571   3.149   2.312   5.658
 5063SOL    HW320572   3.246   2.289   5.772
 5063SOL    MW420573   3.181   2.259   5.719
 5064SOL     OW20574   2.844   1.951   5.659
 5064SOL    HW220575   2.900   1.943   5.581
 5064SOL    HW320576   2.821   1.861   5.681
 5064SOL    MW420577   2.849   1.938   5.652
 5065SOL     OW20578   3.349   2.802   5.864
 5065SOL    HW220579   3.316   2.891   5.854
 5065SOL    HW320580   3.314   2.773   5.949
 5065SOL    MW420581   3.339   2.811   5.875
 5066SOL     OW20582   2.962   3.231   7.052
 5066SOL    HW220583   2.873   3.237   7.020
 5066SOL    HW320584   3.006   3.310   7.020
 5066SOL    MW420585   2.957   3.241   7.044
 5067SOL     OW20586   2.255   1.899   7.394
 5067SOL    HW220587   2.183   1.864   7.342
 5067SOL    HW320588   2.313   1.940   7.329
 5067SOL    MW420589   2.253   1.900   7.379
 5068SOL     OW20590   2.279   3.389   6.693
 5068SOL    HW220591   2.324   3.451   6.750
 5068SOL    HW320592   2.186   3.408   6.706
 5068SOL    MW420593   2.272   3.399   6.700
 5069SOL     OW20594   3.719   2.918   7.047
 5069SOL    HW220595   3.634   2.931   7.006
 5069SOL    HW320596   3.699   2.882   7.134
 5069SOL    MW420597   3.706   2.914   7.052
 5070SOL     OW20598   2.701   3.457   6.801
 5070SOL    HW220599   2.725   3.446   6.710
 5070SOL    HW320600   2.624   3.514   6.799
 5070SOL    MW420601   2.693   3.462   6.790
 5071SOL     OW20602   2.343   2.840   5.656
 5071SOL    HW220603   2.266   2.853   5.712
 5071SOL    HW320604   2.307   2.804   5.575
 5071SOL    MW420605   2.329   2.836   5.653
 5072SOL     OW20606   2.996   2.813   5.899
 5072SOL    HW220607   2.906   2.834   5.874
 5072SOL    HW320608   3.023   2.886   5.955
 5072SOL    MW420609   2.988   2.825   5.902
 5073SOL     OW20610   2.496   3.162   6.591
 5073SOL    HW220611   2.489   3.141   6.685
 5073SOL    HW320612   2.414   3.130   6.554
 5073SOL    MW420613   2.484   3.156   6.598
 5074SOL     OW20614   3.360   2.172   6.993
 5074SOL    HW220615   3.307   2.174   7.073
 5074SOL    HW320616   3.345   2.085   6.956
 5074SOL    MW420617   3.352   2.162   6.998
 5075SOL     OW20618   3.696   2.096   6.866
 5075SOL    HW220619   3.677   2.163   6.801
 5075SOL    HW320620   3.753   2.034   6.821
 5075SOL    MW420621   3.700   2.097   6.852
 5076SOL     OW20622   1.942   3.254   7.254
 5076SOL    HW220623   1.986   3.187   7.200
 5076SOL    HW320624   1.857   3.216   7.274
 5076SOL    MW420625   1.937   3.240   7.250
 5077SOL     OW20626   2.625   1.929   6.306
 5077SOL    HW220627   2.554   1.990   6.288
 5077SOL    HW320628   2.676   1.926   6.225
 5077SOL    MW420629   2.621   1.935   6.293
 5078SOL     OW20630   2.383   3.169   6.055
 5078SOL    HW220631   2.376   3.201   6.145
 5078SOL    HW320632   2.293   3.153   6.027
 5078SOL    MW420633   2.371   3.171   6.062
 5079SOL     OW20634   2.978   3.562   6.964
 5079SOL    HW220635   2.898   3.547   6.914
 5079SOL    HW320636   2.985   3.657   6.971
 5079SOL    MW420637   2.969   3.573   6.958
 5080SOL     OW20638   3.092   3.527   6.454
 5080SOL    HW220639   3.139   3.600   6.413
 5080SOL    HW320640   3.013   3.566   6.490
 5080SOL    MW420641   3.087   3.542   6.453
 5081SOL     OW20642   3.500   3.622   6.729
 5081SOL    HW220643   3.543   3.592   6.809
 5081SOL    HW320644   3.419   3.570   6.726
 5081SOL    MW420645   3.495   3.611   6.739
 5082SOL     OW20646   2.585   2.586   7.436
 5082SOL    HW220647   2.655   2.528   7.408
 5082SOL    HW320648   2.528   2.531   7.491
 5082SOL    MW420649   2.587   2.573   7.440
 5083SOL     OW20650   3.372   2.798   7.069
 5083SOL    HW220651   3.377   2.851   7.149
 5083SOL    HW320652   3.334   2.715   7.097
 5083SOL    MW420653   3.368   2.793   7.084
 5084SOL     OW20654   3.012   1.933   7.315
 5084SOL    HW220655   3.007   1.840   7.296
 5084SOL    HW320656   3.095   1.944   7.361
 5084SOL    MW420657   3.020   1.922   7.319
 5085SOL     OW20658   2.386   2.453   5.769
 5085SOL    HW220659   2.352   2.509   5.839
 5085SOL    HW320660   2.457   2.403   5.809
 5085SOL    MW420661   2.392   2.454   5.783
 5086SOL     OW20662   3.482   3.204   6.591
 5086SOL    HW220663   3.517   3.186   6.504
 5086SOL    HW320664   3.387   3.205   6.578
 5086SOL    MW420665   3.474   3.201   6.578
 5087SOL     OW20666   2.911   2.852   6.960
 5087SOL    HW220667   2.954   2.887   7.038
 5087SOL    HW320668   2.894   2.929   6.906
 5087SOL    MW420669   2.914   2.867   6.963
 5088SOL     OW20670   3.442   2.339   5.833
 5088SOL    HW220671   3.434   2.410   5.770
 5088SOL    HW320672   3.460   2.383   5.916
 5088SOL    MW420673   3.443   2.353   5.835
 5089SOL     OW20674   2.302   1.994   6.262
 5089SOL    HW220675   2.352   2.037   6.193
 5089SOL    HW320676   2.217   2.038   6.262
 5089SOL    MW420677   2.299   2.007   6.253
 5090SOL     OW20678   2.061   3.056   7.122
 5090SOL    HW220679   2.089   3.009   7.200
 5090SOL    HW320680   1.982   3.011   7.093
 5090SOL    MW420681   2.054   3.045   7.128
 5091SOL     OW20682   2.569   2.383   7.089
 5091SOL    HW220683   2.541   2.471   7.113
 5091SOL    HW320684   2.538   2.327   7.160
 5091SOL    MW420685   2.561   2.386   7.101
 5092SOL     OW20686   3.111   2.601   5.808
 5092SOL    HW220687   3.158   2.619   5.727
 5092SOL    HW320688   3.077   2.685   5.836
 5092SOL    MW420689   3.113   2.615   5.801
 5093SOL     OW20690   2.224   2.779   6.302
 5093SOL    HW220691   2.282   2.835   6.250
 5093SOL    HW320692   2.268   2.694   6.304
 5093SOL    MW420693   2.237   2.776   6.295
 5094SOL     OW20694   3.364   2.131   6.139
 5094SOL    HW220695   3.286   2.081   6.164
 5094SOL    HW320696   3.335   2.222   6.139
 5094SOL    MW420697   3.350   2.135   6.142
 5095SOL     OW20698   2.950   2.093   6.298
 5095SOL    HW220699   2.970   2.168   6.242
 5095SOL    HW320700   2.930   2.132   6.383
 5095SOL    MW420701   2.951   2.109   6.302
 5096SOL     OW20702   2.846   3.343   5.630
 5096SOL    HW220703   2.873   3.421   5.582
 5096SOL    HW320704   2.753   3.358   5.649
 5096SOL    MW420705   2.837   3.356   5.626
 5097SOL     OW20706   3.710   2.866   7.317
 5097SOL    HW220707   3.623   2.846   7.353
 5097SOL    HW320708   3.764   2.792   7.342
 5097SOL    MW420709   3.705   2.855   7.325
 5098SOL     OW20710   1.931   3.379   6.474
 5098SOL    HW220711   1.963   3.383   6.565
 5098SOL    HW320712   1.836   3.387   6.482
 5098SOL    MW420713   1.923   3.382   6.487
 5099SOL     OW20714   1.886   2.505   6.021
 5099SOL    HW220715   1.826   2.477   6.091
 5099SOL    HW320716   1.960   2.445   6.027
 5099SOL    MW420717   1.888   2.494   6.030
 5100SOL     OW20718   3.454   3.717   7.455
 5100SOL    HW220719   3.499   3.641   7.420
 5100SOL    HW320720   3.492   3.730   7.542
 5100SOL    MW420721   3.464   3.710   7.461
 5101SOL     OW20722   3.054   3.236   6.181
 5101SOL    HW220723   3.077   3.187   6.259
 5101SOL    HW320724   3.135   3.278   6.153
 5101SOL    MW420725   3.067   3.236   6.188
 5102SOL     OW20726   2.312   2.244   6.910
 5102SOL    HW220727   2.345   2.325   6.950
 5102SOL    HW320728   2.285   2.270   6.822
 5102SOL    MW420729   2.311   2.258   6.904
 5103SOL     OW20730   2.266   2.211   6.646
 5103SOL    HW220731   2.296   2.125   6.617
 5103SOL    HW320732   2.171   2.204   6.649
 5103SOL    MW420733   2.258   2.200   6.644
 5104SOL     OW20734   3.095   2.420   7.337
 5104SOL    HW220735   3.147   2.355   7.290
 5104SOL    HW320736   3.053   2.471   7.267
 5104SOL    MW420737   3.096   2.417   7.320
 5105SOL     OW20738   3.194   2.215   7.198
 5105SOL    HW220739   3.101   2.199   7.185
 5105SOL    HW320740   3.220   2.153   7.266
 5105SOL    MW420741   3.184   2.205   7.205
 5106SOL     OW20742   2.409   1.989   6.537
 5106SOL    HW220743   2.419   1.898   6.563
 5106SOL    HW320744   2.365   1.985   6.452
 5106SOL    MW420745   2.405   1.977   6.529
 5107SOL     OW20746   2.503   3.604   7.083
 5107SOL    HW220747   2.420   3.589   7.128
 5107SOL    HW320748   2.562   3.537   7.118
 5107SOL    MW420749   2.501   3.594   7.093
 5108SOL     OW20750   3.560   2.311   6.708
 5108SOL    HW220751   3.493   2.344   6.768
 5108SOL    HW320752   3.603   2.389   6.674
 5108SOL    MW420753   3.558   2.326   6.712
 5109SOL     OW20754   3.738   3.031   6.678
 5109SOL    HW220755   3.731   2.971   6.603
 5109SOL    HW320756   3.664   3.091   6.667
 5109SOL    MW420757   3.728   3.031   6.667
 5110SOL     OW20758   3.120   2.893   6.596
 5110SOL    HW220759   3.134   2.865   6.687
 5110SOL    HW320760   3.206   2.924   6.568
 5110SOL    MW420761   3.133   2.894   6.605
 5111SOL     OW20762   3.203   2.388   6.875
 5111SOL    HW220763   3.224   2.389   6.782
 5111SOL    HW320764   3.248   2.310   6.908
 5111SOL    MW420765   3.210   2.378   6.867
 5112SOL     OW20766   3.696   2.519   7.417
 5112SOL    HW220767   3.733   2.464   7.486
 5112SOL    HW320768   3.721   2.476   7.335
 5112SOL    MW420769   3.703   2.507   7.416
 5113SOL     OW20770   3.243   2.817   7.468
 5113SOL    HW220771   3.309   2.765   7.422
 5113SOL    HW320772   3.263   2.804   7.561
 5113SOL    MW420773   3.254   2.808   7.475
 5114SOL     OW20774   3.194   1.903   5.817
 5114SOL    HW220775   3.268   1.947   5.860
 5114SOL    HW320776   3.118   1.957   5.839
 5114SOL    MW420777   3.194   1.915   5.825
 5115SOL     OW20778   3.254   2.678   6.095
 5115SOL    HW220779   3.169   2.648   6.065
 5115SOL    HW320780   3.246   2.685   6.190
 5115SOL    MW420781   3.242   2.676   6.104
 5116SOL     OW20782   2.330   3.141   6.826
 5116SOL    HW220783   2.342   3.168   6.917
 5116SOL    HW320784   2.311   3.222   6.779
 5116SOL    MW420785   2.329   3.156   6.831
 5117SOL     OW20786   2.614   2.121   6.649
 5117SOL    HW220787   2.587   2.123   6.740
 5117SOL    HW320788   2.544   2.073   6.604
 5117SOL    MW420789   2.602   2.117   6.656
 5118SOL     OW20790   2.468   3.613   6.811
 5118SOL    HW220791   2.520   3.690   6.788
 5118SOL    HW320792   2.477   3.605   6.906
 5118SOL    MW420793   2.477   3.620   6.822
 5119SOL     OW20794   3.370   3.198   7.043
 5119SOL    HW220795   3.355   3.127   7.106
 5119SOL    HW320796   3.416   3.156   6.971
 5119SOL    MW420797   3.376   3.182   7.043
 5120SOL     OW20798   2.444   2.929   7.160
 5120SOL    HW220799   2.481   2.934   7.072
 5120SOL    HW320800   2.483   3.002   7.207
 5120SOL    MW420801   2.454   2.939   7.155
 5121SOL     OW20802   2.624   2.972   6.972
 5121SOL    HW220803   2.683   2.918   7.025
 5121SOL    HW320804   2.639   2.944   6.882
 5121SOL    MW420805   2.634   2.961   6.968
 5122SOL     OW20806   2.627   2.344   5.821
 5122SOL    HW220807   2.700   2.393   5.784
 5122SOL    HW320808   2.643   2.253   5.795
 5122SOL    MW420809   2.639   2.339   5.814
 5123SOL     OW20810   3.435   3.461   7.144
 5123SOL    HW220811   3.477   3.446   7.229
 5123SOL    HW320812   3.426   3.374   7.106
 5123SOL    MW420813   3.439   3.449   7.151
 5124SOL     OW20814   3.095   1.940   6.735
 5124SOL    HW220815   3.150   1.949   6.657
 5124SOL    HW320816   3.150   1.974   6.806
 5124SOL    MW420817   3.109   1.945   6.734
 5125SOL     OW20818   2.102   2.853   5.919
 5125SOL    HW220819   2.039   2.869   5.848
 5125SOL    HW320820   2.049   2.816   5.990
 5125SOL    MW420821   2.087   2.850   5.919
 5126SOL     OW20822   2.458   3.207   5.778
 5126SOL    HW220823   2.473   3.183   5.870
 5126SOL    HW320824   2.366   3.185   5.762
 5126SOL    MW420825   2.448   3.200   5.788
 5127SOL     OW20826   2.997   3.438   5.930
 5127SOL    HW220827   3.005   3.356   5.881
 5127SOL    HW320828   2.916   3.477   5.897
 5127SOL    MW420829   2.987   3.433   5.920
 5128SOL     OW20830   2.256   3.596   6.499
 5128SOL    HW220831   2.260   3.507   6.534
 5128SOL    HW320832   2.282   3.587   6.408
 5128SOL    MW420833   2.259   3.584   6.491
 5129SOL     OW20834   2.873   3.074   6.742
 5129SOL    HW220835   2.805   3.008   6.758
 5129SOL    HW320836   2.891   3.068   6.649
 5129SOL    MW420837   2.866   3.065   6.733
 5130SOL     OW20838   1.962   3.349   6.993
 5130SOL    HW220839   1.952   3.307   7.079
 5130SOL    HW320840   1.883   3.402   6.983
 5130SOL    MW420841   1.951   3.350   7.004
 5131SOL     OW20842   2.866   2.213   6.563
 5131SOL    HW220843   2.796   2.165   6.608
 5131SOL    HW320844   2.898   2.276   6.627
 5131SOL    MW420845   2.861   2.215   6.577
 5132SOL     OW20846   2.517   2.649   7.183
 5132SOL    HW220847   2.510   2.744   7.171
 5132SOL    HW320848   2.526   2.638   7.278
 5132SOL    MW420849   2.518   2.661   7.193
 5133SOL     OW20850   2.238   3.164   7.441
 5133SOL    HW220851   2.310   3.166   7.378
 5133SOL    HW320852   2.208   3.073   7.440
 5133SOL    MW420853   2.243   3.153   7.433
 5134SOL     OW20854   3.322   1.927   6.908
 5134SOL    HW220855   3.393   1.873   6.872
 5134SOL    HW320856   3.321   1.906   7.001
 5134SOL    MW420857   3.331   1.918   6.916
 5135SOL     OW20858   3.522   3.457   7.392
 5135SOL    HW220859   3.495   3.454   7.483
 5135SOL    HW320860   3.618   3.461   7.395
 5135SOL    MW420861   3.532   3.457   7.404
 5136SOL     OW20862   2.333   2.319   6.376
 5136SOL    HW220863   2.404   2.267   6.339
 5136SOL    HW320864   2.319   2.284   6.463
 5136SOL    MW420865   2.341   2.308   6.383
 5137SOL     OW20866   1.888   3.654   7.448
 5137SOL    HW220867   1.938   3.632   7.370
 5137SOL    HW320868   1.896   3.749   7.456
 5137SOL    MW420869   1.896   3.663   7.439
 5138SOL     OW20870   2.649   3.412   6.452
 5138SOL    HW220871   2.577   3.349   6.465
 5138SOL    HW320872   2.610   3.497   6.470
 5138SOL    MW420873   2.633   3.415   6.455
 5139SOL     OW20874   2.969   2.260   6.100
 5139SOL    HW220875   2.991   2.197   6.032
 5139SOL    HW320876   2.874   2.252   6.111
 5139SOL    MW420877   2.959   2.251   6.092
 5140SOL     OW20878   2.054   1.950   6.032
 5140SOL    HW220879   2.125   1.971   5.971
 5140SOL    HW320880   2.008   1.878   5.990
 5140SOL    MW420881   2.058   1.944   6.018
 5141SOL     OW20882   1.885   2.417   7.175
 5141SOL    HW220883   1.949   2.483   7.150
 5141SOL    HW320884   1.804   2.444   7.132
 5141SOL    MW420885   1.883   2.429   7.167
 5142SOL     OW20886   3.623   3.324   6.132
 5142SOL    HW220887   3.593   3.257   6.193
 5142SOL    HW320888   3.717   3.330   6.146
 5142SOL    MW420889   3.631   3.316   6.142
 5143SOL     OW20890   3.179   3.001   6.062
 5143SOL    HW220891   3.151   3.087   6.095
 5143SOL    HW320892   3.207   3.017   5.972
 5143SOL    MW420893   3.179   3.015   6.054
 5144SOL     OW20894   2.841   1.921   6.115
 5144SOL    HW220895   2.878   1.980   6.180
 5144SOL    HW320896   2.818   1.977   6.041
 5144SOL    MW420897   2.842   1.936   6.114
 5145SOL     OW20898   3.694   2.803   6.537
 5145SOL    HW220899   3.685   2.835   6.448
 5145SOL    HW320900   3.647   2.719   6.537
 5145SOL    MW420901   3.687   2.796   6.527
 5146SOL     OW20902   2.070   2.643   7.116
 5146SOL    HW220903   2.091   2.712   7.054
 5146SOL    HW320904   2.150   2.590   7.121
 5146SOL    MW420905   2.083   2.644   7.110
 5147SOL     OW20906   3.606   2.734   6.238
 5147SOL    HW220907   3.700   2.723   6.226
 5147SOL    HW320908   3.582   2.806   6.179
 5147SOL    MW420909   3.616   2.742   6.229
 5148SOL     OW20910   2.055   2.658   7.383
 5148SOL    HW220911   1.981   2.602   7.409
 5148SOL    HW320912   2.050   2.661   7.288
 5148SOL    MW420913   2.044   2.651   7.373
 5149SOL     OW20914   2.221   1.945   6.833
 5149SOL    HW220915   2.264   2.029   6.853
 5149SOL    HW320916   2.294   1.883   6.826
 5149SOL    MW420917   2.236   1.948   6.834
 5150SOL     OW20918   2.262   2.612   6.011
 5150SOL    HW220919   2.262   2.707   5.996
 5150SOL    HW320920   2.339   2.596   6.065
 5150SOL    MW420921   2.272   2.623   6.016
 5151SOL     OW20922   3.038   2.471   7.075
 5151SOL    HW220923   3.074   2.444   6.991
 5151SOL    HW320924   2.951   2.505   7.054
 5151SOL    MW420925   3.032   2.472   7.062
 5152SOL     OW20926   2.021   2.343   6.300
 5152SOL    HW220927   2.083   2.350   6.373
 5152SOL    HW320928   2.021   2.250   6.277
 5152SOL    MW420929   2.029   2.332   6.307
 5153SOL     OW20930   3.568   3.683   5.832
 5153SOL    HW220931   3.635   3.716   5.772
 5153SOL    HW320932   3.525   3.762   5.866
 5153SOL    MW420933   3.570   3.698   5.828
 5154SOL     OW20934   2.703   2.604   6.784
 5154SOL    HW220935   2.661   2.522   6.760
 5154SOL    HW320936   2.704   2.603   6.880
 5154SOL    MW420937   2.696   2.593   6.793
 5155SOL     OW20938   3.374   3.737   7.183
 5155SOL    HW220939   3.377   3.643   7.166
 5155SOL    HW320940   3.397   3.745   7.275
 5155SOL    MW420941   3.377   3.725   7.193
 5156SOL     OW20942   2.507   2.074   6.889
 5156SOL    HW220943   2.438   2.137   6.910
 5156SOL    HW320944   2.534   2.038   6.974
 5156SOL    MW420945   2.501   2.077   6.902
 5157SOL     OW20946   1.890   2.915   5.758
 5157SOL    HW220947   1.859   2.980   5.821
 5157SOL    HW320948   1.839   2.837   5.777
 5157SOL    MW420949   1.880   2.912   5.768
 5158SOL     OW20950   3.302   1.927   6.506
 5158SOL    HW220951   3.390   1.936   6.543
 5158SOL    HW320952   3.312   1.868   6.432
 5158SOL    MW420953   3.316   1.921   6.500
 5159SOL     OW20954   3.334   2.666   6.350
 5159SOL    HW220955   3.414   2.681   6.299
 5159SOL    HW320956   3.327   2.571   6.356
 5159SOL    MW420957   3.343   2.655   6.345
 5160SOL     OW20958   2.474   3.715   5.700
 5160SOL    HW220959   2.379   3.715   5.692
 5160SOL    HW320960   2.490   3.661   5.778
 5160SOL    MW420961   2.464   3.709   5.709
 5161SOL     OW20962   2.784   2.592   7.047
 5161SOL    HW220963   2.853   2.659   7.044
 5161SOL    HW320964   2.717   2.630   7.103
 5161SOL    MW420965   2.785   2.605   7.054
 5162SOL     OW20966   2.202   2.892   7.295
 5162SOL    HW220967   2.156   2.808   7.297
 5162SOL    HW320968   2.259   2.886   7.219
 5162SOL    MW420969   2.204   2.880   7.287
 5163SOL     OW20970   3.319   2.535   5.615
 5163SOL    HW220971   3.247   2.511   5.557
 5163SOL    HW320972   3.385   2.572   5.557
 5163SOL    MW420973   3.318   2.537   5.600
 5164SOL     OW20974   2.453   3.267   6.296
 5164SOL    HW220975   2.518   3.200   6.317
 5164SOL    HW320976   2.505   3.344   6.273
 5164SOL    MW420977   2.468   3.269   6.295
 5165SOL     OW20978   2.714   2.432   6.426
 5165SOL    HW220979   2.654   2.450   6.498
 5165SOL    HW320980   2.748   2.344   6.445
 5165SOL    MW420981   2.710   2.422   6.439
 5166SOL     OW20982   3.655   1.931   7.095
 5166SOL    HW220983   3.576   1.977   7.123
 5166SOL    HW320984   3.690   1.985   7.024
 5166SOL    MW420985   3.649   1.944   7.089
 5167SOL     OW20986   2.939   3.015   6.445
 5167SOL    HW220987   3.031   2.996   6.463
 5167SOL    HW320988   2.912   2.945   6.385
 5167SOL    MW420989   2.947   3.003   6.439
 5168SOL     OW20990   2.732   2.835   5.800
 5168SOL    HW220991   2.718   2.747   5.765
 5168SOL    HW320992   2.683   2.892   5.741
 5168SOL    MW420993   2.724   2.830   5.788
 5169SOL     OW20994   3.213   3.253   6.541
 5169SOL    HW220995   3.186   3.337   6.506
 5169SOL    HW320996   3.173   3.248   6.628
 5169SOL    MW420997   3.206   3.262   6.547
 5170SOL     OW20998   3.132   3.201   6.809
 5170SOL    HW220999   3.143   3.168   6.898
 5170SOL    HW321000   3.051   3.160   6.778
 5170SOL    MW421001   3.122   3.193   6.815
 5171SOL     OW21002   2.145   2.559   6.579
 5171SOL    HW221003   2.095   2.558   6.660
 5171SOL    HW321004   2.165   2.651   6.563
 5171SOL    MW421005   2.141   2.571   6.587
 5172SOL     OW21006   3.212   3.323   7.341
 5172SOL    HW221007   3.212   3.417   7.357
 5172SOL    HW321008   3.257   3.313   7.257
 5172SOL    MW421009   3.218   3.333   7.332
 5173SOL     OW21010   3.451   2.041   5.902
 5173SOL    HW221011   3.444   2.045   5.997
 5173SOL    HW321012   3.463   2.132   5.875
 5173SOL    MW421013   3.452   2.054   5.910
 5174SOL     OW21014   2.740   2.604   6.016
 5174SOL    HW221015   2.720   2.590   5.923
 5174SOL    HW321016   2.833   2.583   6.023
 5174SOL    MW421017   2.750   2.599   6.005
 5175SOL     OW21018   2.067   2.227   7.320
 5175SOL    HW221019   2.024   2.286   7.257
 5175SOL    HW321020   2.135   2.282   7.360
 5175SOL    MW421021   2.071   2.242   7.317
 5176SOL     OW21022   3.179   2.847   6.865
 5176SOL    HW221023   3.242   2.844   6.938
 5176SOL    HW321024   3.095   2.865   6.907
 5176SOL    MW421025   3.175   2.849   6.880
 5177SOL     OW21026   2.723   3.562   6.054
 5177SOL    HW221027   2.781   3.633   6.081
 5177SOL    HW321028   2.746   3.490   6.112
 5177SOL    MW421029   2.734   3.562   6.065
 5178SOL     OW21030   3.518   2.024   6.644
 5178SOL    HW221031   3.563   1.942   6.663
 5178SOL    HW321032   3.538   2.080   6.720
 5178SOL    MW421033   3.528   2.020   6.656
 5179SOL     OW21034   1.966   1.867   6.743
 5179SOL    HW221035   1.957   1.868   6.648
 5179SOL    HW321036   2.060   1.879   6.758
 5179SOL    MW421037   1.978   1.870   6.734
 5180SOL     OW21038   3.603   3.060   6.363
 5180SOL    HW221039   3.582   3.006   6.286
 5180SOL    HW321040   3.699   3.058   6.367
 5180SOL    MW421041   3.612   3.053   6.352
 5181SOL     OW21042   2.295   3.205   7.106
 5181SOL    HW221043   2.216   3.155   7.129
 5181SOL    HW321044   2.365   3.164   7.156
 5181SOL    MW421045   2.293   3.193   7.116
 5182SOL     OW21046   2.179   1.994   5.789
 5182SOL    HW221047   2.108   2.049   5.757
 5182SOL    HW321048   2.221   1.960   5.710
 5182SOL    MW421049   2.175   1.996   5.775
 5183SOL     OW21050   3.303   2.491   6.625
 5183SOL    HW221051   3.226   2.537   6.591
 5183SOL    HW321052   3.360   2.560   6.659
 5183SOL    MW421053   3.300   2.506   6.625
 5184SOL     OW21054   1.935   2.093   5.638
 5184SOL    HW221055   1.902   2.172   5.682
 5184SOL    HW321056   1.990   2.126   5.567
 5184SOL    MW421057   1.938   2.107   5.635
 5185SOL     OW21058   1.969   3.350   5.827
 5185SOL    HW221059   1.986   3.434   5.869
 5185SOL    HW321060   2.004   3.359   5.739
 5185SOL    MW421061   1.974   3.363   5.821
 5186SOL     OW21062   3.241   3.439   6.044
 5186SOL    HW221063   3.304   3.429   5.973
 5186SOL    HW321064   3.158   3.459   5.999
 5186SOL    MW421065   3.238   3.440   6.029
 5187SOL     OW21066   3.604   4.575   0.257
 5187SOL    HW221067   3.645   4.517   0.322
 5187SOL    HW321068   3.511   4.567   0.274
 5187SOL    MW421069   3.598   4.567   0.267
 5188SOL     OW21070   3.470   4.507   1.252
 5188SOL    HW221071   3.425   4.574   1.303
 5188SOL    HW321072   3.558   4.543   1.238
 5188SOL    MW421073   3.476   4.520   1.256
 5189SOL     OW21074   2.398   4.758   0.486
 5189SOL    HW221075   2.488   4.733   0.470
 5189SOL    HW321076   2.394   4.851   0.463
 5189SOL    MW421077   2.410   4.767   0.481
 5190SOL     OW21078   3.514   5.461   0.628
 5190SOL    HW221079   3.526   5.407   0.706
 5190SOL    HW321080   3.551   5.409   0.557
 5190SOL    MW421081   3.520   5.446   0.629
 5191SOL     OW21082   2.893   5.346   1.629
 5191SOL    HW221083   2.934   5.382   1.550
 5191SOL    HW321084   2.928   5.257   1.636
 5191SOL    MW421085   2.904   5.339   1.620
 5192SOL     OW21086   3.450   4.901   1.233
 5192SOL    HW221087   3.371   4.866   1.191
 5192SOL    HW321088   3.477   4.973   1.177
 5192SOL    MW421089   3.443   4.906   1.220
 5193SOL     OW21090   2.682   4.214   0.499
 5193SOL    HW221091   2.657   4.302   0.527
 5193SOL    HW321092   2.679   4.217   0.403
 5193SOL    MW421093   2.678   4.226   0.491
 5194SOL     OW21094   2.124   4.242   0.427
 5194SOL    HW221095   2.156   4.330   0.409
 5194SOL    HW321096   2.112   4.240   0.522
 5194SOL    MW421097   2.127   4.254   0.439
 5195SOL     OW21098   2.202   4.655   1.328
 5195SOL    HW221099   2.265   4.602   1.279
 5195SOL    HW321100   2.183   4.729   1.271
 5195SOL    MW421101   2.208   4.657   1.315
 5196SOL     OW21102   2.523   3.997   0.514
 5196SOL    HW221103   2.581   4.073   0.516
 5196SOL    HW321104   2.458   4.018   0.447
 5196SOL    MW421105   2.522   4.009   0.505
 5197SOL     OW21106   2.610   4.924   0.689
 5197SOL    HW221107   2.690   4.927   0.741
 5197SOL    HW321108   2.638   4.891   0.603
 5197SOL    MW421109   2.624   4.920   0.684
 5198SOL     OW21110   2.635   5.265   1.592
 5198SOL    HW221111   2.719   5.291   1.631
 5198SOL    HW321112   2.659   5.209   1.518
 5198SOL    MW421113   2.649   5.261   1.587
 5199SOL     OW21114   2.387   4.428   0.680
 5199SOL    HW221115   2.372   4.348   0.731
 5199SOL    HW321116   2.469   4.463   0.714
 5199SOL    MW421117   2.395   4.420   0.692
 5200SOL     OW21118   2.724   5.114   1.365
 5200SOL    HW221119   2.688   5.180   1.305
 5200SOL    HW321120   2.652   5.052   1.378
 5200SOL    MW421121   2.710   5.114   1.359
 5201SOL     OW21122   2.529   4.254   1.057
 5201SOL    HW221123   2.435   4.250   1.075
 5201SOL    HW321124   2.559   4.163   1.066
 5201SOL    MW421125   2.520   4.242   1.060
 5202SOL     OW21126   2.275   4.668   0.961
 5202SOL    HW221127   2.230   4.675   0.877
 5202SOL    HW321128   2.255   4.751   1.005
 5202SOL    MW421129   2.267   4.680   0.955
 5203SOL     OW21130   1.972   5.514   0.836
 5203SOL    HW221131   2.061   5.506   0.871
 5203SOL    HW321132   1.936   5.426   0.841
 5203SOL    MW421133   1.979   5.501   0.841
 5204SOL     OW21134   3.237   4.906   0.205
 5204SOL    HW221135   3.155   4.942   0.171
 5204SOL    HW321136   3.305   4.949   0.154
 5204SOL    MW421137   3.235   4.916   0.193
 5205SOL     OW21138   2.236   5.041   0.871
 5205SOL    HW221139   2.212   5.094   0.947
 5205SOL    HW321140   2.292   5.099   0.819
 5205SOL    MW421141   2.240   5.056   0.874
 5206SOL     OW21142   2.798   4.685   0.681
 5206SOL    HW221143   2.712   4.672   0.721
 5206SOL    HW321144   2.851   4.612   0.713
 5206SOL    MW421145   2.794   4.674   0.690
 5207SOL     OW21146   2.206   5.337   1.466
 5207SOL    HW221147   2.114   5.313   1.451
 5207SOL    HW321148   2.250   5.254   1.483
 5207SOL    MW421149   2.200   5.322   1.465
 5208SOL     OW21150   2.789   5.047   0.398
 5208SOL    HW221151   2.766   5.109   0.466
 5208SOL    HW321152   2.746   4.965   0.424
 5208SOL    MW421153   2.781   5.043   0.409
 5209SOL     OW21154   3.662   4.048   0.854
 5209SOL    HW221155   3.599   4.028   0.923
 5209SOL    HW321156   3.652   3.977   0.791
 5209SOL    MW421157   3.652   4.035   0.855
 5210SOL     OW21158   2.286   4.020   0.366
 5210SOL    HW221159   2.260   3.982   0.282
 5210SOL    HW321160   2.223   4.090   0.382
 5210SOL    MW421161   2.275   4.023   0.357
 5211SOL     OW21162   2.121   4.981   0.403
 5211SOL    HW221163   2.069   5.049   0.359
 5211SOL    HW321164   2.118   4.907   0.343
 5211SOL    MW421165   2.113   4.980   0.390
 5212SOL     OW21166   2.783   5.444   0.181
 5212SOL    HW221167   2.738   5.460   0.264
 5212SOL    HW321168   2.714   5.409   0.123
 5212SOL    MW421169   2.769   5.441   0.183
 5213SOL     OW21170   3.718   4.217   0.156
 5213SOL    HW221171   3.627   4.219   0.184
 5213SOL    HW321172   3.763   4.279   0.214
 5213SOL    MW421173   3.711   4.225   0.166
 5214SOL     OW21174   3.463   4.820   0.506
 5214SOL    HW221175   3.373   4.820   0.541
 5214SOL    HW321176   3.456   4.866   0.423
 5214SOL    MW421177   3.450   4.826   0.500
 5215SOL     OW21178   3.263   4.455   1.578
 5215SOL    HW221179   3.332   4.393   1.555
 5215SOL    HW321180   3.188   4.429   1.525
 5215SOL    MW421181   3.263   4.442   1.569
 5216SOL     OW21182   2.004   5.335   1.130
 5216SOL    HW221183   1.987   5.281   1.207
 5216SOL    HW321184   1.992   5.425   1.160
 5216SOL    MW421185   2.001   5.339   1.144
 5217SOL     OW21186   2.999   4.842   1.570
 5217SOL    HW221187   2.984   4.935   1.555
 5217SOL    HW321188   3.094   4.832   1.570
 5217SOL    MW421189   3.008   4.852   1.567
 5218SOL     OW21190   2.795   4.266   1.771
 5218SOL    HW221191   2.885   4.267   1.738
 5218SOL    HW321192   2.754   4.191   1.729
 5218SOL    MW421193   2.801   4.256   1.762
 5219SOL     OW21194   3.370   4.798   0.898
 5219SOL    HW221195   3.373   4.732   0.829
 5219SOL    HW321196   3.455   4.841   0.894
 5219SOL    MW421197   3.382   4.794   0.889
 5220SOL     OW21198   2.990   4.401   0.467
 5220SOL    HW221199   3.016   4.425   0.378
 5220SOL    HW321200   2.972   4.308   0.463
 5220SOL    MW421201   2.992   4.393   0.454
 5221SOL     OW21202   3.655   5.021   0.318
 5221SOL    HW221203   3.611   5.062   0.393
 5221SOL    HW321204   3.712   5.089   0.283
 5221SOL    MW421205   3.657   5.035   0.323
 5222SOL     OW21206   2.575   4.070   1.721
 5222SOL    HW221207   2.585   3.996   1.661
 5222SOL    HW321208   2.611   4.039   1.804
 5222SOL    MW421209   2.581   4.056   1.723
 5223SOL     OW21210   2.311   5.437   0.636
 5223SOL    HW221211   2.343   5.525   0.614
 5223SOL    HW321212   2.264   5.409   0.558
 5223SOL    MW421213   2.310   5.445   0.623
 5224SOL     OW21214   3.695   3.799   0.685
 5224SOL    HW221215   3.749   3.750   0.747
 5224SOL    HW321216   3.638   3.733   0.646
 5224SOL    MW421217   3.695   3.783   0.687
 5225SOL     OW21218   2.027   5.497   0.213
 5225SOL    HW221219   2.056   5.587   0.205
 5225SOL    HW321220   1.977   5.480   0.134
 5225SOL    MW421221   2.025   5.505   0.202
 5226SOL     OW21222   2.814   3.752   1.098
 5226SOL    HW221223   2.773   3.830   1.060
 5226SOL    HW321224   2.908   3.770   1.093
 5226SOL    MW421225   2.820   3.764   1.093
 5227SOL     OW21226   3.431   5.305   0.184
 5227SOL    HW221227   3.479   5.374   0.230
 5227SOL    HW321228   3.352   5.349   0.153
 5227SOL    MW421229   3.426   5.319   0.187
 5228SOL     OW21230   2.829   4.430   0.128
 5228SOL    HW221231   2.831   4.377   0.049
 5228SOL    HW321232   2.917   4.467   0.134
 5228SOL    MW421233   2.841   4.429   0.117
 5229SOL     OW21234   3.443   4.356   0.464
 5229SOL    HW221235   3.482   4.356   0.551
 5229SOL    HW321236   3.384   4.432   0.464
 5229SOL    MW421237   3.440   4.367   0.475
 5230SOL     OW21238   2.760   4.723   1.593
 5230SOL    HW221239   2.737   4.703   1.683
 5230SOL    HW321240   2.845   4.767   1.598
 5230SOL    MW421241   2.767   4.726   1.605
 5231SOL     OW21242   2.840   3.860   1.353
 5231SOL    HW221243   2.846   3.822   1.266
 5231SOL    HW321244   2.829   3.954   1.338
 5231SOL    MW421245   2.841   3.868   1.341
 5232SOL     OW21246   2.929   4.349   1.187
 5232SOL    HW221247   3.004   4.378   1.134
 5232SOL    HW321248   2.861   4.414   1.171
 5232SOL    MW421249   2.930   4.361   1.177
 5233SOL     OW21250   3.479   4.317   1.464
 5233SOL    HW221251   3.460   4.226   1.443
 5233SOL    HW321252   3.457   4.366   1.385
 5233SOL    MW421253   3.474   4.310   1.451
 5234SOL     OW21254   3.621   5.411   1.368
 5234SOL    HW221255   3.549   5.373   1.419
 5234SOL    HW321256   3.638   5.496   1.409
 5234SOL    MW421257   3.615   5.416   1.380
 5235SOL     OW21258   2.926   4.055   1.570
 5235SOL    HW221259   2.892   4.094   1.489
 5235SOL    HW321260   2.904   3.963   1.563
 5235SOL    MW421261   2.919   4.048   1.560
 5236SOL     OW21262   3.335   4.869   1.646
 5236SOL    HW221263   3.417   4.910   1.676
 5236SOL    HW321264   3.298   4.831   1.726
 5236SOL    MW421265   3.341   4.870   1.661
 5237SOL     OW21266   3.630   4.242   0.630
 5237SOL    HW221267   3.719   4.211   0.647
 5237SOL    HW321268   3.573   4.182   0.678
 5237SOL    MW421269   3.633   4.230   0.639
 5238SOL     OW21270   2.056   3.956   0.659
 5238SOL    HW221271   2.047   3.896   0.585
 5238SOL    HW321272   1.989   3.927   0.722
 5238SOL    MW421273   2.046   3.943   0.657
 5239SOL     OW21274   2.999   5.049   0.220
 5239SOL    HW221275   2.949   5.051   0.302
 5239SOL    HW321276   2.933   5.067   0.152
 5239SOL    MW421277   2.985   5.051   0.222
 5240SOL     OW21278   2.003   4.129   1.022
 5240SOL    HW221279   1.975   4.220   1.031
 5240SOL    HW321280   1.940   4.090   0.961
 5240SOL    MW421281   1.990   4.135   1.016
 5241SOL     OW21282   2.462   5.467   0.328
 5241SOL    HW221283   2.383   5.425   0.361
 5241SOL    HW321284   2.528   5.450   0.395
 5241SOL    MW421285   2.461   5.459   0.341
 5242SOL     OW21286   3.590   4.987   1.725
 5242SOL    HW221287   3.640   4.913   1.757
 5242SOL    HW321288   3.536   5.014   1.800
 5242SOL    MW421289   3.590   4.981   1.738
 5243SOL     OW21290   2.598   4.882   0.035
 5243SOL    HW221291   2.520   4.828   0.022
 5243SOL    HW321292   2.569   4.955   0.088
 5243SOL    MW421293   2.584   4.884   0.040
 5244SOL     OW21294   3.724   4.622   1.227
 5244SOL    HW221295   3.740   4.660   1.140
 5244SOL    HW321296   3.758   4.688   1.288
 5244SOL    MW421297   3.731   4.635   1.223
 5245SOL     OW21298   3.516   5.331   0.896
 5245SOL    HW221299   3.545   5.398   0.957
 5245SOL    HW321300   3.497   5.255   0.951
 5245SOL    MW421301   3.518   5.331   0.911
 5246SOL     OW21302   3.179   5.398   0.103
 5246SOL    HW221303   3.105   5.361   0.153
 5246SOL    HW321304   3.187   5.488   0.136
 5246SOL    MW421305   3.170   5.405   0.115
 5247SOL     OW21306   1.987   4.404   1.192
 5247SOL    HW221307   2.049   4.434   1.258
 5247SOL    HW321308   1.921   4.473   1.186
 5247SOL    MW421309   1.986   4.417   1.199
 5248SOL     OW21310   3.403   5.072   0.045
 5248SOL    HW221311   3.350   5.121  -0.019
 5248SOL    HW321312   3.434   5.138   0.106
 5248SOL    MW421313   3.401   5.086   0.043
 5249SOL     OW21314   2.628   3.961   0.100
 5249SOL    HW221315   2.576   3.881   0.088
 5249SOL    HW321316   2.715   3.938   0.068
 5249SOL    MW421317   2.631   3.947   0.094
 5250SOL     OW21318   2.082   5.513   1.644
 5250SOL    HW221319   2.056   5.581   1.582
 5250SOL    HW321320   2.130   5.450   1.592
 5250SOL    MW421321   2.084   5.513   1.630
 5251SOL     OW21322   2.134   4.832   1.151
 5251SOL    HW221323   2.187   4.907   1.176
 5251SOL    HW321324   2.053   4.870   1.117
 5251SOL    MW421325   2.130   4.847   1.151
 5252SOL     OW21326   2.674   4.736   1.139
 5252SOL    HW221327   2.702   4.645   1.151
 5252SOL    HW321328   2.603   4.730   1.075
 5252SOL    MW421329   2.667   4.724   1.134
 5253SOL     OW21330   1.989   4.601   0.557
 5253SOL    HW221331   2.080   4.616   0.584
 5253SOL    HW321332   1.992   4.522   0.503
 5253SOL    MW421333   2.001   4.593   0.555
 5254SOL     OW21334   2.225   4.309   1.811
 5254SOL    HW221335   2.172   4.389   1.818
 5254SOL    HW321336   2.295   4.321   1.876
 5254SOL    MW421337   2.227   4.322   1.819
 5255SOL     OW21338   2.611   3.859   1.518
 5255SOL    HW221339   2.588   3.767   1.520
 5255SOL    HW321340   2.697   3.861   1.475
 5255SOL    MW421341   2.618   3.849   1.514
 5256SOL     OW21342   2.295   4.383   1.557
 5256SOL    HW221343   2.375   4.433   1.543
 5256SOL    HW321344   2.286   4.377   1.652
 5256SOL    MW421345   2.304   4.389   1.567
 5257SOL     OW21346   2.616   5.533   0.931
 5257SOL    HW221347   2.705   5.548   0.961
 5257SOL    HW321348   2.611   5.580   0.847
 5257SOL    MW421349   2.626   5.541   0.924
 5258SOL     OW21350   3.272   3.908   1.828
 5258SOL    HW221351   3.328   3.835   1.854
 5258SOL    HW321352   3.242   3.946   1.910
 5258SOL    MW421353   3.276   3.903   1.841
 5259SOL     OW21354   1.997   5.213   0.596
 5259SOL    HW221355   1.969   5.252   0.678
 5259SOL    HW321356   2.017   5.122   0.618
 5259SOL    MW421357   1.995   5.205   0.609
 5260SOL     OW21358   2.830   5.256   0.631
 5260SOL    HW221359   2.913   5.210   0.615
 5260SOL    HW321360   2.820   5.255   0.727
 5260SOL    MW421361   2.840   5.249   0.641
 5261SOL     OW21362   3.662   4.401   0.945
 5261SOL    HW221363   3.751   4.431   0.927
 5261SOL    HW321364   3.642   4.341   0.874
 5261SOL    MW421365   3.671   4.398   0.934
 5262SOL     OW21366   3.513   4.580   1.825
 5262SOL    HW221367   3.568   4.504   1.806
 5262SOL    HW321368   3.515   4.588   1.920
 5262SOL    MW421369   3.521   4.571   1.833
 5263SOL     OW21370   2.563   5.313   0.036
 5263SOL    HW221371   2.503   5.382   0.006
 5263SOL    HW321372   2.508   5.255   0.089
 5263SOL    MW421373   2.547   5.315   0.038
 5264SOL     OW21374   3.001   3.958   0.259
 5264SOL    HW221375   2.934   3.934   0.196
 5264SOL    HW321376   3.066   4.007   0.208
 5264SOL    MW421377   3.001   3.960   0.244
 5265SOL     OW21378   2.808   4.142   1.344
 5265SOL    HW221379   2.727   4.183   1.372
 5265SOL    HW321380   2.855   4.210   1.296
 5265SOL    MW421381   2.803   4.157   1.342
 5266SOL     OW21382   3.068   4.480   0.967
 5266SOL    HW221383   3.081   4.574   0.977
 5266SOL    HW321384   3.029   4.470   0.881
 5266SOL    MW421385   3.064   4.491   0.957
 5267SOL     OW21386   2.520   4.675   0.771
 5267SOL    HW221387   2.431   4.666   0.804
 5267SOL    HW321388   2.524   4.765   0.739
 5267SOL    MW421389   2.509   4.686   0.771
 5268SOL     OW21390   3.319   4.258   0.766
 5268SOL    HW221391   3.264   4.179   0.765
 5268SOL    HW321392   3.301   4.299   0.850
 5268SOL    MW421393   3.309   4.253   0.775
 5269SOL     OW21394   2.290   3.945   1.583
 5269SOL    HW221395   2.211   3.963   1.635
 5269SOL    HW321396   2.285   4.007   1.510
 5269SOL    MW421397   2.280   3.955   1.580
 5270SOL     OW21398   2.938   4.462   0.723
 5270SOL    HW221399   2.875   4.394   0.747
 5270SOL    HW321400   2.958   4.443   0.631
 5270SOL    MW421401   2.932   4.449   0.715
 5271SOL     OW21402   2.194   5.357   0.425
 5271SOL    HW221403   2.155   5.404   0.351
 5271SOL    HW321404   2.128   5.292   0.450
 5271SOL    MW421405   2.181   5.355   0.419
 5272SOL     OW21406   2.686   4.766   0.449
 5272SOL    HW221407   2.688   4.740   0.356
 5272SOL    HW321408   2.744   4.703   0.492
 5272SOL    MW421409   2.694   4.755   0.443
 5273SOL     OW21410   3.239   5.326   1.221
 5273SOL    HW221411   3.164   5.372   1.259
 5273SOL    HW321412   3.221   5.233   1.238
 5273SOL    MW421413   3.228   5.320   1.229
 5274SOL     OW21414   3.243   5.534   0.651
 5274SOL    HW221415   3.186   5.487   0.590
 5274SOL    HW321416   3.329   5.495   0.638
 5274SOL    MW421417   3.246   5.525   0.641
 5275SOL     OW21418   3.196   4.010   0.782
 5275SOL    HW221419   3.224   3.942   0.843
 5275SOL    HW321420   3.110   3.981   0.752
 5275SOL    MW421421   3.189   3.997   0.786
 5276SOL     OW21422   2.001   4.944   0.716
 5276SOL    HW221423   2.065   4.976   0.779
 5276SOL    HW321424   2.050   4.880   0.664
 5276SOL    MW421425   2.016   4.940   0.717
 5277SOL     OW21426   2.501   5.020   1.698
 5277SOL    HW221427   2.549   5.103   1.685
 5277SOL    HW321428   2.558   4.968   1.754
 5277SOL    MW421429   2.515   5.024   1.704
 5278SOL     OW21430   2.077   5.262   1.838
 5278SOL    HW221431   2.133   5.186   1.853
 5278SOL    HW321432   2.026   5.240   1.760
 5278SOL    MW421433   2.077   5.249   1.829
 5279SOL     OW21434   3.176   4.114   0.117
 5279SOL    HW221435   3.149   4.180   0.053
 5279SOL    HW321436   3.246   4.157   0.167
 5279SOL    MW421437   3.181   4.127   0.114
 5280SOL     OW21438   2.844   3.819   0.054
 5280SOL    HW221439   2.900   3.811  -0.024
 5280SOL    HW321440   2.821   3.729   0.076
 5280SOL    MW421441   2.849   3.806   0.047
 5281SOL     OW21442   3.349   4.670   0.259
 5281SOL    HW221443   3.316   4.759   0.249
 5281SOL    HW321444   3.314   4.641   0.344
 5281SOL    MW421445   3.339   4.679   0.270
 5282SOL     OW21446   2.962   5.099   1.447
 5282SOL    HW221447   2.873   5.105   1.415
 5282SOL    HW321448   3.006   5.178   1.415
 5282SOL    MW421449   2.957   5.109   1.439
 5283SOL     OW21450   2.255   3.767   1.789
 5283SOL    HW221451   2.183   3.732   1.737
 5283SOL    HW321452   2.313   3.808   1.724
 5283SOL    MW421453   2.253   3.768   1.774
 5284SOL     OW21454   2.279   5.257   1.088
 5284SOL    HW221455   2.324   5.319   1.145
 5284SOL    HW321456   2.186   5.276   1.101
 5284SOL    MW421457   2.272   5.267   1.095
 5285SOL     OW21458   3.719   4.786   1.442
 5285SOL    HW221459   3.634   4.799   1.401
 5285SOL    HW321460   3.699   4.750   1.529
 5285SOL    MW421461   3.706   4.782   1.447
 5286SOL     OW21462   2.701   5.325   1.196
 5286SOL    HW221463   2.725   5.314   1.105
 5286SOL    HW321464   2.624   5.382   1.194
 5286SOL    MW421465   2.693   5.330   1.185
 5287SOL     OW21466   2.343   4.708   0.051
 5287SOL    HW221467   2.266   4.721   0.107
 5287SOL    HW321468   2.307   4.672  -0.030
 5287SOL    MW421469   2.329   4.704   0.048
 5288SOL     OW21470   2.996   4.681   0.294
 5288SOL    HW221471   2.906   4.702   0.269
 5288SOL    HW321472   3.023   4.754   0.350
 5288SOL    MW421473   2.988   4.693   0.297
 5289SOL     OW21474   2.496   5.030   0.986
 5289SOL    HW221475   2.489   5.009   1.080
 5289SOL    HW321476   2.414   4.998   0.949
 5289SOL    MW421477   2.484   5.024   0.993
 5290SOL     OW21478   3.360   4.040   1.388
 5290SOL    HW221479   3.307   4.042   1.468
 5290SOL    HW321480   3.345   3.953   1.351
 5290SOL    MW421481   3.352   4.030   1.393
 5291SOL     OW21482   3.696   3.964   1.261
 5291SOL    HW221483   3.677   4.031   1.196
 5291SOL    HW321484   3.753   3.902   1.216
 5291SOL    MW421485   3.700   3.965   1.247
 5292SOL     OW21486   1.942   5.122   1.649
 5292SOL    HW221487   1.986   5.055   1.595
 5292SOL    HW321488   1.857   5.084   1.669
 5292SOL    MW421489   1.937   5.108   1.645
 5293SOL     OW21490   2.625   3.797   0.701
 5293SOL    HW221491   2.554   3.858   0.683
 5293SOL    HW321492   2.676   3.794   0.620
 5293SOL    MW421493   2.621   3.803   0.688
 5294SOL     OW21494   2.383   5.037   0.450
 5294SOL    HW221495   2.376   5.069   0.540
 5294SOL    HW321496   2.293   5.021   0.422
 5294SOL    MW421497   2.371   5.039   0.457
 5295SOL     OW21498   2.978   5.430   1.359
 5295SOL    HW221499   2.898   5.415   1.309
 5295SOL    HW321500   2.985   5.525   1.366
 5295SOL    MW421501   2.969   5.441   1.353
 5296SOL     OW21502   3.092   5.395   0.849
 5296SOL    HW221503   3.139   5.468   0.808
 5296SOL    HW321504   3.013   5.434   0.885
 5296SOL    MW421505   3.087   5.410   0.848
 5297SOL     OW21506   3.500   5.490   1.124
 5297SOL    HW221507   3.543   5.460   1.204
 5297SOL    HW321508   3.419   5.438   1.121
 5297SOL    MW421509   3.495   5.479   1.134
 5298SOL     OW21510   2.585   4.454   1.831
 5298SOL    HW221511   2.655   4.396   1.803
 5298SOL    HW321512   2.528   4.399   1.886
 5298SOL    MW421513   2.587   4.441   1.835
 5299SOL     OW21514   3.372   4.666   1.464
 5299SOL    HW221515   3.377   4.719   1.544
 5299SOL    HW321516   3.334   4.583   1.492
 5299SOL    MW421517   3.368   4.661   1.479
 5300SOL     OW21518   3.012   3.801   1.710
 5300SOL    HW221519   3.007   3.708   1.691
 5300SOL    HW321520   3.095   3.812   1.756
 5300SOL    MW421521   3.020   3.790   1.714
 5301SOL     OW21522   2.386   4.321   0.164
 5301SOL    HW221523   2.352   4.377   0.234
 5301SOL    HW321524   2.457   4.271   0.204
 5301SOL    MW421525   2.392   4.322   0.178
 5302SOL     OW21526   3.482   5.072   0.986
 5302SOL    HW221527   3.517   5.054   0.899
 5302SOL    HW321528   3.387   5.073   0.973
 5302SOL    MW421529   3.474   5.069   0.973
 5303SOL     OW21530   2.911   4.720   1.355
 5303SOL    HW221531   2.954   4.755   1.433
 5303SOL    HW321532   2.894   4.797   1.301
 5303SOL    MW421533   2.914   4.735   1.358
 5304SOL     OW21534   3.442   4.207   0.228
 5304SOL    HW221535   3.434   4.278   0.165
 5304SOL    HW321536   3.460   4.251   0.311
 5304SOL    MW421537   3.443   4.221   0.230
 5305SOL     OW21538   2.302   3.862   0.657
 5305SOL    HW221539   2.352   3.905   0.588
 5305SOL    HW321540   2.217   3.906   0.657
 5305SOL    MW421541   2.299   3.875   0.648
 5306SOL     OW21542   2.061   4.924   1.517
 5306SOL    HW221543   2.089   4.877   1.595
 5306SOL    HW321544   1.982   4.879   1.488
 5306SOL    MW421545   2.054   4.913   1.523
 5307SOL     OW21546   2.569   4.251   1.484
 5307SOL    HW221547   2.541   4.339   1.508
 5307SOL    HW321548   2.538   4.195   1.555
 5307SOL    MW421549   2.561   4.254   1.496
 5308SOL     OW21550   3.111   4.469   0.203
 5308SOL    HW221551   3.158   4.487   0.122
 5308SOL    HW321552   3.077   4.553   0.231
 5308SOL    MW421553   3.113   4.483   0.196
 5309SOL     OW21554   2.224   4.647   0.697
 5309SOL    HW221555   2.282   4.703   0.645
 5309SOL    HW321556   2.268   4.562   0.699
 5309SOL    MW421557   2.237   4.644   0.690
 5310SOL     OW21558   3.364   3.999   0.534
 5310SOL    HW221559   3.286   3.949   0.559
 5310SOL    HW321560   3.335   4.090   0.534
 5310SOL    MW421561   3.350   4.003   0.537
 5311SOL     OW21562   2.950   3.961   0.693
 5311SOL    HW221563   2.970   4.036   0.637
 5311SOL    HW321564   2.930   4.000   0.778
 5311SOL    MW421565   2.951   3.977   0.697
 5312SOL     OW21566   2.846   5.211   0.025
 5312SOL    HW221567   2.873   5.289  -0.023
 5312SOL    HW321568   2.753   5.226   0.044
 5312SOL    MW421569   2.837   5.224   0.021
 5313SOL     OW21570   3.710   4.734   1.712
 5313SOL    HW221571   3.623   4.714   1.748
 5313SOL    HW321572   3.764   4.660   1.737
 5313SOL    MW421573   3.705   4.723   1.720
 5314SOL     OW21574   1.931   5.247   0.869
 5314SOL    HW221575   1.963   5.251   0.960
 5314SOL    HW321576   1.836   5.255   0.877
 5314SOL    MW421577   1.923   5.250   0.882
 5315SOL     OW21578   1.886   4.373   0.416
 5315SOL    HW221579   1.826   4.345   0.486
 5315SOL    HW321580   1.960   4.313   0.422
 5315SOL    MW421581   1.888   4.362   0.425
 5316SOL     OW21582   3.454   5.585   1.850
 5316SOL    HW221583   3.499   5.509   1.815
 5316SOL    HW321584   3.492   5.598   1.937
 5316SOL    MW421585   3.464   5.578   1.856
 5317SOL     OW21586   3.054   5.104   0.576
 5317SOL    HW221587   3.077   5.055   0.654
 5317SOL    HW321588   3.135   5.146   0.548
 5317SOL    MW421589   3.067   5.104   0.583
 5318SOL     OW21590   2.312   4.112   1.305
 5318SOL    HW221591   2.345   4.193   1.345
 5318SOL    HW321592   2.285   4.138   1.217
 5318SOL    MW421593   2.311   4.126   1.299
 5319SOL     OW21594   2.266   4.079   1.041
 5319SOL    HW221595   2.296   3.993   1.012
 5319SOL    HW321596   2.171   4.072   1.044
 5319SOL    MW421597   2.258   4.068   1.039
 5320SOL     OW21598   3.095   4.288   1.732
 5320SOL    HW221599   3.147   4.223   1.685
 5320SOL    HW321600   3.053   4.339   1.662
 5320SOL    MW421601   3.096   4.285   1.715
 5321SOL     OW21602   3.194   4.083   1.593
 5321SOL    HW221603   3.101   4.067   1.580
 5321SOL    HW321604   3.220   4.021   1.661
 5321SOL    MW421605   3.184   4.073   1.600
 5322SOL     OW21606   2.409   3.857   0.932
 5322SOL    HW221607   2.419   3.766   0.958
 5322SOL    HW321608   2.365   3.853   0.847
 5322SOL    MW421609   2.405   3.845   0.924
 5323SOL     OW21610   2.503   5.472   1.478
 5323SOL    HW221611   2.420   5.457   1.523
 5323SOL    HW321612   2.562   5.405   1.513
 5323SOL    MW421613   2.501   5.462   1.488
 5324SOL     OW21614   3.560   4.179   1.103
 5324SOL    HW221615   3.493   4.212   1.163
 5324SOL    HW321616   3.603   4.257   1.069
 5324SOL    MW421617   3.558   4.194   1.107
 5325SOL     OW21618   3.738   4.899   1.073
 5325SOL    HW221619   3.731   4.839   0.998
 5325SOL    HW321620   3.664   4.959   1.062
 5325SOL    MW421621   3.728   4.899   1.062
 5326SOL     OW21622   3.120   4.761   0.991
 5326SOL    HW221623   3.134   4.733   1.082
 5326SOL    HW321624   3.206   4.792   0.963
 5326SOL    MW421625   3.133   4.762   1.000
 5327SOL     OW21626   3.203   4.256   1.270
 5327SOL    HW221627   3.224   4.257   1.177
 5327SOL    HW321628   3.248   4.178   1.303
 5327SOL    MW421629   3.210   4.246   1.262
 5328SOL     OW21630   3.696   4.387   1.812
 5328SOL    HW221631   3.733   4.332   1.881
 5328SOL    HW321632   3.721   4.344   1.730
 5328SOL    MW421633   3.703   4.375   1.811
 5329SOL     OW21634   3.243   4.685   1.863
 5329SOL    HW221635   3.309   4.633   1.817
 5329SOL    HW321636   3.263   4.672   1.956
 5329SOL    MW421637   3.254   4.676   1.870
 5330SOL     OW21638   3.194   3.771   0.212
 5330SOL    HW221639   3.268   3.815   0.255
 5330SOL    HW321640   3.118   3.825   0.234
 5330SOL    MW421641   3.194   3.783   0.220
 5331SOL     OW21642   3.254   4.546   0.490
 5331SOL    HW221643   3.169   4.516   0.460
 5331SOL    HW321644   3.246   4.553   0.585
 5331SOL    MW421645   3.242   4.544   0.499
 5332SOL     OW21646   2.614   3.989   1.044
 5332SOL    HW221647   2.587   3.991   1.135
 5332SOL    HW321648   2.544   3.941   0.999
 5332SOL    MW421649   2.602   3.985   1.051
 5333SOL     OW21650   2.468   5.481   1.206
 5333SOL    HW221651   2.520   5.558   1.183
 5333SOL    HW321652   2.477   5.473   1.301
 5333SOL    MW421653   2.477   5.488   1.217
 5334SOL     OW21654   3.370   5.066   1.438
 5334SOL    HW221655   3.355   4.995   1.501
 5334SOL    HW321656   3.416   5.024   1.366
 5334SOL    MW421657   3.376   5.050   1.438
 5335SOL     OW21658   2.444   4.797   1.555
 5335SOL    HW221659   2.481   4.802   1.467
 5335SOL    HW321660   2.483   4.870   1.602
 5335SOL    MW421661   2.454   4.807   1.550
 5336SOL     OW21662   2.624   4.840   1.367
 5336SOL    HW221663   2.683   4.786   1.420
 5336SOL    HW321664   2.639   4.812   1.277
 5336SOL    MW421665   2.634   4.829   1.363
 5337SOL     OW21666   2.627   4.212   0.216
 5337SOL    HW221667   2.700   4.261   0.179
 5337SOL    HW321668   2.643   4.121   0.190
 5337SOL    MW421669   2.639   4.207   0.209
 5338SOL     OW21670   3.435   5.329   1.539
 5338SOL    HW221671   3.477   5.314   1.624
 5338SOL    HW321672   3.426   5.242   1.501
 5338SOL    MW421673   3.439   5.317   1.546
 5339SOL     OW21674   3.095   3.808   1.130
 5339SOL    HW221675   3.150   3.817   1.052
 5339SOL    HW321676   3.150   3.842   1.201
 5339SOL    MW421677   3.109   3.813   1.129
 5340SOL     OW21678   2.102   4.721   0.314
 5340SOL    HW221679   2.039   4.737   0.243
 5340SOL    HW321680   2.049   4.684   0.385
 5340SOL    MW421681   2.087   4.718   0.314
 5341SOL     OW21682   2.458   5.075   0.173
 5341SOL    HW221683   2.473   5.051   0.265
 5341SOL    HW321684   2.366   5.053   0.157
 5341SOL    MW421685   2.448   5.068   0.183
 5342SOL     OW21686   2.997   5.306   0.325
 5342SOL    HW221687   3.005   5.224   0.276
 5342SOL    HW321688   2.916   5.345   0.292
 5342SOL    MW421689   2.987   5.301   0.315
 5343SOL     OW21690   2.256   5.464   0.894
 5343SOL    HW221691   2.260   5.375   0.929
 5343SOL    HW321692   2.282   5.455   0.803
 5343SOL    MW421693   2.259   5.452   0.886
 5344SOL     OW21694   2.873   4.942   1.137
 5344SOL    HW221695   2.805   4.876   1.153
 5344SOL    HW321696   2.891   4.936   1.044
 5344SOL    MW421697   2.866   4.933   1.128
 5345SOL     OW21698   1.962   5.217   1.388
 5345SOL    HW221699   1.952   5.175   1.474
 5345SOL    HW321700   1.883   5.270   1.378
 5345SOL    MW421701   1.951   5.218   1.399
 5346SOL     OW21702   2.866   4.081   0.958
 5346SOL    HW221703   2.796   4.033   1.003
 5346SOL    HW321704   2.898   4.144   1.022
 5346SOL    MW421705   2.861   4.083   0.972
 5347SOL     OW21706   2.517   4.517   1.578
 5347SOL    HW221707   2.510   4.612   1.566
 5347SOL    HW321708   2.526   4.506   1.673
 5347SOL    MW421709   2.518   4.529   1.588
 5348SOL     OW21710   2.238   5.032   1.836
 5348SOL    HW221711   2.310   5.034   1.773
 5348SOL    HW321712   2.208   4.941   1.835
 5348SOL    MW421713   2.243   5.021   1.828
 5349SOL     OW21714   3.322   3.795   1.303
 5349SOL    HW221715   3.393   3.741   1.267
 5349SOL    HW321716   3.321   3.774   1.396
 5349SOL    MW421717   3.331   3.786   1.311
 5350SOL     OW21718   3.522   5.325   1.787
 5350SOL    HW221719   3.495   5.322   1.878
 5350SOL    HW321720   3.618   5.329   1.790
 5350SOL    MW421721   3.532   5.325   1.799
 5351SOL     OW21722   2.333   4.187   0.771
 5351SOL    HW221723   2.404   4.135   0.734
 5351SOL    HW321724   2.319   4.152   0.858
 5351SOL    MW421725   2.341   4.176   0.778
 5352SOL     OW21726   1.888   5.522   1.843
 5352SOL    HW221727   1.938   5.500   1.765
 5352SOL    HW321728   1.896   5.617   1.851
 5352SOL    MW421729   1.896   5.531   1.834
 5353SOL     OW21730   2.649   5.280   0.847
 5353SOL    HW221731   2.577   5.217   0.860
 5353SOL    HW321732   2.610   5.365   0.865
 5353SOL    MW421733   2.633   5.283   0.850
 5354SOL     OW21734   2.969   4.128   0.495
 5354SOL    HW221735   2.991   4.065   0.427
 5354SOL    HW321736   2.874   4.120   0.506
 5354SOL    MW421737   2.959   4.119   0.487
 5355SOL     OW21738   2.054   3.818   0.427
 5355SOL    HW221739   2.125   3.839   0.366
 5355SOL    HW321740   2.008   3.746   0.385
 5355SOL    MW421741   2.058   3.812   0.413
 5356SOL     OW21742   1.885   4.285   1.570
 5356SOL    HW221743   1.949   4.351   1.545
 5356SOL    HW321744   1.804   4.312   1.527
 5356SOL    MW421745   1.883   4.297   1.562
 5357SOL     OW21746   3.623   5.192   0.527
 5357SOL    HW221747   3.593   5.125   0.588
 5357SOL    HW321748   3.717   5.198   0.541
 5357SOL    MW421749   3.631   5.184   0.537
 5358SOL     OW21750   3.179   4.869   0.457
 5358SOL    HW221751   3.151   4.955   0.490
 5358SOL    HW321752   3.207   4.885   0.367
 5358SOL    MW421753   3.179   4.883   0.449
 5359SOL     OW21754   2.841   3.789   0.510
 5359SOL    HW221755   2.878   3.848   0.575
 5359SOL    HW321756   2.818   3.845   0.436
 5359SOL    MW421757   2.842   3.804   0.509
 5360SOL     OW21758   3.694   4.671   0.932
 5360SOL    HW221759   3.685   4.703   0.843
 5360SOL    HW321760   3.647   4.587   0.932
 5360SOL    MW421761   3.687   4.664   0.922
 5361SOL     OW21762   2.070   4.511   1.511
 5361SOL    HW221763   2.091   4.580   1.449
 5361SOL    HW321764   2.150   4.458   1.516
 5361SOL    MW421765   2.083   4.512   1.505
 5362SOL     OW21766   3.606   4.602   0.633
 5362SOL    HW221767   3.700   4.591   0.621
 5362SOL    HW321768   3.582   4.674   0.574
 5362SOL    MW421769   3.616   4.610   0.624
 5363SOL     OW21770   2.055   4.526   1.778
 5363SOL    HW221771   1.981   4.470   1.804
 5363SOL    HW321772   2.050   4.529   1.683
 5363SOL    MW421773   2.044   4.519   1.768
 5364SOL     OW21774   2.221   3.813   1.228
 5364SOL    HW221775   2.264   3.897   1.248
 5364SOL    HW321776   2.294   3.751   1.221
 5364SOL    MW421777   2.236   3.816   1.229
 5365SOL     OW21778   2.262   4.480   0.406
 5365SOL    HW221779   2.262   4.575   0.391
 5365SOL    HW321780   2.339   4.464   0.460
 5365SOL    MW421781   2.272   4.491   0.411
 5366SOL     OW21782   3.038   4.339   1.470
 5366SOL    HW221783   3.074   4.312   1.386
 5366SOL    HW321784   2.951   4.373   1.449
 5366SOL    MW421785   3.032   4.340   1.457
 5367SOL     OW21786   2.021   4.211   0.695
 5367SOL    HW221787   2.083   4.218   0.768
 5367SOL    HW321788   2.021   4.118   0.672
 5367SOL    MW421789   2.029   4.200   0.702
 5368SOL     OW21790   3.568   5.551   0.227
 5368SOL    HW221791   3.635   5.584   0.167
 5368SOL    HW321792   3.525   5.630   0.261
 5368SOL    MW421793   3.570   5.566   0.223
 5369SOL     OW21794   2.703   4.472   1.179
 5369SOL    HW221795   2.661   4.390   1.155
 5369SOL    HW321796   2.704   4.471   1.275
 5369SOL    MW421797   2.696   4.461   1.188
 5370SOL     OW21798   3.374   5.605   1.578
 5370SOL    HW221799   3.377   5.511   1.561
 5370SOL    HW321800   3.397   5.613   1.670
 5370SOL    MW421801   3.377   5.593   1.588
 5371SOL     OW21802   2.507   3.942   1.284
 5371SOL    HW221803   2.438   4.005   1.305
 5371SOL    HW321804   2.534   3.906   1.369
 5371SOL    MW421805   2.501   3.945   1.297
 5372SOL     OW21806   1.890   4.783   0.153
 5372SOL    HW221807   1.859   4.848   0.216
 5372SOL    HW321808   1.839   4.705   0.172
 5372SOL    MW421809   1.880   4.780   0.163
 5373SOL     OW21810   3.302   3.795   0.901
 5373SOL    HW221811   3.390   3.804   0.938
 5373SOL    HW321812   3.312   3.736   0.827
 5373SOL    MW421813   3.316   3.789   0.895
 5374SOL     OW21814   3.334   4.534   0.745
 5374SOL    HW221815   3.414   4.549   0.694
 5374SOL    HW321816   3.327   4.439   0.751
 5374SOL    MW421817   3.343   4.523   0.740
 5375SOL     OW21818   2.474   5.583   0.095
 5375SOL    HW221819   2.379   5.583   0.087
 5375SOL    HW321820   2.490   5.529   0.173
 5375SOL    MW421821   2.464   5.577   0.104
 5376SOL     OW21822   2.784   4.460   1.442
 5376SOL    HW221823   2.853   4.527   1.439
 5376SOL    HW321824   2.717   4.498   1.498
 5376SOL    MW421825   2.785   4.473   1.449
 5377SOL     OW21826   2.202   4.760   1.690
 5377SOL    HW221827   2.156   4.676   1.692
 5377SOL    HW321828   2.259   4.754   1.614
 5377SOL    MW421829   2.204   4.748   1.682
 5378SOL     OW21830   3.319   4.403   0.011
 5378SOL    HW221831   3.247   4.379  -0.047
 5378SOL    HW321832   3.385   4.440  -0.047
 5378SOL    MW421833   3.318   4.405  -0.004
 5379SOL     OW21834   2.453   5.135   0.691
 5379SOL    HW221835   2.518   5.068   0.712
 5379SOL    HW321836   2.505   5.212   0.668
 5379SOL    MW421837   2.468   5.137   0.690
 5380SOL     OW21838   2.714   4.300   0.821
 5380SOL    HW221839   2.654   4.318   0.893
 5380SOL    HW321840   2.748   4.212   0.840
 5380SOL    MW421841   2.710   4.290   0.834
 5381SOL     OW21842   3.655   3.799   1.490
 5381SOL    HW221843   3.576   3.845   1.518
 5381SOL    HW321844   3.690   3.853   1.419
 5381SOL    MW421845   3.649   3.812   1.484
 5382SOL     OW21846   2.939   4.883   0.840
 5382SOL    HW221847   3.031   4.864   0.858
 5382SOL    HW321848   2.912   4.813   0.780
 5382SOL    MW421849   2.947   4.871   0.834
 5383SOL     OW21850   2.732   4.703   0.195
 5383SOL    HW221851   2.718   4.615   0.160
 5383SOL    HW321852   2.683   4.760   0.136
 5383SOL    MW421853   2.724   4.698   0.183
 5384SOL     OW21854   3.213   5.121   0.936
 5384SOL    HW221855   3.186   5.205   0.901
 5384SOL    HW321856   3.173   5.116   1.023
 5384SOL    MW421857   3.206   5.130   0.942
 5385SOL     OW21858   3.132   5.069   1.204
 5385SOL    HW221859   3.143   5.036   1.293
 5385SOL    HW321860   3.051   5.028   1.173
 5385SOL    MW421861   3.122   5.061   1.210
 5386SOL     OW21862   2.145   4.427   0.974
 5386SOL    HW221863   2.095   4.426   1.055
 5386SOL    HW321864   2.165   4.519   0.958
 5386SOL    MW421865   2.141   4.439   0.982
 5387SOL     OW21866   3.212   5.191   1.736
 5387SOL    HW221867   3.212   5.285   1.752
 5387SOL    HW321868   3.257   5.181   1.652
 5387SOL    MW421869   3.218   5.201   1.727
 5388SOL     OW21870   3.451   3.909   0.297
 5388SOL    HW221871   3.444   3.913   0.392
 5388SOL    HW321872   3.463   4.000   0.270
 5388SOL    MW421873   3.452   3.922   0.305
 5389SOL     OW21874   2.740   4.472   0.411
 5389SOL    HW221875   2.720   4.458   0.318
 5389SOL    HW321876   2.833   4.451   0.418
 5389SOL    MW421877   2.750   4.467   0.400
 5390SOL     OW21878   2.067   4.095   1.715
 5390SOL    HW221879   2.024   4.154   1.652
 5390SOL    HW321880   2.135   4.150   1.755
 5390SOL    MW421881   2.071   4.110   1.712
 5391SOL     OW21882   3.179   4.715   1.260
 5391SOL    HW221883   3.242   4.712   1.333
 5391SOL    HW321884   3.095   4.733   1.302
 5391SOL    MW421885   3.175   4.717   1.275
 5392SOL     OW21886   2.723   5.430   0.449
 5392SOL    HW221887   2.781   5.501   0.476
 5392SOL    HW321888   2.746   5.358   0.507
 5392SOL    MW421889   2.734   5.430   0.460
 5393SOL     OW21890   3.518   3.892   1.039
 5393SOL    HW221891   3.563   3.810   1.058
 5393SOL    HW321892   3.538   3.948   1.115
 5393SOL    MW421893   3.528   3.888   1.051
 5394SOL     OW21894   1.966   3.735   1.138
 5394SOL    HW221895   1.957   3.736   1.043
 5394SOL    HW321896   2.060   3.747   1.153
 5394SOL    MW421897   1.978   3.738   1.129
 5395SOL     OW21898   3.603   4.928   0.758
 5395SOL    HW221899   3.582   4.874   0.681
 5395SOL    HW321900   3.699   4.926   0.762
 5395SOL    MW421901   3.612   4.921   0.747
 5396SOL     OW21902   2.295   5.073   1.501
 5396SOL    HW221903   2.216   5.023   1.524
 5396SOL    HW321904   2.365   5.032   1.551
 5396SOL    MW421905   2.293   5.061   1.511
 5397SOL     OW21906   2.179   3.862   0.184
 5397SOL    HW221907   2.108   3.917   0.152
 5397SOL    HW321908   2.221   3.828   0.105
 5397SOL    MW421909   2.175   3.864   0.170
 5398SOL     OW21910   3.303   4.359   1.020
 5398SOL    HW221911   3.226   4.405   0.986
 5398SOL    HW321912   3.360   4.428   1.054
 5398SOL    MW421913   3.300   4.374   1.020
 5399SOL     OW21914   1.935   3.961   0.033
 5399SOL    HW221915   1.902   4.040   0.077
 5399SOL    HW321916   1.990   3.994  -0.038
 5399SOL    MW421917   1.938   3.975   0.030
 5400SOL     OW21918   1.969   5.218   0.222
 5400SOL    HW221919   1.986   5.302   0.264
 5400SOL    HW321920   2.004   5.227   0.134
 5400SOL    MW421921   1.974   5.231   0.216
 5401SOL     OW21922   3.241   5.307   0.439
 5401SOL    HW221923   3.304   5.297   0.368
 5401SOL    HW321924   3.158   5.327   0.394
 5401SOL    MW421925   3.238   5.308   0.424
 5402SOL     OW21926   3.604   4.575   2.125
 5402SOL    HW221927   3.645   4.517   2.190
 5402SOL    HW321928   3.511   4.567   2.142
 5402SOL    MW421929   3.598   4.567   2.135
 5403SOL     OW21930   3.470   4.507   3.120
 5403SOL    HW221931   3.425   4.574   3.171
 5403SOL    HW321932   3.558   4.543   3.106
 5403SOL    MW421933   3.476   4.520   3.124
 5404SOL     OW21934   2.398   4.758   2.354
 5404SOL    HW221935   2.488   4.733   2.338
 5404SOL    HW321936   2.394   4.851   2.331
 5404SOL    MW421937   2.410   4.767   2.349
 5405SOL     OW21938   3.514   5.461   2.496
 5405SOL    HW221939   3.526   5.407   2.574
 5405SOL    HW321940   3.551   5.409   2.425
 5405SOL    MW421941   3.520   5.446   2.497
 5406SOL     OW21942   2.893   5.346   3.497
 5406SOL    HW221943   2.934   5.382   3.418
 5406SOL    HW321944   2.928   5.257   3.504
 5406SOL    MW421945   2.904   5.339   3.488
 5407SOL     OW21946   3.450   4.901   3.101
 5407SOL    HW221947   3.371   4.866   3.059
 5407SOL    HW321948   3.477   4.973   3.045
 5407SOL    MW421949   3.443   4.906   3.088
 5408SOL     OW21950   2.682   4.214   2.367
 5408SOL    HW221951   2.657   4.302   2.395
 5408SOL    HW321952   2.679   4.217   2.271
 5408SOL    MW421953   2.678   4.226   2.359
 5409SOL     OW21954   2.124   4.242   2.295
 5409SOL    HW221955   2.156   4.330   2.277
 5409SOL    HW321956   2.112   4.240   2.390
 5409SOL    MW421957   2.127   4.254   2.307
 5410SOL     OW21958   2.202   4.655   3.196
 5410SOL    HW221959   2.265   4.602   3.147
 5410SOL    HW321960   2.183   4.729   3.139
 5410SOL    MW421961   2.208   4.657   3.183
 5411SOL     OW21962   2.523   3.997   2.382
 5411SOL    HW221963   2.581   4.073   2.384
 5411SOL    HW321964   2.458   4.018   2.315
 5411SOL    MW421965   2.522   4.009   2.373
 5412SOL     OW21966   2.610   4.924   2.557
 5412SOL    HW221967   2.690   4.927   2.609
 5412SOL    HW321968   2.638   4.891   2.471
 5412SOL    MW421969   2.624   4.920   2.552
 5413SOL     OW21970   2.635   5.265   3.460
 5413SOL    HW221971   2.719   5.291   3.499
 5413SOL    HW321972   2.659   5.209   3.386
 5413SOL    MW421973   2.649   5.261   3.455
 5414SOL     OW21974   2.387   4.428   2.548
 5414SOL    HW221975   2.372   4.348   2.599
 5414SOL    HW321976   2.469   4.463   2.582
 5414SOL    MW421977   2.395   4.420   2.560
 5415SOL     OW21978   2.724   5.114   3.233
 5415SOL    HW221979   2.688   5.180   3.173
 5415SOL    HW321980   2.652   5.052   3.246
 5415SOL    MW421981   2.710   5.114   3.227
 5416SOL     OW21982   2.529   4.254   2.925
 5416SOL    HW221983   2.435   4.250   2.943
 5416SOL    HW321984   2.559   4.163   2.934
 5416SOL    MW421985   2.520   4.242   2.928
 5417SOL     OW21986   2.275   4.668   2.829
 5417SOL    HW221987   2.230   4.675   2.745
 5417SOL    HW321988   2.255   4.751   2.873
 5417SOL    MW421989   2.267   4.680   2.823
 5418SOL     OW21990   1.972   5.514   2.704
 5418SOL    HW221991   2.061   5.506   2.739
 5418SOL    HW321992   1.936   5.426   2.709
 5418SOL    MW421993   1.979   5.501   2.709
 5419SOL     OW21994   3.237   4.906   2.073
 5419SOL    HW221995   3.155   4.942   2.039
 5419SOL    HW321996   3.305   4.949   2.022
 5419SOL    MW421997   3.235   4.916   2.061
 5420SOL     OW21998   2.236   5.041   2.739
 5420SOL    HW221999   2.212   5.094   2.815
 5420SOL    HW322000   2.292   5.099   2.687
 5420SOL    MW422001   2.240   5.056   2.742
 5421SOL     OW22002   2.798   4.685   2.549
 5421SOL    HW222003   2.712   4.672   2.589
 5421SOL    HW322004   2.851   4.612   2.581
 5421SOL    MW422005   2.794   4.674   2.558
 5422SOL     OW22006   2.206   5.337   3.334
 5422SOL    HW222007   2.114   5.313   3.319
 5422SOL    HW322008   2.250   5.254   3.351
 5422SOL    MW422009   2.200   5.322   3.333
 5423SOL     OW22010   2.789   5.047   2.266
 5423SOL    HW222011   2.766   5.109   2.334
 5423SOL    HW322012   2.746   4.965   2.292
 5423SOL    MW422013   2.781   5.043   2.277
 5424SOL     OW22014   3.662   4.048   2.722
 5424SOL    HW222015   3.599   4.028   2.791
 5424SOL    HW322016   3.652   3.977   2.659
 5424SOL    MW422017   3.652   4.035   2.723
 5425SOL     OW22018   2.286   4.020   2.234
 5425SOL    HW222019   2.260   3.982   2.150
 5425SOL    HW322020   2.223   4.090   2.250
 5425SOL    MW422021   2.275   4.023   2.225
 5426SOL     OW22022   2.121   4.981   2.271
 5426SOL    HW222023   2.069   5.049   2.227
 5426SOL    HW322024   2.118   4.907   2.211
 5426SOL    MW422025   2.113   4.980   2.258
 5427SOL     OW22026   2.783   5.444   2.049
 5427SOL    HW222027   2.738   5.460   2.132
 5427SOL    HW322028   2.714   5.409   1.991
 5427SOL    MW422029   2.769   5.441   2.051
 5428SOL     OW22030   3.718   4.217   2.024
 5428SOL    HW222031   3.627   4.219   2.052
 5428SOL    HW322032   3.763   4.279   2.082
 5428SOL    MW422033   3.711   4.225   2.034
 5429SOL     OW22034   3.463   4.820   2.374
 5429SOL    HW222035   3.373   4.820   2.409
 5429SOL    HW322036   3.456   4.866   2.291
 5429SOL    MW422037   3.450   4.826   2.368
 5430SOL     OW22038   3.263   4.455   3.446
 5430SOL    HW222039   3.332   4.393   3.423
 5430SOL    HW322040   3.188   4.429   3.393
 5430SOL    MW422041   3.263   4.442   3.437
 5431SOL     OW22042   2.004   5.335   2.998
 5431SOL    HW222043   1.987   5.281   3.075
 5431SOL    HW322044   1.992   5.425   3.028
 5431SOL    MW422045   2.001   5.339   3.012
 5432SOL     OW22046   2.999   4.842   3.438
 5432SOL    HW222047   2.984   4.935   3.423
 5432SOL    HW322048   3.094   4.832   3.438
 5432SOL    MW422049   3.008   4.852   3.435
 5433SOL     OW22050   2.795   4.266   3.639
 5433SOL    HW222051   2.885   4.267   3.606
 5433SOL    HW322052   2.754   4.191   3.597
 5433SOL    MW422053   2.801   4.256   3.630
 5434SOL     OW22054   3.370   4.798   2.766
 5434SOL    HW222055   3.373   4.732   2.697
 5434SOL    HW322056   3.455   4.841   2.762
 5434SOL    MW422057   3.382   4.794   2.757
 5435SOL     OW22058   2.990   4.401   2.335
 5435SOL    HW222059   3.016   4.425   2.246
 5435SOL    HW322060   2.972   4.308   2.331
 5435SOL    MW422061   2.992   4.393   2.322
 5436SOL     OW22062   3.655   5.021   2.186
 5436SOL    HW222063   3.611   5.062   2.261
 5436SOL    HW322064   3.712   5.089   2.151
 5436SOL    MW422065   3.657   5.035   2.191
 5437SOL     OW22066   2.575   4.070   3.589
 5437SOL    HW222067   2.585   3.996   3.529
 5437SOL    HW322068   2.611   4.039   3.672
 5437SOL    MW422069   2.581   4.056   3.591
 5438SOL     OW22070   2.311   5.437   2.504
 5438SOL    HW222071   2.343   5.525   2.482
 5438SOL    HW322072   2.264   5.409   2.426
 5438SOL    MW422073   2.310   5.445   2.491
 5439SOL     OW22074   3.695   3.799   2.553
 5439SOL    HW222075   3.749   3.750   2.615
 5439SOL    HW322076   3.638   3.733   2.514
 5439SOL    MW422077   3.695   3.783   2.555
 5440SOL     OW22078   2.027   5.497   2.081
 5440SOL    HW222079   2.056   5.587   2.073
 5440SOL    HW322080   1.977   5.480   2.002
 5440SOL    MW422081   2.025   5.505   2.070
 5441SOL     OW22082   2.814   3.752   2.966
 5441SOL    HW222083   2.773   3.830   2.928
 5441SOL    HW322084   2.908   3.770   2.961
 5441SOL    MW422085   2.820   3.764   2.961
 5442SOL     OW22086   3.431   5.305   2.052
 5442SOL    HW222087   3.479   5.374   2.098
 5442SOL    HW322088   3.352   5.349   2.021
 5442SOL    MW422089   3.426   5.319   2.055
 5443SOL     OW22090   2.829   4.430   1.996
 5443SOL    HW222091   2.831   4.377   1.917
 5443SOL    HW322092   2.917   4.467   2.002
 5443SOL    MW422093   2.841   4.429   1.985
 5444SOL     OW22094   3.443   4.356   2.332
 5444SOL    HW222095   3.482   4.356   2.419
 5444SOL    HW322096   3.384   4.432   2.332
 5444SOL    MW422097   3.440   4.367   2.343
 5445SOL     OW22098   2.760   4.723   3.461
 5445SOL    HW222099   2.737   4.703   3.551
 5445SOL    HW322100   2.845   4.767   3.466
 5445SOL    MW422101   2.767   4.726   3.473
 5446SOL     OW22102   2.840   3.860   3.221
 5446SOL    HW222103   2.846   3.822   3.134
 5446SOL    HW322104   2.829   3.954   3.206
 5446SOL    MW422105   2.841   3.868   3.209
 5447SOL     OW22106   2.929   4.349   3.055
 5447SOL    HW222107   3.004   4.378   3.002
 5447SOL    HW322108   2.861   4.414   3.039
 5447SOL    MW422109   2.930   4.361   3.045
 5448SOL     OW22110   3.479   4.317   3.332
 5448SOL    HW222111   3.460   4.226   3.311
 5448SOL    HW322112   3.457   4.366   3.253
 5448SOL    MW422113   3.474   4.310   3.319
 5449SOL     OW22114   3.621   5.411   3.236
 5449SOL    HW222115   3.549   5.373   3.287
 5449SOL    HW322116   3.638   5.496   3.277
 5449SOL    MW422117   3.615   5.416   3.248
 5450SOL     OW22118   2.926   4.055   3.438
 5450SOL    HW222119   2.892   4.094   3.357
 5450SOL    HW322120   2.904   3.963   3.431
 5450SOL    MW422121   2.919   4.048   3.428
 5451SOL     OW22122   3.335   4.869   3.514
 5451SOL    HW222123   3.417   4.910   3.544
 5451SOL    HW322124   3.298   4.831   3.594
 5451SOL    MW422125   3.341   4.870   3.529
 5452SOL     OW22126   3.630   4.242   2.498
 5452SOL    HW222127   3.719   4.211   2.515
 5452SOL    HW322128   3.573   4.182   2.546
 5452SOL    MW422129   3.633   4.230   2.507
 5453SOL     OW22130   2.056   3.956   2.527
 5453SOL    HW222131   2.047   3.896   2.453
 5453SOL    HW322132   1.989   3.927   2.590
 5453SOL    MW422133   2.046   3.943   2.525
 5454SOL     OW22134   2.999   5.049   2.088
 5454SOL    HW222135   2.949   5.051   2.170
 5454SOL    HW322136   2.933   5.067   2.020
 5454SOL    MW422137   2.985   5.051   2.090
 5455SOL     OW22138   2.003   4.129   2.890
 5455SOL    HW222139   1.975   4.220   2.899
 5455SOL    HW322140   1.940   4.090   2.829
 5455SOL    MW422141   1.990   4.135   2.884
 5456SOL     OW22142   2.462   5.467   2.196
 5456SOL    HW222143   2.383   5.425   2.229
 5456SOL    HW322144   2.528   5.450   2.263
 5456SOL    MW422145   2.461   5.459   2.209
 5457SOL     OW22146   3.590   4.987   3.593
 5457SOL    HW222147   3.640   4.913   3.625
 5457SOL    HW322148   3.536   5.014   3.668
 5457SOL    MW422149   3.590   4.981   3.606
 5458SOL     OW22150   2.598   4.882   1.903
 5458SOL    HW222151   2.520   4.828   1.890
 5458SOL    HW322152   2.569   4.955   1.956
 5458SOL    MW422153   2.584   4.884   1.908
 5459SOL     OW22154   3.724   4.622   3.095
 5459SOL    HW222155   3.740   4.660   3.008
 5459SOL    HW322156   3.758   4.688   3.156
 5459SOL    MW422157   3.731   4.635   3.091
 5460SOL     OW22158   3.516   5.331   2.764
 5460SOL    HW222159   3.545   5.398   2.825
 5460SOL    HW322160   3.497   5.255   2.819
 5460SOL    MW422161   3.518   5.331   2.779
 5461SOL     OW22162   3.179   5.398   1.971
 5461SOL    HW222163   3.105   5.361   2.021
 5461SOL    HW322164   3.187   5.488   2.004
 5461SOL    MW422165   3.170   5.405   1.983
 5462SOL     OW22166   1.987   4.404   3.060
 5462SOL    HW222167   2.049   4.434   3.126
 5462SOL    HW322168   1.921   4.473   3.054
 5462SOL    MW422169   1.986   4.417   3.067
 5463SOL     OW22170   3.403   5.072   1.913
 5463SOL    HW222171   3.350   5.121   1.849
 5463SOL    HW322172   3.434   5.138   1.974
 5463SOL    MW422173   3.401   5.086   1.911
 5464SOL     OW22174   2.628   3.961   1.968
 5464SOL    HW222175   2.576   3.881   1.956
 5464SOL    HW322176   2.715   3.938   1.936
 5464SOL    MW422177   2.631   3.947   1.962
 5465SOL     OW22178   2.082   5.513   3.512
 5465SOL    HW222179   2.056   5.581   3.450
 5465SOL    HW322180   2.130   5.450   3.460
 5465SOL    MW422181   2.084   5.513   3.498
 5466SOL     OW22182   2.134   4.832   3.019
 5466SOL    HW222183   2.187   4.907   3.044
 5466SOL    HW322184   2.053   4.870   2.985
 5466SOL    MW422185   2.130   4.847   3.019
 5467SOL     OW22186   2.674   4.736   3.007
 5467SOL    HW222187   2.702   4.645   3.019
 5467SOL    HW322188   2.603   4.730   2.943
 5467SOL    MW422189   2.667   4.724   3.002
 5468SOL     OW22190   1.989   4.601   2.425
 5468SOL    HW222191   2.080   4.616   2.452
 5468SOL    HW322192   1.992   4.522   2.371
 5468SOL    MW422193   2.001   4.593   2.423
 5469SOL     OW22194   2.225   4.309   3.679
 5469SOL    HW222195   2.172   4.389   3.686
 5469SOL    HW322196   2.295   4.321   3.744
 5469SOL    MW422197   2.227   4.322   3.687
 5470SOL     OW22198   2.611   3.859   3.386
 5470SOL    HW222199   2.588   3.767   3.388
 5470SOL    HW322200   2.697   3.861   3.343
 5470SOL    MW422201   2.618   3.849   3.382
 5471SOL     OW22202   2.295   4.383   3.425
 5471SOL    HW222203   2.375   4.433   3.411
 5471SOL    HW322204   2.286   4.377   3.520
 5471SOL    MW422205   2.304   4.389   3.435
 5472SOL     OW22206   2.616   5.533   2.799
 5472SOL    HW222207   2.705   5.548   2.829
 5472SOL    HW322208   2.611   5.580   2.715
 5472SOL    MW422209   2.626   5.541   2.792
 5473SOL     OW22210   3.272   3.908   3.696
 5473SOL    HW222211   3.328   3.835   3.722
 5473SOL    HW322212   3.242   3.946   3.778
 5473SOL    MW422213   3.276   3.903   3.709
 5474SOL     OW22214   1.997   5.213   2.464
 5474SOL    HW222215   1.969   5.252   2.546
 5474SOL    HW322216   2.017   5.122   2.486
 5474SOL    MW422217   1.995   5.205   2.477
 5475SOL     OW22218   2.830   5.256   2.499
 5475SOL    HW222219   2.913   5.210   2.483
 5475SOL    HW322220   2.820   5.255   2.595
 5475SOL    MW422221   2.840   5.249   2.509
 5476SOL     OW22222   3.662   4.401   2.813
 5476SOL    HW222223   3.751   4.431   2.795
 5476SOL    HW322224   3.642   4.341   2.742
 5476SOL    MW422225   3.671   4.398   2.802
 5477SOL     OW22226   3.513   4.580   3.693
 5477SOL    HW222227   3.568   4.504   3.674
 5477SOL    HW322228   3.515   4.588   3.788
 5477SOL    MW422229   3.521   4.571   3.701
 5478SOL     OW22230   2.563   5.313   1.904
 5478SOL    HW222231   2.503   5.382   1.874
 5478SOL    HW322232   2.508   5.255   1.957
 5478SOL    MW422233   2.547   5.315   1.906
 5479SOL     OW22234   3.001   3.958   2.127
 5479SOL    HW222235   2.934   3.934   2.064
 5479SOL    HW322236   3.066   4.007   2.076
 5479SOL    MW422237   3.001   3.960   2.112
 5480SOL     OW22238   2.808   4.142   3.212
 5480SOL    HW222239   2.727   4.183   3.240
 5480SOL    HW322240   2.855   4.210   3.164
 5480SOL    MW422241   2.803   4.157   3.210
 5481SOL     OW22242   3.068   4.480   2.835
 5481SOL    HW222243   3.081   4.574   2.845
 5481SOL    HW322244   3.029   4.470   2.749
 5481SOL    MW422245   3.064   4.491   2.825
 5482SOL     OW22246   2.520   4.675   2.639
 5482SOL    HW222247   2.431   4.666   2.672
 5482SOL    HW322248   2.524   4.765   2.607
 5482SOL    MW422249   2.509   4.686   2.639
 5483SOL     OW22250   3.319   4.258   2.634
 5483SOL    HW222251   3.264   4.179   2.633
 5483SOL    HW322252   3.301   4.299   2.718
 5483SOL    MW422253   3.309   4.253   2.643
 5484SOL     OW22254   2.290   3.945   3.451
 5484SOL    HW222255   2.211   3.963   3.503
 5484SOL    HW322256   2.285   4.007   3.378
 5484SOL    MW422257   2.280   3.955   3.448
 5485SOL     OW22258   2.938   4.462   2.591
 5485SOL    HW222259   2.875   4.394   2.615
 5485SOL    HW322260   2.958   4.443   2.499
 5485SOL    MW422261   2.932   4.449   2.583
 5486SOL     OW22262   2.194   5.357   2.293
 5486SOL    HW222263   2.155   5.404   2.219
 5486SOL    HW322264   2.128   5.292   2.318
 5486SOL    MW422265   2.181   5.355   2.287
 5487SOL     OW22266   2.686   4.766   2.317
 5487SOL    HW222267   2.688   4.740   2.224
 5487SOL    HW322268   2.744   4.703   2.360
 5487SOL    MW422269   2.694   4.755   2.311
 5488SOL     OW22270   3.239   5.326   3.089
 5488SOL    HW222271   3.164   5.372   3.127
 5488SOL    HW322272   3.221   5.233   3.106
 5488SOL    MW422273   3.228   5.320   3.097
 5489SOL     OW22274   3.243   5.534   2.519
 5489SOL    HW222275   3.186   5.487   2.458
 5489SOL    HW322276   3.329   5.495   2.506
 5489SOL    MW422277   3.246   5.525   2.509
 5490SOL     OW22278   3.196   4.010   2.650
 5490SOL    HW222279   3.224   3.942   2.711
 5490SOL    HW322280   3.110   3.981   2.620
 5490SOL    MW422281   3.189   3.997   2.654
 5491SOL     OW22282   2.001   4.944   2.584
 5491SOL    HW222283   2.065   4.976   2.647
 5491SOL    HW322284   2.050   4.880   2.532
 5491SOL    MW422285   2.016   4.940   2.585
 5492SOL     OW22286   2.501   5.020   3.566
 5492SOL    HW222287   2.549   5.103   3.553
 5492SOL    HW322288   2.558   4.968   3.622
 5492SOL    MW422289   2.515   5.024   3.572
 5493SOL     OW22290   2.077   5.262   3.706
 5493SOL    HW222291   2.133   5.186   3.721
 5493SOL    HW322292   2.026   5.240   3.628
 5493SOL    MW422293   2.077   5.249   3.697
 5494SOL     OW22294   3.176   4.114   1.985
 5494SOL    HW222295   3.149   4.180   1.921
 5494SOL    HW322296   3.246   4.157   2.035
 5494SOL    MW422297   3.181   4.127   1.982
 5495SOL     OW22298   2.844   3.819   1.922
 5495SOL    HW222299   2.900   3.811   1.844
 5495SOL    HW322300   2.821   3.729   1.944
 5495SOL    MW422301   2.849   3.806   1.915
 5496SOL     OW22302   3.349   4.670   2.127
 5496SOL    HW222303   3.316   4.759   2.117
 5496SOL    HW322304   3.314   4.641   2.212
 5496SOL    MW422305   3.339   4.679   2.138
 5497SOL     OW22306   2.962   5.099   3.315
 5497SOL    HW222307   2.873   5.105   3.283
 5497SOL    HW322308   3.006   5.178   3.283
 5497SOL    MW422309   2.957   5.109   3.307
 5498SOL     OW22310   2.255   3.767   3.657
 5498SOL    HW222311   2.183   3.732   3.605
 5498SOL    HW322312   2.313   3.808   3.592
 5498SOL    MW422313   2.253   3.768   3.642
 5499SOL     OW22314   2.279   5.257   2.956
 5499SOL    HW222315   2.324   5.319   3.013
 5499SOL    HW322316   2.186   5.276   2.969
 5499SOL    MW422317   2.272   5.267   2.963
 5500SOL     OW22318   3.719   4.786   3.310
 5500SOL    HW222319   3.634   4.799   3.269
 5500SOL    HW322320   3.699   4.750   3.397
 5500SOL    MW422321   3.706   4.782   3.315
 5501SOL     OW22322   2.701   5.325   3.064
 5501SOL    HW222323   2.725   5.314   2.973
 5501SOL    HW322324   2.624   5.382   3.062
 5501SOL    MW422325   2.693   5.330   3.053
 5502SOL     OW22326   2.343   4.708   1.919
 5502SOL    HW222327   2.266   4.721   1.975
 5502SOL    HW322328   2.307   4.672   1.838
 5502SOL    MW422329   2.329   4.704   1.916
 5503SOL     OW22330   2.996   4.681   2.162
 5503SOL    HW222331   2.906   4.702   2.137
 5503SOL    HW322332   3.023   4.754   2.218
 5503SOL    MW422333   2.988   4.693   2.165
 5504SOL     OW22334   2.496   5.030   2.854
 5504SOL    HW222335   2.489   5.009   2.948
 5504SOL    HW322336   2.414   4.998   2.817
 5504SOL    MW422337   2.484   5.024   2.861
 5505SOL     OW22338   3.360   4.040   3.256
 5505SOL    HW222339   3.307   4.042   3.336
 5505SOL    HW322340   3.345   3.953   3.219
 5505SOL    MW422341   3.352   4.030   3.261
 5506SOL     OW22342   3.696   3.964   3.129
 5506SOL    HW222343   3.677   4.031   3.064
 5506SOL    HW322344   3.753   3.902   3.084
 5506SOL    MW422345   3.700   3.965   3.115
 5507SOL     OW22346   1.942   5.122   3.517
 5507SOL    HW222347   1.986   5.055   3.463
 5507SOL    HW322348   1.857   5.084   3.537
 5507SOL    MW422349   1.937   5.108   3.513
 5508SOL     OW22350   2.625   3.797   2.569
 5508SOL    HW222351   2.554   3.858   2.551
 5508SOL    HW322352   2.676   3.794   2.488
 5508SOL    MW422353   2.621   3.803   2.556
 5509SOL     OW22354   2.383   5.037   2.318
 5509SOL    HW222355   2.376   5.069   2.408
 5509SOL    HW322356   2.293   5.021   2.290
 5509SOL    MW422357   2.371   5.039   2.325
 5510SOL     OW22358   2.978   5.430   3.227
 5510SOL    HW222359   2.898   5.415   3.177
 5510SOL    HW322360   2.985   5.525   3.234
 5510SOL    MW422361   2.969   5.441   3.221
 5511SOL     OW22362   3.092   5.395   2.717
 5511SOL    HW222363   3.139   5.468   2.676
 5511SOL    HW322364   3.013   5.434   2.753
 5511SOL    MW422365   3.087   5.410   2.716
 5512SOL     OW22366   3.500   5.490   2.992
 5512SOL    HW222367   3.543   5.460   3.072
 5512SOL    HW322368   3.419   5.438   2.989
 5512SOL    MW422369   3.495   5.479   3.002
 5513SOL     OW22370   2.585   4.454   3.699
 5513SOL    HW222371   2.655   4.396   3.671
 5513SOL    HW322372   2.528   4.399   3.754
 5513SOL    MW422373   2.587   4.441   3.703
 5514SOL     OW22374   3.372   4.666   3.332
 5514SOL    HW222375   3.377   4.719   3.412
 5514SOL    HW322376   3.334   4.583   3.360
 5514SOL    MW422377   3.368   4.661   3.347
 5515SOL     OW22378   3.012   3.801   3.578
 5515SOL    HW222379   3.007   3.708   3.559
 5515SOL    HW322380   3.095   3.812   3.624
 5515SOL    MW422381   3.020   3.790   3.582
 5516SOL     OW22382   2.386   4.321   2.032
 5516SOL    HW222383   2.352   4.377   2.102
 5516SOL    HW322384   2.457   4.271   2.072
 5516SOL    MW422385   2.392   4.322   2.046
 5517SOL     OW22386   3.482   5.072   2.854
 5517SOL    HW222387   3.517   5.054   2.767
 5517SOL    HW322388   3.387   5.073   2.841
 5517SOL    MW422389   3.474   5.069   2.841
 5518SOL     OW22390   2.911   4.720   3.223
 5518SOL    HW222391   2.954   4.755   3.301
 5518SOL    HW322392   2.894   4.797   3.169
 5518SOL    MW422393   2.914   4.735   3.226
 5519SOL     OW22394   3.442   4.207   2.096
 5519SOL    HW222395   3.434   4.278   2.033
 5519SOL    HW322396   3.460   4.251   2.179
 5519SOL    MW422397   3.443   4.221   2.098
 5520SOL     OW22398   2.302   3.862   2.525
 5520SOL    HW222399   2.352   3.905   2.456
 5520SOL    HW322400   2.217   3.906   2.525
 5520SOL    MW422401   2.299   3.875   2.516
 5521SOL     OW22402   2.061   4.924   3.385
 5521SOL    HW222403   2.089   4.877   3.463
 5521SOL    HW322404   1.982   4.879   3.356
 5521SOL    MW422405   2.054   4.913   3.391
 5522SOL     OW22406   2.569   4.251   3.352
 5522SOL    HW222407   2.541   4.339   3.376
 5522SOL    HW322408   2.538   4.195   3.423
 5522SOL    MW422409   2.561   4.254   3.364
 5523SOL     OW22410   3.111   4.469   2.071
 5523SOL    HW222411   3.158   4.487   1.990
 5523SOL    HW322412   3.077   4.553   2.099
 5523SOL    MW422413   3.113   4.483   2.064
 5524SOL     OW22414   2.224   4.647   2.565
 5524SOL    HW222415   2.282   4.703   2.513
 5524SOL    HW322416   2.268   4.562   2.567
 5524SOL    MW422417   2.237   4.644   2.558
 5525SOL     OW22418   3.364   3.999   2.402
 5525SOL    HW222419   3.286   3.949   2.427
 5525SOL    HW322420   3.335   4.090   2.402
 5525SOL    MW422421   3.350   4.003   2.405
 5526SOL     OW22422   2.950   3.961   2.561
 5526SOL    HW222423   2.970   4.036   2.505
 5526SOL    HW322424   2.930   4.000   2.646
 5526SOL    MW422425   2.951   3.977   2.565
 5527SOL     OW22426   2.846   5.211   1.893
 5527SOL    HW222427   2.873   5.289   1.845
 5527SOL    HW322428   2.753   5.226   1.912
 5527SOL    MW422429   2.837   5.224   1.889
 5528SOL     OW22430   3.710   4.734   3.580
 5528SOL    HW222431   3.623   4.714   3.616
 5528SOL    HW322432   3.764   4.660   3.605
 5528SOL    MW422433   3.705   4.723   3.588
 5529SOL     OW22434   1.931   5.247   2.737
 5529SOL    HW222435   1.963   5.251   2.828
 5529SOL    HW322436   1.836   5.255   2.745
 5529SOL    MW422437   1.923   5.250   2.750
 5530SOL     OW22438   1.886   4.373   2.284
 5530SOL    HW222439   1.826   4.345   2.354
 5530SOL    HW322440   1.960   4.313   2.290
 5530SOL    MW422441   1.888   4.362   2.293
 5531SOL     OW22442   3.454   5.585   3.718
 5531SOL    HW222443   3.499   5.509   3.683
 5531SOL    HW322444   3.492   5.598   3.805
 5531SOL    MW422445   3.464   5.578   3.724
 5532SOL     OW22446   3.054   5.104   2.444
 5532SOL    HW222447   3.077   5.055   2.522
 5532SOL    HW322448   3.135   5.146   2.416
 5532SOL    MW422449   3.067   5.104   2.451
 5533SOL     OW22450   2.312   4.112   3.173
 5533SOL    HW222451   2.345   4.193   3.213
 5533SOL    HW322452   2.285   4.138   3.085
 5533SOL    MW422453   2.311   4.126   3.167
 5534SOL     OW22454   2.266   4.079   2.909
 5534SOL    HW222455   2.296   3.993   2.880
 5534SOL    HW322456   2.171   4.072   2.912
 5534SOL    MW422457   2.258   4.068   2.907
 5535SOL     OW22458   3.095   4.288   3.600
 5535SOL    HW222459   3.147   4.223   3.553
 5535SOL    HW322460   3.053   4.339   3.530
 5535SOL    MW422461   3.096   4.285   3.583
 5536SOL     OW22462   3.194   4.083   3.461
 5536SOL    HW222463   3.101   4.067   3.448
 5536SOL    HW322464   3.220   4.021   3.529
 5536SOL    MW422465   3.184   4.073   3.468
 5537SOL     OW22466   2.409   3.857   2.800
 5537SOL    HW222467   2.419   3.766   2.826
 5537SOL    HW322468   2.365   3.853   2.715
 5537SOL    MW422469   2.405   3.845   2.792
 5538SOL     OW22470   2.503   5.472   3.346
 5538SOL    HW222471   2.420   5.457   3.391
 5538SOL    HW322472   2.562   5.405   3.381
 5538SOL    MW422473   2.501   5.462   3.356
 5539SOL     OW22474   3.560   4.179   2.971
 5539SOL    HW222475   3.493   4.212   3.031
 5539SOL    HW322476   3.603   4.257   2.937
 5539SOL    MW422477   3.558   4.194   2.975
 5540SOL     OW22478   3.738   4.899   2.941
 5540SOL    HW222479   3.731   4.839   2.866
 5540SOL    HW322480   3.664   4.959   2.930
 5540SOL    MW422481   3.728   4.899   2.930
 5541SOL     OW22482   3.120   4.761   2.859
 5541SOL    HW222483   3.134   4.733   2.950
 5541SOL    HW322484   3.206   4.792   2.831
 5541SOL    MW422485   3.133   4.762   2.868
 5542SOL     OW22486   3.203   4.256   3.138
 5542SOL    HW222487   3.224   4.257   3.045
 5542SOL    HW322488   3.248   4.178   3.171
 5542SOL    MW422489   3.210   4.246   3.130
 5543SOL     OW22490   3.696   4.387   3.680
 5543SOL    HW222491   3.733   4.332   3.749
 5543SOL    HW322492   3.721   4.344   3.598
 5543SOL    MW422493   3.703   4.375   3.679
 5544SOL     OW22494   3.243   4.685   3.731
 5544SOL    HW222495   3.309   4.633   3.685
 5544SOL    HW322496   3.263   4.672   3.824
 5544SOL    MW422497   3.254   4.676   3.738
 5545SOL     OW22498   3.194   3.771   2.080
 5545SOL    HW222499   3.268   3.815   2.123
 5545SOL    HW322500   3.118   3.825   2.102
 5545SOL    MW422501   3.194   3.783   2.088
 5546SOL     OW22502   3.254   4.546   2.358
 5546SOL    HW222503   3.169   4.516   2.328
 5546SOL    HW322504   3.246   4.553   2.453
 5546SOL    MW422505   3.242   4.544   2.367
 5547SOL     OW22506   2.330   5.009   3.089
 5547SOL    HW222507   2.342   5.036   3.180
 5547SOL    HW322508   2.311   5.090   3.042
 5547SOL    MW422509   2.329   5.024   3.094
 5548SOL     OW22510   2.614   3.989   2.912
 5548SOL    HW222511   2.587   3.991   3.003
 5548SOL    HW322512   2.544   3.941   2.867
 5548SOL    MW422513   2.602   3.985   2.919
 5549SOL     OW22514   2.468   5.481   3.074
 5549SOL    HW222515   2.520   5.558   3.051
 5549SOL    HW322516   2.477   5.473   3.169
 5549SOL    MW422517   2.477   5.488   3.085
 5550SOL     OW22518   3.370   5.066   3.306
 5550SOL    HW222519   3.355   4.995   3.369
 5550SOL    HW322520   3.416   5.024   3.234
 5550SOL    MW422521   3.376   5.050   3.306
 5551SOL     OW22522   2.444   4.797   3.423
 5551SOL    HW222523   2.481   4.802   3.335
 5551SOL    HW322524   2.483   4.870   3.470
 5551SOL    MW422525   2.454   4.807   3.418
 5552SOL     OW22526   2.624   4.840   3.235
 5552SOL    HW222527   2.683   4.786   3.288
 5552SOL    HW322528   2.639   4.812   3.145
 5552SOL    MW422529   2.634   4.829   3.231
 5553SOL     OW22530   2.627   4.212   2.084
 5553SOL    HW222531   2.700   4.261   2.047
 5553SOL    HW322532   2.643   4.121   2.058
 5553SOL    MW422533   2.639   4.207   2.077
 5554SOL     OW22534   3.435   5.329   3.407
 5554SOL    HW222535   3.477   5.314   3.492
 5554SOL    HW322536   3.426   5.242   3.369
 5554SOL    MW422537   3.439   5.317   3.414
 5555SOL     OW22538   3.095   3.808   2.998
 5555SOL    HW222539   3.150   3.817   2.920
 5555SOL    HW322540   3.150   3.842   3.069
 5555SOL    MW422541   3.109   3.813   2.997
 5556SOL     OW22542   2.102   4.721   2.182
 5556SOL    HW222543   2.039   4.737   2.111
 5556SOL    HW322544   2.049   4.684   2.253
 5556SOL    MW422545   2.087   4.718   2.182
 5557SOL     OW22546   2.458   5.075   2.041
 5557SOL    HW222547   2.473   5.051   2.133
 5557SOL    HW322548   2.366   5.053   2.025
 5557SOL    MW422549   2.448   5.068   2.051
 5558SOL     OW22550   2.997   5.306   2.193
 5558SOL    HW222551   3.005   5.224   2.144
 5558SOL    HW322552   2.916   5.345   2.160
 5558SOL    MW422553   2.987   5.301   2.183
 5559SOL     OW22554   2.256   5.464   2.762
 5559SOL    HW222555   2.260   5.375   2.797
 5559SOL    HW322556   2.282   5.455   2.671
 5559SOL    MW422557   2.259   5.452   2.754
 5560SOL     OW22558   2.873   4.942   3.005
 5560SOL    HW222559   2.805   4.876   3.021
 5560SOL    HW322560   2.891   4.936   2.912
 5560SOL    MW422561   2.866   4.933   2.996
 5561SOL     OW22562   1.962   5.217   3.256
 5561SOL    HW222563   1.952   5.175   3.342
 5561SOL    HW322564   1.883   5.270   3.246
 5561SOL    MW422565   1.951   5.218   3.267
 5562SOL     OW22566   2.866   4.081   2.826
 5562SOL    HW222567   2.796   4.033   2.871
 5562SOL    HW322568   2.898   4.144   2.890
 5562SOL    MW422569   2.861   4.083   2.840
 5563SOL     OW22570   2.517   4.517   3.446
 5563SOL    HW222571   2.510   4.612   3.434
 5563SOL    HW322572   2.526   4.506   3.541
 5563SOL    MW422573   2.518   4.529   3.456
 5564SOL     OW22574   2.238   5.032   3.704
 5564SOL    HW222575   2.310   5.034   3.641
 5564SOL    HW322576   2.208   4.941   3.703
 5564SOL    MW422577   2.243   5.021   3.696
 5565SOL     OW22578   3.322   3.795   3.171
 5565SOL    HW222579   3.393   3.741   3.135
 5565SOL    HW322580   3.321   3.774   3.264
 5565SOL    MW422581   3.331   3.786   3.179
 5566SOL     OW22582   3.522   5.325   3.655
 5566SOL    HW222583   3.495   5.322   3.746
 5566SOL    HW322584   3.618   5.329   3.658
 5566SOL    MW422585   3.532   5.325   3.667
 5567SOL     OW22586   2.333   4.187   2.639
 5567SOL    HW222587   2.404   4.135   2.602
 5567SOL    HW322588   2.319   4.152   2.726
 5567SOL    MW422589   2.341   4.176   2.646
 5568SOL     OW22590   1.888   5.522   3.711
 5568SOL    HW222591   1.938   5.500   3.633
 5568SOL    HW322592   1.896   5.617   3.719
 5568SOL    MW422593   1.896   5.531   3.702
 5569SOL     OW22594   2.649   5.280   2.715
 5569SOL    HW222595   2.577   5.217   2.728
 5569SOL    HW322596   2.610   5.365   2.733
 5569SOL    MW422597   2.633   5.283   2.718
 5570SOL     OW22598   2.969   4.128   2.363
 5570SOL    HW222599   2.991   4.065   2.295
 5570SOL    HW322600   2.874   4.120   2.374
 5570SOL    MW422601   2.959   4.119   2.355
 5571SOL     OW22602   2.054   3.818   2.295
 5571SOL    HW222603   2.125   3.839   2.234
 5571SOL    HW322604   2.008   3.746   2.253
 5571SOL    MW422605   2.058   3.812   2.281
 5572SOL     OW22606   1.885   4.285   3.438
 5572SOL    HW222607   1.949   4.351   3.413
 5572SOL    HW322608   1.804   4.312   3.395
 5572SOL    MW422609   1.883   4.297   3.430
 5573SOL     OW22610   3.623   5.192   2.395
 5573SOL    HW222611   3.593   5.125   2.456
 5573SOL    HW322612   3.717   5.198   2.409
 5573SOL    MW422613   3.631   5.184   2.405
 5574SOL     OW22614   3.179   4.869   2.325
 5574SOL    HW222615   3.151   4.955   2.358
 5574SOL    HW322616   3.207   4.885   2.235
 5574SOL    MW422617   3.179   4.883   2.317
 5575SOL     OW22618   2.841   3.789   2.378
 5575SOL    HW222619   2.878   3.848   2.443
 5575SOL    HW322620   2.818   3.845   2.304
 5575SOL    MW422621   2.842   3.804   2.377
 5576SOL     OW22622   3.694   4.671   2.800
 5576SOL    HW222623   3.685   4.703   2.711
 5576SOL    HW322624   3.647   4.587   2.800
 5576SOL    MW422625   3.687   4.664   2.790
 5577SOL     OW22626   2.070   4.511   3.379
 5577SOL    HW222627   2.091   4.580   3.317
 5577SOL    HW322628   2.150   4.458   3.384
 5577SOL    MW422629   2.083   4.512   3.373
 5578SOL     OW22630   3.606   4.602   2.501
 5578SOL    HW222631   3.700   4.591   2.489
 5578SOL    HW322632   3.582   4.674   2.442
 5578SOL    MW422633   3.616   4.610   2.492
 5579SOL     OW22634   2.055   4.526   3.646
 5579SOL    HW222635   1.981   4.470   3.672
 5579SOL    HW322636   2.050   4.529   3.551
 5579SOL    MW422637   2.044   4.519   3.636
 5580SOL     OW22638   2.221   3.813   3.096
 5580SOL    HW222639   2.264   3.897   3.116
 5580SOL    HW322640   2.294   3.751   3.089
 5580SOL    MW422641   2.236   3.816   3.097
 5581SOL     OW22642   2.262   4.480   2.274
 5581SOL    HW222643   2.262   4.575   2.259
 5581SOL    HW322644   2.339   4.464   2.328
 5581SOL    MW422645   2.272   4.491   2.279
 5582SOL     OW22646   3.038   4.339   3.338
 5582SOL    HW222647   3.074   4.312   3.254
 5582SOL    HW322648   2.951   4.373   3.317
 5582SOL    MW422649   3.032   4.340   3.325
 5583SOL     OW22650   2.021   4.211   2.563
 5583SOL    HW222651   2.083   4.218   2.636
 5583SOL    HW322652   2.021   4.118   2.540
 5583SOL    MW422653   2.029   4.200   2.570
 5584SOL     OW22654   3.568   5.551   2.095
 5584SOL    HW222655   3.635   5.584   2.035
 5584SOL    HW322656   3.525   5.630   2.129
 5584SOL    MW422657   3.570   5.566   2.091
 5585SOL     OW22658   2.703   4.472   3.047
 5585SOL    HW222659   2.661   4.390   3.023
 5585SOL    HW322660   2.704   4.471   3.143
 5585SOL    MW422661   2.696   4.461   3.056
 5586SOL     OW22662   3.374   5.605   3.446
 5586SOL    HW222663   3.377   5.511   3.429
 5586SOL    HW322664   3.397   5.613   3.538
 5586SOL    MW422665   3.377   5.593   3.456
 5587SOL     OW22666   2.507   3.942   3.152
 5587SOL    HW222667   2.438   4.005   3.173
 5587SOL    HW322668   2.534   3.906   3.237
 5587SOL    MW422669   2.501   3.945   3.165
 5588SOL     OW22670   1.890   4.783   2.021
 5588SOL    HW222671   1.859   4.848   2.084
 5588SOL    HW322672   1.839   4.705   2.040
 5588SOL    MW422673   1.880   4.780   2.031
 5589SOL     OW22674   3.302   3.795   2.769
 5589SOL    HW222675   3.390   3.804   2.806
 5589SOL    HW322676   3.312   3.736   2.695
 5589SOL    MW422677   3.316   3.789   2.763
 5590SOL     OW22678   3.334   4.534   2.613
 5590SOL    HW222679   3.414   4.549   2.562
 5590SOL    HW322680   3.327   4.439   2.619
 5590SOL    MW422681   3.343   4.523   2.608
 5591SOL     OW22682   2.474   5.583   1.963
 5591SOL    HW222683   2.379   5.583   1.955
 5591SOL    HW322684   2.490   5.529   2.041
 5591SOL    MW422685   2.464   5.577   1.972
 5592SOL     OW22686   2.784   4.460   3.310
 5592SOL    HW222687   2.853   4.527   3.307
 5592SOL    HW322688   2.717   4.498   3.366
 5592SOL    MW422689   2.785   4.473   3.317
 5593SOL     OW22690   2.202   4.760   3.558
 5593SOL    HW222691   2.156   4.676   3.560
 5593SOL    HW322692   2.259   4.754   3.482
 5593SOL    MW422693   2.204   4.748   3.550
 5594SOL     OW22694   3.319   4.403   1.879
 5594SOL    HW222695   3.247   4.379   1.821
 5594SOL    HW322696   3.385   4.440   1.821
 5594SOL    MW422697   3.318   4.405   1.864
 5595SOL     OW22698   2.453   5.135   2.559
 5595SOL    HW222699   2.518   5.068   2.580
 5595SOL    HW322700   2.505   5.212   2.536
 5595SOL    MW422701   2.468   5.137   2.558
 5596SOL     OW22702   2.714   4.300   2.689
 5596SOL    HW222703   2.654   4.318   2.761
 5596SOL    HW322704   2.748   4.212   2.708
 5596SOL    MW422705   2.710   4.290   2.702
 5597SOL     OW22706   3.655   3.799   3.358
 5597SOL    HW222707   3.576   3.845   3.386
 5597SOL    HW322708   3.690   3.853   3.287
 5597SOL    MW422709   3.649   3.812   3.352
 5598SOL     OW22710   2.939   4.883   2.708
 5598SOL    HW222711   3.031   4.864   2.726
 5598SOL    HW322712   2.912   4.813   2.648
 5598SOL    MW422713   2.947   4.871   2.702
 5599SOL     OW22714   2.732   4.703   2.063
 5599SOL    HW222715   2.718   4.615   2.028
 5599SOL    HW322716   2.683   4.760   2.004
 5599SOL    MW422717   2.724   4.698   2.051
 5600SOL     OW22718   3.213   5.121   2.804
 5600SOL    HW222719   3.186   5.205   2.769
 5600SOL    HW322720   3.173   5.116   2.891
 5600SOL    MW422721   3.206   5.130   2.810
 5601SOL     OW22722   3.132   5.069   3.072
 5601SOL    HW222723   3.143   5.036   3.161
 5601SOL    HW322724   3.051   5.028   3.041
 5601SOL    MW422725   3.122   5.061   3.078
 5602SOL     OW22726   2.145   4.427   2.842
 5602SOL    HW222727   2.095   4.426   2.923
 5602SOL    HW322728   2.165   4.519   2.826
 5602SOL    MW422729   2.141   4.439   2.850
 5603SOL     OW22730   3.212   5.191   3.604
 5603SOL    HW222731   3.212   5.285   3.620
 5603SOL    HW322732   3.257   5.181   3.520
 5603SOL    MW422733   3.218   5.201   3.595
 5604SOL     OW22734   3.451   3.909   2.165
 5604SOL    HW222735   3.444   3.913   2.260
 5604SOL    HW322736   3.463   4.000   2.138
 5604SOL    MW422737   3.452   3.922   2.173
 5605SOL     OW22738   2.740   4.472   2.279
 5605SOL    HW222739   2.720   4.458   2.186
 5605SOL    HW322740   2.833   4.451   2.286
 5605SOL    MW422741   2.750   4.467   2.268
 5606SOL     OW22742   2.067   4.095   3.583
 5606SOL    HW222743   2.024   4.154   3.520
 5606SOL    HW322744   2.135   4.150   3.623
 5606SOL    MW422745   2.071   4.110   3.580
 5607SOL     OW22746   3.179   4.715   3.128
 5607SOL    HW222747   3.242   4.712   3.201
 5607SOL    HW322748   3.095   4.733   3.170
 5607SOL    MW422749   3.175   4.717   3.143
 5608SOL     OW22750   2.723   5.430   2.317
 5608SOL    HW222751   2.781   5.501   2.344
 5608SOL    HW322752   2.746   5.358   2.375
 5608SOL    MW422753   2.734   5.430   2.328
 5609SOL     OW22754   3.518   3.892   2.907
 5609SOL    HW222755   3.563   3.810   2.926
 5609SOL    HW322756   3.538   3.948   2.983
 5609SOL    MW422757   3.528   3.888   2.919
 5610SOL     OW22758   1.966   3.735   3.006
 5610SOL    HW222759   1.957   3.736   2.911
 5610SOL    HW322760   2.060   3.747   3.021
 5610SOL    MW422761   1.978   3.738   2.997
 5611SOL     OW22762   3.603   4.928   2.626
 5611SOL    HW222763   3.582   4.874   2.549
 5611SOL    HW322764   3.699   4.926   2.630
 5611SOL    MW422765   3.612   4.921   2.615
 5612SOL     OW22766   2.295   5.073   3.369
 5612SOL    HW222767   2.216   5.023   3.392
 5612SOL    HW322768   2.365   5.032   3.419
 5612SOL    MW422769   2.293   5.061   3.379
 5613SOL     OW22770   2.179   3.862   2.052
 5613SOL    HW222771   2.108   3.917   2.020
 5613SOL    HW322772   2.221   3.828   1.973
 5613SOL    MW422773   2.175   3.864   2.038
 5614SOL     OW22774   3.303   4.359   2.888
 5614SOL    HW222775   3.226   4.405   2.854
 5614SOL    HW322776   3.360   4.428   2.922
 5614SOL    MW422777   3.300   4.374   2.888
 5615SOL     OW22778   1.935   3.961   1.901
 5615SOL    HW222779   1.902   4.040   1.945
 5615SOL    HW322780   1.990   3.994   1.830
 5615SOL    MW422781   1.938   3.975   1.898
 5616SOL     OW22782   1.969   5.218   2.090
 5616SOL    HW222783   1.986   5.302   2.132
 5616SOL    HW322784   2.004   5.227   2.002
 5616SOL    MW422785   1.974   5.231   2.084
 5617SOL     OW22786   3.241   5.307   2.307
 5617SOL    HW222787   3.304   5.297   2.236
 5617SOL    HW322788   3.158   5.327   2.262
 5617SOL    MW422789   3.238   5.308   2.292
 5618SOL     OW22790   3.604   4.575   3.993
 5618SOL    HW222791   3.645   4.517   4.058
 5618SOL    HW322792   3.511   4.567   4.010
 5618SOL    MW422793   3.598   4.567   4.003
 5619SOL     OW22794   3.470   4.507   4.988
 5619SOL    HW222795   3.425   4.574   5.039
 5619SOL    HW322796   3.558   4.543   4.974
 5619SOL    MW422797   3.476   4.520   4.992
 5620SOL     OW22798   2.398   4.758   4.222
 5620SOL    HW222799   2.488   4.733   4.206
 5620SOL    HW322800   2.394   4.851   4.199
 5620SOL    MW422801   2.410   4.767   4.217
 5621SOL     OW22802   3.514   5.461   4.364
 5621SOL    HW222803   3.526   5.407   4.442
 5621SOL    HW322804   3.551   5.409   4.293
 5621SOL    MW422805   3.520   5.446   4.365
 5622SOL     OW22806   2.893   5.346   5.365
 5622SOL    HW222807   2.934   5.382   5.286
 5622SOL    HW322808   2.928   5.257   5.372
 5622SOL    MW422809   2.904   5.339   5.356
 5623SOL     OW22810   3.450   4.901   4.969
 5623SOL    HW222811   3.371   4.866   4.927
 5623SOL    HW322812   3.477   4.973   4.913
 5623SOL    MW422813   3.443   4.906   4.956
 5624SOL     OW22814   2.682   4.214   4.235
 5624SOL    HW222815   2.657   4.302   4.263
 5624SOL    HW322816   2.679   4.217   4.139
 5624SOL    MW422817   2.678   4.226   4.227
 5625SOL     OW22818   2.124   4.242   4.163
 5625SOL    HW222819   2.156   4.330   4.145
 5625SOL    HW322820   2.112   4.240   4.258
 5625SOL    MW422821   2.127   4.254   4.175
 5626SOL     OW22822   2.202   4.655   5.064
 5626SOL    HW222823   2.265   4.602   5.015
 5626SOL    HW322824   2.183   4.729   5.007
 5626SOL    MW422825   2.208   4.657   5.051
 5627SOL     OW22826   2.523   3.997   4.250
 5627SOL    HW222827   2.581   4.073   4.252
 5627SOL    HW322828   2.458   4.018   4.183
 5627SOL    MW422829   2.522   4.009   4.241
 5628SOL     OW22830   2.610   4.924   4.425
 5628SOL    HW222831   2.690   4.927   4.477
 5628SOL    HW322832   2.638   4.891   4.339
 5628SOL    MW422833   2.624   4.920   4.420
 5629SOL     OW22834   2.635   5.265   5.328
 5629SOL    HW222835   2.719   5.291   5.367
 5629SOL    HW322836   2.659   5.209   5.254
 5629SOL    MW422837   2.649   5.261   5.323
 5630SOL     OW22838   2.387   4.428   4.416
 5630SOL    HW222839   2.372   4.348   4.467
 5630SOL    HW322840   2.469   4.463   4.450
 5630SOL    MW422841   2.395   4.420   4.428
 5631SOL     OW22842   2.724   5.114   5.101
 5631SOL    HW222843   2.688   5.180   5.041
 5631SOL    HW322844   2.652   5.052   5.114
 5631SOL    MW422845   2.710   5.114   5.095
 5632SOL     OW22846   2.529   4.254   4.793
 5632SOL    HW222847   2.435   4.250   4.811
 5632SOL    HW322848   2.559   4.163   4.802
 5632SOL    MW422849   2.520   4.242   4.796
 5633SOL     OW22850   2.275   4.668   4.697
 5633SOL    HW222851   2.230   4.675   4.613
 5633SOL    HW322852   2.255   4.751   4.741
 5633SOL    MW422853   2.267   4.680   4.691
 5634SOL     OW22854   1.972   5.514   4.572
 5634SOL    HW222855   2.061   5.506   4.607
 5634SOL    HW322856   1.936   5.426   4.577
 5634SOL    MW422857   1.979   5.501   4.577
 5635SOL     OW22858   3.237   4.906   3.941
 5635SOL    HW222859   3.155   4.942   3.907
 5635SOL    HW322860   3.305   4.949   3.890
 5635SOL    MW422861   3.235   4.916   3.929
 5636SOL     OW22862   2.236   5.041   4.607
 5636SOL    HW222863   2.212   5.094   4.683
 5636SOL    HW322864   2.292   5.099   4.555
 5636SOL    MW422865   2.240   5.056   4.610
 5637SOL     OW22866   2.798   4.685   4.417
 5637SOL    HW222867   2.712   4.672   4.457
 5637SOL    HW322868   2.851   4.612   4.449
 5637SOL    MW422869   2.794   4.674   4.426
 5638SOL     OW22870   2.206   5.337   5.202
 5638SOL    HW222871   2.114   5.313   5.187
 5638SOL    HW322872   2.250   5.254   5.219
 5638SOL    MW422873   2.200   5.322   5.201
 5639SOL     OW22874   2.789   5.047   4.134
 5639SOL    HW222875   2.766   5.109   4.202
 5639SOL    HW322876   2.746   4.965   4.160
 5639SOL    MW422877   2.781   5.043   4.145
 5640SOL     OW22878   3.662   4.048   4.590
 5640SOL    HW222879   3.599   4.028   4.659
 5640SOL    HW322880   3.652   3.977   4.527
 5640SOL    MW422881   3.652   4.035   4.591
 5641SOL     OW22882   2.286   4.020   4.102
 5641SOL    HW222883   2.260   3.982   4.018
 5641SOL    HW322884   2.223   4.090   4.118
 5641SOL    MW422885   2.275   4.023   4.093
 5642SOL     OW22886   2.121   4.981   4.139
 5642SOL    HW222887   2.069   5.049   4.095
 5642SOL    HW322888   2.118   4.907   4.079
 5642SOL    MW422889   2.113   4.980   4.126
 5643SOL     OW22890   2.783   5.444   3.917
 5643SOL    HW222891   2.738   5.460   4.000
 5643SOL    HW322892   2.714   5.409   3.859
 5643SOL    MW422893   2.769   5.441   3.919
 5644SOL     OW22894   3.718   4.217   3.892
 5644SOL    HW222895   3.627   4.219   3.920
 5644SOL    HW322896   3.763   4.279   3.950
 5644SOL    MW422897   3.711   4.225   3.902
 5645SOL     OW22898   3.463   4.820   4.242
 5645SOL    HW222899   3.373   4.820   4.277
 5645SOL    HW322900   3.456   4.866   4.159
 5645SOL    MW422901   3.450   4.826   4.236
 5646SOL     OW22902   3.263   4.455   5.314
 5646SOL    HW222903   3.332   4.393   5.291
 5646SOL    HW322904   3.188   4.429   5.261
 5646SOL    MW422905   3.263   4.442   5.305
 5647SOL     OW22906   2.004   5.335   4.866
 5647SOL    HW222907   1.987   5.281   4.943
 5647SOL    HW322908   1.992   5.425   4.896
 5647SOL    MW422909   2.001   5.339   4.880
 5648SOL     OW22910   2.999   4.842   5.306
 5648SOL    HW222911   2.984   4.935   5.291
 5648SOL    HW322912   3.094   4.832   5.306
 5648SOL    MW422913   3.008   4.852   5.303
 5649SOL     OW22914   2.795   4.266   5.507
 5649SOL    HW222915   2.885   4.267   5.474
 5649SOL    HW322916   2.754   4.191   5.465
 5649SOL    MW422917   2.801   4.256   5.498
 5650SOL     OW22918   3.370   4.798   4.634
 5650SOL    HW222919   3.373   4.732   4.565
 5650SOL    HW322920   3.455   4.841   4.630
 5650SOL    MW422921   3.382   4.794   4.625
 5651SOL     OW22922   2.990   4.401   4.203
 5651SOL    HW222923   3.016   4.425   4.114
 5651SOL    HW322924   2.972   4.308   4.199
 5651SOL    MW422925   2.992   4.393   4.190
 5652SOL     OW22926   3.655   5.021   4.054
 5652SOL    HW222927   3.611   5.062   4.129
 5652SOL    HW322928   3.712   5.089   4.019
 5652SOL    MW422929   3.657   5.035   4.059
 5653SOL     OW22930   2.575   4.070   5.457
 5653SOL    HW222931   2.585   3.996   5.397
 5653SOL    HW322932   2.611   4.039   5.540
 5653SOL    MW422933   2.581   4.056   5.459
 5654SOL     OW22934   2.311   5.437   4.372
 5654SOL    HW222935   2.343   5.525   4.350
 5654SOL    HW322936   2.264   5.409   4.294
 5654SOL    MW422937   2.310   5.445   4.359
 5655SOL     OW22938   3.695   3.799   4.421
 5655SOL    HW222939   3.749   3.750   4.483
 5655SOL    HW322940   3.638   3.733   4.382
 5655SOL    MW422941   3.695   3.783   4.423
 5656SOL     OW22942   2.027   5.497   3.949
 5656SOL    HW222943   2.056   5.587   3.941
 5656SOL    HW322944   1.977   5.480   3.870
 5656SOL    MW422945   2.025   5.505   3.938
 5657SOL     OW22946   2.814   3.752   4.834
 5657SOL    HW222947   2.773   3.830   4.796
 5657SOL    HW322948   2.908   3.770   4.829
 5657SOL    MW422949   2.820   3.764   4.829
 5658SOL     OW22950   3.431   5.305   3.920
 5658SOL    HW222951   3.479   5.374   3.966
 5658SOL    HW322952   3.352   5.349   3.889
 5658SOL    MW422953   3.426   5.319   3.923
 5659SOL     OW22954   2.829   4.430   3.864
 5659SOL    HW222955   2.831   4.377   3.785
 5659SOL    HW322956   2.917   4.467   3.870
 5659SOL    MW422957   2.841   4.429   3.853
 5660SOL     OW22958   3.443   4.356   4.200
 5660SOL    HW222959   3.482   4.356   4.287
 5660SOL    HW322960   3.384   4.432   4.200
 5660SOL    MW422961   3.440   4.367   4.211
 5661SOL     OW22962   2.760   4.723   5.329
 5661SOL    HW222963   2.737   4.703   5.419
 5661SOL    HW322964   2.845   4.767   5.334
 5661SOL    MW422965   2.767   4.726   5.341
 5662SOL     OW22966   2.840   3.860   5.089
 5662SOL    HW222967   2.846   3.822   5.002
 5662SOL    HW322968   2.829   3.954   5.074
 5662SOL    MW422969   2.841   3.868   5.077
 5663SOL     OW22970   2.929   4.349   4.923
 5663SOL    HW222971   3.004   4.378   4.870
 5663SOL    HW322972   2.861   4.414   4.907
 5663SOL    MW422973   2.930   4.361   4.913
 5664SOL     OW22974   3.479   4.317   5.200
 5664SOL    HW222975   3.460   4.226   5.179
 5664SOL    HW322976   3.457   4.366   5.121
 5664SOL    MW422977   3.474   4.310   5.187
 5665SOL     OW22978   3.621   5.411   5.104
 5665SOL    HW222979   3.549   5.373   5.155
 5665SOL    HW322980   3.638   5.496   5.145
 5665SOL    MW422981   3.615   5.416   5.116
 5666SOL     OW22982   2.926   4.055   5.306
 5666SOL    HW222983   2.892   4.094   5.225
 5666SOL    HW322984   2.904   3.963   5.299
 5666SOL    MW422985   2.919   4.048   5.296
 5667SOL     OW22986   3.335   4.869   5.382
 5667SOL    HW222987   3.417   4.910   5.412
 5667SOL    HW322988   3.298   4.831   5.462
 5667SOL    MW422989   3.341   4.870   5.397
 5668SOL     OW22990   3.630   4.242   4.366
 5668SOL    HW222991   3.719   4.211   4.383
 5668SOL    HW322992   3.573   4.182   4.414
 5668SOL    MW422993   3.633   4.230   4.375
 5669SOL     OW22994   2.056   3.956   4.395
 5669SOL    HW222995   2.047   3.896   4.321
 5669SOL    HW322996   1.989   3.927   4.458
 5669SOL    MW422997   2.046   3.943   4.393
 5670SOL     OW22998   2.999   5.049   3.956
 5670SOL    HW222999   2.949   5.051   4.038
 5670SOL    HW323000   2.933   5.067   3.888
 5670SOL    MW423001   2.985   5.051   3.958
 5671SOL     OW23002   2.003   4.129   4.758
 5671SOL    HW223003   1.975   4.220   4.767
 5671SOL    HW323004   1.940   4.090   4.697
 5671SOL    MW423005   1.990   4.135   4.752
 5672SOL     OW23006   2.462   5.467   4.064
 5672SOL    HW223007   2.383   5.425   4.097
 5672SOL    HW323008   2.528   5.450   4.131
 5672SOL    MW423009   2.461   5.459   4.077
 5673SOL     OW23010   3.590   4.987   5.461
 5673SOL    HW223011   3.640   4.913   5.493
 5673SOL    HW323012   3.536   5.014   5.536
 5673SOL    MW423013   3.590   4.981   5.474
 5674SOL     OW23014   2.598   4.882   3.771
 5674SOL    HW223015   2.520   4.828   3.758
 5674SOL    HW323016   2.569   4.955   3.824
 5674SOL    MW423017   2.584   4.884   3.776
 5675SOL     OW23018   3.724   4.622   4.963
 5675SOL    HW223019   3.740   4.660   4.876
 5675SOL    HW323020   3.758   4.688   5.024
 5675SOL    MW423021   3.731   4.635   4.959
 5676SOL     OW23022   3.516   5.331   4.632
 5676SOL    HW223023   3.545   5.398   4.693
 5676SOL    HW323024   3.497   5.255   4.687
 5676SOL    MW423025   3.518   5.331   4.647
 5677SOL     OW23026   3.179   5.398   3.839
 5677SOL    HW223027   3.105   5.361   3.889
 5677SOL    HW323028   3.187   5.488   3.872
 5677SOL    MW423029   3.170   5.405   3.851
 5678SOL     OW23030   1.987   4.404   4.928
 5678SOL    HW223031   2.049   4.434   4.994
 5678SOL    HW323032   1.921   4.473   4.922
 5678SOL    MW423033   1.986   4.417   4.935
 5679SOL     OW23034   3.403   5.072   3.781
 5679SOL    HW223035   3.350   5.121   3.717
 5679SOL    HW323036   3.434   5.138   3.842
 5679SOL    MW423037   3.401   5.086   3.779
 5680SOL     OW23038   2.628   3.961   3.836
 5680SOL    HW223039   2.576   3.881   3.824
 5680SOL    HW323040   2.715   3.938   3.804
 5680SOL    MW423041   2.631   3.947   3.830
 5681SOL     OW23042   2.082   5.513   5.380
 5681SOL    HW223043   2.056   5.581   5.318
 5681SOL    HW323044   2.130   5.450   5.328
 5681SOL    MW423045   2.084   5.513   5.366
 5682SOL     OW23046   2.134   4.832   4.887
 5682SOL    HW223047   2.187   4.907   4.912
 5682SOL    HW323048   2.053   4.870   4.853
 5682SOL    MW423049   2.130   4.847   4.887
 5683SOL     OW23050   2.674   4.736   4.875
 5683SOL    HW223051   2.702   4.645   4.887
 5683SOL    HW323052   2.603   4.730   4.811
 5683SOL    MW423053   2.667   4.724   4.870
 5684SOL     OW23054   1.989   4.601   4.293
 5684SOL    HW223055   2.080   4.616   4.320
 5684SOL    HW323056   1.992   4.522   4.239
 5684SOL    MW423057   2.001   4.593   4.291
 5685SOL     OW23058   2.225   4.309   5.547
 5685SOL    HW223059   2.172   4.389   5.554
 5685SOL    HW323060   2.295   4.321   5.612
 5685SOL    MW423061   2.227   4.322   5.555
 5686SOL     OW23062   2.611   3.859   5.254
 5686SOL    HW223063   2.588   3.767   5.256
 5686SOL    HW323064   2.697   3.861   5.211
 5686SOL    MW423065   2.618   3.849   5.250
 5687SOL     OW23066   2.295   4.383   5.293
 5687SOL    HW223067   2.375   4.433   5.279
 5687SOL    HW323068   2.286   4.377   5.388
 5687SOL    MW423069   2.304   4.389   5.303
 5688SOL     OW23070   2.616   5.533   4.667
 5688SOL    HW223071   2.705   5.548   4.697
 5688SOL    HW323072   2.611   5.580   4.583
 5688SOL    MW423073   2.626   5.541   4.660
 5689SOL     OW23074   3.272   3.908   5.564
 5689SOL    HW223075   3.328   3.835   5.590
 5689SOL    HW323076   3.242   3.946   5.646
 5689SOL    MW423077   3.276   3.903   5.577
 5690SOL     OW23078   1.997   5.213   4.332
 5690SOL    HW223079   1.969   5.252   4.414
 5690SOL    HW323080   2.017   5.122   4.354
 5690SOL    MW423081   1.995   5.205   4.345
 5691SOL     OW23082   2.830   5.256   4.367
 5691SOL    HW223083   2.913   5.210   4.351
 5691SOL    HW323084   2.820   5.255   4.463
 5691SOL    MW423085   2.840   5.249   4.377
 5692SOL     OW23086   3.662   4.401   4.681
 5692SOL    HW223087   3.751   4.431   4.663
 5692SOL    HW323088   3.642   4.341   4.610
 5692SOL    MW423089   3.671   4.398   4.670
 5693SOL     OW23090   3.513   4.580   5.561
 5693SOL    HW223091   3.568   4.504   5.542
 5693SOL    HW323092   3.515   4.588   5.656
 5693SOL    MW423093   3.521   4.571   5.569
 5694SOL     OW23094   2.563   5.313   3.772
 5694SOL    HW223095   2.503   5.382   3.742
 5694SOL    HW323096   2.508   5.255   3.825
 5694SOL    MW423097   2.547   5.315   3.774
 5695SOL     OW23098   3.001   3.958   3.995
 5695SOL    HW223099   2.934   3.934   3.932
 5695SOL    HW323100   3.066   4.007   3.944
 5695SOL    MW423101   3.001   3.960   3.980
 5696SOL     OW23102   2.808   4.142   5.080
 5696SOL    HW223103   2.727   4.183   5.108
 5696SOL    HW323104   2.855   4.210   5.032
 5696SOL    MW423105   2.803   4.157   5.078
 5697SOL     OW23106   3.068   4.480   4.703
 5697SOL    HW223107   3.081   4.574   4.713
 5697SOL    HW323108   3.029   4.470   4.617
 5697SOL    MW423109   3.064   4.491   4.693
 5698SOL     OW23110   2.520   4.675   4.507
 5698SOL    HW223111   2.431   4.666   4.540
 5698SOL    HW323112   2.524   4.765   4.475
 5698SOL    MW423113   2.509   4.686   4.507
 5699SOL     OW23114   3.319   4.258   4.502
 5699SOL    HW223115   3.264   4.179   4.501
 5699SOL    HW323116   3.301   4.299   4.586
 5699SOL    MW423117   3.309   4.253   4.511
 5700SOL     OW23118   2.290   3.945   5.319
 5700SOL    HW223119   2.211   3.963   5.371
 5700SOL    HW323120   2.285   4.007   5.246
 5700SOL    MW423121   2.280   3.955   5.316
 5701SOL     OW23122   2.938   4.462   4.459
 5701SOL    HW223123   2.875   4.394   4.483
 5701SOL    HW323124   2.958   4.443   4.367
 5701SOL    MW423125   2.932   4.449   4.451
 5702SOL     OW23126   2.194   5.357   4.161
 5702SOL    HW223127   2.155   5.404   4.087
 5702SOL    HW323128   2.128   5.292   4.186
 5702SOL    MW423129   2.181   5.355   4.155
 5703SOL     OW23130   2.686   4.766   4.185
 5703SOL    HW223131   2.688   4.740   4.092
 5703SOL    HW323132   2.744   4.703   4.228
 5703SOL    MW423133   2.694   4.755   4.179
 5704SOL     OW23134   3.239   5.326   4.957
 5704SOL    HW223135   3.164   5.372   4.995
 5704SOL    HW323136   3.221   5.233   4.974
 5704SOL    MW423137   3.228   5.320   4.965
 5705SOL     OW23138   3.243   5.534   4.387
 5705SOL    HW223139   3.186   5.487   4.326
 5705SOL    HW323140   3.329   5.495   4.374
 5705SOL    MW423141   3.246   5.525   4.377
 5706SOL     OW23142   3.196   4.010   4.518
 5706SOL    HW223143   3.224   3.942   4.579
 5706SOL    HW323144   3.110   3.981   4.488
 5706SOL    MW423145   3.189   3.997   4.522
 5707SOL     OW23146   2.001   4.944   4.452
 5707SOL    HW223147   2.065   4.976   4.515
 5707SOL    HW323148   2.050   4.880   4.400
 5707SOL    MW423149   2.016   4.940   4.453
 5708SOL     OW23150   2.501   5.020   5.434
 5708SOL    HW223151   2.549   5.103   5.421
 5708SOL    HW323152   2.558   4.968   5.490
 5708SOL    MW423153   2.515   5.024   5.440
 5709SOL     OW23154   2.077   5.262   5.574
 5709SOL    HW223155   2.133   5.186   5.589
 5709SOL    HW323156   2.026   5.240   5.496
 5709SOL    MW423157   2.077   5.249   5.565
 5710SOL     OW23158   3.176   4.114   3.853
 5710SOL    HW223159   3.149   4.180   3.789
 5710SOL    HW323160   3.246   4.157   3.903
 5710SOL    MW423161   3.181   4.127   3.850
 5711SOL     OW23162   2.844   3.819   3.790
 5711SOL    HW223163   2.900   3.811   3.712
 5711SOL    HW323164   2.821   3.729   3.812
 5711SOL    MW423165   2.849   3.806   3.783
 5712SOL     OW23166   3.349   4.670   3.995
 5712SOL    HW223167   3.316   4.759   3.985
 5712SOL    HW323168   3.314   4.641   4.080
 5712SOL    MW423169   3.339   4.679   4.006
 5713SOL     OW23170   2.962   5.099   5.183
 5713SOL    HW223171   2.873   5.105   5.151
 5713SOL    HW323172   3.006   5.178   5.151
 5713SOL    MW423173   2.957   5.109   5.175
 5714SOL     OW23174   2.255   3.767   5.525
 5714SOL    HW223175   2.183   3.732   5.473
 5714SOL    HW323176   2.313   3.808   5.460
 5714SOL    MW423177   2.253   3.768   5.510
 5715SOL     OW23178   2.279   5.257   4.824
 5715SOL    HW223179   2.324   5.319   4.881
 5715SOL    HW323180   2.186   5.276   4.837
 5715SOL    MW423181   2.272   5.267   4.831
 5716SOL     OW23182   3.719   4.786   5.178
 5716SOL    HW223183   3.634   4.799   5.137
 5716SOL    HW323184   3.699   4.750   5.265
 5716SOL    MW423185   3.706   4.782   5.183
 5717SOL     OW23186   2.701   5.325   4.932
 5717SOL    HW223187   2.725   5.314   4.841
 5717SOL    HW323188   2.624   5.382   4.930
 5717SOL    MW423189   2.693   5.330   4.921
 5718SOL     OW23190   2.343   4.708   3.787
 5718SOL    HW223191   2.266   4.721   3.843
 5718SOL    HW323192   2.307   4.672   3.706
 5718SOL    MW423193   2.329   4.704   3.784
 5719SOL     OW23194   2.996   4.681   4.030
 5719SOL    HW223195   2.906   4.702   4.005
 5719SOL    HW323196   3.023   4.754   4.086
 5719SOL    MW423197   2.988   4.693   4.033
 5720SOL     OW23198   2.496   5.030   4.722
 5720SOL    HW223199   2.489   5.009   4.816
 5720SOL    HW323200   2.414   4.998   4.685
 5720SOL    MW423201   2.484   5.024   4.729
 5721SOL     OW23202   3.360   4.040   5.124
 5721SOL    HW223203   3.307   4.042   5.204
 5721SOL    HW323204   3.345   3.953   5.087
 5721SOL    MW423205   3.352   4.030   5.129
 5722SOL     OW23206   3.696   3.964   4.997
 5722SOL    HW223207   3.677   4.031   4.932
 5722SOL    HW323208   3.753   3.902   4.952
 5722SOL    MW423209   3.700   3.965   4.983
 5723SOL     OW23210   1.942   5.122   5.385
 5723SOL    HW223211   1.986   5.055   5.331
 5723SOL    HW323212   1.857   5.084   5.405
 5723SOL    MW423213   1.937   5.108   5.381
 5724SOL     OW23214   2.625   3.797   4.437
 5724SOL    HW223215   2.554   3.858   4.419
 5724SOL    HW323216   2.676   3.794   4.356
 5724SOL    MW423217   2.621   3.803   4.424
 5725SOL     OW23218   2.383   5.037   4.186
 5725SOL    HW223219   2.376   5.069   4.276
 5725SOL    HW323220   2.293   5.021   4.158
 5725SOL    MW423221   2.371   5.039   4.193
 5726SOL     OW23222   2.978   5.430   5.095
 5726SOL    HW223223   2.898   5.415   5.045
 5726SOL    HW323224   2.985   5.525   5.102
 5726SOL    MW423225   2.969   5.441   5.089
 5727SOL     OW23226   3.092   5.395   4.585
 5727SOL    HW223227   3.139   5.468   4.544
 5727SOL    HW323228   3.013   5.434   4.621
 5727SOL    MW423229   3.087   5.410   4.584
 5728SOL     OW23230   3.500   5.490   4.860
 5728SOL    HW223231   3.543   5.460   4.940
 5728SOL    HW323232   3.419   5.438   4.857
 5728SOL    MW423233   3.495   5.479   4.870
 5729SOL     OW23234   2.585   4.454   5.567
 5729SOL    HW223235   2.655   4.396   5.539
 5729SOL    HW323236   2.528   4.399   5.622
 5729SOL    MW423237   2.587   4.441   5.571
 5730SOL     OW23238   3.372   4.666   5.200
 5730SOL    HW223239   3.377   4.719   5.280
 5730SOL    HW323240   3.334   4.583   5.228
 5730SOL    MW423241   3.368   4.661   5.215
 5731SOL     OW23242   3.012   3.801   5.446
 5731SOL    HW223243   3.007   3.708   5.427
 5731SOL    HW323244   3.095   3.812   5.492
 5731SOL    MW423245   3.020   3.790   5.450
 5732SOL     OW23246   2.386   4.321   3.900
 5732SOL    HW223247   2.352   4.377   3.970
 5732SOL    HW323248   2.457   4.271   3.940
 5732SOL    MW423249   2.392   4.322   3.914
 5733SOL     OW23250   3.482   5.072   4.722
 5733SOL    HW223251   3.517   5.054   4.635
 5733SOL    HW323252   3.387   5.073   4.709
 5733SOL    MW423253   3.474   5.069   4.709
 5734SOL     OW23254   2.911   4.720   5.091
 5734SOL    HW223255   2.954   4.755   5.169
 5734SOL    HW323256   2.894   4.797   5.037
 5734SOL    MW423257   2.914   4.735   5.094
 5735SOL     OW23258   3.442   4.207   3.964
 5735SOL    HW223259   3.434   4.278   3.901
 5735SOL    HW323260   3.460   4.251   4.047
 5735SOL    MW423261   3.443   4.221   3.966
 5736SOL     OW23262   2.302   3.862   4.393
 5736SOL    HW223263   2.352   3.905   4.324
 5736SOL    HW323264   2.217   3.906   4.393
 5736SOL    MW423265   2.299   3.875   4.384
 5737SOL     OW23266   2.061   4.924   5.253
 5737SOL    HW223267   2.089   4.877   5.331
 5737SOL    HW323268   1.982   4.879   5.224
 5737SOL    MW423269   2.054   4.913   5.259
 5738SOL     OW23270   2.569   4.251   5.220
 5738SOL    HW223271   2.541   4.339   5.244
 5738SOL    HW323272   2.538   4.195   5.291
 5738SOL    MW423273   2.561   4.254   5.232
 5739SOL     OW23274   3.111   4.469   3.939
 5739SOL    HW223275   3.158   4.487   3.858
 5739SOL    HW323276   3.077   4.553   3.967
 5739SOL    MW423277   3.113   4.483   3.932
 5740SOL     OW23278   2.224   4.647   4.433
 5740SOL    HW223279   2.282   4.703   4.381
 5740SOL    HW323280   2.268   4.562   4.435
 5740SOL    MW423281   2.237   4.644   4.426
 5741SOL     OW23282   3.364   3.999   4.270
 5741SOL    HW223283   3.286   3.949   4.295
 5741SOL    HW323284   3.335   4.090   4.270
 5741SOL    MW423285   3.350   4.003   4.273
 5742SOL     OW23286   2.950   3.961   4.429
 5742SOL    HW223287   2.970   4.036   4.373
 5742SOL    HW323288   2.930   4.000   4.514
 5742SOL    MW423289   2.951   3.977   4.433
 5743SOL     OW23290   2.846   5.211   3.761
 5743SOL    HW223291   2.873   5.289   3.713
 5743SOL    HW323292   2.753   5.226   3.780
 5743SOL    MW423293   2.837   5.224   3.757
 5744SOL     OW23294   3.710   4.734   5.448
 5744SOL    HW223295   3.623   4.714   5.484
 5744SOL    HW323296   3.764   4.660   5.473
 5744SOL    MW423297   3.705   4.723   5.456
 5745SOL     OW23298   1.931   5.247   4.605
 5745SOL    HW223299   1.963   5.251   4.696
 5745SOL    HW323300   1.836   5.255   4.613
 5745SOL    MW423301   1.923   5.250   4.618
 5746SOL     OW23302   1.886   4.373   4.152
 5746SOL    HW223303   1.826   4.345   4.222
 5746SOL    HW323304   1.960   4.313   4.158
 5746SOL    MW423305   1.888   4.362   4.161
 5747SOL     OW23306   3.454   5.585   5.586
 5747SOL    HW223307   3.499   5.509   5.551
 5747SOL    HW323308   3.492   5.598   5.673
 5747SOL    MW423309   3.464   5.578   5.592
 5748SOL     OW23310   3.054   5.104   4.312
 5748SOL    HW223311   3.077   5.055   4.390
 5748SOL    HW323312   3.135   5.146   4.284
 5748SOL    MW423313   3.067   5.104   4.319
 5749SOL     OW23314   2.312   4.112   5.041
 5749SOL    HW223315   2.345   4.193   5.081
 5749SOL    HW323316   2.285   4.138   4.953
 5749SOL    MW423317   2.311   4.126   5.035
 5750SOL     OW23318   2.266   4.079   4.777
 5750SOL    HW223319   2.296   3.993   4.748
 5750SOL    HW323320   2.171   4.072   4.780
 5750SOL    MW423321   2.258   4.068   4.775
 5751SOL     OW23322   3.095   4.288   5.468
 5751SOL    HW223323   3.147   4.223   5.421
 5751SOL    HW323324   3.053   4.339   5.398
 5751SOL    MW423325   3.096   4.285   5.451
 5752SOL     OW23326   3.194   4.083   5.329
 5752SOL    HW223327   3.101   4.067   5.316
 5752SOL    HW323328   3.220   4.021   5.397
 5752SOL    MW423329   3.184   4.073   5.336
 5753SOL     OW23330   2.409   3.857   4.668
 5753SOL    HW223331   2.419   3.766   4.694
 5753SOL    HW323332   2.365   3.853   4.583
 5753SOL    MW423333   2.405   3.845   4.660
 5754SOL     OW23334   2.503   5.472   5.214
 5754SOL    HW223335   2.420   5.457   5.259
 5754SOL    HW323336   2.562   5.405   5.249
 5754SOL    MW423337   2.501   5.462   5.224
 5755SOL     OW23338   3.560   4.179   4.839
 5755SOL    HW223339   3.493   4.212   4.899
 5755SOL    HW323340   3.603   4.257   4.805
 5755SOL    MW423341   3.558   4.194   4.843
 5756SOL     OW23342   3.738   4.899   4.809
 5756SOL    HW223343   3.731   4.839   4.734
 5756SOL    HW323344   3.664   4.959   4.798
 5756SOL    MW423345   3.728   4.899   4.798
 5757SOL     OW23346   3.120   4.761   4.727
 5757SOL    HW223347   3.134   4.733   4.818
 5757SOL    HW323348   3.206   4.792   4.699
 5757SOL    MW423349   3.133   4.762   4.736
 5758SOL     OW23350   3.203   4.256   5.006
 5758SOL    HW223351   3.224   4.257   4.913
 5758SOL    HW323352   3.248   4.178   5.039
 5758SOL    MW423353   3.210   4.246   4.998
 5759SOL     OW23354   3.696   4.387   5.548
 5759SOL    HW223355   3.733   4.332   5.617
 5759SOL    HW323356   3.721   4.344   5.466
 5759SOL    MW423357   3.703   4.375   5.547
 5760SOL     OW23358   3.243   4.685   5.600
 5760SOL    HW223359   3.309   4.633   5.554
 5760SOL    HW323360   3.263   4.672   5.693
 5760SOL    MW423361   3.254   4.676   5.607
 5761SOL     OW23362   3.194   3.771   3.948
 5761SOL    HW223363   3.268   3.815   3.991
 5761SOL    HW323364   3.118   3.825   3.970
 5761SOL    MW423365   3.194   3.783   3.956
 5762SOL     OW23366   3.254   4.546   4.226
 5762SOL    HW223367   3.169   4.516   4.196
 5762SOL    HW323368   3.246   4.553   4.321
 5762SOL    MW423369   3.242   4.544   4.235
 5763SOL     OW23370   2.330   5.009   4.957
 5763SOL    HW223371   2.342   5.036   5.048
 5763SOL    HW323372   2.311   5.090   4.910
 5763SOL    MW423373   2.329   5.024   4.962
 5764SOL     OW23374   2.614   3.989   4.780
 5764SOL    HW223375   2.587   3.991   4.871
 5764SOL    HW323376   2.544   3.941   4.735
 5764SOL    MW423377   2.602   3.985   4.787
 5765SOL     OW23378   2.468   5.481   4.942
 5765SOL    HW223379   2.520   5.558   4.919
 5765SOL    HW323380   2.477   5.473   5.037
 5765SOL    MW423381   2.477   5.488   4.953
 5766SOL     OW23382   3.370   5.066   5.174
 5766SOL    HW223383   3.355   4.995   5.237
 5766SOL    HW323384   3.416   5.024   5.102
 5766SOL    MW423385   3.376   5.050   5.174
 5767SOL     OW23386   2.444   4.797   5.291
 5767SOL    HW223387   2.481   4.802   5.203
 5767SOL    HW323388   2.483   4.870   5.338
 5767SOL    MW423389   2.454   4.807   5.286
 5768SOL     OW23390   2.624   4.840   5.103
 5768SOL    HW223391   2.683   4.786   5.156
 5768SOL    HW323392   2.639   4.812   5.013
 5768SOL    MW423393   2.634   4.829   5.099
 5769SOL     OW23394   2.627   4.212   3.952
 5769SOL    HW223395   2.700   4.261   3.915
 5769SOL    HW323396   2.643   4.121   3.926
 5769SOL    MW423397   2.639   4.207   3.945
 5770SOL     OW23398   3.435   5.329   5.275
 5770SOL    HW223399   3.477   5.314   5.360
 5770SOL    HW323400   3.426   5.242   5.237
 5770SOL    MW423401   3.439   5.317   5.282
 5771SOL     OW23402   3.095   3.808   4.866
 5771SOL    HW223403   3.150   3.817   4.788
 5771SOL    HW323404   3.150   3.842   4.937
 5771SOL    MW423405   3.109   3.813   4.865
 5772SOL     OW23406   2.102   4.721   4.050
 5772SOL    HW223407   2.039   4.737   3.979
 5772SOL    HW323408   2.049   4.684   4.121
 5772SOL    MW423409   2.087   4.718   4.050
 5773SOL     OW23410   2.458   5.075   3.909
 5773SOL    HW223411   2.473   5.051   4.001
 5773SOL    HW323412   2.366   5.053   3.893
 5773SOL    MW423413   2.448   5.068   3.919
 5774SOL     OW23414   2.997   5.306   4.061
 5774SOL    HW223415   3.005   5.224   4.012
 5774SOL    HW323416   2.916   5.345   4.028
 5774SOL    MW423417   2.987   5.301   4.051
 5775SOL     OW23418   2.256   5.464   4.630
 5775SOL    HW223419   2.260   5.375   4.665
 5775SOL    HW323420   2.282   5.455   4.539
 5775SOL    MW423421   2.259   5.452   4.622
 5776SOL     OW23422   2.873   4.942   4.873
 5776SOL    HW223423   2.805   4.876   4.889
 5776SOL    HW323424   2.891   4.936   4.780
 5776SOL    MW423425   2.866   4.933   4.864
 5777SOL     OW23426   1.962   5.217   5.124
 5777SOL    HW223427   1.952   5.175   5.210
 5777SOL    HW323428   1.883   5.270   5.114
 5777SOL    MW423429   1.951   5.218   5.135
 5778SOL     OW23430   2.866   4.081   4.694
 5778SOL    HW223431   2.796   4.033   4.739
 5778SOL    HW323432   2.898   4.144   4.758
 5778SOL    MW423433   2.861   4.083   4.708
 5779SOL     OW23434   2.517   4.517   5.314
 5779SOL    HW223435   2.510   4.612   5.302
 5779SOL    HW323436   2.526   4.506   5.409
 5779SOL    MW423437   2.518   4.529   5.324
 5780SOL     OW23438   2.238   5.032   5.572
 5780SOL    HW223439   2.310   5.034   5.509
 5780SOL    HW323440   2.208   4.941   5.571
 5780SOL    MW423441   2.243   5.021   5.564
 5781SOL     OW23442   3.322   3.795   5.039
 5781SOL    HW223443   3.393   3.741   5.003
 5781SOL    HW323444   3.321   3.774   5.132
 5781SOL    MW423445   3.331   3.786   5.047
 5782SOL     OW23446   3.522   5.325   5.523
 5782SOL    HW223447   3.495   5.322   5.614
 5782SOL    HW323448   3.618   5.329   5.526
 5782SOL    MW423449   3.532   5.325   5.535
 5783SOL     OW23450   2.333   4.187   4.507
 5783SOL    HW223451   2.404   4.135   4.470
 5783SOL    HW323452   2.319   4.152   4.594
 5783SOL    MW423453   2.341   4.176   4.514
 5784SOL     OW23454   1.888   5.522   5.579
 5784SOL    HW223455   1.938   5.500   5.501
 5784SOL    HW323456   1.896   5.617   5.587
 5784SOL    MW423457   1.896   5.531   5.570
 5785SOL     OW23458   2.649   5.280   4.583
 5785SOL    HW223459   2.577   5.217   4.596
 5785SOL    HW323460   2.610   5.365   4.601
 5785SOL    MW423461   2.633   5.283   4.586
 5786SOL     OW23462   2.969   4.128   4.231
 5786SOL    HW223463   2.991   4.065   4.163
 5786SOL    HW323464   2.874   4.120   4.242
 5786SOL    MW423465   2.959   4.119   4.223
 5787SOL     OW23466   2.054   3.818   4.163
 5787SOL    HW223467   2.125   3.839   4.102
 5787SOL    HW323468   2.008   3.746   4.121
 5787SOL    MW423469   2.058   3.812   4.149
 5788SOL     OW23470   1.885   4.285   5.306
 5788SOL    HW223471   1.949   4.351   5.281
 5788SOL    HW323472   1.804   4.312   5.263
 5788SOL    MW423473   1.883   4.297   5.298
 5789SOL     OW23474   3.623   5.192   4.263
 5789SOL    HW223475   3.593   5.125   4.324
 5789SOL    HW323476   3.717   5.198   4.277
 5789SOL    MW423477   3.631   5.184   4.273
 5790SOL     OW23478   3.179   4.869   4.193
 5790SOL    HW223479   3.151   4.955   4.226
 5790SOL    HW323480   3.207   4.885   4.103
 5790SOL    MW423481   3.179   4.883   4.185
 5791SOL     OW23482   2.841   3.789   4.246
 5791SOL    HW223483   2.878   3.848   4.311
 5791SOL    HW323484   2.818   3.845   4.172
 5791SOL    MW423485   2.842   3.804   4.245
 5792SOL     OW23486   3.694   4.671   4.668
 5792SOL    HW223487   3.685   4.703   4.579
 5792SOL    HW323488   3.647   4.587   4.668
 5792SOL    MW423489   3.687   4.664   4.658
 5793SOL     OW23490   2.070   4.511   5.247
 5793SOL    HW223491   2.091   4.580   5.185
 5793SOL    HW323492   2.150   4.458   5.252
 5793SOL    MW423493   2.083   4.512   5.241
 5794SOL     OW23494   3.606   4.602   4.369
 5794SOL    HW223495   3.700   4.591   4.357
 5794SOL    HW323496   3.582   4.674   4.310
 5794SOL    MW423497   3.616   4.610   4.360
 5795SOL     OW23498   2.055   4.526   5.514
 5795SOL    HW223499   1.981   4.470   5.540
 5795SOL    HW323500   2.050   4.529   5.419
 5795SOL    MW423501   2.044   4.519   5.504
 5796SOL     OW23502   2.221   3.813   4.964
 5796SOL    HW223503   2.264   3.897   4.984
 5796SOL    HW323504   2.294   3.751   4.957
 5796SOL    MW423505   2.236   3.816   4.965
 5797SOL     OW23506   2.262   4.480   4.142
 5797SOL    HW223507   2.262   4.575   4.127
 5797SOL    HW323508   2.339   4.464   4.196
 5797SOL    MW423509   2.272   4.491   4.147
 5798SOL     OW23510   3.038   4.339   5.206
 5798SOL    HW223511   3.074   4.312   5.122
 5798SOL    HW323512   2.951   4.373   5.185
 5798SOL    MW423513   3.032   4.340   5.193
 5799SOL     OW23514   2.021   4.211   4.431
 5799SOL    HW223515   2.083   4.218   4.504
 5799SOL    HW323516   2.021   4.118   4.408
 5799SOL    MW423517   2.029   4.200   4.438
 5800SOL     OW23518   3.568   5.551   3.963
 5800SOL    HW223519   3.635   5.584   3.903
 5800SOL    HW323520   3.525   5.630   3.997
 5800SOL    MW423521   3.570   5.566   3.959
 5801SOL     OW23522   2.703   4.472   4.915
 5801SOL    HW223523   2.661   4.390   4.891
 5801SOL    HW323524   2.704   4.471   5.011
 5801SOL    MW423525   2.696   4.461   4.924
 5802SOL     OW23526   3.374   5.605   5.314
 5802SOL    HW223527   3.377   5.511   5.297
 5802SOL    HW323528   3.397   5.613   5.406
 5802SOL    MW423529   3.377   5.593   5.324
 5803SOL     OW23530   2.507   3.942   5.020
 5803SOL    HW223531   2.438   4.005   5.041
 5803SOL    HW323532   2.534   3.906   5.105
 5803SOL    MW423533   2.501   3.945   5.033
 5804SOL     OW23534   1.890   4.783   3.889
 5804SOL    HW223535   1.859   4.848   3.952
 5804SOL    HW323536   1.839   4.705   3.908
 5804SOL    MW423537   1.880   4.780   3.899
 5805SOL     OW23538   3.302   3.795   4.637
 5805SOL    HW223539   3.390   3.804   4.674
 5805SOL    HW323540   3.312   3.736   4.563
 5805SOL    MW423541   3.316   3.789   4.631
 5806SOL     OW23542   3.334   4.534   4.481
 5806SOL    HW223543   3.414   4.549   4.430
 5806SOL    HW323544   3.327   4.439   4.487
 5806SOL    MW423545   3.343   4.523   4.476
 5807SOL     OW23546   2.474   5.583   3.831
 5807SOL    HW223547   2.379   5.583   3.823
 5807SOL    HW323548   2.490   5.529   3.909
 5807SOL    MW423549   2.464   5.577   3.840
 5808SOL     OW23550   2.784   4.460   5.178
 5808SOL    HW223551   2.853   4.527   5.175
 5808SOL    HW323552   2.717   4.498   5.234
 5808SOL    MW423553   2.785   4.473   5.185
 5809SOL     OW23554   2.202   4.760   5.426
 5809SOL    HW223555   2.156   4.676   5.428
 5809SOL    HW323556   2.259   4.754   5.350
 5809SOL    MW423557   2.204   4.748   5.418
 5810SOL     OW23558   3.319   4.403   3.747
 5810SOL    HW223559   3.247   4.379   3.689
 5810SOL    HW323560   3.385   4.440   3.689
 5810SOL    MW423561   3.318   4.405   3.732
 5811SOL     OW23562   2.453   5.135   4.427
 5811SOL    HW223563   2.518   5.068   4.448
 5811SOL    HW323564   2.505   5.212   4.404
 5811SOL    MW423565   2.468   5.137   4.426
 5812SOL     OW23566   2.714   4.300   4.557
 5812SOL    HW223567   2.654   4.318   4.629
 5812SOL    HW323568   2.748   4.212   4.576
 5812SOL    MW423569   2.710   4.290   4.570
 5813SOL     OW23570   3.655   3.799   5.226
 5813SOL    HW223571   3.576   3.845   5.254
 5813SOL    HW323572   3.690   3.853   5.155
 5813SOL    MW423573   3.649   3.812   5.220
 5814SOL     OW23574   2.939   4.883   4.576
 5814SOL    HW223575   3.031   4.864   4.594
 5814SOL    HW323576   2.912   4.813   4.516
 5814SOL    MW423577   2.947   4.871   4.570
 5815SOL     OW23578   2.732   4.703   3.931
 5815SOL    HW223579   2.718   4.615   3.896
 5815SOL    HW323580   2.683   4.760   3.872
 5815SOL    MW423581   2.724   4.698   3.919
 5816SOL     OW23582   3.213   5.121   4.672
 5816SOL    HW223583   3.186   5.205   4.637
 5816SOL    HW323584   3.173   5.116   4.759
 5816SOL    MW423585   3.206   5.130   4.678
 5817SOL     OW23586   3.132   5.069   4.940
 5817SOL    HW223587   3.143   5.036   5.029
 5817SOL    HW323588   3.051   5.028   4.909
 5817SOL    MW423589   3.122   5.061   4.946
 5818SOL     OW23590   2.145   4.427   4.710
 5818SOL    HW223591   2.095   4.426   4.791
 5818SOL    HW323592   2.165   4.519   4.694
 5818SOL    MW423593   2.141   4.439   4.718
 5819SOL     OW23594   3.212   5.191   5.472
 5819SOL    HW223595   3.212   5.285   5.488
 5819SOL    HW323596   3.257   5.181   5.388
 5819SOL    MW423597   3.218   5.201   5.463
 5820SOL     OW23598   3.451   3.909   4.033
 5820SOL    HW223599   3.444   3.913   4.128
 5820SOL    HW323600   3.463   4.000   4.006
 5820SOL    MW423601   3.452   3.922   4.041
 5821SOL     OW23602   2.740   4.472   4.147
 5821SOL    HW223603   2.720   4.458   4.054
 5821SOL    HW323604   2.833   4.451   4.154
 5821SOL    MW423605   2.750   4.467   4.136
 5822SOL     OW23606   2.067   4.095   5.451
 5822SOL    HW223607   2.024   4.154   5.388
 5822SOL    HW323608   2.135   4.150   5.491
 5822SOL    MW423609   2.071   4.110   5.448
 5823SOL     OW23610   3.179   4.715   4.996
 5823SOL    HW223611   3.242   4.712   5.069
 5823SOL    HW323612   3.095   4.733   5.038
 5823SOL    MW423613   3.175   4.717   5.011
 5824SOL     OW23614   2.723   5.430   4.185
 5824SOL    HW223615   2.781   5.501   4.212
 5824SOL    HW323616   2.746   5.358   4.243
 5824SOL    MW423617   2.734   5.430   4.196
 5825SOL     OW23618   3.518   3.892   4.775
 5825SOL    HW223619   3.563   3.810   4.794
 5825SOL    HW323620   3.538   3.948   4.851
 5825SOL    MW423621   3.528   3.888   4.787
 5826SOL     OW23622   1.966   3.735   4.874
 5826SOL    HW223623   1.957   3.736   4.779
 5826SOL    HW323624   2.060   3.747   4.889
 5826SOL    MW423625   1.978   3.738   4.865
 5827SOL     OW23626   3.603   4.928   4.494
 5827SOL    HW223627   3.582   4.874   4.417
 5827SOL    HW323628   3.699   4.926   4.498
 5827SOL    MW423629   3.612   4.921   4.483
 5828SOL     OW23630   2.295   5.073   5.237
 5828SOL    HW223631   2.216   5.023   5.260
 5828SOL    HW323632   2.365   5.032   5.287
 5828SOL    MW423633   2.293   5.061   5.247
 5829SOL     OW23634   2.179   3.862   3.920
 5829SOL    HW223635   2.108   3.917   3.888
 5829SOL    HW323636   2.221   3.828   3.841
 5829SOL    MW423637   2.175   3.864   3.906
 5830SOL     OW23638   3.303   4.359   4.756
 5830SOL    HW223639   3.226   4.405   4.722
 5830SOL    HW323640   3.360   4.428   4.790
 5830SOL    MW423641   3.300   4.374   4.756
 5831SOL     OW23642   1.935   3.961   3.769
 5831SOL    HW223643   1.902   4.040   3.813
 5831SOL    HW323644   1.990   3.994   3.698
 5831SOL    MW423645   1.938   3.975   3.766
 5832SOL     OW23646   1.969   5.218   3.958
 5832SOL    HW223647   1.986   5.302   4.000
 5832SOL    HW323648   2.004   5.227   3.870
 5832SOL    MW423649   1.974   5.231   3.952
 5833SOL     OW23650   3.241   5.307   4.175
 5833SOL    HW223651   3.304   5.297   4.104
 5833SOL    HW323652   3.158   5.327   4.130
 5833SOL    MW423653   3.238   5.308   4.160
 5834SOL     OW23654   3.604   4.575   5.862
 5834SOL    HW223655   3.645   4.517   5.927
 5834SOL    HW323656   3.511   4.567   5.879
 5834SOL    MW423657   3.598   4.567   5.872
 5835SOL     OW23658   3.470   4.507   6.857
 5835SOL    HW223659   3.425   4.574   6.908
 5835SOL    HW323660   3.558   4.543   6.843
 5835SOL    MW423661   3.476   4.520   6.861
 5836SOL     OW23662   2.398   4.758   6.091
 5836SOL    HW223663   2.488   4.733   6.075
 5836SOL    HW323664   2.394   4.851   6.068
 5836SOL    MW423665   2.410   4.767   6.086
 5837SOL     OW23666   3.514   5.461   6.233
 5837SOL    HW223667   3.526   5.407   6.311
 5837SOL    HW323668   3.551   5.409   6.162
 5837SOL    MW423669   3.520   5.446   6.234
 5838SOL     OW23670   2.893   5.346   7.234
 5838SOL    HW223671   2.934   5.382   7.155
 5838SOL    HW323672   2.928   5.257   7.241
 5838SOL    MW423673   2.904   5.339   7.225
 5839SOL     OW23674   3.450   4.901   6.838
 5839SOL    HW223675   3.371   4.866   6.796
 5839SOL    HW323676   3.477   4.973   6.782
 5839SOL    MW423677   3.443   4.906   6.825
 5840SOL     OW23678   2.682   4.214   6.104
 5840SOL    HW223679   2.657   4.302   6.132
 5840SOL    HW323680   2.679   4.217   6.008
 5840SOL    MW423681   2.678   4.226   6.096
 5841SOL     OW23682   2.124   4.242   6.032
 5841SOL    HW223683   2.156   4.330   6.014
 5841SOL    HW323684   2.112   4.240   6.127
 5841SOL    MW423685   2.127   4.254   6.044
 5842SOL     OW23686   2.202   4.655   6.933
 5842SOL    HW223687   2.265   4.602   6.884
 5842SOL    HW323688   2.183   4.729   6.876
 5842SOL    MW423689   2.208   4.657   6.920
 5843SOL     OW23690   2.523   3.997   6.119
 5843SOL    HW223691   2.581   4.073   6.121
 5843SOL    HW323692   2.458   4.018   6.052
 5843SOL    MW423693   2.522   4.009   6.110
 5844SOL     OW23694   2.610   4.924   6.294
 5844SOL    HW223695   2.690   4.927   6.346
 5844SOL    HW323696   2.638   4.891   6.208
 5844SOL    MW423697   2.624   4.920   6.289
 5845SOL     OW23698   2.635   5.265   7.197
 5845SOL    HW223699   2.719   5.291   7.236
 5845SOL    HW323700   2.659   5.209   7.123
 5845SOL    MW423701   2.649   5.261   7.192
 5846SOL     OW23702   2.387   4.428   6.285
 5846SOL    HW223703   2.372   4.348   6.336
 5846SOL    HW323704   2.469   4.463   6.319
 5846SOL    MW423705   2.395   4.420   6.297
 5847SOL     OW23706   2.724   5.114   6.970
 5847SOL    HW223707   2.688   5.180   6.910
 5847SOL    HW323708   2.652   5.052   6.983
 5847SOL    MW423709   2.710   5.114   6.964
 5848SOL     OW23710   2.529   4.254   6.662
 5848SOL    HW223711   2.435   4.250   6.680
 5848SOL    HW323712   2.559   4.163   6.671
 5848SOL    MW423713   2.520   4.242   6.665
 5849SOL     OW23714   2.275   4.668   6.566
 5849SOL    HW223715   2.230   4.675   6.482
 5849SOL    HW323716   2.255   4.751   6.610
 5849SOL    MW423717   2.267   4.680   6.560
 5850SOL     OW23718   1.972   5.514   6.441
 5850SOL    HW223719   2.061   5.506   6.476
 5850SOL    HW323720   1.936   5.426   6.446
 5850SOL    MW423721   1.979   5.501   6.446
 5851SOL     OW23722   3.237   4.906   5.810
 5851SOL    HW223723   3.155   4.942   5.776
 5851SOL    HW323724   3.305   4.949   5.759
 5851SOL    MW423725   3.235   4.916   5.798
 5852SOL     OW23726   2.236   5.041   6.476
 5852SOL    HW223727   2.212   5.094   6.552
 5852SOL    HW323728   2.292   5.099   6.424
 5852SOL    MW423729   2.240   5.056   6.479
 5853SOL     OW23730   2.798   4.685   6.286
 5853SOL    HW223731   2.712   4.672   6.326
 5853SOL    HW323732   2.851   4.612   6.318
 5853SOL    MW423733   2.794   4.674   6.295
 5854SOL     OW23734   2.206   5.337   7.071
 5854SOL    HW223735   2.114   5.313   7.056
 5854SOL    HW323736   2.250   5.254   7.088
 5854SOL    MW423737   2.200   5.322   7.070
 5855SOL     OW23738   2.789   5.047   6.003
 5855SOL    HW223739   2.766   5.109   6.071
 5855SOL    HW323740   2.746   4.965   6.029
 5855SOL    MW423741   2.781   5.043   6.014
 5856SOL     OW23742   3.662   4.048   6.459
 5856SOL    HW223743   3.599   4.028   6.528
 5856SOL    HW323744   3.652   3.977   6.396
 5856SOL    MW423745   3.652   4.035   6.460
 5857SOL     OW23746   2.286   4.020   5.971
 5857SOL    HW223747   2.260   3.982   5.887
 5857SOL    HW323748   2.223   4.090   5.987
 5857SOL    MW423749   2.275   4.023   5.962
 5858SOL     OW23750   2.121   4.981   6.008
 5858SOL    HW223751   2.069   5.049   5.964
 5858SOL    HW323752   2.118   4.907   5.948
 5858SOL    MW423753   2.113   4.980   5.995
 5859SOL     OW23754   2.783   5.444   5.786
 5859SOL    HW223755   2.738   5.460   5.869
 5859SOL    HW323756   2.714   5.409   5.728
 5859SOL    MW423757   2.769   5.441   5.788
 5860SOL     OW23758   3.718   4.217   5.761
 5860SOL    HW223759   3.627   4.219   5.789
 5860SOL    HW323760   3.763   4.279   5.819
 5860SOL    MW423761   3.711   4.225   5.771
 5861SOL     OW23762   3.463   4.820   6.111
 5861SOL    HW223763   3.373   4.820   6.146
 5861SOL    HW323764   3.456   4.866   6.028
 5861SOL    MW423765   3.450   4.826   6.105
 5862SOL     OW23766   3.263   4.455   7.183
 5862SOL    HW223767   3.332   4.393   7.160
 5862SOL    HW323768   3.188   4.429   7.130
 5862SOL    MW423769   3.263   4.442   7.174
 5863SOL     OW23770   2.004   5.335   6.735
 5863SOL    HW223771   1.987   5.281   6.812
 5863SOL    HW323772   1.992   5.425   6.765
 5863SOL    MW423773   2.001   5.339   6.749
 5864SOL     OW23774   2.999   4.842   7.175
 5864SOL    HW223775   2.984   4.935   7.160
 5864SOL    HW323776   3.094   4.832   7.175
 5864SOL    MW423777   3.008   4.852   7.172
 5865SOL     OW23778   2.795   4.266   7.376
 5865SOL    HW223779   2.885   4.267   7.343
 5865SOL    HW323780   2.754   4.191   7.334
 5865SOL    MW423781   2.801   4.256   7.367
 5866SOL     OW23782   3.370   4.798   6.503
 5866SOL    HW223783   3.373   4.732   6.434
 5866SOL    HW323784   3.455   4.841   6.499
 5866SOL    MW423785   3.382   4.794   6.494
 5867SOL     OW23786   2.990   4.401   6.072
 5867SOL    HW223787   3.016   4.425   5.983
 5867SOL    HW323788   2.972   4.308   6.068
 5867SOL    MW423789   2.992   4.393   6.059
 5868SOL     OW23790   3.655   5.021   5.923
 5868SOL    HW223791   3.611   5.062   5.998
 5868SOL    HW323792   3.712   5.089   5.888
 5868SOL    MW423793   3.657   5.035   5.928
 5869SOL     OW23794   2.575   4.070   7.326
 5869SOL    HW223795   2.585   3.996   7.266
 5869SOL    HW323796   2.611   4.039   7.409
 5869SOL    MW423797   2.581   4.056   7.328
 5870SOL     OW23798   2.311   5.437   6.241
 5870SOL    HW223799   2.343   5.525   6.219
 5870SOL    HW323800   2.264   5.409   6.163
 5870SOL    MW423801   2.310   5.445   6.228
 5871SOL     OW23802   3.695   3.799   6.290
 5871SOL    HW223803   3.749   3.750   6.352
 5871SOL    HW323804   3.638   3.733   6.251
 5871SOL    MW423805   3.695   3.783   6.292
 5872SOL     OW23806   2.027   5.497   5.818
 5872SOL    HW223807   2.056   5.587   5.810
 5872SOL    HW323808   1.977   5.480   5.739
 5872SOL    MW423809   2.025   5.505   5.807
 5873SOL     OW23810   2.814   3.752   6.703
 5873SOL    HW223811   2.773   3.830   6.665
 5873SOL    HW323812   2.908   3.770   6.698
 5873SOL    MW423813   2.820   3.764   6.698
 5874SOL     OW23814   3.431   5.305   5.789
 5874SOL    HW223815   3.479   5.374   5.835
 5874SOL    HW323816   3.352   5.349   5.758
 5874SOL    MW423817   3.426   5.319   5.792
 5875SOL     OW23818   2.829   4.430   5.733
 5875SOL    HW223819   2.831   4.377   5.654
 5875SOL    HW323820   2.917   4.467   5.739
 5875SOL    MW423821   2.841   4.429   5.722
 5876SOL     OW23822   3.443   4.356   6.069
 5876SOL    HW223823   3.482   4.356   6.156
 5876SOL    HW323824   3.384   4.432   6.069
 5876SOL    MW423825   3.440   4.367   6.080
 5877SOL     OW23826   2.760   4.723   7.198
 5877SOL    HW223827   2.737   4.703   7.288
 5877SOL    HW323828   2.845   4.767   7.203
 5877SOL    MW423829   2.767   4.726   7.210
 5878SOL     OW23830   2.840   3.860   6.958
 5878SOL    HW223831   2.846   3.822   6.871
 5878SOL    HW323832   2.829   3.954   6.943
 5878SOL    MW423833   2.841   3.868   6.946
 5879SOL     OW23834   2.929   4.349   6.792
 5879SOL    HW223835   3.004   4.378   6.739
 5879SOL    HW323836   2.861   4.414   6.776
 5879SOL    MW423837   2.930   4.361   6.782
 5880SOL     OW23838   3.479   4.317   7.069
 5880SOL    HW223839   3.460   4.226   7.048
 5880SOL    HW323840   3.457   4.366   6.990
 5880SOL    MW423841   3.474   4.310   7.056
 5881SOL     OW23842   3.621   5.411   6.973
 5881SOL    HW223843   3.549   5.373   7.024
 5881SOL    HW323844   3.638   5.496   7.014
 5881SOL    MW423845   3.615   5.416   6.985
 5882SOL     OW23846   2.926   4.055   7.175
 5882SOL    HW223847   2.892   4.094   7.094
 5882SOL    HW323848   2.904   3.963   7.168
 5882SOL    MW423849   2.919   4.048   7.165
 5883SOL     OW23850   3.335   4.869   7.251
 5883SOL    HW223851   3.417   4.910   7.281
 5883SOL    HW323852   3.298   4.831   7.331
 5883SOL    MW423853   3.341   4.870   7.266
 5884SOL     OW23854   3.630   4.242   6.235
 5884SOL    HW223855   3.719   4.211   6.252
 5884SOL    HW323856   3.573   4.182   6.283
 5884SOL    MW423857   3.633   4.230   6.244
 5885SOL     OW23858   2.056   3.956   6.264
 5885SOL    HW223859   2.047   3.896   6.190
 5885SOL    HW323860   1.989   3.927   6.327
 5885SOL    MW423861   2.046   3.943   6.262
 5886SOL     OW23862   2.999   5.049   5.825
 5886SOL    HW223863   2.949   5.051   5.907
 5886SOL    HW323864   2.933   5.067   5.757
 5886SOL    MW423865   2.985   5.051   5.827
 5887SOL     OW23866   2.003   4.129   6.627
 5887SOL    HW223867   1.975   4.220   6.636
 5887SOL    HW323868   1.940   4.090   6.566
 5887SOL    MW423869   1.990   4.135   6.621
 5888SOL     OW23870   2.462   5.467   5.933
 5888SOL    HW223871   2.383   5.425   5.966
 5888SOL    HW323872   2.528   5.450   6.000
 5888SOL    MW423873   2.461   5.459   5.946
 5889SOL     OW23874   2.598   4.882   5.640
 5889SOL    HW223875   2.520   4.828   5.627
 5889SOL    HW323876   2.569   4.955   5.693
 5889SOL    MW423877   2.584   4.884   5.645
 5890SOL     OW23878   3.724   4.622   6.832
 5890SOL    HW223879   3.740   4.660   6.745
 5890SOL    HW323880   3.758   4.688   6.893
 5890SOL    MW423881   3.731   4.635   6.828
 5891SOL     OW23882   3.516   5.331   6.501
 5891SOL    HW223883   3.545   5.398   6.562
 5891SOL    HW323884   3.497   5.255   6.556
 5891SOL    MW423885   3.518   5.331   6.516
 5892SOL     OW23886   3.179   5.398   5.708
 5892SOL    HW223887   3.105   5.361   5.758
 5892SOL    HW323888   3.187   5.488   5.741
 5892SOL    MW423889   3.170   5.405   5.720
 5893SOL     OW23890   1.987   4.404   6.797
 5893SOL    HW223891   2.049   4.434   6.863
 5893SOL    HW323892   1.921   4.473   6.791
 5893SOL    MW423893   1.986   4.417   6.804
 5894SOL     OW23894   3.403   5.072   5.650
 5894SOL    HW223895   3.350   5.121   5.586
 5894SOL    HW323896   3.434   5.138   5.711
 5894SOL    MW423897   3.401   5.086   5.648
 5895SOL     OW23898   2.628   3.961   5.705
 5895SOL    HW223899   2.576   3.881   5.693
 5895SOL    HW323900   2.715   3.938   5.673
 5895SOL    MW423901   2.631   3.947   5.699
 5896SOL     OW23902   2.082   5.513   7.249
 5896SOL    HW223903   2.056   5.581   7.187
 5896SOL    HW323904   2.130   5.450   7.197
 5896SOL    MW423905   2.084   5.513   7.235
 5897SOL     OW23906   2.134   4.832   6.756
 5897SOL    HW223907   2.187   4.907   6.781
 5897SOL    HW323908   2.053   4.870   6.722
 5897SOL    MW423909   2.130   4.847   6.756
 5898SOL     OW23910   2.674   4.736   6.744
 5898SOL    HW223911   2.702   4.645   6.756
 5898SOL    HW323912   2.603   4.730   6.680
 5898SOL    MW423913   2.667   4.724   6.739
 5899SOL     OW23914   1.989   4.601   6.162
 5899SOL    HW223915   2.080   4.616   6.189
 5899SOL    HW323916   1.992   4.522   6.108
 5899SOL    MW423917   2.001   4.593   6.160
 5900SOL     OW23918   2.225   4.309   7.416
 5900SOL    HW223919   2.172   4.389   7.423
 5900SOL    HW323920   2.295   4.321   7.481
 5900SOL    MW423921   2.227   4.322   7.424
 5901SOL     OW23922   2.611   3.859   7.123
 5901SOL    HW223923   2.588   3.767   7.125
 5901SOL    HW323924   2.697   3.861   7.080
 5901SOL    MW423925   2.618   3.849   7.119
 5902SOL     OW23926   2.295   4.383   7.162
 5902SOL    HW223927   2.375   4.433   7.148
 5902SOL    HW323928   2.286   4.377   7.257
 5902SOL    MW423929   2.304   4.389   7.172
 5903SOL     OW23930   2.616   5.533   6.536
 5903SOL    HW223931   2.705   5.548   6.566
 5903SOL    HW323932   2.611   5.580   6.452
 5903SOL    MW423933   2.626   5.541   6.529
 5904SOL     OW23934   3.272   3.908   7.433
 5904SOL    HW223935   3.328   3.835   7.459
 5904SOL    HW323936   3.242   3.946   7.515
 5904SOL    MW423937   3.276   3.903   7.446
 5905SOL     OW23938   1.997   5.213   6.201
 5905SOL    HW223939   1.969   5.252   6.283
 5905SOL    HW323940   2.017   5.122   6.223
 5905SOL    MW423941   1.995   5.205   6.214
 5906SOL     OW23942   2.830   5.256   6.236
 5906SOL    HW223943   2.913   5.210   6.220
 5906SOL    HW323944   2.820   5.255   6.332
 5906SOL    MW423945   2.840   5.249   6.246
 5907SOL     OW23946   3.662   4.401   6.550
 5907SOL    HW223947   3.751   4.431   6.532
 5907SOL    HW323948   3.642   4.341   6.479
 5907SOL    MW423949   3.671   4.398   6.539
 5908SOL     OW23950   3.513   4.580   7.430
 5908SOL    HW223951   3.568   4.504   7.411
 5908SOL    HW323952   3.515   4.588   7.525
 5908SOL    MW423953   3.521   4.571   7.438
 5909SOL     OW23954   2.563   5.313   5.641
 5909SOL    HW223955   2.503   5.382   5.611
 5909SOL    HW323956   2.508   5.255   5.694
 5909SOL    MW423957   2.547   5.315   5.643
 5910SOL     OW23958   3.001   3.958   5.864
 5910SOL    HW223959   2.934   3.934   5.801
 5910SOL    HW323960   3.066   4.007   5.813
 5910SOL    MW423961   3.001   3.960   5.849
 5911SOL     OW23962   2.808   4.142   6.949
 5911SOL    HW223963   2.727   4.183   6.977
 5911SOL    HW323964   2.855   4.210   6.901
 5911SOL    MW423965   2.803   4.157   6.947
 5912SOL     OW23966   3.068   4.480   6.572
 5912SOL    HW223967   3.081   4.574   6.582
 5912SOL    HW323968   3.029   4.470   6.486
 5912SOL    MW423969   3.064   4.491   6.562
 5913SOL     OW23970   2.520   4.675   6.376
 5913SOL    HW223971   2.431   4.666   6.409
 5913SOL    HW323972   2.524   4.765   6.344
 5913SOL    MW423973   2.509   4.686   6.376
 5914SOL     OW23974   3.319   4.258   6.371
 5914SOL    HW223975   3.264   4.179   6.370
 5914SOL    HW323976   3.301   4.299   6.455
 5914SOL    MW423977   3.309   4.253   6.380
 5915SOL     OW23978   2.290   3.945   7.188
 5915SOL    HW223979   2.211   3.963   7.240
 5915SOL    HW323980   2.285   4.007   7.115
 5915SOL    MW423981   2.280   3.955   7.185
 5916SOL     OW23982   2.938   4.462   6.328
 5916SOL    HW223983   2.875   4.394   6.352
 5916SOL    HW323984   2.958   4.443   6.236
 5916SOL    MW423985   2.932   4.449   6.320
 5917SOL     OW23986   2.194   5.357   6.030
 5917SOL    HW223987   2.155   5.404   5.956
 5917SOL    HW323988   2.128   5.292   6.055
 5917SOL    MW423989   2.181   5.355   6.024
 5918SOL     OW23990   2.686   4.766   6.054
 5918SOL    HW223991   2.688   4.740   5.961
 5918SOL    HW323992   2.744   4.703   6.097
 5918SOL    MW423993   2.694   4.755   6.048
 5919SOL     OW23994   3.239   5.326   6.826
 5919SOL    HW223995   3.164   5.372   6.864
 5919SOL    HW323996   3.221   5.233   6.843
 5919SOL    MW423997   3.228   5.320   6.834
 5920SOL     OW23998   3.243   5.534   6.256
 5920SOL    HW223999   3.186   5.487   6.195
 5920SOL    HW324000   3.329   5.495   6.243
 5920SOL    MW424001   3.246   5.525   6.246
 5921SOL     OW24002   3.196   4.010   6.387
 5921SOL    HW224003   3.224   3.942   6.448
 5921SOL    HW324004   3.110   3.981   6.357
 5921SOL    MW424005   3.189   3.997   6.391
 5922SOL     OW24006   2.001   4.944   6.321
 5922SOL    HW224007   2.065   4.976   6.384
 5922SOL    HW324008   2.050   4.880   6.269
 5922SOL    MW424009   2.016   4.940   6.322
 5923SOL     OW24010   2.501   5.020   7.303
 5923SOL    HW224011   2.549   5.103   7.290
 5923SOL    HW324012   2.558   4.968   7.359
 5923SOL    MW424013   2.515   5.024   7.309
 5924SOL     OW24014   2.077   5.262   7.443
 5924SOL    HW224015   2.133   5.186   7.458
 5924SOL    HW324016   2.026   5.240   7.365
 5924SOL    MW424017   2.077   5.249   7.434
 5925SOL     OW24018   3.176   4.114   5.722
 5925SOL    HW224019   3.149   4.180   5.658
 5925SOL    HW324020   3.246   4.157   5.772
 5925SOL    MW424021   3.181   4.127   5.719
 5926SOL     OW24022   2.844   3.819   5.659
 5926SOL    HW224023   2.900   3.811   5.581
 5926SOL    HW324024   2.821   3.729   5.681
 5926SOL    MW424025   2.849   3.806   5.652
 5927SOL     OW24026   3.349   4.670   5.864
 5927SOL    HW224027   3.316   4.759   5.854
 5927SOL    HW324028   3.314   4.641   5.949
 5927SOL    MW424029   3.339   4.679   5.875
 5928SOL     OW24030   2.962   5.099   7.052
 5928SOL    HW224031   2.873   5.105   7.020
 5928SOL    HW324032   3.006   5.178   7.020
 5928SOL    MW424033   2.957   5.109   7.044
 5929SOL     OW24034   2.255   3.767   7.394
 5929SOL    HW224035   2.183   3.732   7.342
 5929SOL    HW324036   2.313   3.808   7.329
 5929SOL    MW424037   2.253   3.768   7.379
 5930SOL     OW24038   2.279   5.257   6.693
 5930SOL    HW224039   2.324   5.319   6.750
 5930SOL    HW324040   2.186   5.276   6.706
 5930SOL    MW424041   2.272   5.267   6.700
 5931SOL     OW24042   3.719   4.786   7.047
 5931SOL    HW224043   3.634   4.799   7.006
 5931SOL    HW324044   3.699   4.750   7.134
 5931SOL    MW424045   3.706   4.782   7.052
 5932SOL     OW24046   2.701   5.325   6.801
 5932SOL    HW224047   2.725   5.314   6.710
 5932SOL    HW324048   2.624   5.382   6.799
 5932SOL    MW424049   2.693   5.330   6.790
 5933SOL     OW24050   2.343   4.708   5.656
 5933SOL    HW224051   2.266   4.721   5.712
 5933SOL    HW324052   2.307   4.672   5.575
 5933SOL    MW424053   2.329   4.704   5.653
 5934SOL     OW24054   2.996   4.681   5.899
 5934SOL    HW224055   2.906   4.702   5.874
 5934SOL    HW324056   3.023   4.754   5.955
 5934SOL    MW424057   2.988   4.693   5.902
 5935SOL     OW24058   2.496   5.030   6.591
 5935SOL    HW224059   2.489   5.009   6.685
 5935SOL    HW324060   2.414   4.998   6.554
 5935SOL    MW424061   2.484   5.024   6.598
 5936SOL     OW24062   3.360   4.040   6.993
 5936SOL    HW224063   3.307   4.042   7.073
 5936SOL    HW324064   3.345   3.953   6.956
 5936SOL    MW424065   3.352   4.030   6.998
 5937SOL     OW24066   3.696   3.964   6.866
 5937SOL    HW224067   3.677   4.031   6.801
 5937SOL    HW324068   3.753   3.902   6.821
 5937SOL    MW424069   3.700   3.965   6.852
 5938SOL     OW24070   1.942   5.122   7.254
 5938SOL    HW224071   1.986   5.055   7.200
 5938SOL    HW324072   1.857   5.084   7.274
 5938SOL    MW424073   1.937   5.108   7.250
 5939SOL     OW24074   2.625   3.797   6.306
 5939SOL    HW224075   2.554   3.858   6.288
 5939SOL    HW324076   2.676   3.794   6.225
 5939SOL    MW424077   2.621   3.803   6.293
 5940SOL     OW24078   2.383   5.037   6.055
 5940SOL    HW224079   2.376   5.069   6.145
 5940SOL    HW324080   2.293   5.021   6.027
 5940SOL    MW424081   2.371   5.039   6.062
 5941SOL     OW24082   2.978   5.430   6.964
 5941SOL    HW224083   2.898   5.415   6.914
 5941SOL    HW324084   2.985   5.525   6.971
 5941SOL    MW424085   2.969   5.441   6.958
 5942SOL     OW24086   3.092   5.395   6.454
 5942SOL    HW224087   3.139   5.468   6.413
 5942SOL    HW324088   3.013   5.434   6.490
 5942SOL    MW424089   3.087   5.410   6.453
 5943SOL     OW24090   3.500   5.490   6.729
 5943SOL    HW224091   3.543   5.460   6.809
 5943SOL    HW324092   3.419   5.438   6.726
 5943SOL    MW424093   3.495   5.479   6.739
 5944SOL     OW24094   2.585   4.454   7.436
 5944SOL    HW224095   2.655   4.396   7.408
 5944SOL    HW324096   2.528   4.399   7.491
 5944SOL    MW424097   2.587   4.441   7.440
 5945SOL     OW24098   3.372   4.666   7.069
 5945SOL    HW224099   3.377   4.719   7.149
 5945SOL    HW324100   3.334   4.583   7.097
 5945SOL    MW424101   3.368   4.661   7.084
 5946SOL     OW24102   3.012   3.801   7.315
 5946SOL    HW224103   3.007   3.708   7.296
 5946SOL    HW324104   3.095   3.812   7.361
 5946SOL    MW424105   3.020   3.790   7.319
 5947SOL     OW24106   2.386   4.321   5.769
 5947SOL    HW224107   2.352   4.377   5.839
 5947SOL    HW324108   2.457   4.271   5.809
 5947SOL    MW424109   2.392   4.322   5.783
 5948SOL     OW24110   3.482   5.072   6.591
 5948SOL    HW224111   3.517   5.054   6.504
 5948SOL    HW324112   3.387   5.073   6.578
 5948SOL    MW424113   3.474   5.069   6.578
 5949SOL     OW24114   2.911   4.720   6.960
 5949SOL    HW224115   2.954   4.755   7.038
 5949SOL    HW324116   2.894   4.797   6.906
 5949SOL    MW424117   2.914   4.735   6.963
 5950SOL     OW24118   3.442   4.207   5.833
 5950SOL    HW224119   3.434   4.278   5.770
 5950SOL    HW324120   3.460   4.251   5.916
 5950SOL    MW424121   3.443   4.221   5.835
 5951SOL     OW24122   2.302   3.862   6.262
 5951SOL    HW224123   2.352   3.905   6.193
 5951SOL    HW324124   2.217   3.906   6.262
 5951SOL    MW424125   2.299   3.875   6.253
 5952SOL     OW24126   2.061   4.924   7.122
 5952SOL    HW224127   2.089   4.877   7.200
 5952SOL    HW324128   1.982   4.879   7.093
 5952SOL    MW424129   2.054   4.913   7.128
 5953SOL     OW24130   2.569   4.251   7.089
 5953SOL    HW224131   2.541   4.339   7.113
 5953SOL    HW324132   2.538   4.195   7.160
 5953SOL    MW424133   2.561   4.254   7.101
 5954SOL     OW24134   3.111   4.469   5.808
 5954SOL    HW224135   3.158   4.487   5.727
 5954SOL    HW324136   3.077   4.553   5.836
 5954SOL    MW424137   3.113   4.483   5.801
 5955SOL     OW24138   2.224   4.647   6.302
 5955SOL    HW224139   2.282   4.703   6.250
 5955SOL    HW324140   2.268   4.562   6.304
 5955SOL    MW424141   2.237   4.644   6.295
 5956SOL     OW24142   3.364   3.999   6.139
 5956SOL    HW224143   3.286   3.949   6.164
 5956SOL    HW324144   3.335   4.090   6.139
 5956SOL    MW424145   3.350   4.003   6.142
 5957SOL     OW24146   2.950   3.961   6.298
 5957SOL    HW224147   2.970   4.036   6.242
 5957SOL    HW324148   2.930   4.000   6.383
 5957SOL    MW424149   2.951   3.977   6.302
 5958SOL     OW24150   2.846   5.211   5.630
 5958SOL    HW224151   2.873   5.289   5.582
 5958SOL    HW324152   2.753   5.226   5.649
 5958SOL    MW424153   2.837   5.224   5.626
 5959SOL     OW24154   3.710   4.734   7.317
 5959SOL    HW224155   3.623   4.714   7.353
 5959SOL    HW324156   3.764   4.660   7.342
 5959SOL    MW424157   3.705   4.723   7.325
 5960SOL     OW24158   1.931   5.247   6.474
 5960SOL    HW224159   1.963   5.251   6.565
 5960SOL    HW324160   1.836   5.255   6.482
 5960SOL    MW424161   1.923   5.250   6.487
 5961SOL     OW24162   1.886   4.373   6.021
 5961SOL    HW224163   1.826   4.345   6.091
 5961SOL    HW324164   1.960   4.313   6.027
 5961SOL    MW424165   1.888   4.362   6.030
 5962SOL     OW24166   3.454   5.585   7.455
 5962SOL    HW224167   3.499   5.509   7.420
 5962SOL    HW324168   3.492   5.598   7.542
 5962SOL    MW424169   3.464   5.578   7.461
 5963SOL     OW24170   3.054   5.104   6.181
 5963SOL    HW224171   3.077   5.055   6.259
 5963SOL    HW324172   3.135   5.146   6.153
 5963SOL    MW424173   3.067   5.104   6.188
 5964SOL     OW24174   2.312   4.112   6.910
 5964SOL    HW224175   2.345   4.193   6.950
 5964SOL    HW324176   2.285   4.138   6.822
 5964SOL    MW424177   2.311   4.126   6.904
 5965SOL     OW24178   2.266   4.079   6.646
 5965SOL    HW224179   2.296   3.993   6.617
 5965SOL    HW324180   2.171   4.072   6.649
 5965SOL    MW424181   2.258   4.068   6.644
 5966SOL     OW24182   3.095   4.288   7.337
 5966SOL    HW224183   3.147   4.223   7.290
 5966SOL    HW324184   3.053   4.339   7.267
 5966SOL    MW424185   3.096   4.285   7.320
 5967SOL     OW24186   3.194   4.083   7.198
 5967SOL    HW224187   3.101   4.067   7.185
 5967SOL    HW324188   3.220   4.021   7.266
 5967SOL    MW424189   3.184   4.073   7.205
 5968SOL     OW24190   2.409   3.857   6.537
 5968SOL    HW224191   2.419   3.766   6.563
 5968SOL    HW324192   2.365   3.853   6.452
 5968SOL    MW424193   2.405   3.845   6.529
 5969SOL     OW24194   2.503   5.472   7.083
 5969SOL    HW224195   2.420   5.457   7.128
 5969SOL    HW324196   2.562   5.405   7.118
 5969SOL    MW424197   2.501   5.462   7.093
 5970SOL     OW24198   3.560   4.179   6.708
 5970SOL    HW224199   3.493   4.212   6.768
 5970SOL    HW324200   3.603   4.257   6.674
 5970SOL    MW424201   3.558   4.194   6.712
 5971SOL     OW24202   3.738   4.899   6.678
 5971SOL    HW224203   3.731   4.839   6.603
 5971SOL    HW324204   3.664   4.959   6.667
 5971SOL    MW424205   3.728   4.899   6.667
 5972SOL     OW24206   3.120   4.761   6.596
 5972SOL    HW224207   3.134   4.733   6.687
 5972SOL    HW324208   3.206   4.792   6.568
 5972SOL    MW424209   3.133   4.762   6.605
 5973SOL     OW24210   3.203   4.256   6.875
 5973SOL    HW224211   3.224   4.257   6.782
 5973SOL    HW324212   3.248   4.178   6.908
 5973SOL    MW424213   3.210   4.246   6.867
 5974SOL     OW24214   3.696   4.387   7.417
 5974SOL    HW224215   3.733   4.332   7.486
 5974SOL    HW324216   3.721   4.344   7.335
 5974SOL    MW424217   3.703   4.375   7.416
 5975SOL     OW24218   3.243   4.685   7.468
 5975SOL    HW224219   3.309   4.633   7.422
 5975SOL    HW324220   3.263   4.672   7.561
 5975SOL    MW424221   3.254   4.676   7.475
 5976SOL     OW24222   3.194   3.771   5.817
 5976SOL    HW224223   3.268   3.815   5.860
 5976SOL    HW324224   3.118   3.825   5.839
 5976SOL    MW424225   3.194   3.783   5.825
 5977SOL     OW24226   3.254   4.546   6.095
 5977SOL    HW224227   3.169   4.516   6.065
 5977SOL    HW324228   3.246   4.553   6.190
 5977SOL    MW424229   3.242   4.544   6.104
 5978SOL     OW24230   2.330   5.009   6.826
 5978SOL    HW224231   2.342   5.036   6.917
 5978SOL    HW324232   2.311   5.090   6.779
 5978SOL    MW424233   2.329   5.024   6.831
 5979SOL     OW24234   2.614   3.989   6.649
 5979SOL    HW224235   2.587   3.991   6.740
 5979SOL    HW324236   2.544   3.941   6.604
 5979SOL    MW424237   2.602   3.985   6.656
 5980SOL     OW24238   2.468   5.481   6.811
 5980SOL    HW224239   2.520   5.558   6.788
 5980SOL    HW324240   2.477   5.473   6.906
 5980SOL    MW424241   2.477   5.488   6.822
 5981SOL     OW24242   3.370   5.066   7.043
 5981SOL    HW224243   3.355   4.995   7.106
 5981SOL    HW324244   3.416   5.024   6.971
 5981SOL    MW424245   3.376   5.050   7.043
 5982SOL     OW24246   2.624   4.840   6.972
 5982SOL    HW224247   2.683   4.786   7.025
 5982SOL    HW324248   2.639   4.812   6.882
 5982SOL    MW424249   2.634   4.829   6.968
 5983SOL     OW24250   2.627   4.212   5.821
 5983SOL    HW224251   2.700   4.261   5.784
 5983SOL    HW324252   2.643   4.121   5.795
 5983SOL    MW424253   2.639   4.207   5.814
 5984SOL     OW24254   3.435   5.329   7.144
 5984SOL    HW224255   3.477   5.314   7.229
 5984SOL    HW324256   3.426   5.242   7.106
 5984SOL    MW424257   3.439   5.317   7.151
 5985SOL     OW24258   3.095   3.808   6.735
 5985SOL    HW224259   3.150   3.817   6.657
 5985SOL    HW324260   3.150   3.842   6.806
 5985SOL    MW424261   3.109   3.813   6.734
 5986SOL     OW24262   2.102   4.721   5.919
 5986SOL    HW224263   2.039   4.737   5.848
 5986SOL    HW324264   2.049   4.684   5.990
 5986SOL    MW424265   2.087   4.718   5.919
 5987SOL     OW24266   2.458   5.075   5.778
 5987SOL    HW224267   2.473   5.051   5.870
 5987SOL    HW324268   2.366   5.053   5.762
 5987SOL    MW424269   2.448   5.068   5.788
 5988SOL     OW24270   2.997   5.306   5.930
 5988SOL    HW224271   3.005   5.224   5.881
 5988SOL    HW324272   2.916   5.345   5.897
 5988SOL    MW424273   2.987   5.301   5.920
 5989SOL     OW24274   2.256   5.464   6.499
 5989SOL    HW224275   2.260   5.375   6.534
 5989SOL    HW324276   2.282   5.455   6.408
 5989SOL    MW424277   2.259   5.452   6.491
 5990SOL     OW24278   2.873   4.942   6.742
 5990SOL    HW224279   2.805   4.876   6.758
 5990SOL    HW324280   2.891   4.936   6.649
 5990SOL    MW424281   2.866   4.933   6.733
 5991SOL     OW24282   1.962   5.217   6.993
 5991SOL    HW224283   1.952   5.175   7.079
 5991SOL    HW324284   1.883   5.270   6.983
 5991SOL    MW424285   1.951   5.218   7.004
 5992SOL     OW24286   2.866   4.081   6.563
 5992SOL    HW224287   2.796   4.033   6.608
 5992SOL    HW324288   2.898   4.144   6.627
 5992SOL    MW424289   2.861   4.083   6.577
 5993SOL     OW24290   2.517   4.517   7.183
 5993SOL    HW224291   2.510   4.612   7.171
 5993SOL    HW324292   2.526   4.506   7.278
 5993SOL    MW424293   2.518   4.529   7.193
 5994SOL     OW24294   2.238   5.032   7.441
 5994SOL    HW224295   2.310   5.034   7.378
 5994SOL    HW324296   2.208   4.941   7.440
 5994SOL    MW424297   2.243   5.021   7.433
 5995SOL     OW24298   3.322   3.795   6.908
 5995SOL    HW224299   3.393   3.741   6.872
 5995SOL    HW324300   3.321   3.774   7.001
 5995SOL    MW424301   3.331   3.786   6.916
 5996SOL     OW24302   3.522   5.325   7.392
 5996SOL    HW224303   3.495   5.322   7.483
 5996SOL    HW324304   3.618   5.329   7.395
 5996SOL    MW424305   3.532   5.325   7.404
 5997SOL     OW24306   2.333   4.187   6.376
 5997SOL    HW224307   2.404   4.135   6.339
 5997SOL    HW324308   2.319   4.152   6.463
 5997SOL    MW424309   2.341   4.176   6.383
 5998SOL     OW24310   1.888   5.522   7.448
 5998SOL    HW224311   1.938   5.500   7.370
 5998SOL    HW324312   1.896   5.617   7.456
 5998SOL    MW424313   1.896   5.531   7.439
 5999SOL     OW24314   2.649   5.280   6.452
 5999SOL    HW224315   2.577   5.217   6.465
 5999SOL    HW324316   2.610   5.365   6.470
 5999SOL    MW424317   2.633   5.283   6.455
 6000SOL     OW24318   2.969   4.128   6.100
 6000SOL    HW224319   2.991   4.065   6.032
 6000SOL    HW324320   2.874   4.120   6.111
 6000SOL    MW424321   2.959   4.119   6.092
 6001SOL     OW24322   2.054   3.818   6.032
 6001SOL    HW224323   2.125   3.839   5.971
 6001SOL    HW324324   2.008   3.746   5.990
 6001SOL    MW424325   2.058   3.812   6.018
 6002SOL     OW24326   1.885   4.285   7.175
 6002SOL    HW224327   1.949   4.351   7.150
 6002SOL    HW324328   1.804   4.312   7.132
 6002SOL    MW424329   1.883   4.297   7.167
 6003SOL     OW24330   3.623   5.192   6.132
 6003SOL    HW224331   3.593   5.125   6.193
 6003SOL    HW324332   3.717   5.198   6.146
 6003SOL    MW424333   3.631   5.184   6.142
 6004SOL     OW24334   3.179   4.869   6.062
 6004SOL    HW224335   3.151   4.955   6.095
 6004SOL    HW324336   3.207   4.885   5.972
 6004SOL    MW424337   3.179   4.883   6.054
 6005SOL     OW24338   2.841   3.789   6.115
 6005SOL    HW224339   2.878   3.848   6.180
 6005SOL    HW324340   2.818   3.845   6.041
 6005SOL    MW424341   2.842   3.804   6.114
 6006SOL     OW24342   3.694   4.671   6.537
 6006SOL    HW224343   3.685   4.703   6.448
 6006SOL    HW324344   3.647   4.587   6.537
 6006SOL    MW424345   3.687   4.664   6.527
 6007SOL     OW24346   2.070   4.511   7.116
 6007SOL    HW224347   2.091   4.580   7.054
 6007SOL    HW324348   2.150   4.458   7.121
 6007SOL    MW424349   2.083   4.512   7.110
 6008SOL     OW24350   3.606   4.602   6.238
 6008SOL    HW224351   3.700   4.591   6.226
 6008SOL    HW324352   3.582   4.674   6.179
 6008SOL    MW424353   3.616   4.610   6.229
 6009SOL     OW24354   2.055   4.526   7.383
 6009SOL    HW224355   1.981   4.470   7.409
 6009SOL    HW324356   2.050   4.529   7.288
 6009SOL    MW424357   2.044   4.519   7.373
 6010SOL     OW24358   2.221   3.813   6.833
 6010SOL    HW224359   2.264   3.897   6.853
 6010SOL    HW324360   2.294   3.751   6.826
 6010SOL    MW424361   2.236   3.816   6.834
 6011SOL     OW24362   2.262   4.480   6.011
 6011SOL    HW224363   2.262   4.575   5.996
 6011SOL    HW324364   2.339   4.464   6.065
 6011SOL    MW424365   2.272   4.491   6.016
 6012SOL     OW24366   3.038   4.339   7.075
 6012SOL    HW224367   3.074   4.312   6.991
 6012SOL    HW324368   2.951   4.373   7.054
 6012SOL    MW424369   3.032   4.340   7.062
 6013SOL     OW24370   2.021   4.211   6.300
 6013SOL    HW224371   2.083   4.218   6.373
 6013SOL    HW324372   2.021   4.118   6.277
 6013SOL    MW424373   2.029   4.200   6.307
 6014SOL     OW24374   3.568   5.551   5.832
 6014SOL    HW224375   3.635   5.584   5.772
 6014SOL    HW324376   3.525   5.630   5.866
 6014SOL    MW424377   3.570   5.566   5.828
 6015SOL     OW24378   2.703   4.472   6.784
 6015SOL    HW224379   2.661   4.390   6.760
 6015SOL    HW324380   2.704   4.471   6.880
 6015SOL    MW424381   2.696   4.461   6.793
 6016SOL     OW24382   3.374   5.605   7.183
 6016SOL    HW224383   3.377   5.511   7.166
 6016SOL    HW324384   3.397   5.613   7.275
 6016SOL    MW424385   3.377   5.593   7.193
 6017SOL     OW24386   2.507   3.942   6.889
 6017SOL    HW224387   2.438   4.005   6.910
 6017SOL    HW324388   2.534   3.906   6.974
 6017SOL    MW424389   2.501   3.945   6.902
 6018SOL     OW24390   1.890   4.783   5.758
 6018SOL    HW224391   1.859   4.848   5.821
 6018SOL    HW324392   1.839   4.705   5.777
 6018SOL    MW424393   1.880   4.780   5.768
 6019SOL     OW24394   3.302   3.795   6.506
 6019SOL    HW224395   3.390   3.804   6.543
 6019SOL    HW324396   3.312   3.736   6.432
 6019SOL    MW424397   3.316   3.789   6.500
 6020SOL     OW24398   3.334   4.534   6.350
 6020SOL    HW224399   3.414   4.549   6.299
 6020SOL    HW324400   3.327   4.439   6.356
 6020SOL    MW424401   3.343   4.523   6.345
 6021SOL     OW24402   2.474   5.583   5.700
 6021SOL    HW224403   2.379   5.583   5.692
 6021SOL    HW324404   2.490   5.529   5.778
 6021SOL    MW424405   2.464   5.577   5.709
 6022SOL     OW24406   2.784   4.460   7.047
 6022SOL    HW224407   2.853   4.527   7.044
 6022SOL    HW324408   2.717   4.498   7.103
 6022SOL    MW424409   2.785   4.473   7.054
 6023SOL     OW24410   2.202   4.760   7.295
 6023SOL    HW224411   2.156   4.676   7.297
 6023SOL    HW324412   2.259   4.754   7.219
 6023SOL    MW424413   2.204   4.748   7.287
 6024SOL     OW24414   3.319   4.403   5.615
 6024SOL    HW224415   3.247   4.379   5.557
 6024SOL    HW324416   3.385   4.440   5.557
 6024SOL    MW424417   3.318   4.405   5.600
 6025SOL     OW24418   2.453   5.135   6.296
 6025SOL    HW224419   2.518   5.068   6.317
 6025SOL    HW324420   2.505   5.212   6.273
 6025SOL    MW424421   2.468   5.137   6.295
 6026SOL     OW24422   2.714   4.300   6.426
 6026SOL    HW224423   2.654   4.318   6.498
 6026SOL    HW324424   2.748   4.212   6.445
 6026SOL    MW424425   2.710   4.290   6.439
 6027SOL     OW24426   3.655   3.799   7.095
 6027SOL    HW224427   3.576   3.845   7.123
 6027SOL    HW324428   3.690   3.853   7.024
 6027SOL    MW424429   3.649   3.812   7.089
 6028SOL     OW24430   2.939   4.883   6.445
 6028SOL    HW224431   3.031   4.864   6.463
 6028SOL    HW324432   2.912   4.813   6.385
 6028SOL    MW424433   2.947   4.871   6.439
 6029SOL     OW24434   2.732   4.703   5.800
 6029SOL    HW224435   2.718   4.615   5.765
 6029SOL    HW324436   2.683   4.760   5.741
 6029SOL    MW424437   2.724   4.698   5.788
 6030SOL     OW24438   3.213   5.121   6.541
 6030SOL    HW224439   3.186   5.205   6.506
 6030SOL    HW324440   3.173   5.116   6.628
 6030SOL    MW424441   3.206   5.130   6.547
 6031SOL     OW24442   3.132   5.069   6.809
 6031SOL    HW224443   3.143   5.036   6.898
 6031SOL    HW324444   3.051   5.028   6.778
 6031SOL    MW424445   3.122   5.061   6.815
 6032SOL     OW24446   3.212   5.191   7.341
 6032SOL    HW224447   3.212   5.285   7.357
 6032SOL    HW324448   3.257   5.181   7.257
 6032SOL    MW424449   3.218   5.201   7.332
 6033SOL     OW24450   3.451   3.909   5.902
 6033SOL    HW224451   3.444   3.913   5.997
 6033SOL    HW324452   3.463   4.000   5.875
 6033SOL    MW424453   3.452   3.922   5.910
 6034SOL     OW24454   2.740   4.472   6.016
 6034SOL    HW224455   2.720   4.458   5.923
 6034SOL    HW324456   2.833   4.451   6.023
 6034SOL    MW424457   2.750   4.467   6.005
 6035SOL     OW24458   2.067   4.095   7.320
 6035SOL    HW224459   2.024   4.154   7.257
 6035SOL    HW324460   2.135   4.150   7.360
 6035SOL    MW424461   2.071   4.110   7.317
 6036SOL     OW24462   3.179   4.715   6.865
 6036SOL    HW224463   3.242   4.712   6.938
 6036SOL    HW324464   3.095   4.733   6.907
 6036SOL    MW424465   3.175   4.717   6.880
 6037SOL     OW24466   2.723   5.430   6.054
 6037SOL    HW224467   2.781   5.501   6.081
 6037SOL    HW324468   2.746   5.358   6.112
 6037SOL    MW424469   2.734   5.430   6.065
 6038SOL     OW24470   3.518   3.892   6.644
 6038SOL    HW224471   3.563   3.810   6.663
 6038SOL    HW324472   3.538   3.948   6.720
 6038SOL    MW424473   3.528   3.888   6.656
 6039SOL     OW24474   1.966   3.735   6.743
 6039SOL    HW224475   1.957   3.736   6.648
 6039SOL    HW324476   2.060   3.747   6.758
 6039SOL    MW424477   1.978   3.738   6.734
 6040SOL     OW24478   3.603   4.928   6.363
 6040SOL    HW224479   3.582   4.874   6.286
 6040SOL    HW324480   3.699   4.926   6.367
 6040SOL    MW424481   3.612   4.921   6.352
 6041SOL     OW24482   2.295   5.073   7.106
 6041SOL    HW224483   2.216   5.023   7.129
 6041SOL    HW324484   2.365   5.032   7.156
 6041SOL    MW424485   2.293   5.061   7.116
 6042SOL     OW24486   2.179   3.862   5.789
 6042SOL    HW224487   2.108   3.917   5.757
 6042SOL    HW324488   2.221   3.828   5.710
 6042SOL    MW424489   2.175   3.864   5.775
 6043SOL     OW24490   3.303   4.359   6.625
 6043SOL    HW224491   3.226   4.405   6.591
 6043SOL    HW324492   3.360   4.428   6.659
 6043SOL    MW424493   3.300   4.374   6.625
 6044SOL     OW24494   1.935   3.961   5.638
 6044SOL    HW224495   1.902   4.040   5.682
 6044SOL    HW324496   1.990   3.994   5.567
 6044SOL    MW424497   1.938   3.975   5.635
 6045SOL     OW24498   1.969   5.218   5.827
 6045SOL    HW224499   1.986   5.302   5.869
 6045SOL    HW324500   2.004   5.227   5.739
 6045SOL    MW424501   1.974   5.231   5.821
 6046SOL     OW24502   3.241   5.307   6.044
 6046SOL    HW224503   3.304   5.297   5.973
 6046SOL    HW324504   3.158   5.327   5.999
 6046SOL    MW424505   3.238   5.308   6.029
 6047SOL     OW24506   3.604   6.444   0.257
 6047SOL    HW224507   3.645   6.386   0.322
 6047SOL    HW324508   3.511   6.436   0.274
 6047SOL    MW424509   3.598   6.436   0.267
 6048SOL     OW24510   3.470   6.376   1.252
 6048SOL    HW224511   3.425   6.443   1.303
 6048SOL    HW324512   3.558   6.412   1.238
 6048SOL    MW424513   3.476   6.389   1.256
 6049SOL     OW24514   2.398   6.627   0.486
 6049SOL    HW224515   2.488   6.602   0.470
 6049SOL    HW324516   2.394   6.720   0.463
 6049SOL    MW424517   2.410   6.636   0.481
 6050SOL     OW24518   3.514   7.330   0.628
 6050SOL    HW224519   3.526   7.276   0.706
 6050SOL    HW324520   3.551   7.278   0.557
 6050SOL    MW424521   3.520   7.315   0.629
 6051SOL     OW24522   2.893   7.215   1.629
 6051SOL    HW224523   2.934   7.251   1.550
 6051SOL    HW324524   2.928   7.126   1.636
 6051SOL    MW424525   2.904   7.208   1.620
 6052SOL     OW24526   3.450   6.770   1.233
 6052SOL    HW224527   3.371   6.735   1.191
 6052SOL    HW324528   3.477   6.842   1.177
 6052SOL    MW424529   3.443   6.775   1.220
 6053SOL     OW24530   2.682   6.083   0.499
 6053SOL    HW224531   2.657   6.171   0.527
 6053SOL    HW324532   2.679   6.086   0.403
 6053SOL    MW424533   2.678   6.095   0.491
 6054SOL     OW24534   2.124   6.111   0.427
 6054SOL    HW224535   2.156   6.199   0.409
 6054SOL    HW324536   2.112   6.109   0.522
 6054SOL    MW424537   2.127   6.123   0.439
 6055SOL     OW24538   2.202   6.524   1.328
 6055SOL    HW224539   2.265   6.471   1.279
 6055SOL    HW324540   2.183   6.598   1.271
 6055SOL    MW424541   2.208   6.526   1.315
 6056SOL     OW24542   2.523   5.866   0.514
 6056SOL    HW224543   2.581   5.942   0.516
 6056SOL    HW324544   2.458   5.887   0.447
 6056SOL    MW424545   2.522   5.878   0.505
 6057SOL     OW24546   2.610   6.793   0.689
 6057SOL    HW224547   2.690   6.796   0.741
 6057SOL    HW324548   2.638   6.760   0.603
 6057SOL    MW424549   2.624   6.789   0.684
 6058SOL     OW24550   2.635   7.134   1.592
 6058SOL    HW224551   2.719   7.160   1.631
 6058SOL    HW324552   2.659   7.078   1.518
 6058SOL    MW424553   2.649   7.130   1.587
 6059SOL     OW24554   2.387   6.297   0.680
 6059SOL    HW224555   2.372   6.217   0.731
 6059SOL    HW324556   2.469   6.332   0.714
 6059SOL    MW424557   2.395   6.289   0.692
 6060SOL     OW24558   2.724   6.983   1.365
 6060SOL    HW224559   2.688   7.049   1.305
 6060SOL    HW324560   2.652   6.921   1.378
 6060SOL    MW424561   2.710   6.983   1.359
 6061SOL     OW24562   2.529   6.123   1.057
 6061SOL    HW224563   2.435   6.119   1.075
 6061SOL    HW324564   2.559   6.032   1.066
 6061SOL    MW424565   2.520   6.111   1.060
 6062SOL     OW24566   2.275   6.537   0.961
 6062SOL    HW224567   2.230   6.544   0.877
 6062SOL    HW324568   2.255   6.620   1.005
 6062SOL    MW424569   2.267   6.549   0.955
 6063SOL     OW24570   1.972   7.383   0.836
 6063SOL    HW224571   2.061   7.375   0.871
 6063SOL    HW324572   1.936   7.295   0.841
 6063SOL    MW424573   1.979   7.370   0.841
 6064SOL     OW24574   3.237   6.775   0.205
 6064SOL    HW224575   3.155   6.811   0.171
 6064SOL    HW324576   3.305   6.818   0.154
 6064SOL    MW424577   3.235   6.785   0.193
 6065SOL     OW24578   2.236   6.910   0.871
 6065SOL    HW224579   2.212   6.963   0.947
 6065SOL    HW324580   2.292   6.968   0.819
 6065SOL    MW424581   2.240   6.925   0.874
 6066SOL     OW24582   2.798   6.554   0.681
 6066SOL    HW224583   2.712   6.541   0.721
 6066SOL    HW324584   2.851   6.481   0.713
 6066SOL    MW424585   2.794   6.543   0.690
 6067SOL     OW24586   2.206   7.206   1.466
 6067SOL    HW224587   2.114   7.182   1.451
 6067SOL    HW324588   2.250   7.123   1.483
 6067SOL    MW424589   2.200   7.191   1.465
 6068SOL     OW24590   2.789   6.916   0.398
 6068SOL    HW224591   2.766   6.978   0.466
 6068SOL    HW324592   2.746   6.834   0.424
 6068SOL    MW424593   2.781   6.912   0.409
 6069SOL     OW24594   3.662   5.917   0.854
 6069SOL    HW224595   3.599   5.897   0.923
 6069SOL    HW324596   3.652   5.846   0.791
 6069SOL    MW424597   3.652   5.904   0.855
 6070SOL     OW24598   2.286   5.889   0.366
 6070SOL    HW224599   2.260   5.851   0.282
 6070SOL    HW324600   2.223   5.959   0.382
 6070SOL    MW424601   2.275   5.892   0.357
 6071SOL     OW24602   2.121   6.850   0.403
 6071SOL    HW224603   2.069   6.918   0.359
 6071SOL    HW324604   2.118   6.776   0.343
 6071SOL    MW424605   2.113   6.849   0.390
 6072SOL     OW24606   2.783   7.313   0.181
 6072SOL    HW224607   2.738   7.329   0.264
 6072SOL    HW324608   2.714   7.278   0.123
 6072SOL    MW424609   2.769   7.310   0.183
 6073SOL     OW24610   3.718   6.086   0.156
 6073SOL    HW224611   3.627   6.088   0.184
 6073SOL    HW324612   3.763   6.148   0.214
 6073SOL    MW424613   3.711   6.094   0.166
 6074SOL     OW24614   3.463   6.689   0.506
 6074SOL    HW224615   3.373   6.689   0.541
 6074SOL    HW324616   3.456   6.735   0.423
 6074SOL    MW424617   3.450   6.695   0.500
 6075SOL     OW24618   3.263   6.324   1.578
 6075SOL    HW224619   3.332   6.262   1.555
 6075SOL    HW324620   3.188   6.298   1.525
 6075SOL    MW424621   3.263   6.311   1.569
 6076SOL     OW24622   2.004   7.204   1.130
 6076SOL    HW224623   1.987   7.150   1.207
 6076SOL    HW324624   1.992   7.294   1.160
 6076SOL    MW424625   2.001   7.208   1.144
 6077SOL     OW24626   2.999   6.711   1.570
 6077SOL    HW224627   2.984   6.804   1.555
 6077SOL    HW324628   3.094   6.701   1.570
 6077SOL    MW424629   3.008   6.721   1.567
 6078SOL     OW24630   2.795   6.135   1.771
 6078SOL    HW224631   2.885   6.136   1.738
 6078SOL    HW324632   2.754   6.060   1.729
 6078SOL    MW424633   2.801   6.125   1.762
 6079SOL     OW24634   3.370   6.667   0.898
 6079SOL    HW224635   3.373   6.601   0.829
 6079SOL    HW324636   3.455   6.710   0.894
 6079SOL    MW424637   3.382   6.663   0.889
 6080SOL     OW24638   2.990   6.270   0.467
 6080SOL    HW224639   3.016   6.294   0.378
 6080SOL    HW324640   2.972   6.177   0.463
 6080SOL    MW424641   2.992   6.262   0.454
 6081SOL     OW24642   3.655   6.890   0.318
 6081SOL    HW224643   3.611   6.931   0.393
 6081SOL    HW324644   3.712   6.958   0.283
 6081SOL    MW424645   3.657   6.904   0.323
 6082SOL     OW24646   2.575   5.939   1.721
 6082SOL    HW224647   2.585   5.865   1.661
 6082SOL    HW324648   2.611   5.908   1.804
 6082SOL    MW424649   2.581   5.925   1.723
 6083SOL     OW24650   2.311   7.306   0.636
 6083SOL    HW224651   2.343   7.394   0.614
 6083SOL    HW324652   2.264   7.278   0.558
 6083SOL    MW424653   2.310   7.314   0.623
 6084SOL     OW24654   3.695   5.668   0.685
 6084SOL    HW224655   3.749   5.619   0.747
 6084SOL    HW324656   3.638   5.602   0.646
 6084SOL    MW424657   3.695   5.652   0.687
 6085SOL     OW24658   2.027   7.366   0.213
 6085SOL    HW224659   2.056   7.456   0.205
 6085SOL    HW324660   1.977   7.349   0.134
 6085SOL    MW424661   2.025   7.374   0.202
 6086SOL     OW24662   2.814   5.621   1.098
 6086SOL    HW224663   2.773   5.699   1.060
 6086SOL    HW324664   2.908   5.639   1.093
 6086SOL    MW424665   2.820   5.633   1.093
 6087SOL     OW24666   3.431   7.174   0.184
 6087SOL    HW224667   3.479   7.243   0.230
 6087SOL    HW324668   3.352   7.218   0.153
 6087SOL    MW424669   3.426   7.188   0.187
 6088SOL     OW24670   2.829   6.299   0.128
 6088SOL    HW224671   2.831   6.246   0.049
 6088SOL    HW324672   2.917   6.336   0.134
 6088SOL    MW424673   2.841   6.298   0.117
 6089SOL     OW24674   3.443   6.225   0.464
 6089SOL    HW224675   3.482   6.225   0.551
 6089SOL    HW324676   3.384   6.301   0.464
 6089SOL    MW424677   3.440   6.236   0.475
 6090SOL     OW24678   2.760   6.592   1.593
 6090SOL    HW224679   2.737   6.572   1.683
 6090SOL    HW324680   2.845   6.636   1.598
 6090SOL    MW424681   2.767   6.595   1.605
 6091SOL     OW24682   2.840   5.729   1.353
 6091SOL    HW224683   2.846   5.691   1.266
 6091SOL    HW324684   2.829   5.823   1.338
 6091SOL    MW424685   2.841   5.737   1.341
 6092SOL     OW24686   2.929   6.218   1.187
 6092SOL    HW224687   3.004   6.247   1.134
 6092SOL    HW324688   2.861   6.283   1.171
 6092SOL    MW424689   2.930   6.230   1.177
 6093SOL     OW24690   3.479   6.186   1.464
 6093SOL    HW224691   3.460   6.095   1.443
 6093SOL    HW324692   3.457   6.235   1.385
 6093SOL    MW424693   3.474   6.179   1.451
 6094SOL     OW24694   3.621   7.280   1.368
 6094SOL    HW224695   3.549   7.242   1.419
 6094SOL    HW324696   3.638   7.365   1.409
 6094SOL    MW424697   3.615   7.285   1.380
 6095SOL     OW24698   2.926   5.924   1.570
 6095SOL    HW224699   2.892   5.963   1.489
 6095SOL    HW324700   2.904   5.832   1.563
 6095SOL    MW424701   2.919   5.917   1.560
 6096SOL     OW24702   3.335   6.738   1.646
 6096SOL    HW224703   3.417   6.779   1.676
 6096SOL    HW324704   3.298   6.700   1.726
 6096SOL    MW424705   3.341   6.739   1.661
 6097SOL     OW24706   3.630   6.111   0.630
 6097SOL    HW224707   3.719   6.080   0.647
 6097SOL    HW324708   3.573   6.051   0.678
 6097SOL    MW424709   3.633   6.099   0.639
 6098SOL     OW24710   2.056   5.825   0.659
 6098SOL    HW224711   2.047   5.765   0.585
 6098SOL    HW324712   1.989   5.796   0.722
 6098SOL    MW424713   2.046   5.812   0.657
 6099SOL     OW24714   2.999   6.918   0.220
 6099SOL    HW224715   2.949   6.920   0.302
 6099SOL    HW324716   2.933   6.936   0.152
 6099SOL    MW424717   2.985   6.920   0.222
 6100SOL     OW24718   2.003   5.998   1.022
 6100SOL    HW224719   1.975   6.089   1.031
 6100SOL    HW324720   1.940   5.959   0.961
 6100SOL    MW424721   1.990   6.004   1.016
 6101SOL     OW24722   2.462   7.336   0.328
 6101SOL    HW224723   2.383   7.294   0.361
 6101SOL    HW324724   2.528   7.319   0.395
 6101SOL    MW424725   2.461   7.328   0.341
 6102SOL     OW24726   3.590   6.856   1.725
 6102SOL    HW224727   3.640   6.782   1.757
 6102SOL    HW324728   3.536   6.883   1.800
 6102SOL    MW424729   3.590   6.850   1.738
 6103SOL     OW24730   2.598   6.751   0.035
 6103SOL    HW224731   2.520   6.697   0.022
 6103SOL    HW324732   2.569   6.824   0.088
 6103SOL    MW424733   2.584   6.753   0.040
 6104SOL     OW24734   3.724   6.491   1.227
 6104SOL    HW224735   3.740   6.529   1.140
 6104SOL    HW324736   3.758   6.557   1.288
 6104SOL    MW424737   3.731   6.504   1.223
 6105SOL     OW24738   3.516   7.200   0.896
 6105SOL    HW224739   3.545   7.267   0.957
 6105SOL    HW324740   3.497   7.124   0.951
 6105SOL    MW424741   3.518   7.200   0.911
 6106SOL     OW24742   3.179   7.267   0.103
 6106SOL    HW224743   3.105   7.230   0.153
 6106SOL    HW324744   3.187   7.357   0.136
 6106SOL    MW424745   3.170   7.274   0.115
 6107SOL     OW24746   1.987   6.273   1.192
 6107SOL    HW224747   2.049   6.303   1.258
 6107SOL    HW324748   1.921   6.342   1.186
 6107SOL    MW424749   1.986   6.286   1.199
 6108SOL     OW24750   3.403   6.941   0.045
 6108SOL    HW224751   3.350   6.990  -0.019
 6108SOL    HW324752   3.434   7.007   0.106
 6108SOL    MW424753   3.401   6.955   0.043
 6109SOL     OW24754   2.628   5.830   0.100
 6109SOL    HW224755   2.576   5.750   0.088
 6109SOL    HW324756   2.715   5.807   0.068
 6109SOL    MW424757   2.631   5.816   0.094
 6110SOL     OW24758   2.082   7.382   1.644
 6110SOL    HW224759   2.056   7.450   1.582
 6110SOL    HW324760   2.130   7.319   1.592
 6110SOL    MW424761   2.084   7.382   1.630
 6111SOL     OW24762   2.134   6.701   1.151
 6111SOL    HW224763   2.187   6.776   1.176
 6111SOL    HW324764   2.053   6.739   1.117
 6111SOL    MW424765   2.130   6.716   1.151
 6112SOL     OW24766   2.674   6.605   1.139
 6112SOL    HW224767   2.702   6.514   1.151
 6112SOL    HW324768   2.603   6.599   1.075
 6112SOL    MW424769   2.667   6.593   1.134
 6113SOL     OW24770   1.989   6.470   0.557
 6113SOL    HW224771   2.080   6.485   0.584
 6113SOL    HW324772   1.992   6.391   0.503
 6113SOL    MW424773   2.001   6.462   0.555
 6114SOL     OW24774   2.225   6.178   1.811
 6114SOL    HW224775   2.172   6.258   1.818
 6114SOL    HW324776   2.295   6.190   1.876
 6114SOL    MW424777   2.227   6.191   1.819
 6115SOL     OW24778   2.611   5.728   1.518
 6115SOL    HW224779   2.588   5.636   1.520
 6115SOL    HW324780   2.697   5.730   1.475
 6115SOL    MW424781   2.618   5.718   1.514
 6116SOL     OW24782   2.295   6.252   1.557
 6116SOL    HW224783   2.375   6.302   1.543
 6116SOL    HW324784   2.286   6.246   1.652
 6116SOL    MW424785   2.304   6.258   1.567
 6117SOL     OW24786   2.616   7.402   0.931
 6117SOL    HW224787   2.705   7.417   0.961
 6117SOL    HW324788   2.611   7.449   0.847
 6117SOL    MW424789   2.626   7.410   0.924
 6118SOL     OW24790   3.272   5.777   1.828
 6118SOL    HW224791   3.328   5.704   1.854
 6118SOL    HW324792   3.242   5.815   1.910
 6118SOL    MW424793   3.276   5.772   1.841
 6119SOL     OW24794   1.997   7.082   0.596
 6119SOL    HW224795   1.969   7.121   0.678
 6119SOL    HW324796   2.017   6.991   0.618
 6119SOL    MW424797   1.995   7.074   0.609
 6120SOL     OW24798   2.830   7.125   0.631
 6120SOL    HW224799   2.913   7.079   0.615
 6120SOL    HW324800   2.820   7.124   0.727
 6120SOL    MW424801   2.840   7.118   0.641
 6121SOL     OW24802   3.662   6.270   0.945
 6121SOL    HW224803   3.751   6.300   0.927
 6121SOL    HW324804   3.642   6.210   0.874
 6121SOL    MW424805   3.671   6.267   0.934
 6122SOL     OW24806   3.513   6.449   1.825
 6122SOL    HW224807   3.568   6.373   1.806
 6122SOL    HW324808   3.515   6.457   1.920
 6122SOL    MW424809   3.521   6.440   1.833
 6123SOL     OW24810   2.563   7.182   0.036
 6123SOL    HW224811   2.503   7.251   0.006
 6123SOL    HW324812   2.508   7.124   0.089
 6123SOL    MW424813   2.547   7.184   0.038
 6124SOL     OW24814   3.001   5.827   0.259
 6124SOL    HW224815   2.934   5.803   0.196
 6124SOL    HW324816   3.066   5.876   0.208
 6124SOL    MW424817   3.001   5.829   0.244
 6125SOL     OW24818   2.808   6.011   1.344
 6125SOL    HW224819   2.727   6.052   1.372
 6125SOL    HW324820   2.855   6.079   1.296
 6125SOL    MW424821   2.803   6.026   1.342
 6126SOL     OW24822   3.068   6.349   0.967
 6126SOL    HW224823   3.081   6.443   0.977
 6126SOL    HW324824   3.029   6.339   0.881
 6126SOL    MW424825   3.064   6.360   0.957
 6127SOL     OW24826   2.520   6.544   0.771
 6127SOL    HW224827   2.431   6.535   0.804
 6127SOL    HW324828   2.524   6.634   0.739
 6127SOL    MW424829   2.509   6.555   0.771
 6128SOL     OW24830   3.319   6.127   0.766
 6128SOL    HW224831   3.264   6.048   0.765
 6128SOL    HW324832   3.301   6.168   0.850
 6128SOL    MW424833   3.309   6.122   0.775
 6129SOL     OW24834   2.290   5.814   1.583
 6129SOL    HW224835   2.211   5.832   1.635
 6129SOL    HW324836   2.285   5.876   1.510
 6129SOL    MW424837   2.280   5.824   1.580
 6130SOL     OW24838   2.938   6.331   0.723
 6130SOL    HW224839   2.875   6.263   0.747
 6130SOL    HW324840   2.958   6.312   0.631
 6130SOL    MW424841   2.932   6.318   0.715
 6131SOL     OW24842   2.194   7.226   0.425
 6131SOL    HW224843   2.155   7.273   0.351
 6131SOL    HW324844   2.128   7.161   0.450
 6131SOL    MW424845   2.181   7.224   0.419
 6132SOL     OW24846   2.686   6.635   0.449
 6132SOL    HW224847   2.688   6.609   0.356
 6132SOL    HW324848   2.744   6.572   0.492
 6132SOL    MW424849   2.694   6.624   0.443
 6133SOL     OW24850   3.239   7.195   1.221
 6133SOL    HW224851   3.164   7.241   1.259
 6133SOL    HW324852   3.221   7.102   1.238
 6133SOL    MW424853   3.228   7.189   1.229
 6134SOL     OW24854   3.243   7.403   0.651
 6134SOL    HW224855   3.186   7.356   0.590
 6134SOL    HW324856   3.329   7.364   0.638
 6134SOL    MW424857   3.246   7.394   0.641
 6135SOL     OW24858   3.196   5.879   0.782
 6135SOL    HW224859   3.224   5.811   0.843
 6135SOL    HW324860   3.110   5.850   0.752
 6135SOL    MW424861   3.189   5.866   0.786
 6136SOL     OW24862   2.001   6.813   0.716
 6136SOL    HW224863   2.065   6.845   0.779
 6136SOL    HW324864   2.050   6.749   0.664
 6136SOL    MW424865   2.016   6.809   0.717
 6137SOL     OW24866   2.501   6.889   1.698
 6137SOL    HW224867   2.549   6.972   1.685
 6137SOL    HW324868   2.558   6.837   1.754
 6137SOL    MW424869   2.515   6.893   1.704
 6138SOL     OW24870   2.077   7.131   1.838
 6138SOL    HW224871   2.133   7.055   1.853
 6138SOL    HW324872   2.026   7.109   1.760
 6138SOL    MW424873   2.077   7.118   1.829
 6139SOL     OW24874   3.176   5.983   0.117
 6139SOL    HW224875   3.149   6.049   0.053
 6139SOL    HW324876   3.246   6.026   0.167
 6139SOL    MW424877   3.181   5.996   0.114
 6140SOL     OW24878   2.844   5.688   0.054
 6140SOL    HW224879   2.900   5.680  -0.024
 6140SOL    HW324880   2.821   5.598   0.076
 6140SOL    MW424881   2.849   5.675   0.047
 6141SOL     OW24882   3.349   6.539   0.259
 6141SOL    HW224883   3.316   6.628   0.249
 6141SOL    HW324884   3.314   6.510   0.344
 6141SOL    MW424885   3.339   6.548   0.270
 6142SOL     OW24886   2.962   6.968   1.447
 6142SOL    HW224887   2.873   6.974   1.415
 6142SOL    HW324888   3.006   7.047   1.415
 6142SOL    MW424889   2.957   6.978   1.439
 6143SOL     OW24890   2.255   5.636   1.789
 6143SOL    HW224891   2.183   5.601   1.737
 6143SOL    HW324892   2.313   5.677   1.724
 6143SOL    MW424893   2.253   5.637   1.774
 6144SOL     OW24894   2.279   7.126   1.088
 6144SOL    HW224895   2.324   7.188   1.145
 6144SOL    HW324896   2.186   7.145   1.101
 6144SOL    MW424897   2.272   7.136   1.095
 6145SOL     OW24898   3.719   6.655   1.442
 6145SOL    HW224899   3.634   6.668   1.401
 6145SOL    HW324900   3.699   6.619   1.529
 6145SOL    MW424901   3.706   6.651   1.447
 6146SOL     OW24902   2.701   7.194   1.196
 6146SOL    HW224903   2.725   7.183   1.105
 6146SOL    HW324904   2.624   7.251   1.194
 6146SOL    MW424905   2.693   7.199   1.185
 6147SOL     OW24906   2.343   6.577   0.051
 6147SOL    HW224907   2.266   6.590   0.107
 6147SOL    HW324908   2.307   6.541  -0.030
 6147SOL    MW424909   2.329   6.573   0.048
 6148SOL     OW24910   2.996   6.550   0.294
 6148SOL    HW224911   2.906   6.571   0.269
 6148SOL    HW324912   3.023   6.623   0.350
 6148SOL    MW424913   2.988   6.562   0.297
 6149SOL     OW24914   2.496   6.899   0.986
 6149SOL    HW224915   2.489   6.878   1.080
 6149SOL    HW324916   2.414   6.867   0.949
 6149SOL    MW424917   2.484   6.893   0.993
 6150SOL     OW24918   3.360   5.909   1.388
 6150SOL    HW224919   3.307   5.911   1.468
 6150SOL    HW324920   3.345   5.822   1.351
 6150SOL    MW424921   3.352   5.899   1.393
 6151SOL     OW24922   3.696   5.833   1.261
 6151SOL    HW224923   3.677   5.900   1.196
 6151SOL    HW324924   3.753   5.771   1.216
 6151SOL    MW424925   3.700   5.834   1.247
 6152SOL     OW24926   1.942   6.991   1.649
 6152SOL    HW224927   1.986   6.924   1.595
 6152SOL    HW324928   1.857   6.953   1.669
 6152SOL    MW424929   1.937   6.977   1.645
 6153SOL     OW24930   2.625   5.666   0.701
 6153SOL    HW224931   2.554   5.727   0.683
 6153SOL    HW324932   2.676   5.663   0.620
 6153SOL    MW424933   2.621   5.672   0.688
 6154SOL     OW24934   2.383   6.906   0.450
 6154SOL    HW224935   2.376   6.938   0.540
 6154SOL    HW324936   2.293   6.890   0.422
 6154SOL    MW424937   2.371   6.908   0.457
 6155SOL     OW24938   2.978   7.299   1.359
 6155SOL    HW224939   2.898   7.284   1.309
 6155SOL    HW324940   2.985   7.394   1.366
 6155SOL    MW424941   2.969   7.310   1.353
 6156SOL     OW24942   3.092   7.264   0.849
 6156SOL    HW224943   3.139   7.337   0.808
 6156SOL    HW324944   3.013   7.303   0.885
 6156SOL    MW424945   3.087   7.279   0.848
 6157SOL     OW24946   3.500   7.359   1.124
 6157SOL    HW224947   3.543   7.329   1.204
 6157SOL    HW324948   3.419   7.307   1.121
 6157SOL    MW424949   3.495   7.348   1.134
 6158SOL     OW24950   2.585   6.323   1.831
 6158SOL    HW224951   2.655   6.265   1.803
 6158SOL    HW324952   2.528   6.268   1.886
 6158SOL    MW424953   2.587   6.310   1.835
 6159SOL     OW24954   3.372   6.535   1.464
 6159SOL    HW224955   3.377   6.588   1.544
 6159SOL    HW324956   3.334   6.452   1.492
 6159SOL    MW424957   3.368   6.530   1.479
 6160SOL     OW24958   3.012   5.670   1.710
 6160SOL    HW224959   3.007   5.577   1.691
 6160SOL    HW324960   3.095   5.681   1.756
 6160SOL    MW424961   3.020   5.659   1.714
 6161SOL     OW24962   2.386   6.190   0.164
 6161SOL    HW224963   2.352   6.246   0.234
 6161SOL    HW324964   2.457   6.140   0.204
 6161SOL    MW424965   2.392   6.191   0.178
 6162SOL     OW24966   3.482   6.941   0.986
 6162SOL    HW224967   3.517   6.923   0.899
 6162SOL    HW324968   3.387   6.942   0.973
 6162SOL    MW424969   3.474   6.938   0.973
 6163SOL     OW24970   2.911   6.589   1.355
 6163SOL    HW224971   2.954   6.624   1.433
 6163SOL    HW324972   2.894   6.666   1.301
 6163SOL    MW424973   2.914   6.604   1.358
 6164SOL     OW24974   3.442   6.076   0.228
 6164SOL    HW224975   3.434   6.147   0.165
 6164SOL    HW324976   3.460   6.120   0.311
 6164SOL    MW424977   3.443   6.090   0.230
 6165SOL     OW24978   2.302   5.731   0.657
 6165SOL    HW224979   2.352   5.774   0.588
 6165SOL    HW324980   2.217   5.775   0.657
 6165SOL    MW424981   2.299   5.744   0.648
 6166SOL     OW24982   2.061   6.793   1.517
 6166SOL    HW224983   2.089   6.746   1.595
 6166SOL    HW324984   1.982   6.748   1.488
 6166SOL    MW424985   2.054   6.782   1.523
 6167SOL     OW24986   2.569   6.120   1.484
 6167SOL    HW224987   2.541   6.208   1.508
 6167SOL    HW324988   2.538   6.064   1.555
 6167SOL    MW424989   2.561   6.123   1.496
 6168SOL     OW24990   3.111   6.338   0.203
 6168SOL    HW224991   3.158   6.356   0.122
 6168SOL    HW324992   3.077   6.422   0.231
 6168SOL    MW424993   3.113   6.352   0.196
 6169SOL     OW24994   2.224   6.516   0.697
 6169SOL    HW224995   2.282   6.572   0.645
 6169SOL    HW324996   2.268   6.431   0.699
 6169SOL    MW424997   2.237   6.513   0.690
 6170SOL     OW24998   3.364   5.868   0.534
 6170SOL    HW224999   3.286   5.818   0.559
 6170SOL    HW325000   3.335   5.959   0.534
 6170SOL    MW425001   3.350   5.872   0.537
 6171SOL     OW25002   2.950   5.830   0.693
 6171SOL    HW225003   2.970   5.905   0.637
 6171SOL    HW325004   2.930   5.869   0.778
 6171SOL    MW425005   2.951   5.846   0.697
 6172SOL     OW25006   2.846   7.080   0.025
 6172SOL    HW225007   2.873   7.158  -0.023
 6172SOL    HW325008   2.753   7.095   0.044
 6172SOL    MW425009   2.837   7.093   0.021
 6173SOL     OW25010   3.710   6.603   1.712
 6173SOL    HW225011   3.623   6.583   1.748
 6173SOL    HW325012   3.764   6.529   1.737
 6173SOL    MW425013   3.705   6.592   1.720
 6174SOL     OW25014   1.931   7.116   0.869
 6174SOL    HW225015   1.963   7.120   0.960
 6174SOL    HW325016   1.836   7.124   0.877
 6174SOL    MW425017   1.923   7.119   0.882
 6175SOL     OW25018   1.886   6.242   0.416
 6175SOL    HW225019   1.826   6.214   0.486
 6175SOL    HW325020   1.960   6.182   0.422
 6175SOL    MW425021   1.888   6.231   0.425
 6176SOL     OW25022   3.454   7.454   1.850
 6176SOL    HW225023   3.499   7.378   1.815
 6176SOL    HW325024   3.492   7.467   1.937
 6176SOL    MW425025   3.464   7.447   1.856
 6177SOL     OW25026   3.054   6.973   0.576
 6177SOL    HW225027   3.077   6.924   0.654
 6177SOL    HW325028   3.135   7.015   0.548
 6177SOL    MW425029   3.067   6.973   0.583
 6178SOL     OW25030   2.312   5.981   1.305
 6178SOL    HW225031   2.345   6.062   1.345
 6178SOL    HW325032   2.285   6.007   1.217
 6178SOL    MW425033   2.311   5.995   1.299
 6179SOL     OW25034   2.266   5.948   1.041
 6179SOL    HW225035   2.296   5.862   1.012
 6179SOL    HW325036   2.171   5.941   1.044
 6179SOL    MW425037   2.258   5.937   1.039
 6180SOL     OW25038   3.095   6.157   1.732
 6180SOL    HW225039   3.147   6.092   1.685
 6180SOL    HW325040   3.053   6.208   1.662
 6180SOL    MW425041   3.096   6.154   1.715
 6181SOL     OW25042   3.194   5.952   1.593
 6181SOL    HW225043   3.101   5.936   1.580
 6181SOL    HW325044   3.220   5.890   1.661
 6181SOL    MW425045   3.184   5.942   1.600
 6182SOL     OW25046   2.409   5.726   0.932
 6182SOL    HW225047   2.419   5.635   0.958
 6182SOL    HW325048   2.365   5.722   0.847
 6182SOL    MW425049   2.405   5.714   0.924
 6183SOL     OW25050   2.503   7.341   1.478
 6183SOL    HW225051   2.420   7.326   1.523
 6183SOL    HW325052   2.562   7.274   1.513
 6183SOL    MW425053   2.501   7.331   1.488
 6184SOL     OW25054   3.560   6.048   1.103
 6184SOL    HW225055   3.493   6.081   1.163
 6184SOL    HW325056   3.603   6.126   1.069
 6184SOL    MW425057   3.558   6.063   1.107
 6185SOL     OW25058   3.738   6.768   1.073
 6185SOL    HW225059   3.731   6.708   0.998
 6185SOL    HW325060   3.664   6.828   1.062
 6185SOL    MW425061   3.728   6.768   1.062
 6186SOL     OW25062   3.120   6.630   0.991
 6186SOL    HW225063   3.134   6.602   1.082
 6186SOL    HW325064   3.206   6.661   0.963
 6186SOL    MW425065   3.133   6.631   1.000
 6187SOL     OW25066   3.203   6.125   1.270
 6187SOL    HW225067   3.224   6.126   1.177
 6187SOL    HW325068   3.248   6.047   1.303
 6187SOL    MW425069   3.210   6.115   1.262
 6188SOL     OW25070   3.696   6.256   1.812
 6188SOL    HW225071   3.733   6.201   1.881
 6188SOL    HW325072   3.721   6.213   1.730
 6188SOL    MW425073   3.703   6.244   1.811
 6189SOL     OW25074   3.243   6.554   1.863
 6189SOL    HW225075   3.309   6.502   1.817
 6189SOL    HW325076   3.263   6.541   1.956
 6189SOL    MW425077   3.254   6.545   1.870
 6190SOL     OW25078   3.194   5.640   0.212
 6190SOL    HW225079   3.268   5.684   0.255
 6190SOL    HW325080   3.118   5.694   0.234
 6190SOL    MW425081   3.194   5.652   0.220
 6191SOL     OW25082   3.254   6.415   0.490
 6191SOL    HW225083   3.169   6.385   0.460
 6191SOL    HW325084   3.246   6.422   0.585
 6191SOL    MW425085   3.242   6.413   0.499
 6192SOL     OW25086   2.330   6.878   1.221
 6192SOL    HW225087   2.342   6.905   1.312
 6192SOL    HW325088   2.311   6.959   1.174
 6192SOL    MW425089   2.329   6.893   1.226
 6193SOL     OW25090   2.614   5.858   1.044
 6193SOL    HW225091   2.587   5.860   1.135
 6193SOL    HW325092   2.544   5.810   0.999
 6193SOL    MW425093   2.602   5.854   1.051
 6194SOL     OW25094   2.468   7.350   1.206
 6194SOL    HW225095   2.520   7.427   1.183
 6194SOL    HW325096   2.477   7.342   1.301
 6194SOL    MW425097   2.477   7.357   1.217
 6195SOL     OW25098   3.370   6.935   1.438
 6195SOL    HW225099   3.355   6.864   1.501
 6195SOL    HW325100   3.416   6.893   1.366
 6195SOL    MW425101   3.376   6.919   1.438
 6196SOL     OW25102   2.444   6.666   1.555
 6196SOL    HW225103   2.481   6.671   1.467
 6196SOL    HW325104   2.483   6.739   1.602
 6196SOL    MW425105   2.454   6.676   1.550
 6197SOL     OW25106   2.624   6.709   1.367
 6197SOL    HW225107   2.683   6.655   1.420
 6197SOL    HW325108   2.639   6.681   1.277
 6197SOL    MW425109   2.634   6.698   1.363
 6198SOL     OW25110   2.627   6.081   0.216
 6198SOL    HW225111   2.700   6.130   0.179
 6198SOL    HW325112   2.643   5.990   0.190
 6198SOL    MW425113   2.639   6.076   0.209
 6199SOL     OW25114   3.435   7.198   1.539
 6199SOL    HW225115   3.477   7.183   1.624
 6199SOL    HW325116   3.426   7.111   1.501
 6199SOL    MW425117   3.439   7.186   1.546
 6200SOL     OW25118   3.095   5.677   1.130
 6200SOL    HW225119   3.150   5.686   1.052
 6200SOL    HW325120   3.150   5.711   1.201
 6200SOL    MW425121   3.109   5.682   1.129
 6201SOL     OW25122   2.102   6.590   0.314
 6201SOL    HW225123   2.039   6.606   0.243
 6201SOL    HW325124   2.049   6.553   0.385
 6201SOL    MW425125   2.087   6.587   0.314
 6202SOL     OW25126   2.458   6.944   0.173
 6202SOL    HW225127   2.473   6.920   0.265
 6202SOL    HW325128   2.366   6.922   0.157
 6202SOL    MW425129   2.448   6.937   0.183
 6203SOL     OW25130   2.997   7.175   0.325
 6203SOL    HW225131   3.005   7.093   0.276
 6203SOL    HW325132   2.916   7.214   0.292
 6203SOL    MW425133   2.987   7.170   0.315
 6204SOL     OW25134   2.256   7.333   0.894
 6204SOL    HW225135   2.260   7.244   0.929
 6204SOL    HW325136   2.282   7.324   0.803
 6204SOL    MW425137   2.259   7.321   0.886
 6205SOL     OW25138   2.873   6.811   1.137
 6205SOL    HW225139   2.805   6.745   1.153
 6205SOL    HW325140   2.891   6.805   1.044
 6205SOL    MW425141   2.866   6.802   1.128
 6206SOL     OW25142   1.962   7.086   1.388
 6206SOL    HW225143   1.952   7.044   1.474
 6206SOL    HW325144   1.883   7.139   1.378
 6206SOL    MW425145   1.951   7.087   1.399
 6207SOL     OW25146   2.866   5.950   0.958
 6207SOL    HW225147   2.796   5.902   1.003
 6207SOL    HW325148   2.898   6.013   1.022
 6207SOL    MW425149   2.861   5.952   0.972
 6208SOL     OW25150   2.517   6.386   1.578
 6208SOL    HW225151   2.510   6.481   1.566
 6208SOL    HW325152   2.526   6.375   1.673
 6208SOL    MW425153   2.518   6.398   1.588
 6209SOL     OW25154   2.238   6.901   1.836
 6209SOL    HW225155   2.310   6.903   1.773
 6209SOL    HW325156   2.208   6.810   1.835
 6209SOL    MW425157   2.243   6.890   1.828
 6210SOL     OW25158   3.322   5.664   1.303
 6210SOL    HW225159   3.393   5.610   1.267
 6210SOL    HW325160   3.321   5.643   1.396
 6210SOL    MW425161   3.331   5.655   1.311
 6211SOL     OW25162   3.522   7.194   1.787
 6211SOL    HW225163   3.495   7.191   1.878
 6211SOL    HW325164   3.618   7.198   1.790
 6211SOL    MW425165   3.532   7.194   1.799
 6212SOL     OW25166   2.333   6.056   0.771
 6212SOL    HW225167   2.404   6.004   0.734
 6212SOL    HW325168   2.319   6.021   0.858
 6212SOL    MW425169   2.341   6.045   0.778
 6213SOL     OW25170   1.888   7.391   1.843
 6213SOL    HW225171   1.938   7.369   1.765
 6213SOL    HW325172   1.896   7.486   1.851
 6213SOL    MW425173   1.896   7.400   1.834
 6214SOL     OW25174   2.649   7.149   0.847
 6214SOL    HW225175   2.577   7.086   0.860
 6214SOL    HW325176   2.610   7.234   0.865
 6214SOL    MW425177   2.633   7.152   0.850
 6215SOL     OW25178   2.969   5.997   0.495
 6215SOL    HW225179   2.991   5.934   0.427
 6215SOL    HW325180   2.874   5.989   0.506
 6215SOL    MW425181   2.959   5.988   0.487
 6216SOL     OW25182   2.054   5.687   0.427
 6216SOL    HW225183   2.125   5.708   0.366
 6216SOL    HW325184   2.008   5.615   0.385
 6216SOL    MW425185   2.058   5.681   0.413
 6217SOL     OW25186   1.885   6.154   1.570
 6217SOL    HW225187   1.949   6.220   1.545
 6217SOL    HW325188   1.804   6.181   1.527
 6217SOL    MW425189   1.883   6.166   1.562
 6218SOL     OW25190   3.623   7.061   0.527
 6218SOL    HW225191   3.593   6.994   0.588
 6218SOL    HW325192   3.717   7.067   0.541
 6218SOL    MW425193   3.631   7.053   0.537
 6219SOL     OW25194   3.179   6.738   0.457
 6219SOL    HW225195   3.151   6.824   0.490
 6219SOL    HW325196   3.207   6.754   0.367
 6219SOL    MW425197   3.179   6.752   0.449
 6220SOL     OW25198   2.841   5.658   0.510
 6220SOL    HW225199   2.878   5.717   0.575
 6220SOL    HW325200   2.818   5.714   0.436
 6220SOL    MW425201   2.842   5.673   0.509
 6221SOL     OW25202   3.694   6.540   0.932
 6221SOL    HW225203   3.685   6.572   0.843
 6221SOL    HW325204   3.647   6.456   0.932
 6221SOL    MW425205   3.687   6.533   0.922
 6222SOL     OW25206   2.070   6.380   1.511
 6222SOL    HW225207   2.091   6.449   1.449
 6222SOL    HW325208   2.150   6.327   1.516
 6222SOL    MW425209   2.083   6.381   1.505
 6223SOL     OW25210   3.606   6.471   0.633
 6223SOL    HW225211   3.700   6.460   0.621
 6223SOL    HW325212   3.582   6.543   0.574
 6223SOL    MW425213   3.616   6.479   0.624
 6224SOL     OW25214   2.055   6.395   1.778
 6224SOL    HW225215   1.981   6.339   1.804
 6224SOL    HW325216   2.050   6.398   1.683
 6224SOL    MW425217   2.044   6.388   1.768
 6225SOL     OW25218   2.221   5.682   1.228
 6225SOL    HW225219   2.264   5.766   1.248
 6225SOL    HW325220   2.294   5.620   1.221
 6225SOL    MW425221   2.236   5.685   1.229
 6226SOL     OW25222   2.262   6.349   0.406
 6226SOL    HW225223   2.262   6.444   0.391
 6226SOL    HW325224   2.339   6.333   0.460
 6226SOL    MW425225   2.272   6.360   0.411
 6227SOL     OW25226   3.038   6.208   1.470
 6227SOL    HW225227   3.074   6.181   1.386
 6227SOL    HW325228   2.951   6.242   1.449
 6227SOL    MW425229   3.032   6.209   1.457
 6228SOL     OW25230   2.021   6.080   0.695
 6228SOL    HW225231   2.083   6.087   0.768
 6228SOL    HW325232   2.021   5.987   0.672
 6228SOL    MW425233   2.029   6.069   0.702
 6229SOL     OW25234   3.568   7.420   0.227
 6229SOL    HW225235   3.635   7.453   0.167
 6229SOL    HW325236   3.525   7.499   0.261
 6229SOL    MW425237   3.570   7.435   0.223
 6230SOL     OW25238   2.703   6.341   1.179
 6230SOL    HW225239   2.661   6.259   1.155
 6230SOL    HW325240   2.704   6.340   1.275
 6230SOL    MW425241   2.696   6.330   1.188
 6231SOL     OW25242   3.374   7.474   1.578
 6231SOL    HW225243   3.377   7.380   1.561
 6231SOL    HW325244   3.397   7.482   1.670
 6231SOL    MW425245   3.377   7.462   1.588
 6232SOL     OW25246   2.507   5.811   1.284
 6232SOL    HW225247   2.438   5.874   1.305
 6232SOL    HW325248   2.534   5.775   1.369
 6232SOL    MW425249   2.501   5.814   1.297
 6233SOL     OW25250   1.890   6.652   0.153
 6233SOL    HW225251   1.859   6.717   0.216
 6233SOL    HW325252   1.839   6.574   0.172
 6233SOL    MW425253   1.880   6.649   0.163
 6234SOL     OW25254   3.302   5.664   0.901
 6234SOL    HW225255   3.390   5.673   0.938
 6234SOL    HW325256   3.312   5.605   0.827
 6234SOL    MW425257   3.316   5.658   0.895
 6235SOL     OW25258   3.334   6.403   0.745
 6235SOL    HW225259   3.414   6.418   0.694
 6235SOL    HW325260   3.327   6.308   0.751
 6235SOL    MW425261   3.343   6.392   0.740
 6236SOL     OW25262   2.474   7.452   0.095
 6236SOL    HW225263   2.379   7.452   0.087
 6236SOL    HW325264   2.490   7.398   0.173
 6236SOL    MW425265   2.464   7.446   0.104
 6237SOL     OW25266   2.784   6.329   1.442
 6237SOL    HW225267   2.853   6.396   1.439
 6237SOL    HW325268   2.717   6.367   1.498
 6237SOL    MW425269   2.785   6.342   1.449
 6238SOL     OW25270   2.202   6.629   1.690
 6238SOL    HW225271   2.156   6.545   1.692
 6238SOL    HW325272   2.259   6.623   1.614
 6238SOL    MW425273   2.204   6.617   1.682
 6239SOL     OW25274   3.319   6.272   0.011
 6239SOL    HW225275   3.247   6.248  -0.047
 6239SOL    HW325276   3.385   6.309  -0.047
 6239SOL    MW425277   3.318   6.274  -0.004
 6240SOL     OW25278   2.453   7.004   0.691
 6240SOL    HW225279   2.518   6.937   0.712
 6240SOL    HW325280   2.505   7.081   0.668
 6240SOL    MW425281   2.468   7.006   0.690
 6241SOL     OW25282   2.714   6.169   0.821
 6241SOL    HW225283   2.654   6.187   0.893
 6241SOL    HW325284   2.748   6.081   0.840
 6241SOL    MW425285   2.710   6.159   0.834
 6242SOL     OW25286   3.655   5.668   1.490
 6242SOL    HW225287   3.576   5.714   1.518
 6242SOL    HW325288   3.690   5.722   1.419
 6242SOL    MW425289   3.649   5.681   1.484
 6243SOL     OW25290   2.939   6.752   0.840
 6243SOL    HW225291   3.031   6.733   0.858
 6243SOL    HW325292   2.912   6.682   0.780
 6243SOL    MW425293   2.947   6.740   0.834
 6244SOL     OW25294   2.732   6.572   0.195
 6244SOL    HW225295   2.718   6.484   0.160
 6244SOL    HW325296   2.683   6.629   0.136
 6244SOL    MW425297   2.724   6.567   0.183
 6245SOL     OW25298   3.213   6.990   0.936
 6245SOL    HW225299   3.186   7.074   0.901
 6245SOL    HW325300   3.173   6.985   1.023
 6245SOL    MW425301   3.206   6.999   0.942
 6246SOL     OW25302   3.132   6.938   1.204
 6246SOL    HW225303   3.143   6.905   1.293
 6246SOL    HW325304   3.051   6.897   1.173
 6246SOL    MW425305   3.122   6.930   1.210
 6247SOL     OW25306   2.145   6.296   0.974
 6247SOL    HW225307   2.095   6.295   1.055
 6247SOL    HW325308   2.165   6.388   0.958
 6247SOL    MW425309   2.141   6.308   0.982
 6248SOL     OW25310   3.212   7.060   1.736
 6248SOL    HW225311   3.212   7.154   1.752
 6248SOL    HW325312   3.257   7.050   1.652
 6248SOL    MW425313   3.218   7.070   1.727
 6249SOL     OW25314   3.451   5.778   0.297
 6249SOL    HW225315   3.444   5.782   0.392
 6249SOL    HW325316   3.463   5.869   0.270
 6249SOL    MW425317   3.452   5.791   0.305
 6250SOL     OW25318   2.740   6.341   0.411
 6250SOL    HW225319   2.720   6.327   0.318
 6250SOL    HW325320   2.833   6.320   0.418
 6250SOL    MW425321   2.750   6.336   0.400
 6251SOL     OW25322   2.067   5.964   1.715
 6251SOL    HW225323   2.024   6.023   1.652
 6251SOL    HW325324   2.135   6.019   1.755
 6251SOL    MW425325   2.071   5.979   1.712
 6252SOL     OW25326   3.179   6.584   1.260
 6252SOL    HW225327   3.242   6.581   1.333
 6252SOL    HW325328   3.095   6.602   1.302
 6252SOL    MW425329   3.175   6.586   1.275
 6253SOL     OW25330   2.723   7.299   0.449
 6253SOL    HW225331   2.781   7.370   0.476
 6253SOL    HW325332   2.746   7.227   0.507
 6253SOL    MW425333   2.734   7.299   0.460
 6254SOL     OW25334   3.518   5.761   1.039
 6254SOL    HW225335   3.563   5.679   1.058
 6254SOL    HW325336   3.538   5.817   1.115
 6254SOL    MW425337   3.528   5.757   1.051
 6255SOL     OW25338   1.966   5.604   1.138
 6255SOL    HW225339   1.957   5.605   1.043
 6255SOL    HW325340   2.060   5.616   1.153
 6255SOL    MW425341   1.978   5.607   1.129
 6256SOL     OW25342   3.603   6.797   0.758
 6256SOL    HW225343   3.582   6.743   0.681
 6256SOL    HW325344   3.699   6.795   0.762
 6256SOL    MW425345   3.612   6.790   0.747
 6257SOL     OW25346   2.295   6.942   1.501
 6257SOL    HW225347   2.216   6.892   1.524
 6257SOL    HW325348   2.365   6.901   1.551
 6257SOL    MW425349   2.293   6.930   1.511
 6258SOL     OW25350   2.179   5.731   0.184
 6258SOL    HW225351   2.108   5.786   0.152
 6258SOL    HW325352   2.221   5.697   0.105
 6258SOL    MW425353   2.175   5.733   0.170
 6259SOL     OW25354   3.303   6.228   1.020
 6259SOL    HW225355   3.226   6.274   0.986
 6259SOL    HW325356   3.360   6.297   1.054
 6259SOL    MW425357   3.300   6.243   1.020
 6260SOL     OW25358   1.935   5.830   0.033
 6260SOL    HW225359   1.902   5.909   0.077
 6260SOL    HW325360   1.990   5.863  -0.038
 6260SOL    MW425361   1.938   5.844   0.030
 6261SOL     OW25362   1.969   7.087   0.222
 6261SOL    HW225363   1.986   7.171   0.264
 6261SOL    HW325364   2.004   7.096   0.134
 6261SOL    MW425365   1.974   7.100   0.216
 6262SOL     OW25366   3.241   7.176   0.439
 6262SOL    HW225367   3.304   7.166   0.368
 6262SOL    HW325368   3.158   7.196   0.394
 6262SOL    MW425369   3.238   7.177   0.424
 6263SOL     OW25370   3.604   6.444   2.125
 6263SOL    HW225371   3.645   6.386   2.190
 6263SOL    HW325372   3.511   6.436   2.142
 6263SOL    MW425373   3.598   6.436   2.135
 6264SOL     OW25374   3.470   6.376   3.120
 6264SOL    HW225375   3.425   6.443   3.171
 6264SOL    HW325376   3.558   6.412   3.106
 6264SOL    MW425377   3.476   6.389   3.124
 6265SOL     OW25378   2.398   6.627   2.354
 6265SOL    HW225379   2.488   6.602   2.338
 6265SOL    HW325380   2.394   6.720   2.331
 6265SOL    MW425381   2.410   6.636   2.349
 6266SOL     OW25382   3.514   7.330   2.496
 6266SOL    HW225383   3.526   7.276   2.574
 6266SOL    HW325384   3.551   7.278   2.425
 6266SOL    MW425385   3.520   7.315   2.497
 6267SOL     OW25386   2.893   7.215   3.497
 6267SOL    HW225387   2.934   7.251   3.418
 6267SOL    HW325388   2.928   7.126   3.504
 6267SOL    MW425389   2.904   7.208   3.488
 6268SOL     OW25390   3.450   6.770   3.101
 6268SOL    HW225391   3.371   6.735   3.059
 6268SOL    HW325392   3.477   6.842   3.045
 6268SOL    MW425393   3.443   6.775   3.088
 6269SOL     OW25394   2.682   6.083   2.367
 6269SOL    HW225395   2.657   6.171   2.395
 6269SOL    HW325396   2.679   6.086   2.271
 6269SOL    MW425397   2.678   6.095   2.359
 6270SOL     OW25398   2.124   6.111   2.295
 6270SOL    HW225399   2.156   6.199   2.277
 6270SOL    HW325400   2.112   6.109   2.390
 6270SOL    MW425401   2.127   6.123   2.307
 6271SOL     OW25402   2.202   6.524   3.196
 6271SOL    HW225403   2.265   6.471   3.147
 6271SOL    HW325404   2.183   6.598   3.139
 6271SOL    MW425405   2.208   6.526   3.183
 6272SOL     OW25406   2.523   5.866   2.382
 6272SOL    HW225407   2.581   5.942   2.384
 6272SOL    HW325408   2.458   5.887   2.315
 6272SOL    MW425409   2.522   5.878   2.373
 6273SOL     OW25410   2.610   6.793   2.557
 6273SOL    HW225411   2.690   6.796   2.609
 6273SOL    HW325412   2.638   6.760   2.471
 6273SOL    MW425413   2.624   6.789   2.552
 6274SOL     OW25414   2.635   7.134   3.460
 6274SOL    HW225415   2.719   7.160   3.499
 6274SOL    HW325416   2.659   7.078   3.386
 6274SOL    MW425417   2.649   7.130   3.455
 6275SOL     OW25418   2.387   6.297   2.548
 6275SOL    HW225419   2.372   6.217   2.599
 6275SOL    HW325420   2.469   6.332   2.582
 6275SOL    MW425421   2.395   6.289   2.560
 6276SOL     OW25422   2.724   6.983   3.233
 6276SOL    HW225423   2.688   7.049   3.173
 6276SOL    HW325424   2.652   6.921   3.246
 6276SOL    MW425425   2.710   6.983   3.227
 6277SOL     OW25426   2.529   6.123   2.925
 6277SOL    HW225427   2.435   6.119   2.943
 6277SOL    HW325428   2.559   6.032   2.934
 6277SOL    MW425429   2.520   6.111   2.928
 6278SOL     OW25430   2.275   6.537   2.829
 6278SOL    HW225431   2.230   6.544   2.745
 6278SOL    HW325432   2.255   6.620   2.873
 6278SOL    MW425433   2.267   6.549   2.823
 6279SOL     OW25434   1.972   7.383   2.704
 6279SOL    HW225435   2.061   7.375   2.739
 6279SOL    HW325436   1.936   7.295   2.709
 6279SOL    MW425437   1.979   7.370   2.709
 6280SOL     OW25438   3.237   6.775   2.073
 6280SOL    HW225439   3.155   6.811   2.039
 6280SOL    HW325440   3.305   6.818   2.022
 6280SOL    MW425441   3.235   6.785   2.061
 6281SOL     OW25442   2.236   6.910   2.739
 6281SOL    HW225443   2.212   6.963   2.815
 6281SOL    HW325444   2.292   6.968   2.687
 6281SOL    MW425445   2.240   6.925   2.742
 6282SOL     OW25446   2.798   6.554   2.549
 6282SOL    HW225447   2.712   6.541   2.589
 6282SOL    HW325448   2.851   6.481   2.581
 6282SOL    MW425449   2.794   6.543   2.558
 6283SOL     OW25450   2.206   7.206   3.334
 6283SOL    HW225451   2.114   7.182   3.319
 6283SOL    HW325452   2.250   7.123   3.351
 6283SOL    MW425453   2.200   7.191   3.333
 6284SOL     OW25454   2.789   6.916   2.266
 6284SOL    HW225455   2.766   6.978   2.334
 6284SOL    HW325456   2.746   6.834   2.292
 6284SOL    MW425457   2.781   6.912   2.277
 6285SOL     OW25458   3.662   5.917   2.722
 6285SOL    HW225459   3.599   5.897   2.791
 6285SOL    HW325460   3.652   5.846   2.659
 6285SOL    MW425461   3.652   5.904   2.723
 6286SOL     OW25462   2.286   5.889   2.234
 6286SOL    HW225463   2.260   5.851   2.150
 6286SOL    HW325464   2.223   5.959   2.250
 6286SOL    MW425465   2.275   5.892   2.225
 6287SOL     OW25466   2.121   6.850   2.271
 6287SOL    HW225467   2.069   6.918   2.227
 6287SOL    HW325468   2.118   6.776   2.211
 6287SOL    MW425469   2.113   6.849   2.258
 6288SOL     OW25470   2.783   7.313   2.049
 6288SOL    HW225471   2.738   7.329   2.132
 6288SOL    HW325472   2.714   7.278   1.991
 6288SOL    MW425473   2.769   7.310   2.051
 6289SOL     OW25474   3.718   6.086   2.024
 6289SOL    HW225475   3.627   6.088   2.052
 6289SOL    HW325476   3.763   6.148   2.082
 6289SOL    MW425477   3.711   6.094   2.034
 6290SOL     OW25478   3.463   6.689   2.374
 6290SOL    HW225479   3.373   6.689   2.409
 6290SOL    HW325480   3.456   6.735   2.291
 6290SOL    MW425481   3.450   6.695   2.368
 6291SOL     OW25482   3.263   6.324   3.446
 6291SOL    HW225483   3.332   6.262   3.423
 6291SOL    HW325484   3.188   6.298   3.393
 6291SOL    MW425485   3.263   6.311   3.437
 6292SOL     OW25486   2.004   7.204   2.998
 6292SOL    HW225487   1.987   7.150   3.075
 6292SOL    HW325488   1.992   7.294   3.028
 6292SOL    MW425489   2.001   7.208   3.012
 6293SOL     OW25490   2.999   6.711   3.438
 6293SOL    HW225491   2.984   6.804   3.423
 6293SOL    HW325492   3.094   6.701   3.438
 6293SOL    MW425493   3.008   6.721   3.435
 6294SOL     OW25494   2.795   6.135   3.639
 6294SOL    HW225495   2.885   6.136   3.606
 6294SOL    HW325496   2.754   6.060   3.597
 6294SOL    MW425497   2.801   6.125   3.630
 6295SOL     OW25498   3.370   6.667   2.766
 6295SOL    HW225499   3.373   6.601   2.697
 6295SOL    HW325500   3.455   6.710   2.762
 6295SOL    MW425501   3.382   6.663   2.757
 6296SOL     OW25502   2.990   6.270   2.335
 6296SOL    HW225503   3.016   6.294   2.246
 6296SOL    HW325504   2.972   6.177   2.331
 6296SOL    MW425505   2.992   6.262   2.322
 6297SOL     OW25506   3.655   6.890   2.186
 6297SOL    HW225507   3.611   6.931   2.261
 6297SOL    HW325508   3.712   6.958   2.151
 6297SOL    MW425509   3.657   6.904   2.191
 6298SOL     OW25510   2.575   5.939   3.589
 6298SOL    HW225511   2.585   5.865   3.529
 6298SOL    HW325512   2.611   5.908   3.672
 6298SOL    MW425513   2.581   5.925   3.591
 6299SOL     OW25514   2.311   7.306   2.504
 6299SOL    HW225515   2.343   7.394   2.482
 6299SOL    HW325516   2.264   7.278   2.426
 6299SOL    MW425517   2.310   7.314   2.491
 6300SOL     OW25518   3.695   5.668   2.553
 6300SOL    HW225519   3.749   5.619   2.615
 6300SOL    HW325520   3.638   5.602   2.514
 6300SOL    MW425521   3.695   5.652   2.555
 6301SOL     OW25522   2.027   7.366   2.081
 6301SOL    HW225523   2.056   7.456   2.073
 6301SOL    HW325524   1.977   7.349   2.002
 6301SOL    MW425525   2.025   7.374   2.070
 6302SOL     OW25526   2.814   5.621   2.966
 6302SOL    HW225527   2.773   5.699   2.928
 6302SOL    HW325528   2.908   5.639   2.961
 6302SOL    MW425529   2.820   5.633   2.961
 6303SOL     OW25530   3.431   7.174   2.052
 6303SOL    HW225531   3.479   7.243   2.098
 6303SOL    HW325532   3.352   7.218   2.021
 6303SOL    MW425533   3.426   7.188   2.055
 6304SOL     OW25534   2.829   6.299   1.996
 6304SOL    HW225535   2.831   6.246   1.917
 6304SOL    HW325536   2.917   6.336   2.002
 6304SOL    MW425537   2.841   6.298   1.985
 6305SOL     OW25538   3.443   6.225   2.332
 6305SOL    HW225539   3.482   6.225   2.419
 6305SOL    HW325540   3.384   6.301   2.332
 6305SOL    MW425541   3.440   6.236   2.343
 6306SOL     OW25542   2.760   6.592   3.461
 6306SOL    HW225543   2.737   6.572   3.551
 6306SOL    HW325544   2.845   6.636   3.466
 6306SOL    MW425545   2.767   6.595   3.473
 6307SOL     OW25546   2.840   5.729   3.221
 6307SOL    HW225547   2.846   5.691   3.134
 6307SOL    HW325548   2.829   5.823   3.206
 6307SOL    MW425549   2.841   5.737   3.209
 6308SOL     OW25550   2.929   6.218   3.055
 6308SOL    HW225551   3.004   6.247   3.002
 6308SOL    HW325552   2.861   6.283   3.039
 6308SOL    MW425553   2.930   6.230   3.045
 6309SOL     OW25554   3.479   6.186   3.332
 6309SOL    HW225555   3.460   6.095   3.311
 6309SOL    HW325556   3.457   6.235   3.253
 6309SOL    MW425557   3.474   6.179   3.319
 6310SOL     OW25558   3.621   7.280   3.236
 6310SOL    HW225559   3.549   7.242   3.287
 6310SOL    HW325560   3.638   7.365   3.277
 6310SOL    MW425561   3.615   7.285   3.248
 6311SOL     OW25562   2.926   5.924   3.438
 6311SOL    HW225563   2.892   5.963   3.357
 6311SOL    HW325564   2.904   5.832   3.431
 6311SOL    MW425565   2.919   5.917   3.428
 6312SOL     OW25566   3.335   6.738   3.514
 6312SOL    HW225567   3.417   6.779   3.544
 6312SOL    HW325568   3.298   6.700   3.594
 6312SOL    MW425569   3.341   6.739   3.529
 6313SOL     OW25570   3.630   6.111   2.498
 6313SOL    HW225571   3.719   6.080   2.515
 6313SOL    HW325572   3.573   6.051   2.546
 6313SOL    MW425573   3.633   6.099   2.507
 6314SOL     OW25574   2.056   5.825   2.527
 6314SOL    HW225575   2.047   5.765   2.453
 6314SOL    HW325576   1.989   5.796   2.590
 6314SOL    MW425577   2.046   5.812   2.525
 6315SOL     OW25578   2.999   6.918   2.088
 6315SOL    HW225579   2.949   6.920   2.170
 6315SOL    HW325580   2.933   6.936   2.020
 6315SOL    MW425581   2.985   6.920   2.090
 6316SOL     OW25582   2.003   5.998   2.890
 6316SOL    HW225583   1.975   6.089   2.899
 6316SOL    HW325584   1.940   5.959   2.829
 6316SOL    MW425585   1.990   6.004   2.884
 6317SOL     OW25586   2.462   7.336   2.196
 6317SOL    HW225587   2.383   7.294   2.229
 6317SOL    HW325588   2.528   7.319   2.263
 6317SOL    MW425589   2.461   7.328   2.209
 6318SOL     OW25590   3.590   6.856   3.593
 6318SOL    HW225591   3.640   6.782   3.625
 6318SOL    HW325592   3.536   6.883   3.668
 6318SOL    MW425593   3.590   6.850   3.606
 6319SOL     OW25594   2.598   6.751   1.903
 6319SOL    HW225595   2.520   6.697   1.890
 6319SOL    HW325596   2.569   6.824   1.956
 6319SOL    MW425597   2.584   6.753   1.908
 6320SOL     OW25598   3.724   6.491   3.095
 6320SOL    HW225599   3.740   6.529   3.008
 6320SOL    HW325600   3.758   6.557   3.156
 6320SOL    MW425601   3.731   6.504   3.091
 6321SOL     OW25602   3.516   7.200   2.764
 6321SOL    HW225603   3.545   7.267   2.825
 6321SOL    HW325604   3.497   7.124   2.819
 6321SOL    MW425605   3.518   7.200   2.779
 6322SOL     OW25606   3.179   7.267   1.971
 6322SOL    HW225607   3.105   7.230   2.021
 6322SOL    HW325608   3.187   7.357   2.004
 6322SOL    MW425609   3.170   7.274   1.983
 6323SOL     OW25610   1.987   6.273   3.060
 6323SOL    HW225611   2.049   6.303   3.126
 6323SOL    HW325612   1.921   6.342   3.054
 6323SOL    MW425613   1.986   6.286   3.067
 6324SOL     OW25614   3.403   6.941   1.913
 6324SOL    HW225615   3.350   6.990   1.849
 6324SOL    HW325616   3.434   7.007   1.974
 6324SOL    MW425617   3.401   6.955   1.911
 6325SOL     OW25618   2.628   5.830   1.968
 6325SOL    HW225619   2.576   5.750   1.956
 6325SOL    HW325620   2.715   5.807   1.936
 6325SOL    MW425621   2.631   5.816   1.962
 6326SOL     OW25622   2.082   7.382   3.512
 6326SOL    HW225623   2.056   7.450   3.450
 6326SOL    HW325624   2.130   7.319   3.460
 6326SOL    MW425625   2.084   7.382   3.498
 6327SOL     OW25626   2.134   6.701   3.019
 6327SOL    HW225627   2.187   6.776   3.044
 6327SOL    HW325628   2.053   6.739   2.985
 6327SOL    MW425629   2.130   6.716   3.019
 6328SOL     OW25630   2.674   6.605   3.007
 6328SOL    HW225631   2.702   6.514   3.019
 6328SOL    HW325632   2.603   6.599   2.943
 6328SOL    MW425633   2.667   6.593   3.002
 6329SOL     OW25634   1.989   6.470   2.425
 6329SOL    HW225635   2.080   6.485   2.452
 6329SOL    HW325636   1.992   6.391   2.371
 6329SOL    MW425637   2.001   6.462   2.423
 6330SOL     OW25638   2.225   6.178   3.679
 6330SOL    HW225639   2.172   6.258   3.686
 6330SOL    HW325640   2.295   6.190   3.744
 6330SOL    MW425641   2.227   6.191   3.687
 6331SOL     OW25642   2.611   5.728   3.386
 6331SOL    HW225643   2.588   5.636   3.388
 6331SOL    HW325644   2.697   5.730   3.343
 6331SOL    MW425645   2.618   5.718   3.382
 6332SOL     OW25646   2.295   6.252   3.425
 6332SOL    HW225647   2.375   6.302   3.411
 6332SOL    HW325648   2.286   6.246   3.520
 6332SOL    MW425649   2.304   6.258   3.435
 6333SOL     OW25650   2.616   7.402   2.799
 6333SOL    HW225651   2.705   7.417   2.829
 6333SOL    HW325652   2.611   7.449   2.715
 6333SOL    MW425653   2.626   7.410   2.792
 6334SOL     OW25654   3.272   5.777   3.696
 6334SOL    HW225655   3.328   5.704   3.722
 6334SOL    HW325656   3.242   5.815   3.778
 6334SOL    MW425657   3.276   5.772   3.709
 6335SOL     OW25658   1.997   7.082   2.464
 6335SOL    HW225659   1.969   7.121   2.546
 6335SOL    HW325660   2.017   6.991   2.486
 6335SOL    MW425661   1.995   7.074   2.477
 6336SOL     OW25662   2.830   7.125   2.499
 6336SOL    HW225663   2.913   7.079   2.483
 6336SOL    HW325664   2.820   7.124   2.595
 6336SOL    MW425665   2.840   7.118   2.509
 6337SOL     OW25666   3.662   6.270   2.813
 6337SOL    HW225667   3.751   6.300   2.795
 6337SOL    HW325668   3.642   6.210   2.742
 6337SOL    MW425669   3.671   6.267   2.802
 6338SOL     OW25670   3.513   6.449   3.693
 6338SOL    HW225671   3.568   6.373   3.674
 6338SOL    HW325672   3.515   6.457   3.788
 6338SOL    MW425673   3.521   6.440   3.701
 6339SOL     OW25674   2.563   7.182   1.904
 6339SOL    HW225675   2.503   7.251   1.874
 6339SOL    HW325676   2.508   7.124   1.957
 6339SOL    MW425677   2.547   7.184   1.906
 6340SOL     OW25678   3.001   5.827   2.127
 6340SOL    HW225679   2.934   5.803   2.064
 6340SOL    HW325680   3.066   5.876   2.076
 6340SOL    MW425681   3.001   5.829   2.112
 6341SOL     OW25682   2.808   6.011   3.212
 6341SOL    HW225683   2.727   6.052   3.240
 6341SOL    HW325684   2.855   6.079   3.164
 6341SOL    MW425685   2.803   6.026   3.210
 6342SOL     OW25686   3.068   6.349   2.835
 6342SOL    HW225687   3.081   6.443   2.845
 6342SOL    HW325688   3.029   6.339   2.749
 6342SOL    MW425689   3.064   6.360   2.825
 6343SOL     OW25690   2.520   6.544   2.639
 6343SOL    HW225691   2.431   6.535   2.672
 6343SOL    HW325692   2.524   6.634   2.607
 6343SOL    MW425693   2.509   6.555   2.639
 6344SOL     OW25694   3.319   6.127   2.634
 6344SOL    HW225695   3.264   6.048   2.633
 6344SOL    HW325696   3.301   6.168   2.718
 6344SOL    MW425697   3.309   6.122   2.643
 6345SOL     OW25698   2.290   5.814   3.451
 6345SOL    HW225699   2.211   5.832   3.503
 6345SOL    HW325700   2.285   5.876   3.378
 6345SOL    MW425701   2.280   5.824   3.448
 6346SOL     OW25702   2.938   6.331   2.591
 6346SOL    HW225703   2.875   6.263   2.615
 6346SOL    HW325704   2.958   6.312   2.499
 6346SOL    MW425705   2.932   6.318   2.583
 6347SOL     OW25706   2.194   7.226   2.293
 6347SOL    HW225707   2.155   7.273   2.219
 6347SOL    HW325708   2.128   7.161   2.318
 6347SOL    MW425709   2.181   7.224   2.287
 6348SOL     OW25710   2.686   6.635   2.317
 6348SOL    HW225711   2.688   6.609   2.224
 6348SOL    HW325712   2.744   6.572   2.360
 6348SOL    MW425713   2.694   6.624   2.311
 6349SOL     OW25714   3.239   7.195   3.089
 6349SOL    HW225715   3.164   7.241   3.127
 6349SOL    HW325716   3.221   7.102   3.106
 6349SOL    MW425717   3.228   7.189   3.097
 6350SOL     OW25718   3.243   7.403   2.519
 6350SOL    HW225719   3.186   7.356   2.458
 6350SOL    HW325720   3.329   7.364   2.506
 6350SOL    MW425721   3.246   7.394   2.509
 6351SOL     OW25722   3.196   5.879   2.650
 6351SOL    HW225723   3.224   5.811   2.711
 6351SOL    HW325724   3.110   5.850   2.620
 6351SOL    MW425725   3.189   5.866   2.654
 6352SOL     OW25726   2.001   6.813   2.584
 6352SOL    HW225727   2.065   6.845   2.647
 6352SOL    HW325728   2.050   6.749   2.532
 6352SOL    MW425729   2.016   6.809   2.585
 6353SOL     OW25730   2.501   6.889   3.566
 6353SOL    HW225731   2.549   6.972   3.553
 6353SOL    HW325732   2.558   6.837   3.622
 6353SOL    MW425733   2.515   6.893   3.572
 6354SOL     OW25734   2.077   7.131   3.706
 6354SOL    HW225735   2.133   7.055   3.721
 6354SOL    HW325736   2.026   7.109   3.628
 6354SOL    MW425737   2.077   7.118   3.697
 6355SOL     OW25738   3.176   5.983   1.985
 6355SOL    HW225739   3.149   6.049   1.921
 6355SOL    HW325740   3.246   6.026   2.035
 6355SOL    MW425741   3.181   5.996   1.982
 6356SOL     OW25742   2.844   5.688   1.922
 6356SOL    HW225743   2.900   5.680   1.844
 6356SOL    HW325744   2.821   5.598   1.944
 6356SOL    MW425745   2.849   5.675   1.915
 6357SOL     OW25746   3.349   6.539   2.127
 6357SOL    HW225747   3.316   6.628   2.117
 6357SOL    HW325748   3.314   6.510   2.212
 6357SOL    MW425749   3.339   6.548   2.138
 6358SOL     OW25750   2.962   6.968   3.315
 6358SOL    HW225751   2.873   6.974   3.283
 6358SOL    HW325752   3.006   7.047   3.283
 6358SOL    MW425753   2.957   6.978   3.307
 6359SOL     OW25754   2.255   5.636   3.657
 6359SOL    HW225755   2.183   5.601   3.605
 6359SOL    HW325756   2.313   5.677   3.592
 6359SOL    MW425757   2.253   5.637   3.642
 6360SOL     OW25758   2.279   7.126   2.956
 6360SOL    HW225759   2.324   7.188   3.013
 6360SOL    HW325760   2.186   7.145   2.969
 6360SOL    MW425761   2.272   7.136   2.963
 6361SOL     OW25762   3.719   6.655   3.310
 6361SOL    HW225763   3.634   6.668   3.269
 6361SOL    HW325764   3.699   6.619   3.397
 6361SOL    MW425765   3.706   6.651   3.315
 6362SOL     OW25766   2.701   7.194   3.064
 6362SOL    HW225767   2.725   7.183   2.973
 6362SOL    HW325768   2.624   7.251   3.062
 6362SOL    MW425769   2.693   7.199   3.053
 6363SOL     OW25770   2.343   6.577   1.919
 6363SOL    HW225771   2.266   6.590   1.975
 6363SOL    HW325772   2.307   6.541   1.838
 6363SOL    MW425773   2.329   6.573   1.916
 6364SOL     OW25774   2.996   6.550   2.162
 6364SOL    HW225775   2.906   6.571   2.137
 6364SOL    HW325776   3.023   6.623   2.218
 6364SOL    MW425777   2.988   6.562   2.165
 6365SOL     OW25778   2.496   6.899   2.854
 6365SOL    HW225779   2.489   6.878   2.948
 6365SOL    HW325780   2.414   6.867   2.817
 6365SOL    MW425781   2.484   6.893   2.861
 6366SOL     OW25782   3.360   5.909   3.256
 6366SOL    HW225783   3.307   5.911   3.336
 6366SOL    HW325784   3.345   5.822   3.219
 6366SOL    MW425785   3.352   5.899   3.261
 6367SOL     OW25786   1.942   6.991   3.517
 6367SOL    HW225787   1.986   6.924   3.463
 6367SOL    HW325788   1.857   6.953   3.537
 6367SOL    MW425789   1.937   6.977   3.513
 6368SOL     OW25790   2.625   5.666   2.569
 6368SOL    HW225791   2.554   5.727   2.551
 6368SOL    HW325792   2.676   5.663   2.488
 6368SOL    MW425793   2.621   5.672   2.556
 6369SOL     OW25794   2.383   6.906   2.318
 6369SOL    HW225795   2.376   6.938   2.408
 6369SOL    HW325796   2.293   6.890   2.290
 6369SOL    MW425797   2.371   6.908   2.325
 6370SOL     OW25798   2.978   7.299   3.227
 6370SOL    HW225799   2.898   7.284   3.177
 6370SOL    HW325800   2.985   7.394   3.234
 6370SOL    MW425801   2.969   7.310   3.221
 6371SOL     OW25802   3.092   7.264   2.717
 6371SOL    HW225803   3.139   7.337   2.676
 6371SOL    HW325804   3.013   7.303   2.753
 6371SOL    MW425805   3.087   7.279   2.716
 6372SOL     OW25806   3.500   7.359   2.992
 6372SOL    HW225807   3.543   7.329   3.072
 6372SOL    HW325808   3.419   7.307   2.989
 6372SOL    MW425809   3.495   7.348   3.002
 6373SOL     OW25810   2.585   6.323   3.699
 6373SOL    HW225811   2.655   6.265   3.671
 6373SOL    HW325812   2.528   6.268   3.754
 6373SOL    MW425813   2.587   6.310   3.703
 6374SOL     OW25814   3.372   6.535   3.332
 6374SOL    HW225815   3.377   6.588   3.412
 6374SOL    HW325816   3.334   6.452   3.360
 6374SOL    MW425817   3.368   6.530   3.347
 6375SOL     OW25818   3.012   5.670   3.578
 6375SOL    HW225819   3.007   5.577   3.559
 6375SOL    HW325820   3.095   5.681   3.624
 6375SOL    MW425821   3.020   5.659   3.582
 6376SOL     OW25822   2.386   6.190   2.032
 6376SOL    HW225823   2.352   6.246   2.102
 6376SOL    HW325824   2.457   6.140   2.072
 6376SOL    MW425825   2.392   6.191   2.046
 6377SOL     OW25826   3.482   6.941   2.854
 6377SOL    HW225827   3.517   6.923   2.767
 6377SOL    HW325828   3.387   6.942   2.841
 6377SOL    MW425829   3.474   6.938   2.841
 6378SOL     OW25830   2.911   6.589   3.223
 6378SOL    HW225831   2.954   6.624   3.301
 6378SOL    HW325832   2.894   6.666   3.169
 6378SOL    MW425833   2.914   6.604   3.226
 6379SOL     OW25834   3.442   6.076   2.096
 6379SOL    HW225835   3.434   6.147   2.033
 6379SOL    HW325836   3.460   6.120   2.179
 6379SOL    MW425837   3.443   6.090   2.098
 6380SOL     OW25838   2.302   5.731   2.525
 6380SOL    HW225839   2.352   5.774   2.456
 6380SOL    HW325840   2.217   5.775   2.525
 6380SOL    MW425841   2.299   5.744   2.516
 6381SOL     OW25842   2.061   6.793   3.385
 6381SOL    HW225843   2.089   6.746   3.463
 6381SOL    HW325844   1.982   6.748   3.356
 6381SOL    MW425845   2.054   6.782   3.391
 6382SOL     OW25846   2.569   6.120   3.352
 6382SOL    HW225847   2.541   6.208   3.376
 6382SOL    HW325848   2.538   6.064   3.423
 6382SOL    MW425849   2.561   6.123   3.364
 6383SOL     OW25850   3.111   6.338   2.071
 6383SOL    HW225851   3.158   6.356   1.990
 6383SOL    HW325852   3.077   6.422   2.099
 6383SOL    MW425853   3.113   6.352   2.064
 6384SOL     OW25854   2.224   6.516   2.565
 6384SOL    HW225855   2.282   6.572   2.513
 6384SOL    HW325856   2.268   6.431   2.567
 6384SOL    MW425857   2.237   6.513   2.558
 6385SOL     OW25858   3.364   5.868   2.402
 6385SOL    HW225859   3.286   5.818   2.427
 6385SOL    HW325860   3.335   5.959   2.402
 6385SOL    MW425861   3.350   5.872   2.405
 6386SOL     OW25862   2.950   5.830   2.561
 6386SOL    HW225863   2.970   5.905   2.505
 6386SOL    HW325864   2.930   5.869   2.646
 6386SOL    MW425865   2.951   5.846   2.565
 6387SOL     OW25866   2.846   7.080   1.893
 6387SOL    HW225867   2.873   7.158   1.845
 6387SOL    HW325868   2.753   7.095   1.912
 6387SOL    MW425869   2.837   7.093   1.889
 6388SOL     OW25870   3.710   6.603   3.580
 6388SOL    HW225871   3.623   6.583   3.616
 6388SOL    HW325872   3.764   6.529   3.605
 6388SOL    MW425873   3.705   6.592   3.588
 6389SOL     OW25874   1.931   7.116   2.737
 6389SOL    HW225875   1.963   7.120   2.828
 6389SOL    HW325876   1.836   7.124   2.745
 6389SOL    MW425877   1.923   7.119   2.750
 6390SOL     OW25878   1.886   6.242   2.284
 6390SOL    HW225879   1.826   6.214   2.354
 6390SOL    HW325880   1.960   6.182   2.290
 6390SOL    MW425881   1.888   6.231   2.293
 6391SOL     OW25882   3.454   7.454   3.718
 6391SOL    HW225883   3.499   7.378   3.683
 6391SOL    HW325884   3.492   7.467   3.805
 6391SOL    MW425885   3.464   7.447   3.724
 6392SOL     OW25886   3.054   6.973   2.444
 6392SOL    HW225887   3.077   6.924   2.522
 6392SOL    HW325888   3.135   7.015   2.416
 6392SOL    MW425889   3.067   6.973   2.451
 6393SOL     OW25890   2.312   5.981   3.173
 6393SOL    HW225891   2.345   6.062   3.213
 6393SOL    HW325892   2.285   6.007   3.085
 6393SOL    MW425893   2.311   5.995   3.167
 6394SOL     OW25894   2.266   5.948   2.909
 6394SOL    HW225895   2.296   5.862   2.880
 6394SOL    HW325896   2.171   5.941   2.912
 6394SOL    MW425897   2.258   5.937   2.907
 6395SOL     OW25898   3.095   6.157   3.600
 6395SOL    HW225899   3.147   6.092   3.553
 6395SOL    HW325900   3.053   6.208   3.530
 6395SOL    MW425901   3.096   6.154   3.583
 6396SOL     OW25902   3.194   5.952   3.461
 6396SOL    HW225903   3.101   5.936   3.448
 6396SOL    HW325904   3.220   5.890   3.529
 6396SOL    MW425905   3.184   5.942   3.468
 6397SOL     OW25906   2.409   5.726   2.800
 6397SOL    HW225907   2.419   5.635   2.826
 6397SOL    HW325908   2.365   5.722   2.715
 6397SOL    MW425909   2.405   5.714   2.792
 6398SOL     OW25910   2.503   7.341   3.346
 6398SOL    HW225911   2.420   7.326   3.391
 6398SOL    HW325912   2.562   7.274   3.381
 6398SOL    MW425913   2.501   7.331   3.356
 6399SOL     OW25914   3.560   6.048   2.971
 6399SOL    HW225915   3.493   6.081   3.031
 6399SOL    HW325916   3.603   6.126   2.937
 6399SOL    MW425917   3.558   6.063   2.975
 6400SOL     OW25918   3.738   6.768   2.941
 6400SOL    HW225919   3.731   6.708   2.866
 6400SOL    HW325920   3.664   6.828   2.930
 6400SOL    MW425921   3.728   6.768   2.930
 6401SOL     OW25922   3.120   6.630   2.859
 6401SOL    HW225923   3.134   6.602   2.950
 6401SOL    HW325924   3.206   6.661   2.831
 6401SOL    MW425925   3.133   6.631   2.868
 6402SOL     OW25926   3.203   6.125   3.138
 6402SOL    HW225927   3.224   6.126   3.045
 6402SOL    HW325928   3.248   6.047   3.171
 6402SOL    MW425929   3.210   6.115   3.130
 6403SOL     OW25930   3.696   6.256   3.680
 6403SOL    HW225931   3.733   6.201   3.749
 6403SOL    HW325932   3.721   6.213   3.598
 6403SOL    MW425933   3.703   6.244   3.679
 6404SOL     OW25934   3.243   6.554   3.731
 6404SOL    HW225935   3.309   6.502   3.685
 6404SOL    HW325936   3.263   6.541   3.824
 6404SOL    MW425937   3.254   6.545   3.738
 6405SOL     OW25938   3.194   5.640   2.080
 6405SOL    HW225939   3.268   5.684   2.123
 6405SOL    HW325940   3.118   5.694   2.102
 6405SOL    MW425941   3.194   5.652   2.088
 6406SOL     OW25942   3.254   6.415   2.358
 6406SOL    HW225943   3.169   6.385   2.328
 6406SOL    HW325944   3.246   6.422   2.453
 6406SOL    MW425945   3.242   6.413   2.367
 6407SOL     OW25946   2.330   6.878   3.089
 6407SOL    HW225947   2.342   6.905   3.180
 6407SOL    HW325948   2.311   6.959   3.042
 6407SOL    MW425949   2.329   6.893   3.094
 6408SOL     OW25950   2.614   5.858   2.912
 6408SOL    HW225951   2.587   5.860   3.003
 6408SOL    HW325952   2.544   5.810   2.867
 6408SOL    MW425953   2.602   5.854   2.919
 6409SOL     OW25954   2.468   7.350   3.074
 6409SOL    HW225955   2.520   7.427   3.051
 6409SOL    HW325956   2.477   7.342   3.169
 6409SOL    MW425957   2.477   7.357   3.085
 6410SOL     OW25958   3.370   6.935   3.306
 6410SOL    HW225959   3.355   6.864   3.369
 6410SOL    HW325960   3.416   6.893   3.234
 6410SOL    MW425961   3.376   6.919   3.306
 6411SOL     OW25962   2.444   6.666   3.423
 6411SOL    HW225963   2.481   6.671   3.335
 6411SOL    HW325964   2.483   6.739   3.470
 6411SOL    MW425965   2.454   6.676   3.418
 6412SOL     OW25966   2.624   6.709   3.235
 6412SOL    HW225967   2.683   6.655   3.288
 6412SOL    HW325968   2.639   6.681   3.145
 6412SOL    MW425969   2.634   6.698   3.231
 6413SOL     OW25970   2.627   6.081   2.084
 6413SOL    HW225971   2.700   6.130   2.047
 6413SOL    HW325972   2.643   5.990   2.058
 6413SOL    MW425973   2.639   6.076   2.077
 6414SOL     OW25974   3.435   7.198   3.407
 6414SOL    HW225975   3.477   7.183   3.492
 6414SOL    HW325976   3.426   7.111   3.369
 6414SOL    MW425977   3.439   7.186   3.414
 6415SOL     OW25978   3.095   5.677   2.998
 6415SOL    HW225979   3.150   5.686   2.920
 6415SOL    HW325980   3.150   5.711   3.069
 6415SOL    MW425981   3.109   5.682   2.997
 6416SOL     OW25982   2.102   6.590   2.182
 6416SOL    HW225983   2.039   6.606   2.111
 6416SOL    HW325984   2.049   6.553   2.253
 6416SOL    MW425985   2.087   6.587   2.182
 6417SOL     OW25986   2.458   6.944   2.041
 6417SOL    HW225987   2.473   6.920   2.133
 6417SOL    HW325988   2.366   6.922   2.025
 6417SOL    MW425989   2.448   6.937   2.051
 6418SOL     OW25990   2.997   7.175   2.193
 6418SOL    HW225991   3.005   7.093   2.144
 6418SOL    HW325992   2.916   7.214   2.160
 6418SOL    MW425993   2.987   7.170   2.183
 6419SOL     OW25994   2.256   7.333   2.762
 6419SOL    HW225995   2.260   7.244   2.797
 6419SOL    HW325996   2.282   7.324   2.671
 6419SOL    MW425997   2.259   7.321   2.754
 6420SOL     OW25998   2.873   6.811   3.005
 6420SOL    HW225999   2.805   6.745   3.021
 6420SOL    HW326000   2.891   6.805   2.912
 6420SOL    MW426001   2.866   6.802   2.996
 6421SOL     OW26002   1.962   7.086   3.256
 6421SOL    HW226003   1.952   7.044   3.342
 6421SOL    HW326004   1.883   7.139   3.246
 6421SOL    MW426005   1.951   7.087   3.267
 6422SOL     OW26006   2.866   5.950   2.826
 6422SOL    HW226007   2.796   5.902   2.871
 6422SOL    HW326008   2.898   6.013   2.890
 6422SOL    MW426009   2.861   5.952   2.840
 6423SOL     OW26010   2.517   6.386   3.446
 6423SOL    HW226011   2.510   6.481   3.434
 6423SOL    HW326012   2.526   6.375   3.541
 6423SOL    MW426013   2.518   6.398   3.456
 6424SOL     OW26014   2.238   6.901   3.704
 6424SOL    HW226015   2.310   6.903   3.641
 6424SOL    HW326016   2.208   6.810   3.703
 6424SOL    MW426017   2.243   6.890   3.696
 6425SOL     OW26018   3.322   5.664   3.171
 6425SOL    HW226019   3.393   5.610   3.135
 6425SOL    HW326020   3.321   5.643   3.264
 6425SOL    MW426021   3.331   5.655   3.179
 6426SOL     OW26022   3.522   7.194   3.655
 6426SOL    HW226023   3.495   7.191   3.746
 6426SOL    HW326024   3.618   7.198   3.658
 6426SOL    MW426025   3.532   7.194   3.667
 6427SOL     OW26026   2.333   6.056   2.639
 6427SOL    HW226027   2.404   6.004   2.602
 6427SOL    HW326028   2.319   6.021   2.726
 6427SOL    MW426029   2.341   6.045   2.646
 6428SOL     OW26030   1.888   7.391   3.711
 6428SOL    HW226031   1.938   7.369   3.633
 6428SOL    HW326032   1.896   7.486   3.719
 6428SOL    MW426033   1.896   7.400   3.702
 6429SOL     OW26034   2.649   7.149   2.715
 6429SOL    HW226035   2.577   7.086   2.728
 6429SOL    HW326036   2.610   7.234   2.733
 6429SOL    MW426037   2.633   7.152   2.718
 6430SOL     OW26038   2.969   5.997   2.363
 6430SOL    HW226039   2.991   5.934   2.295
 6430SOL    HW326040   2.874   5.989   2.374
 6430SOL    MW426041   2.959   5.988   2.355
 6431SOL     OW26042   2.054   5.687   2.295
 6431SOL    HW226043   2.125   5.708   2.234
 6431SOL    HW326044   2.008   5.615   2.253
 6431SOL    MW426045   2.058   5.681   2.281
 6432SOL     OW26046   1.885   6.154   3.438
 6432SOL    HW226047   1.949   6.220   3.413
 6432SOL    HW326048   1.804   6.181   3.395
 6432SOL    MW426049   1.883   6.166   3.430
 6433SOL     OW26050   3.623   7.061   2.395
 6433SOL    HW226051   3.593   6.994   2.456
 6433SOL    HW326052   3.717   7.067   2.409
 6433SOL    MW426053   3.631   7.053   2.405
 6434SOL     OW26054   3.179   6.738   2.325
 6434SOL    HW226055   3.151   6.824   2.358
 6434SOL    HW326056   3.207   6.754   2.235
 6434SOL    MW426057   3.179   6.752   2.317
 6435SOL     OW26058   2.841   5.658   2.378
 6435SOL    HW226059   2.878   5.717   2.443
 6435SOL    HW326060   2.818   5.714   2.304
 6435SOL    MW426061   2.842   5.673   2.377
 6436SOL     OW26062   3.694   6.540   2.800
 6436SOL    HW226063   3.685   6.572   2.711
 6436SOL    HW326064   3.647   6.456   2.800
 6436SOL    MW426065   3.687   6.533   2.790
 6437SOL     OW26066   2.070   6.380   3.379
 6437SOL    HW226067   2.091   6.449   3.317
 6437SOL    HW326068   2.150   6.327   3.384
 6437SOL    MW426069   2.083   6.381   3.373
 6438SOL     OW26070   3.606   6.471   2.501
 6438SOL    HW226071   3.700   6.460   2.489
 6438SOL    HW326072   3.582   6.543   2.442
 6438SOL    MW426073   3.616   6.479   2.492
 6439SOL     OW26074   2.055   6.395   3.646
 6439SOL    HW226075   1.981   6.339   3.672
 6439SOL    HW326076   2.050   6.398   3.551
 6439SOL    MW426077   2.044   6.388   3.636
 6440SOL     OW26078   2.221   5.682   3.096
 6440SOL    HW226079   2.264   5.766   3.116
 6440SOL    HW326080   2.294   5.620   3.089
 6440SOL    MW426081   2.236   5.685   3.097
 6441SOL     OW26082   2.262   6.349   2.274
 6441SOL    HW226083   2.262   6.444   2.259
 6441SOL    HW326084   2.339   6.333   2.328
 6441SOL    MW426085   2.272   6.360   2.279
 6442SOL     OW26086   3.038   6.208   3.338
 6442SOL    HW226087   3.074   6.181   3.254
 6442SOL    HW326088   2.951   6.242   3.317
 6442SOL    MW426089   3.032   6.209   3.325
 6443SOL     OW26090   2.021   6.080   2.563
 6443SOL    HW226091   2.083   6.087   2.636
 6443SOL    HW326092   2.021   5.987   2.540
 6443SOL    MW426093   2.029   6.069   2.570
 6444SOL     OW26094   3.568   7.420   2.095
 6444SOL    HW226095   3.635   7.453   2.035
 6444SOL    HW326096   3.525   7.499   2.129
 6444SOL    MW426097   3.570   7.435   2.091
 6445SOL     OW26098   2.703   6.341   3.047
 6445SOL    HW226099   2.661   6.259   3.023
 6445SOL    HW326100   2.704   6.340   3.143
 6445SOL    MW426101   2.696   6.330   3.056
 6446SOL     OW26102   3.374   7.474   3.446
 6446SOL    HW226103   3.377   7.380   3.429
 6446SOL    HW326104   3.397   7.482   3.538
 6446SOL    MW426105   3.377   7.462   3.456
 6447SOL     OW26106   2.507   5.811   3.152
 6447SOL    HW226107   2.438   5.874   3.173
 6447SOL    HW326108   2.534   5.775   3.237
 6447SOL    MW426109   2.501   5.814   3.165
 6448SOL     OW26110   1.890   6.652   2.021
 6448SOL    HW226111   1.859   6.717   2.084
 6448SOL    HW326112   1.839   6.574   2.040
 6448SOL    MW426113   1.880   6.649   2.031
 6449SOL     OW26114   3.302   5.664   2.769
 6449SOL    HW226115   3.390   5.673   2.806
 6449SOL    HW326116   3.312   5.605   2.695
 6449SOL    MW426117   3.316   5.658   2.763
 6450SOL     OW26118   3.334   6.403   2.613
 6450SOL    HW226119   3.414   6.418   2.562
 6450SOL    HW326120   3.327   6.308   2.619
 6450SOL    MW426121   3.343   6.392   2.608
 6451SOL     OW26122   2.474   7.452   1.963
 6451SOL    HW226123   2.379   7.452   1.955
 6451SOL    HW326124   2.490   7.398   2.041
 6451SOL    MW426125   2.464   7.446   1.972
 6452SOL     OW26126   2.784   6.329   3.310
 6452SOL    HW226127   2.853   6.396   3.307
 6452SOL    HW326128   2.717   6.367   3.366
 6452SOL    MW426129   2.785   6.342   3.317
 6453SOL     OW26130   2.202   6.629   3.558
 6453SOL    HW226131   2.156   6.545   3.560
 6453SOL    HW326132   2.259   6.623   3.482
 6453SOL    MW426133   2.204   6.617   3.550
 6454SOL     OW26134   3.319   6.272   1.879
 6454SOL    HW226135   3.247   6.248   1.821
 6454SOL    HW326136   3.385   6.309   1.821
 6454SOL    MW426137   3.318   6.274   1.864
 6455SOL     OW26138   2.453   7.004   2.559
 6455SOL    HW226139   2.518   6.937   2.580
 6455SOL    HW326140   2.505   7.081   2.536
 6455SOL    MW426141   2.468   7.006   2.558
 6456SOL     OW26142   2.714   6.169   2.689
 6456SOL    HW226143   2.654   6.187   2.761
 6456SOL    HW326144   2.748   6.081   2.708
 6456SOL    MW426145   2.710   6.159   2.702
 6457SOL     OW26146   3.655   5.668   3.358
 6457SOL    HW226147   3.576   5.714   3.386
 6457SOL    HW326148   3.690   5.722   3.287
 6457SOL    MW426149   3.649   5.681   3.352
 6458SOL     OW26150   2.939   6.752   2.708
 6458SOL    HW226151   3.031   6.733   2.726
 6458SOL    HW326152   2.912   6.682   2.648
 6458SOL    MW426153   2.947   6.740   2.702
 6459SOL     OW26154   2.732   6.572   2.063
 6459SOL    HW226155   2.718   6.484   2.028
 6459SOL    HW326156   2.683   6.629   2.004
 6459SOL    MW426157   2.724   6.567   2.051
 6460SOL     OW26158   3.213   6.990   2.804
 6460SOL    HW226159   3.186   7.074   2.769
 6460SOL    HW326160   3.173   6.985   2.891
 6460SOL    MW426161   3.206   6.999   2.810
 6461SOL     OW26162   2.145   6.296   2.842
 6461SOL    HW226163   2.095   6.295   2.923
 6461SOL    HW326164   2.165   6.388   2.826
 6461SOL    MW426165   2.141   6.308   2.850
 6462SOL     OW26166   3.212   7.060   3.604
 6462SOL    HW226167   3.212   7.154   3.620
 6462SOL    HW326168   3.257   7.050   3.520
 6462SOL    MW426169   3.218   7.070   3.595
 6463SOL     OW26170   3.451   5.778   2.165
 6463SOL    HW226171   3.444   5.782   2.260
 6463SOL    HW326172   3.463   5.869   2.138
 6463SOL    MW426173   3.452   5.791   2.173
 6464SOL     OW26174   2.740   6.341   2.279
 6464SOL    HW226175   2.720   6.327   2.186
 6464SOL    HW326176   2.833   6.320   2.286
 6464SOL    MW426177   2.750   6.336   2.268
 6465SOL     OW26178   2.067   5.964   3.583
 6465SOL    HW226179   2.024   6.023   3.520
 6465SOL    HW326180   2.135   6.019   3.623
 6465SOL    MW426181   2.071   5.979   3.580
 6466SOL     OW26182   3.179   6.584   3.128
 6466SOL    HW226183   3.242   6.581   3.201
 6466SOL    HW326184   3.095   6.602   3.170
 6466SOL    MW426185   3.175   6.586   3.143
 6467SOL     OW26186   2.723   7.299   2.317
 6467SOL    HW226187   2.781   7.370   2.344
 6467SOL    HW326188   2.746   7.227   2.375
 6467SOL    MW426189   2.734   7.299   2.328
 6468SOL     OW26190   3.518   5.761   2.907
 6468SOL    HW226191   3.563   5.679   2.926
 6468SOL    HW326192   3.538   5.817   2.983
 6468SOL    MW426193   3.528   5.757   2.919
 6469SOL     OW26194   1.966   5.604   3.006
 6469SOL    HW226195   1.957   5.605   2.911
 6469SOL    HW326196   2.060   5.616   3.021
 6469SOL    MW426197   1.978   5.607   2.997
 6470SOL     OW26198   3.603   6.797   2.626
 6470SOL    HW226199   3.582   6.743   2.549
 6470SOL    HW326200   3.699   6.795   2.630
 6470SOL    MW426201   3.612   6.790   2.615
 6471SOL     OW26202   2.295   6.942   3.369
 6471SOL    HW226203   2.216   6.892   3.392
 6471SOL    HW326204   2.365   6.901   3.419
 6471SOL    MW426205   2.293   6.930   3.379
 6472SOL     OW26206   2.179   5.731   2.052
 6472SOL    HW226207   2.108   5.786   2.020
 6472SOL    HW326208   2.221   5.697   1.973
 6472SOL    MW426209   2.175   5.733   2.038
 6473SOL     OW26210   3.303   6.228   2.888
 6473SOL    HW226211   3.226   6.274   2.854
 6473SOL    HW326212   3.360   6.297   2.922
 6473SOL    MW426213   3.300   6.243   2.888
 6474SOL     OW26214   1.935   5.830   1.901
 6474SOL    HW226215   1.902   5.909   1.945
 6474SOL    HW326216   1.990   5.863   1.830
 6474SOL    MW426217   1.938   5.844   1.898
 6475SOL     OW26218   1.969   7.087   2.090
 6475SOL    HW226219   1.986   7.171   2.132
 6475SOL    HW326220   2.004   7.096   2.002
 6475SOL    MW426221   1.974   7.100   2.084
 6476SOL     OW26222   3.241   7.176   2.307
 6476SOL    HW226223   3.304   7.166   2.236
 6476SOL    HW326224   3.158   7.196   2.262
 6476SOL    MW426225   3.238   7.177   2.292
 6477SOL     OW26226   3.604   6.444   3.993
 6477SOL    HW226227   3.645   6.386   4.058
 6477SOL    HW326228   3.511   6.436   4.010
 6477SOL    MW426229   3.598   6.436   4.003
 6478SOL     OW26230   3.470   6.376   4.988
 6478SOL    HW226231   3.425   6.443   5.039
 6478SOL    HW326232   3.558   6.412   4.974
 6478SOL    MW426233   3.476   6.389   4.992
 6479SOL     OW26234   2.398   6.627   4.222
 6479SOL    HW226235   2.488   6.602   4.206
 6479SOL    HW326236   2.394   6.720   4.199
 6479SOL    MW426237   2.410   6.636   4.217
 6480SOL     OW26238   3.514   7.330   4.364
 6480SOL    HW226239   3.526   7.276   4.442
 6480SOL    HW326240   3.551   7.278   4.293
 6480SOL    MW426241   3.520   7.315   4.365
 6481SOL     OW26242   2.893   7.215   5.365
 6481SOL    HW226243   2.934   7.251   5.286
 6481SOL    HW326244   2.928   7.126   5.372
 6481SOL    MW426245   2.904   7.208   5.356
 6482SOL     OW26246   2.682   6.083   4.235
 6482SOL    HW226247   2.657   6.171   4.263
 6482SOL    HW326248   2.679   6.086   4.139
 6482SOL    MW426249   2.678   6.095   4.227
 6483SOL     OW26250   2.124   6.111   4.163
 6483SOL    HW226251   2.156   6.199   4.145
 6483SOL    HW326252   2.112   6.109   4.258
 6483SOL    MW426253   2.127   6.123   4.175
 6484SOL     OW26254   2.202   6.524   5.064
 6484SOL    HW226255   2.265   6.471   5.015
 6484SOL    HW326256   2.183   6.598   5.007
 6484SOL    MW426257   2.208   6.526   5.051
 6485SOL     OW26258   2.523   5.866   4.250
 6485SOL    HW226259   2.581   5.942   4.252
 6485SOL    HW326260   2.458   5.887   4.183
 6485SOL    MW426261   2.522   5.878   4.241
 6486SOL     OW26262   2.610   6.793   4.425
 6486SOL    HW226263   2.690   6.796   4.477
 6486SOL    HW326264   2.638   6.760   4.339
 6486SOL    MW426265   2.624   6.789   4.420
 6487SOL     OW26266   2.635   7.134   5.328
 6487SOL    HW226267   2.719   7.160   5.367
 6487SOL    HW326268   2.659   7.078   5.254
 6487SOL    MW426269   2.649   7.130   5.323
 6488SOL     OW26270   2.387   6.297   4.416
 6488SOL    HW226271   2.372   6.217   4.467
 6488SOL    HW326272   2.469   6.332   4.450
 6488SOL    MW426273   2.395   6.289   4.428
 6489SOL     OW26274   2.724   6.983   5.101
 6489SOL    HW226275   2.688   7.049   5.041
 6489SOL    HW326276   2.652   6.921   5.114
 6489SOL    MW426277   2.710   6.983   5.095
 6490SOL     OW26278   2.529   6.123   4.793
 6490SOL    HW226279   2.435   6.119   4.811
 6490SOL    HW326280   2.559   6.032   4.802
 6490SOL    MW426281   2.520   6.111   4.796
 6491SOL     OW26282   2.275   6.537   4.697
 6491SOL    HW226283   2.230   6.544   4.613
 6491SOL    HW326284   2.255   6.620   4.741
 6491SOL    MW426285   2.267   6.549   4.691
 6492SOL     OW26286   1.972   7.383   4.572
 6492SOL    HW226287   2.061   7.375   4.607
 6492SOL    HW326288   1.936   7.295   4.577
 6492SOL    MW426289   1.979   7.370   4.577
 6493SOL     OW26290   3.237   6.775   3.941
 6493SOL    HW226291   3.155   6.811   3.907
 6493SOL    HW326292   3.305   6.818   3.890
 6493SOL    MW426293   3.235   6.785   3.929
 6494SOL     OW26294   2.236   6.910   4.607
 6494SOL    HW226295   2.212   6.963   4.683
 6494SOL    HW326296   2.292   6.968   4.555
 6494SOL    MW426297   2.240   6.925   4.610
 6495SOL     OW26298   2.206   7.206   5.202
 6495SOL    HW226299   2.114   7.182   5.187
 6495SOL    HW326300   2.250   7.123   5.219
 6495SOL    MW426301   2.200   7.191   5.201
 6496SOL     OW26302   2.789   6.916   4.134
 6496SOL    HW226303   2.766   6.978   4.202
 6496SOL    HW326304   2.746   6.834   4.160
 6496SOL    MW426305   2.781   6.912   4.145
 6497SOL     OW26306   3.662   5.917   4.590
 6497SOL    HW226307   3.599   5.897   4.659
 6497SOL    HW326308   3.652   5.846   4.527
 6497SOL    MW426309   3.652   5.904   4.591
 6498SOL     OW26310   2.286   5.889   4.102
 6498SOL    HW226311   2.260   5.851   4.018
 6498SOL    HW326312   2.223   5.959   4.118
 6498SOL    MW426313   2.275   5.892   4.093
 6499SOL     OW26314   2.121   6.850   4.139
 6499SOL    HW226315   2.069   6.918   4.095
 6499SOL    HW326316   2.118   6.776   4.079
 6499SOL    MW426317   2.113   6.849   4.126
 6500SOL     OW26318   2.783   7.313   3.917
 6500SOL    HW226319   2.738   7.329   4.000
 6500SOL    HW326320   2.714   7.278   3.859
 6500SOL    MW426321   2.769   7.310   3.919
 6501SOL     OW26322   3.718   6.086   3.892
 6501SOL    HW226323   3.627   6.088   3.920
 6501SOL    HW326324   3.763   6.148   3.950
 6501SOL    MW426325   3.711   6.094   3.902
 6502SOL     OW26326   3.463   6.689   4.242
 6502SOL    HW226327   3.373   6.689   4.277
 6502SOL    HW326328   3.456   6.735   4.159
 6502SOL    MW426329   3.450   6.695   4.236
 6503SOL     OW26330   3.263   6.324   5.314
 6503SOL    HW226331   3.332   6.262   5.291
 6503SOL    HW326332   3.188   6.298   5.261
 6503SOL    MW426333   3.263   6.311   5.305
 6504SOL     OW26334   2.004   7.204   4.866
 6504SOL    HW226335   1.987   7.150   4.943
 6504SOL    HW326336   1.992   7.294   4.896
 6504SOL    MW426337   2.001   7.208   4.880
 6505SOL     OW26338   2.795   6.135   5.507
 6505SOL    HW226339   2.885   6.136   5.474
 6505SOL    HW326340   2.754   6.060   5.465
 6505SOL    MW426341   2.801   6.125   5.498
 6506SOL     OW26342   3.370   6.667   4.634
 6506SOL    HW226343   3.373   6.601   4.565
 6506SOL    HW326344   3.455   6.710   4.630
 6506SOL    MW426345   3.382   6.663   4.625
 6507SOL     OW26346   2.990   6.270   4.203
 6507SOL    HW226347   3.016   6.294   4.114
 6507SOL    HW326348   2.972   6.177   4.199
 6507SOL    MW426349   2.992   6.262   4.190
 6508SOL     OW26350   3.655   6.890   4.054
 6508SOL    HW226351   3.611   6.931   4.129
 6508SOL    HW326352   3.712   6.958   4.019
 6508SOL    MW426353   3.657   6.904   4.059
 6509SOL     OW26354   2.575   5.939   5.457
 6509SOL    HW226355   2.585   5.865   5.397
 6509SOL    HW326356   2.611   5.908   5.540
 6509SOL    MW426357   2.581   5.925   5.459
 6510SOL     OW26358   2.311   7.306   4.372
 6510SOL    HW226359   2.343   7.394   4.350
 6510SOL    HW326360   2.264   7.278   4.294
 6510SOL    MW426361   2.310   7.314   4.359
 6511SOL     OW26362   3.695   5.668   4.421
 6511SOL    HW226363   3.749   5.619   4.483
 6511SOL    HW326364   3.638   5.602   4.382
 6511SOL    MW426365   3.695   5.652   4.423
 6512SOL     OW26366   2.027   7.366   3.949
 6512SOL    HW226367   2.056   7.456   3.941
 6512SOL    HW326368   1.977   7.349   3.870
 6512SOL    MW426369   2.025   7.374   3.938
 6513SOL     OW26370   2.814   5.621   4.834
 6513SOL    HW226371   2.773   5.699   4.796
 6513SOL    HW326372   2.908   5.639   4.829
 6513SOL    MW426373   2.820   5.633   4.829
 6514SOL     OW26374   3.431   7.174   3.920
 6514SOL    HW226375   3.479   7.243   3.966
 6514SOL    HW326376   3.352   7.218   3.889
 6514SOL    MW426377   3.426   7.188   3.923
 6515SOL     OW26378   2.829   6.299   3.864
 6515SOL    HW226379   2.831   6.246   3.785
 6515SOL    HW326380   2.917   6.336   3.870
 6515SOL    MW426381   2.841   6.298   3.853
 6516SOL     OW26382   3.443   6.225   4.200
 6516SOL    HW226383   3.482   6.225   4.287
 6516SOL    HW326384   3.384   6.301   4.200
 6516SOL    MW426385   3.440   6.236   4.211
 6517SOL     OW26386   2.840   5.729   5.089
 6517SOL    HW226387   2.846   5.691   5.002
 6517SOL    HW326388   2.829   5.823   5.074
 6517SOL    MW426389   2.841   5.737   5.077
 6518SOL     OW26390   2.929   6.218   4.923
 6518SOL    HW226391   3.004   6.247   4.870
 6518SOL    HW326392   2.861   6.283   4.907
 6518SOL    MW426393   2.930   6.230   4.913
 6519SOL     OW26394   3.479   6.186   5.200
 6519SOL    HW226395   3.460   6.095   5.179
 6519SOL    HW326396   3.457   6.235   5.121
 6519SOL    MW426397   3.474   6.179   5.187
 6520SOL     OW26398   3.621   7.280   5.104
 6520SOL    HW226399   3.549   7.242   5.155
 6520SOL    HW326400   3.638   7.365   5.145
 6520SOL    MW426401   3.615   7.285   5.116
 6521SOL     OW26402   2.926   5.924   5.306
 6521SOL    HW226403   2.892   5.963   5.225
 6521SOL    HW326404   2.904   5.832   5.299
 6521SOL    MW426405   2.919   5.917   5.296
 6522SOL     OW26406   3.630   6.111   4.366
 6522SOL    HW226407   3.719   6.080   4.383
 6522SOL    HW326408   3.573   6.051   4.414
 6522SOL    MW426409   3.633   6.099   4.375
 6523SOL     OW26410   2.056   5.825   4.395
 6523SOL    HW226411   2.047   5.765   4.321
 6523SOL    HW326412   1.989   5.796   4.458
 6523SOL    MW426413   2.046   5.812   4.393
 6524SOL     OW26414   2.999   6.918   3.956
 6524SOL    HW226415   2.949   6.920   4.038
 6524SOL    HW326416   2.933   6.936   3.888
 6524SOL    MW426417   2.985   6.920   3.958
 6525SOL     OW26418   2.003   5.998   4.758
 6525SOL    HW226419   1.975   6.089   4.767
 6525SOL    HW326420   1.940   5.959   4.697
 6525SOL    MW426421   1.990   6.004   4.752
 6526SOL     OW26422   2.462   7.336   4.064
 6526SOL    HW226423   2.383   7.294   4.097
 6526SOL    HW326424   2.528   7.319   4.131
 6526SOL    MW426425   2.461   7.328   4.077
 6527SOL     OW26426   3.590   6.856   5.461
 6527SOL    HW226427   3.640   6.782   5.493
 6527SOL    HW326428   3.536   6.883   5.536
 6527SOL    MW426429   3.590   6.850   5.474
 6528SOL     OW26430   2.598   6.751   3.771
 6528SOL    HW226431   2.520   6.697   3.758
 6528SOL    HW326432   2.569   6.824   3.824
 6528SOL    MW426433   2.584   6.753   3.776
 6529SOL     OW26434   3.516   7.200   4.632
 6529SOL    HW226435   3.545   7.267   4.693
 6529SOL    HW326436   3.497   7.124   4.687
 6529SOL    MW426437   3.518   7.200   4.647
 6530SOL     OW26438   3.179   7.267   3.839
 6530SOL    HW226439   3.105   7.230   3.889
 6530SOL    HW326440   3.187   7.357   3.872
 6530SOL    MW426441   3.170   7.274   3.851
 6531SOL     OW26442   1.987   6.273   4.928
 6531SOL    HW226443   2.049   6.303   4.994
 6531SOL    HW326444   1.921   6.342   4.922
 6531SOL    MW426445   1.986   6.286   4.935
 6532SOL     OW26446   3.403   6.941   3.781
 6532SOL    HW226447   3.350   6.990   3.717
 6532SOL    HW326448   3.434   7.007   3.842
 6532SOL    MW426449   3.401   6.955   3.779
 6533SOL     OW26450   2.628   5.830   3.836
 6533SOL    HW226451   2.576   5.750   3.824
 6533SOL    HW326452   2.715   5.807   3.804
 6533SOL    MW426453   2.631   5.816   3.830
 6534SOL     OW26454   2.082   7.382   5.380
 6534SOL    HW226455   2.056   7.450   5.318
 6534SOL    HW326456   2.130   7.319   5.328
 6534SOL    MW426457   2.084   7.382   5.366
 6535SOL     OW26458   2.134   6.701   4.887
 6535SOL    HW226459   2.187   6.776   4.912
 6535SOL    HW326460   2.053   6.739   4.853
 6535SOL    MW426461   2.130   6.716   4.887
 6536SOL     OW26462   2.674   6.605   4.875
 6536SOL    HW226463   2.702   6.514   4.887
 6536SOL    HW326464   2.603   6.599   4.811
 6536SOL    MW426465   2.667   6.593   4.870
 6537SOL     OW26466   1.989   6.470   4.293
 6537SOL    HW226467   2.080   6.485   4.320
 6537SOL    HW326468   1.992   6.391   4.239
 6537SOL    MW426469   2.001   6.462   4.291
 6538SOL     OW26470   2.225   6.178   5.547
 6538SOL    HW226471   2.172   6.258   5.554
 6538SOL    HW326472   2.295   6.190   5.612
 6538SOL    MW426473   2.227   6.191   5.555
 6539SOL     OW26474   2.611   5.728   5.254
 6539SOL    HW226475   2.588   5.636   5.256
 6539SOL    HW326476   2.697   5.730   5.211
 6539SOL    MW426477   2.618   5.718   5.250
 6540SOL     OW26478   2.295   6.252   5.293
 6540SOL    HW226479   2.375   6.302   5.279
 6540SOL    HW326480   2.286   6.246   5.388
 6540SOL    MW426481   2.304   6.258   5.303
 6541SOL     OW26482   2.616   7.402   4.667
 6541SOL    HW226483   2.705   7.417   4.697
 6541SOL    HW326484   2.611   7.449   4.583
 6541SOL    MW426485   2.626   7.410   4.660
 6542SOL     OW26486   3.272   5.777   5.564
 6542SOL    HW226487   3.328   5.704   5.590
 6542SOL    HW326488   3.242   5.815   5.646
 6542SOL    MW426489   3.276   5.772   5.577
 6543SOL     OW26490   1.997   7.082   4.332
 6543SOL    HW226491   1.969   7.121   4.414
 6543SOL    HW326492   2.017   6.991   4.354
 6543SOL    MW426493   1.995   7.074   4.345
 6544SOL     OW26494   2.830   7.125   4.367
 6544SOL    HW226495   2.913   7.079   4.351
 6544SOL    HW326496   2.820   7.124   4.463
 6544SOL    MW426497   2.840   7.118   4.377
 6545SOL     OW26498   3.662   6.270   4.681
 6545SOL    HW226499   3.751   6.300   4.663
 6545SOL    HW326500   3.642   6.210   4.610
 6545SOL    MW426501   3.671   6.267   4.670
 6546SOL     OW26502   3.513   6.449   5.561
 6546SOL    HW226503   3.568   6.373   5.542
 6546SOL    HW326504   3.515   6.457   5.656
 6546SOL    MW426505   3.521   6.440   5.569
 6547SOL     OW26506   2.563   7.182   3.772
 6547SOL    HW226507   2.503   7.251   3.742
 6547SOL    HW326508   2.508   7.124   3.825
 6547SOL    MW426509   2.547   7.184   3.774
 6548SOL     OW26510   3.001   5.827   3.995
 6548SOL    HW226511   2.934   5.803   3.932
 6548SOL    HW326512   3.066   5.876   3.944
 6548SOL    MW426513   3.001   5.829   3.980
 6549SOL     OW26514   2.808   6.011   5.080
 6549SOL    HW226515   2.727   6.052   5.108
 6549SOL    HW326516   2.855   6.079   5.032
 6549SOL    MW426517   2.803   6.026   5.078
 6550SOL     OW26518   3.068   6.349   4.703
 6550SOL    HW226519   3.081   6.443   4.713
 6550SOL    HW326520   3.029   6.339   4.617
 6550SOL    MW426521   3.064   6.360   4.693
 6551SOL     OW26522   2.520   6.544   4.507
 6551SOL    HW226523   2.431   6.535   4.540
 6551SOL    HW326524   2.524   6.634   4.475
 6551SOL    MW426525   2.509   6.555   4.507
 6552SOL     OW26526   3.319   6.127   4.502
 6552SOL    HW226527   3.264   6.048   4.501
 6552SOL    HW326528   3.301   6.168   4.586
 6552SOL    MW426529   3.309   6.122   4.511
 6553SOL     OW26530   2.290   5.814   5.319
 6553SOL    HW226531   2.211   5.832   5.371
 6553SOL    HW326532   2.285   5.876   5.246
 6553SOL    MW426533   2.280   5.824   5.316
 6554SOL     OW26534   2.938   6.331   4.459
 6554SOL    HW226535   2.875   6.263   4.483
 6554SOL    HW326536   2.958   6.312   4.367
 6554SOL    MW426537   2.932   6.318   4.451
 6555SOL     OW26538   2.194   7.226   4.161
 6555SOL    HW226539   2.155   7.273   4.087
 6555SOL    HW326540   2.128   7.161   4.186
 6555SOL    MW426541   2.181   7.224   4.155
 6556SOL     OW26542   2.686   6.635   4.185
 6556SOL    HW226543   2.688   6.609   4.092
 6556SOL    HW326544   2.744   6.572   4.228
 6556SOL    MW426545   2.694   6.624   4.179
 6557SOL     OW26546   3.239   7.195   4.957
 6557SOL    HW226547   3.164   7.241   4.995
 6557SOL    HW326548   3.221   7.102   4.974
 6557SOL    MW426549   3.228   7.189   4.965
 6558SOL     OW26550   3.196   5.879   4.518
 6558SOL    HW226551   3.224   5.811   4.579
 6558SOL    HW326552   3.110   5.850   4.488
 6558SOL    MW426553   3.189   5.866   4.522
 6559SOL     OW26554   2.001   6.813   4.452
 6559SOL    HW226555   2.065   6.845   4.515
 6559SOL    HW326556   2.050   6.749   4.400
 6559SOL    MW426557   2.016   6.809   4.453
 6560SOL     OW26558   2.501   6.889   5.434
 6560SOL    HW226559   2.549   6.972   5.421
 6560SOL    HW326560   2.558   6.837   5.490
 6560SOL    MW426561   2.515   6.893   5.440
 6561SOL     OW26562   3.176   5.983   3.853
 6561SOL    HW226563   3.149   6.049   3.789
 6561SOL    HW326564   3.246   6.026   3.903
 6561SOL    MW426565   3.181   5.996   3.850
 6562SOL     OW26566   2.844   5.688   3.790
 6562SOL    HW226567   2.900   5.680   3.712
 6562SOL    HW326568   2.821   5.598   3.812
 6562SOL    MW426569   2.849   5.675   3.783
 6563SOL     OW26570   3.349   6.539   3.995
 6563SOL    HW226571   3.316   6.628   3.985
 6563SOL    HW326572   3.314   6.510   4.080
 6563SOL    MW426573   3.339   6.548   4.006
 6564SOL     OW26574   2.962   6.968   5.183
 6564SOL    HW226575   2.873   6.974   5.151
 6564SOL    HW326576   3.006   7.047   5.151
 6564SOL    MW426577   2.957   6.978   5.175
 6565SOL     OW26578   2.255   5.636   5.525
 6565SOL    HW226579   2.183   5.601   5.473
 6565SOL    HW326580   2.313   5.677   5.460
 6565SOL    MW426581   2.253   5.637   5.510
 6566SOL     OW26582   2.279   7.126   4.824
 6566SOL    HW226583   2.324   7.188   4.881
 6566SOL    HW326584   2.186   7.145   4.837
 6566SOL    MW426585   2.272   7.136   4.831
 6567SOL     OW26586   2.701   7.194   4.932
 6567SOL    HW226587   2.725   7.183   4.841
 6567SOL    HW326588   2.624   7.251   4.930
 6567SOL    MW426589   2.693   7.199   4.921
 6568SOL     OW26590   2.343   6.577   3.787
 6568SOL    HW226591   2.266   6.590   3.843
 6568SOL    HW326592   2.307   6.541   3.706
 6568SOL    MW426593   2.329   6.573   3.784
 6569SOL     OW26594   2.996   6.550   4.030
 6569SOL    HW226595   2.906   6.571   4.005
 6569SOL    HW326596   3.023   6.623   4.086
 6569SOL    MW426597   2.988   6.562   4.033
 6570SOL     OW26598   2.496   6.899   4.722
 6570SOL    HW226599   2.489   6.878   4.816
 6570SOL    HW326600   2.414   6.867   4.685
 6570SOL    MW426601   2.484   6.893   4.729
 6571SOL     OW26602   3.360   5.909   5.124
 6571SOL    HW226603   3.307   5.911   5.204
 6571SOL    HW326604   3.345   5.822   5.087
 6571SOL    MW426605   3.352   5.899   5.129
 6572SOL     OW26606   3.696   5.833   4.997
 6572SOL    HW226607   3.677   5.900   4.932
 6572SOL    HW326608   3.753   5.771   4.952
 6572SOL    MW426609   3.700   5.834   4.983
 6573SOL     OW26610   1.942   6.991   5.385
 6573SOL    HW226611   1.986   6.924   5.331
 6573SOL    HW326612   1.857   6.953   5.405
 6573SOL    MW426613   1.937   6.977   5.381
 6574SOL     OW26614   2.625   5.666   4.437
 6574SOL    HW226615   2.554   5.727   4.419
 6574SOL    HW326616   2.676   5.663   4.356
 6574SOL    MW426617   2.621   5.672   4.424
 6575SOL     OW26618   2.383   6.906   4.186
 6575SOL    HW226619   2.376   6.938   4.276
 6575SOL    HW326620   2.293   6.890   4.158
 6575SOL    MW426621   2.371   6.908   4.193
 6576SOL     OW26622   2.978   7.299   5.095
 6576SOL    HW226623   2.898   7.284   5.045
 6576SOL    HW326624   2.985   7.394   5.102
 6576SOL    MW426625   2.969   7.310   5.089
 6577SOL     OW26626   3.092   7.264   4.585
 6577SOL    HW226627   3.139   7.337   4.544
 6577SOL    HW326628   3.013   7.303   4.621
 6577SOL    MW426629   3.087   7.279   4.584
 6578SOL     OW26630   3.500   7.359   4.860
 6578SOL    HW226631   3.543   7.329   4.940
 6578SOL    HW326632   3.419   7.307   4.857
 6578SOL    MW426633   3.495   7.348   4.870
 6579SOL     OW26634   2.585   6.323   5.567
 6579SOL    HW226635   2.655   6.265   5.539
 6579SOL    HW326636   2.528   6.268   5.622
 6579SOL    MW426637   2.587   6.310   5.571
 6580SOL     OW26638   3.012   5.670   5.446
 6580SOL    HW226639   3.007   5.577   5.427
 6580SOL    HW326640   3.095   5.681   5.492
 6580SOL    MW426641   3.020   5.659   5.450
 6581SOL     OW26642   2.386   6.190   3.900
 6581SOL    HW226643   2.352   6.246   3.970
 6581SOL    HW326644   2.457   6.140   3.940
 6581SOL    MW426645   2.392   6.191   3.914
 6582SOL     OW26646   3.482   6.941   4.722
 6582SOL    HW226647   3.517   6.923   4.635
 6582SOL    HW326648   3.387   6.942   4.709
 6582SOL    MW426649   3.474   6.938   4.709
 6583SOL     OW26650   2.911   6.589   5.091
 6583SOL    HW226651   2.954   6.624   5.169
 6583SOL    HW326652   2.894   6.666   5.037
 6583SOL    MW426653   2.914   6.604   5.094
 6584SOL     OW26654   3.442   6.076   3.964
 6584SOL    HW226655   3.434   6.147   3.901
 6584SOL    HW326656   3.460   6.120   4.047
 6584SOL    MW426657   3.443   6.090   3.966
 6585SOL     OW26658   2.302   5.731   4.393
 6585SOL    HW226659   2.352   5.774   4.324
 6585SOL    HW326660   2.217   5.775   4.393
 6585SOL    MW426661   2.299   5.744   4.384
 6586SOL     OW26662   2.061   6.793   5.253
 6586SOL    HW226663   2.089   6.746   5.331
 6586SOL    HW326664   1.982   6.748   5.224
 6586SOL    MW426665   2.054   6.782   5.259
 6587SOL     OW26666   2.569   6.120   5.220
 6587SOL    HW226667   2.541   6.208   5.244
 6587SOL    HW326668   2.538   6.064   5.291
 6587SOL    MW426669   2.561   6.123   5.232
 6588SOL     OW26670   3.111   6.338   3.939
 6588SOL    HW226671   3.158   6.356   3.858
 6588SOL    HW326672   3.077   6.422   3.967
 6588SOL    MW426673   3.113   6.352   3.932
 6589SOL     OW26674   2.224   6.516   4.433
 6589SOL    HW226675   2.282   6.572   4.381
 6589SOL    HW326676   2.268   6.431   4.435
 6589SOL    MW426677   2.237   6.513   4.426
 6590SOL     OW26678   3.364   5.868   4.270
 6590SOL    HW226679   3.286   5.818   4.295
 6590SOL    HW326680   3.335   5.959   4.270
 6590SOL    MW426681   3.350   5.872   4.273
 6591SOL     OW26682   2.950   5.830   4.429
 6591SOL    HW226683   2.970   5.905   4.373
 6591SOL    HW326684   2.930   5.869   4.514
 6591SOL    MW426685   2.951   5.846   4.433
 6592SOL     OW26686   2.846   7.080   3.761
 6592SOL    HW226687   2.873   7.158   3.713
 6592SOL    HW326688   2.753   7.095   3.780
 6592SOL    MW426689   2.837   7.093   3.757
 6593SOL     OW26690   3.710   6.603   5.448
 6593SOL    HW226691   3.623   6.583   5.484
 6593SOL    HW326692   3.764   6.529   5.473
 6593SOL    MW426693   3.705   6.592   5.456
 6594SOL     OW26694   1.931   7.116   4.605
 6594SOL    HW226695   1.963   7.120   4.696
 6594SOL    HW326696   1.836   7.124   4.613
 6594SOL    MW426697   1.923   7.119   4.618
 6595SOL     OW26698   1.886   6.242   4.152
 6595SOL    HW226699   1.826   6.214   4.222
 6595SOL    HW326700   1.960   6.182   4.158
 6595SOL    MW426701   1.888   6.231   4.161
 6596SOL     OW26702   3.454   7.454   5.586
 6596SOL    HW226703   3.499   7.378   5.551
 6596SOL    HW326704   3.492   7.467   5.673
 6596SOL    MW426705   3.464   7.447   5.592
 6597SOL     OW26706   3.054   6.973   4.312
 6597SOL    HW226707   3.077   6.924   4.390
 6597SOL    HW326708   3.135   7.015   4.284
 6597SOL    MW426709   3.067   6.973   4.319
 6598SOL     OW26710   2.312   5.981   5.041
 6598SOL    HW226711   2.345   6.062   5.081
 6598SOL    HW326712   2.285   6.007   4.953
 6598SOL    MW426713   2.311   5.995   5.035
 6599SOL     OW26714   2.266   5.948   4.777
 6599SOL    HW226715   2.296   5.862   4.748
 6599SOL    HW326716   2.171   5.941   4.780
 6599SOL    MW426717   2.258   5.937   4.775
 6600SOL     OW26718   3.095   6.157   5.468
 6600SOL    HW226719   3.147   6.092   5.421
 6600SOL    HW326720   3.053   6.208   5.398
 6600SOL    MW426721   3.096   6.154   5.451
 6601SOL     OW26722   3.194   5.952   5.329
 6601SOL    HW226723   3.101   5.936   5.316
 6601SOL    HW326724   3.220   5.890   5.397
 6601SOL    MW426725   3.184   5.942   5.336
 6602SOL     OW26726   2.409   5.726   4.668
 6602SOL    HW226727   2.419   5.635   4.694
 6602SOL    HW326728   2.365   5.722   4.583
 6602SOL    MW426729   2.405   5.714   4.660
 6603SOL     OW26730   2.503   7.341   5.214
 6603SOL    HW226731   2.420   7.326   5.259
 6603SOL    HW326732   2.562   7.274   5.249
 6603SOL    MW426733   2.501   7.331   5.224
 6604SOL     OW26734   3.560   6.048   4.839
 6604SOL    HW226735   3.493   6.081   4.899
 6604SOL    HW326736   3.603   6.126   4.805
 6604SOL    MW426737   3.558   6.063   4.843
 6605SOL     OW26738   3.120   6.630   4.727
 6605SOL    HW226739   3.134   6.602   4.818
 6605SOL    HW326740   3.206   6.661   4.699
 6605SOL    MW426741   3.133   6.631   4.736
 6606SOL     OW26742   3.203   6.125   5.006
 6606SOL    HW226743   3.224   6.126   4.913
 6606SOL    HW326744   3.248   6.047   5.039
 6606SOL    MW426745   3.210   6.115   4.998
 6607SOL     OW26746   3.696   6.256   5.548
 6607SOL    HW226747   3.733   6.201   5.617
 6607SOL    HW326748   3.721   6.213   5.466
 6607SOL    MW426749   3.703   6.244   5.547
 6608SOL     OW26750   3.194   5.640   3.948
 6608SOL    HW226751   3.268   5.684   3.991
 6608SOL    HW326752   3.118   5.694   3.970
 6608SOL    MW426753   3.194   5.652   3.956
 6609SOL     OW26754   3.254   6.415   4.226
 6609SOL    HW226755   3.169   6.385   4.196
 6609SOL    HW326756   3.246   6.422   4.321
 6609SOL    MW426757   3.242   6.413   4.235
 6610SOL     OW26758   2.330   6.878   4.957
 6610SOL    HW226759   2.342   6.905   5.048
 6610SOL    HW326760   2.311   6.959   4.910
 6610SOL    MW426761   2.329   6.893   4.962
 6611SOL     OW26762   2.614   5.858   4.780
 6611SOL    HW226763   2.587   5.860   4.871
 6611SOL    HW326764   2.544   5.810   4.735
 6611SOL    MW426765   2.602   5.854   4.787
 6612SOL     OW26766   2.468   7.350   4.942
 6612SOL    HW226767   2.520   7.427   4.919
 6612SOL    HW326768   2.477   7.342   5.037
 6612SOL    MW426769   2.477   7.357   4.953
 6613SOL     OW26770   2.444   6.666   5.291
 6613SOL    HW226771   2.481   6.671   5.203
 6613SOL    HW326772   2.483   6.739   5.338
 6613SOL    MW426773   2.454   6.676   5.286
 6614SOL     OW26774   2.624   6.709   5.103
 6614SOL    HW226775   2.683   6.655   5.156
 6614SOL    HW326776   2.639   6.681   5.013
 6614SOL    MW426777   2.634   6.698   5.099
 6615SOL     OW26778   2.627   6.081   3.952
 6615SOL    HW226779   2.700   6.130   3.915
 6615SOL    HW326780   2.643   5.990   3.926
 6615SOL    MW426781   2.639   6.076   3.945
 6616SOL     OW26782   3.095   5.677   4.866
 6616SOL    HW226783   3.150   5.686   4.788
 6616SOL    HW326784   3.150   5.711   4.937
 6616SOL    MW426785   3.109   5.682   4.865
 6617SOL     OW26786   2.102   6.590   4.050
 6617SOL    HW226787   2.039   6.606   3.979
 6617SOL    HW326788   2.049   6.553   4.121
 6617SOL    MW426789   2.087   6.587   4.050
 6618SOL     OW26790   2.458   6.944   3.909
 6618SOL    HW226791   2.473   6.920   4.001
 6618SOL    HW326792   2.366   6.922   3.893
 6618SOL    MW426793   2.448   6.937   3.919
 6619SOL     OW26794   2.997   7.175   4.061
 6619SOL    HW226795   3.005   7.093   4.012
 6619SOL    HW326796   2.916   7.214   4.028
 6619SOL    MW426797   2.987   7.170   4.051
 6620SOL     OW26798   2.256   7.333   4.630
 6620SOL    HW226799   2.260   7.244   4.665
 6620SOL    HW326800   2.282   7.324   4.539
 6620SOL    MW426801   2.259   7.321   4.622
 6621SOL     OW26802   2.873   6.811   4.873
 6621SOL    HW226803   2.805   6.745   4.889
 6621SOL    HW326804   2.891   6.805   4.780
 6621SOL    MW426805   2.866   6.802   4.864
 6622SOL     OW26806   1.962   7.086   5.124
 6622SOL    HW226807   1.952   7.044   5.210
 6622SOL    HW326808   1.883   7.139   5.114
 6622SOL    MW426809   1.951   7.087   5.135
 6623SOL     OW26810   2.866   5.950   4.694
 6623SOL    HW226811   2.796   5.902   4.739
 6623SOL    HW326812   2.898   6.013   4.758
 6623SOL    MW426813   2.861   5.952   4.708
 6624SOL     OW26814   2.517   6.386   5.314
 6624SOL    HW226815   2.510   6.481   5.302
 6624SOL    HW326816   2.526   6.375   5.409
 6624SOL    MW426817   2.518   6.398   5.324
 6625SOL     OW26818   2.238   6.901   5.572
 6625SOL    HW226819   2.310   6.903   5.509
 6625SOL    HW326820   2.208   6.810   5.571
 6625SOL    MW426821   2.243   6.890   5.564
 6626SOL     OW26822   3.322   5.664   5.039
 6626SOL    HW226823   3.393   5.610   5.003
 6626SOL    HW326824   3.321   5.643   5.132
 6626SOL    MW426825   3.331   5.655   5.047
 6627SOL     OW26826   3.522   7.194   5.523
 6627SOL    HW226827   3.495   7.191   5.614
 6627SOL    HW326828   3.618   7.198   5.526
 6627SOL    MW426829   3.532   7.194   5.535
 6628SOL     OW26830   2.333   6.056   4.507
 6628SOL    HW226831   2.404   6.004   4.470
 6628SOL    HW326832   2.319   6.021   4.594
 6628SOL    MW426833   2.341   6.045   4.514
 6629SOL     OW26834   1.888   7.391   5.579
 6629SOL    HW226835   1.938   7.369   5.501
 6629SOL    HW326836   1.896   7.486   5.587
 6629SOL    MW426837   1.896   7.400   5.570
 6630SOL     OW26838   2.649   7.149   4.583
 6630SOL    HW226839   2.577   7.086   4.596
 6630SOL    HW326840   2.610   7.234   4.601
 6630SOL    MW426841   2.633   7.152   4.586
 6631SOL     OW26842   2.969   5.997   4.231
 6631SOL    HW226843   2.991   5.934   4.163
 6631SOL    HW326844   2.874   5.989   4.242
 6631SOL    MW426845   2.959   5.988   4.223
 6632SOL     OW26846   2.054   5.687   4.163
 6632SOL    HW226847   2.125   5.708   4.102
 6632SOL    HW326848   2.008   5.615   4.121
 6632SOL    MW426849   2.058   5.681   4.149
 6633SOL     OW26850   1.885   6.154   5.306
 6633SOL    HW226851   1.949   6.220   5.281
 6633SOL    HW326852   1.804   6.181   5.263
 6633SOL    MW426853   1.883   6.166   5.298
 6634SOL     OW26854   3.623   7.061   4.263
 6634SOL    HW226855   3.593   6.994   4.324
 6634SOL    HW326856   3.717   7.067   4.277
 6634SOL    MW426857   3.631   7.053   4.273
 6635SOL     OW26858   3.179   6.738   4.193
 6635SOL    HW226859   3.151   6.824   4.226
 6635SOL    HW326860   3.207   6.754   4.103
 6635SOL    MW426861   3.179   6.752   4.185
 6636SOL     OW26862   2.841   5.658   4.246
 6636SOL    HW226863   2.878   5.717   4.311
 6636SOL    HW326864   2.818   5.714   4.172
 6636SOL    MW426865   2.842   5.673   4.245
 6637SOL     OW26866   2.070   6.380   5.247
 6637SOL    HW226867   2.091   6.449   5.185
 6637SOL    HW326868   2.150   6.327   5.252
 6637SOL    MW426869   2.083   6.381   5.241
 6638SOL     OW26870   3.606   6.471   4.369
 6638SOL    HW226871   3.700   6.460   4.357
 6638SOL    HW326872   3.582   6.543   4.310
 6638SOL    MW426873   3.616   6.479   4.360
 6639SOL     OW26874   2.055   6.395   5.514
 6639SOL    HW226875   1.981   6.339   5.540
 6639SOL    HW326876   2.050   6.398   5.419
 6639SOL    MW426877   2.044   6.388   5.504
 6640SOL     OW26878   2.221   5.682   4.964
 6640SOL    HW226879   2.264   5.766   4.984
 6640SOL    HW326880   2.294   5.620   4.957
 6640SOL    MW426881   2.236   5.685   4.965
 6641SOL     OW26882   2.262   6.349   4.142
 6641SOL    HW226883   2.262   6.444   4.127
 6641SOL    HW326884   2.339   6.333   4.196
 6641SOL    MW426885   2.272   6.360   4.147
 6642SOL     OW26886   3.038   6.208   5.206
 6642SOL    HW226887   3.074   6.181   5.122
 6642SOL    HW326888   2.951   6.242   5.185
 6642SOL    MW426889   3.032   6.209   5.193
 6643SOL     OW26890   2.021   6.080   4.431
 6643SOL    HW226891   2.083   6.087   4.504
 6643SOL    HW326892   2.021   5.987   4.408
 6643SOL    MW426893   2.029   6.069   4.438
 6644SOL     OW26894   3.568   7.420   3.963
 6644SOL    HW226895   3.635   7.453   3.903
 6644SOL    HW326896   3.525   7.499   3.997
 6644SOL    MW426897   3.570   7.435   3.959
 6645SOL     OW26898   2.703   6.341   4.915
 6645SOL    HW226899   2.661   6.259   4.891
 6645SOL    HW326900   2.704   6.340   5.011
 6645SOL    MW426901   2.696   6.330   4.924
 6646SOL     OW26902   3.374   7.474   5.314
 6646SOL    HW226903   3.377   7.380   5.297
 6646SOL    HW326904   3.397   7.482   5.406
 6646SOL    MW426905   3.377   7.462   5.324
 6647SOL     OW26906   2.507   5.811   5.020
 6647SOL    HW226907   2.438   5.874   5.041
 6647SOL    HW326908   2.534   5.775   5.105
 6647SOL    MW426909   2.501   5.814   5.033
 6648SOL     OW26910   1.890   6.652   3.889
 6648SOL    HW226911   1.859   6.717   3.952
 6648SOL    HW326912   1.839   6.574   3.908
 6648SOL    MW426913   1.880   6.649   3.899
 6649SOL     OW26914   3.302   5.664   4.637
 6649SOL    HW226915   3.390   5.673   4.674
 6649SOL    HW326916   3.312   5.605   4.563
 6649SOL    MW426917   3.316   5.658   4.631
 6650SOL     OW26918   3.334   6.403   4.481
 6650SOL    HW226919   3.414   6.418   4.430
 6650SOL    HW326920   3.327   6.308   4.487
 6650SOL    MW426921   3.343   6.392   4.476
 6651SOL     OW26922   2.474   7.452   3.831
 6651SOL    HW226923   2.379   7.452   3.823
 6651SOL    HW326924   2.490   7.398   3.909
 6651SOL    MW426925   2.464   7.446   3.840
 6652SOL     OW26926   2.784   6.329   5.178
 6652SOL    HW226927   2.853   6.396   5.175
 6652SOL    HW326928   2.717   6.367   5.234
 6652SOL    MW426929   2.785   6.342   5.185
 6653SOL     OW26930   2.202   6.629   5.426
 6653SOL    HW226931   2.156   6.545   5.428
 6653SOL    HW326932   2.259   6.623   5.350
 6653SOL    MW426933   2.204   6.617   5.418
 6654SOL     OW26934   3.319   6.272   3.747
 6654SOL    HW226935   3.247   6.248   3.689
 6654SOL    HW326936   3.385   6.309   3.689
 6654SOL    MW426937   3.318   6.274   3.732
 6655SOL     OW26938   2.453   7.004   4.427
 6655SOL    HW226939   2.518   6.937   4.448
 6655SOL    HW326940   2.505   7.081   4.404
 6655SOL    MW426941   2.468   7.006   4.426
 6656SOL     OW26942   2.714   6.169   4.557
 6656SOL    HW226943   2.654   6.187   4.629
 6656SOL    HW326944   2.748   6.081   4.576
 6656SOL    MW426945   2.710   6.159   4.570
 6657SOL     OW26946   3.655   5.668   5.226
 6657SOL    HW226947   3.576   5.714   5.254
 6657SOL    HW326948   3.690   5.722   5.155
 6657SOL    MW426949   3.649   5.681   5.220
 6658SOL     OW26950   2.939   6.752   4.576
 6658SOL    HW226951   3.031   6.733   4.594
 6658SOL    HW326952   2.912   6.682   4.516
 6658SOL    MW426953   2.947   6.740   4.570
 6659SOL     OW26954   2.732   6.572   3.931
 6659SOL    HW226955   2.718   6.484   3.896
 6659SOL    HW326956   2.683   6.629   3.872
 6659SOL    MW426957   2.724   6.567   3.919
 6660SOL     OW26958   3.213   6.990   4.672
 6660SOL    HW226959   3.186   7.074   4.637
 6660SOL    HW326960   3.173   6.985   4.759
 6660SOL    MW426961   3.206   6.999   4.678
 6661SOL     OW26962   2.145   6.296   4.710
 6661SOL    HW226963   2.095   6.295   4.791
 6661SOL    HW326964   2.165   6.388   4.694
 6661SOL    MW426965   2.141   6.308   4.718
 6662SOL     OW26966   3.212   7.060   5.472
 6662SOL    HW226967   3.212   7.154   5.488
 6662SOL    HW326968   3.257   7.050   5.388
 6662SOL    MW426969   3.218   7.070   5.463
 6663SOL     OW26970   3.451   5.778   4.033
 6663SOL    HW226971   3.444   5.782   4.128
 6663SOL    HW326972   3.463   5.869   4.006
 6663SOL    MW426973   3.452   5.791   4.041
 6664SOL     OW26974   2.740   6.341   4.147
 6664SOL    HW226975   2.720   6.327   4.054
 6664SOL    HW326976   2.833   6.320   4.154
 6664SOL    MW426977   2.750   6.336   4.136
 6665SOL     OW26978   2.067   5.964   5.451
 6665SOL    HW226979   2.024   6.023   5.388
 6665SOL    HW326980   2.135   6.019   5.491
 6665SOL    MW426981   2.071   5.979   5.448
 6666SOL     OW26982   2.723   7.299   4.185
 6666SOL    HW226983   2.781   7.370   4.212
 6666SOL    HW326984   2.746   7.227   4.243
 6666SOL    MW426985   2.734   7.299   4.196
 6667SOL     OW26986   3.518   5.761   4.775
 6667SOL    HW226987   3.563   5.679   4.794
 6667SOL    HW326988   3.538   5.817   4.851
 6667SOL    MW426989   3.528   5.757   4.787
 6668SOL     OW26990   1.966   5.604   4.874
 6668SOL    HW226991   1.957   5.605   4.779
 6668SOL    HW326992   2.060   5.616   4.889
 6668SOL    MW426993   1.978   5.607   4.865
 6669SOL     OW26994   3.603   6.797   4.494
 6669SOL    HW226995   3.582   6.743   4.417
 6669SOL    HW326996   3.699   6.795   4.498
 6669SOL    MW426997   3.612   6.790   4.483
 6670SOL     OW26998   2.295   6.942   5.237
 6670SOL    HW226999   2.216   6.892   5.260
 6670SOL    HW327000   2.365   6.901   5.287
 6670SOL    MW427001   2.293   6.930   5.247
 6671SOL     OW27002   2.179   5.731   3.920
 6671SOL    HW227003   2.108   5.786   3.888
 6671SOL    HW327004   2.221   5.697   3.841
 6671SOL    MW427005   2.175   5.733   3.906
 6672SOL     OW27006   3.303   6.228   4.756
 6672SOL    HW227007   3.226   6.274   4.722
 6672SOL    HW327008   3.360   6.297   4.790
 6672SOL    MW427009   3.300   6.243   4.756
 6673SOL     OW27010   1.935   5.830   3.769
 6673SOL    HW227011   1.902   5.909   3.813
 6673SOL    HW327012   1.990   5.863   3.698
 6673SOL    MW427013   1.938   5.844   3.766
 6674SOL     OW27014   1.969   7.087   3.958
 6674SOL    HW227015   1.986   7.171   4.000
 6674SOL    HW327016   2.004   7.096   3.870
 6674SOL    MW427017   1.974   7.100   3.952
 6675SOL     OW27018   3.241   7.176   4.175
 6675SOL    HW227019   3.304   7.166   4.104
 6675SOL    HW327020   3.158   7.196   4.130
 6675SOL    MW427021   3.238   7.177   4.160
 6676SOL     OW27022   3.604   6.444   5.862
 6676SOL    HW227023   3.645   6.386   5.927
 6676SOL    HW327024   3.511   6.436   5.879
 6676SOL    MW427025   3.598   6.436   5.872
 6677SOL     OW27026   3.470   6.376   6.857
 6677SOL    HW227027   3.425   6.443   6.908
 6677SOL    HW327028   3.558   6.412   6.843
 6677SOL    MW427029   3.476   6.389   6.861
 6678SOL     OW27030   2.398   6.627   6.091
 6678SOL    HW227031   2.488   6.602   6.075
 6678SOL    HW327032   2.394   6.720   6.068
 6678SOL    MW427033   2.410   6.636   6.086
 6679SOL     OW27034   3.514   7.330   6.233
 6679SOL    HW227035   3.526   7.276   6.311
 6679SOL    HW327036   3.551   7.278   6.162
 6679SOL    MW427037   3.520   7.315   6.234
 6680SOL     OW27038   2.893   7.215   7.234
 6680SOL    HW227039   2.934   7.251   7.155
 6680SOL    HW327040   2.928   7.126   7.241
 6680SOL    MW427041   2.904   7.208   7.225
 6681SOL     OW27042   3.450   6.770   6.838
 6681SOL    HW227043   3.371   6.735   6.796
 6681SOL    HW327044   3.477   6.842   6.782
 6681SOL    MW427045   3.443   6.775   6.825
 6682SOL     OW27046   2.682   6.083   6.104
 6682SOL    HW227047   2.657   6.171   6.132
 6682SOL    HW327048   2.679   6.086   6.008
 6682SOL    MW427049   2.678   6.095   6.096
 6683SOL     OW27050   2.124   6.111   6.032
 6683SOL    HW227051   2.156   6.199   6.014
 6683SOL    HW327052   2.112   6.109   6.127
 6683SOL    MW427053   2.127   6.123   6.044
 6684SOL     OW27054   2.202   6.524   6.933
 6684SOL    HW227055   2.265   6.471   6.884
 6684SOL    HW327056   2.183   6.598   6.876
 6684SOL    MW427057   2.208   6.526   6.920
 6685SOL     OW27058   2.523   5.866   6.119
 6685SOL    HW227059   2.581   5.942   6.121
 6685SOL    HW327060   2.458   5.887   6.052
 6685SOL    MW427061   2.522   5.878   6.110
 6686SOL     OW27062   2.635   7.134   7.197
 6686SOL    HW227063   2.719   7.160   7.236
 6686SOL    HW327064   2.659   7.078   7.123
 6686SOL    MW427065   2.649   7.130   7.192
 6687SOL     OW27066   2.387   6.297   6.285
 6687SOL    HW227067   2.372   6.217   6.336
 6687SOL    HW327068   2.469   6.332   6.319
 6687SOL    MW427069   2.395   6.289   6.297
 6688SOL     OW27070   2.724   6.983   6.970
 6688SOL    HW227071   2.688   7.049   6.910
 6688SOL    HW327072   2.652   6.921   6.983
 6688SOL    MW427073   2.710   6.983   6.964
 6689SOL     OW27074   2.529   6.123   6.662
 6689SOL    HW227075   2.435   6.119   6.680
 6689SOL    HW327076   2.559   6.032   6.671
 6689SOL    MW427077   2.520   6.111   6.665
 6690SOL     OW27078   2.275   6.537   6.566
 6690SOL    HW227079   2.230   6.544   6.482
 6690SOL    HW327080   2.255   6.620   6.610
 6690SOL    MW427081   2.267   6.549   6.560
 6691SOL     OW27082   1.972   7.383   6.441
 6691SOL    HW227083   2.061   7.375   6.476
 6691SOL    HW327084   1.936   7.295   6.446
 6691SOL    MW427085   1.979   7.370   6.446
 6692SOL     OW27086   2.236   6.910   6.476
 6692SOL    HW227087   2.212   6.963   6.552
 6692SOL    HW327088   2.292   6.968   6.424
 6692SOL    MW427089   2.240   6.925   6.479
 6693SOL     OW27090   2.798   6.554   6.286
 6693SOL    HW227091   2.712   6.541   6.326
 6693SOL    HW327092   2.851   6.481   6.318
 6693SOL    MW427093   2.794   6.543   6.295
 6694SOL     OW27094   2.206   7.206   7.071
 6694SOL    HW227095   2.114   7.182   7.056
 6694SOL    HW327096   2.250   7.123   7.088
 6694SOL    MW427097   2.200   7.191   7.070
 6695SOL     OW27098   3.662   5.917   6.459
 6695SOL    HW227099   3.599   5.897   6.528
 6695SOL    HW327100   3.652   5.846   6.396
 6695SOL    MW427101   3.652   5.904   6.460
 6696SOL     OW27102   2.286   5.889   5.971
 6696SOL    HW227103   2.260   5.851   5.887
 6696SOL    HW327104   2.223   5.959   5.987
 6696SOL    MW427105   2.275   5.892   5.962
 6697SOL     OW27106   2.121   6.850   6.008
 6697SOL    HW227107   2.069   6.918   5.964
 6697SOL    HW327108   2.118   6.776   5.948
 6697SOL    MW427109   2.113   6.849   5.995
 6698SOL     OW27110   2.783   7.313   5.786
 6698SOL    HW227111   2.738   7.329   5.869
 6698SOL    HW327112   2.714   7.278   5.728
 6698SOL    MW427113   2.769   7.310   5.788
 6699SOL     OW27114   3.718   6.086   5.761
 6699SOL    HW227115   3.627   6.088   5.789
 6699SOL    HW327116   3.763   6.148   5.819
 6699SOL    MW427117   3.711   6.094   5.771
 6700SOL     OW27118   3.263   6.324   7.183
 6700SOL    HW227119   3.332   6.262   7.160
 6700SOL    HW327120   3.188   6.298   7.130
 6700SOL    MW427121   3.263   6.311   7.174
 6701SOL     OW27122   2.004   7.204   6.735
 6701SOL    HW227123   1.987   7.150   6.812
 6701SOL    HW327124   1.992   7.294   6.765
 6701SOL    MW427125   2.001   7.208   6.749
 6702SOL     OW27126   2.999   6.711   7.175
 6702SOL    HW227127   2.984   6.804   7.160
 6702SOL    HW327128   3.094   6.701   7.175
 6702SOL    MW427129   3.008   6.721   7.172
 6703SOL     OW27130   2.795   6.135   7.376
 6703SOL    HW227131   2.885   6.136   7.343
 6703SOL    HW327132   2.754   6.060   7.334
 6703SOL    MW427133   2.801   6.125   7.367
 6704SOL     OW27134   2.990   6.270   6.072
 6704SOL    HW227135   3.016   6.294   5.983
 6704SOL    HW327136   2.972   6.177   6.068
 6704SOL    MW427137   2.992   6.262   6.059
 6705SOL     OW27138   3.655   6.890   5.923
 6705SOL    HW227139   3.611   6.931   5.998
 6705SOL    HW327140   3.712   6.958   5.888
 6705SOL    MW427141   3.657   6.904   5.928
 6706SOL     OW27142   2.575   5.939   7.326
 6706SOL    HW227143   2.585   5.865   7.266
 6706SOL    HW327144   2.611   5.908   7.409
 6706SOL    MW427145   2.581   5.925   7.328
 6707SOL     OW27146   2.311   7.306   6.241
 6707SOL    HW227147   2.343   7.394   6.219
 6707SOL    HW327148   2.264   7.278   6.163
 6707SOL    MW427149   2.310   7.314   6.228
 6708SOL     OW27150   3.695   5.668   6.290
 6708SOL    HW227151   3.749   5.619   6.352
 6708SOL    HW327152   3.638   5.602   6.251
 6708SOL    MW427153   3.695   5.652   6.292
 6709SOL     OW27154   2.027   7.366   5.818
 6709SOL    HW227155   2.056   7.456   5.810
 6709SOL    HW327156   1.977   7.349   5.739
 6709SOL    MW427157   2.025   7.374   5.807
 6710SOL     OW27158   2.814   5.621   6.703
 6710SOL    HW227159   2.773   5.699   6.665
 6710SOL    HW327160   2.908   5.639   6.698
 6710SOL    MW427161   2.820   5.633   6.698
 6711SOL     OW27162   3.431   7.174   5.789
 6711SOL    HW227163   3.479   7.243   5.835
 6711SOL    HW327164   3.352   7.218   5.758
 6711SOL    MW427165   3.426   7.188   5.792
 6712SOL     OW27166   2.829   6.299   5.733
 6712SOL    HW227167   2.831   6.246   5.654
 6712SOL    HW327168   2.917   6.336   5.739
 6712SOL    MW427169   2.841   6.298   5.722
 6713SOL     OW27170   3.443   6.225   6.069
 6713SOL    HW227171   3.482   6.225   6.156
 6713SOL    HW327172   3.384   6.301   6.069
 6713SOL    MW427173   3.440   6.236   6.080
 6714SOL     OW27174   2.760   6.592   7.198
 6714SOL    HW227175   2.737   6.572   7.288
 6714SOL    HW327176   2.845   6.636   7.203
 6714SOL    MW427177   2.767   6.595   7.210
 6715SOL     OW27178   2.840   5.729   6.958
 6715SOL    HW227179   2.846   5.691   6.871
 6715SOL    HW327180   2.829   5.823   6.943
 6715SOL    MW427181   2.841   5.737   6.946
 6716SOL     OW27182   2.929   6.218   6.792
 6716SOL    HW227183   3.004   6.247   6.739
 6716SOL    HW327184   2.861   6.283   6.776
 6716SOL    MW427185   2.930   6.230   6.782
 6717SOL     OW27186   3.479   6.186   7.069
 6717SOL    HW227187   3.460   6.095   7.048
 6717SOL    HW327188   3.457   6.235   6.990
 6717SOL    MW427189   3.474   6.179   7.056
 6718SOL     OW27190   3.621   7.280   6.973
 6718SOL    HW227191   3.549   7.242   7.024
 6718SOL    HW327192   3.638   7.365   7.014
 6718SOL    MW427193   3.615   7.285   6.985
 6719SOL     OW27194   2.926   5.924   7.175
 6719SOL    HW227195   2.892   5.963   7.094
 6719SOL    HW327196   2.904   5.832   7.168
 6719SOL    MW427197   2.919   5.917   7.165
 6720SOL     OW27198   3.335   6.738   7.251
 6720SOL    HW227199   3.417   6.779   7.281
 6720SOL    HW327200   3.298   6.700   7.331
 6720SOL    MW427201   3.341   6.739   7.266
 6721SOL     OW27202   3.630   6.111   6.235
 6721SOL    HW227203   3.719   6.080   6.252
 6721SOL    HW327204   3.573   6.051   6.283
 6721SOL    MW427205   3.633   6.099   6.244
 6722SOL     OW27206   2.056   5.825   6.264
 6722SOL    HW227207   2.047   5.765   6.190
 6722SOL    HW327208   1.989   5.796   6.327
 6722SOL    MW427209   2.046   5.812   6.262
 6723SOL     OW27210   2.003   5.998   6.627
 6723SOL    HW227211   1.975   6.089   6.636
 6723SOL    HW327212   1.940   5.959   6.566
 6723SOL    MW427213   1.990   6.004   6.621
 6724SOL     OW27214   2.462   7.336   5.933
 6724SOL    HW227215   2.383   7.294   5.966
 6724SOL    HW327216   2.528   7.319   6.000
 6724SOL    MW427217   2.461   7.328   5.946
 6725SOL     OW27218   3.590   6.856   7.330
 6725SOL    HW227219   3.640   6.782   7.362
 6725SOL    HW327220   3.536   6.883   7.405
 6725SOL    MW427221   3.590   6.850   7.343
 6726SOL     OW27222   2.598   6.751   5.640
 6726SOL    HW227223   2.520   6.697   5.627
 6726SOL    HW327224   2.569   6.824   5.693
 6726SOL    MW427225   2.584   6.753   5.645
 6727SOL     OW27226   3.724   6.491   6.832
 6727SOL    HW227227   3.740   6.529   6.745
 6727SOL    HW327228   3.758   6.557   6.893
 6727SOL    MW427229   3.731   6.504   6.828
 6728SOL     OW27230   3.516   7.200   6.501
 6728SOL    HW227231   3.545   7.267   6.562
 6728SOL    HW327232   3.497   7.124   6.556
 6728SOL    MW427233   3.518   7.200   6.516
 6729SOL     OW27234   3.179   7.267   5.708
 6729SOL    HW227235   3.105   7.230   5.758
 6729SOL    HW327236   3.187   7.357   5.741
 6729SOL    MW427237   3.170   7.274   5.720
 6730SOL     OW27238   1.987   6.273   6.797
 6730SOL    HW227239   2.049   6.303   6.863
 6730SOL    HW327240   1.921   6.342   6.791
 6730SOL    MW427241   1.986   6.286   6.804
 6731SOL     OW27242   3.403   6.941   5.650
 6731SOL    HW227243   3.350   6.990   5.586
 6731SOL    HW327244   3.434   7.007   5.711
 6731SOL    MW427245   3.401   6.955   5.648
 6732SOL     OW27246   2.628   5.830   5.705
 6732SOL    HW227247   2.576   5.750   5.693
 6732SOL    HW327248   2.715   5.807   5.673
 6732SOL    MW427249   2.631   5.816   5.699
 6733SOL     OW27250   2.082   7.382   7.249
 6733SOL    HW227251   2.056   7.450   7.187
 6733SOL    HW327252   2.130   7.319   7.197
 6733SOL    MW427253   2.084   7.382   7.235
 6734SOL     OW27254   2.134   6.701   6.756
 6734SOL    HW227255   2.187   6.776   6.781
 6734SOL    HW327256   2.053   6.739   6.722
 6734SOL    MW427257   2.130   6.716   6.756
 6735SOL     OW27258   2.674   6.605   6.744
 6735SOL    HW227259   2.702   6.514   6.756
 6735SOL    HW327260   2.603   6.599   6.680
 6735SOL    MW427261   2.667   6.593   6.739
 6736SOL     OW27262   1.989   6.470   6.162
 6736SOL    HW227263   2.080   6.485   6.189
 6736SOL    HW327264   1.992   6.391   6.108
 6736SOL    MW427265   2.001   6.462   6.160
 6737SOL     OW27266   2.225   6.178   7.416
 6737SOL    HW227267   2.172   6.258   7.423
 6737SOL    HW327268   2.295   6.190   7.481
 6737SOL    MW427269   2.227   6.191   7.424
 6738SOL     OW27270   2.611   5.728   7.123
 6738SOL    HW227271   2.588   5.636   7.125
 6738SOL    HW327272   2.697   5.730   7.080
 6738SOL    MW427273   2.618   5.718   7.119
 6739SOL     OW27274   2.295   6.252   7.162
 6739SOL    HW227275   2.375   6.302   7.148
 6739SOL    HW327276   2.286   6.246   7.257
 6739SOL    MW427277   2.304   6.258   7.172
 6740SOL     OW27278   2.616   7.402   6.536
 6740SOL    HW227279   2.705   7.417   6.566
 6740SOL    HW327280   2.611   7.449   6.452
 6740SOL    MW427281   2.626   7.410   6.529
 6741SOL     OW27282   3.272   5.777   7.433
 6741SOL    HW227283   3.328   5.704   7.459
 6741SOL    HW327284   3.242   5.815   7.515
 6741SOL    MW427285   3.276   5.772   7.446
 6742SOL     OW27286   1.997   7.082   6.201
 6742SOL    HW227287   1.969   7.121   6.283
 6742SOL    HW327288   2.017   6.991   6.223
 6742SOL    MW427289   1.995   7.074   6.214
 6743SOL     OW27290   2.830   7.125   6.236
 6743SOL    HW227291   2.913   7.079   6.220
 6743SOL    HW327292   2.820   7.124   6.332
 6743SOL    MW427293   2.840   7.118   6.246
 6744SOL     OW27294   3.662   6.270   6.550
 6744SOL    HW227295   3.751   6.300   6.532
 6744SOL    HW327296   3.642   6.210   6.479
 6744SOL    MW427297   3.671   6.267   6.539
 6745SOL     OW27298   3.513   6.449   7.430
 6745SOL    HW227299   3.568   6.373   7.411
 6745SOL    HW327300   3.515   6.457   7.525
 6745SOL    MW427301   3.521   6.440   7.438
 6746SOL     OW27302   2.563   7.182   5.641
 6746SOL    HW227303   2.503   7.251   5.611
 6746SOL    HW327304   2.508   7.124   5.694
 6746SOL    MW427305   2.547   7.184   5.643
 6747SOL     OW27306   3.001   5.827   5.864
 6747SOL    HW227307   2.934   5.803   5.801
 6747SOL    HW327308   3.066   5.876   5.813
 6747SOL    MW427309   3.001   5.829   5.849
 6748SOL     OW27310   2.808   6.011   6.949
 6748SOL    HW227311   2.727   6.052   6.977
 6748SOL    HW327312   2.855   6.079   6.901
 6748SOL    MW427313   2.803   6.026   6.947
 6749SOL     OW27314   3.068   6.349   6.572
 6749SOL    HW227315   3.081   6.443   6.582
 6749SOL    HW327316   3.029   6.339   6.486
 6749SOL    MW427317   3.064   6.360   6.562
 6750SOL     OW27318   2.520   6.544   6.376
 6750SOL    HW227319   2.431   6.535   6.409
 6750SOL    HW327320   2.524   6.634   6.344
 6750SOL    MW427321   2.509   6.555   6.376
 6751SOL     OW27322   3.319   6.127   6.371
 6751SOL    HW227323   3.264   6.048   6.370
 6751SOL    HW327324   3.301   6.168   6.455
 6751SOL    MW427325   3.309   6.122   6.380
 6752SOL     OW27326   2.290   5.814   7.188
 6752SOL    HW227327   2.211   5.832   7.240
 6752SOL    HW327328   2.285   5.876   7.115
 6752SOL    MW427329   2.280   5.824   7.185
 6753SOL     OW27330   2.938   6.331   6.328
 6753SOL    HW227331   2.875   6.263   6.352
 6753SOL    HW327332   2.958   6.312   6.236
 6753SOL    MW427333   2.932   6.318   6.320
 6754SOL     OW27334   2.686   6.635   6.054
 6754SOL    HW227335   2.688   6.609   5.961
 6754SOL    HW327336   2.744   6.572   6.097
 6754SOL    MW427337   2.694   6.624   6.048
 6755SOL     OW27338   3.239   7.195   6.826
 6755SOL    HW227339   3.164   7.241   6.864
 6755SOL    HW327340   3.221   7.102   6.843
 6755SOL    MW427341   3.228   7.189   6.834
 6756SOL     OW27342   3.243   7.403   6.256
 6756SOL    HW227343   3.186   7.356   6.195
 6756SOL    HW327344   3.329   7.364   6.243
 6756SOL    MW427345   3.246   7.394   6.246
 6757SOL     OW27346   3.196   5.879   6.387
 6757SOL    HW227347   3.224   5.811   6.448
 6757SOL    HW327348   3.110   5.850   6.357
 6757SOL    MW427349   3.189   5.866   6.391
 6758SOL     OW27350   2.001   6.813   6.321
 6758SOL    HW227351   2.065   6.845   6.384
 6758SOL    HW327352   2.050   6.749   6.269
 6758SOL    MW427353   2.016   6.809   6.322
 6759SOL     OW27354   2.501   6.889   7.303
 6759SOL    HW227355   2.549   6.972   7.290
 6759SOL    HW327356   2.558   6.837   7.359
 6759SOL    MW427357   2.515   6.893   7.309
 6760SOL     OW27358   2.077   7.131   7.443
 6760SOL    HW227359   2.133   7.055   7.458
 6760SOL    HW327360   2.026   7.109   7.365
 6760SOL    MW427361   2.077   7.118   7.434
 6761SOL     OW27362   3.176   5.983   5.722
 6761SOL    HW227363   3.149   6.049   5.658
 6761SOL    HW327364   3.246   6.026   5.772
 6761SOL    MW427365   3.181   5.996   5.719
 6762SOL     OW27366   2.844   5.688   5.659
 6762SOL    HW227367   2.900   5.680   5.581
 6762SOL    HW327368   2.821   5.598   5.681
 6762SOL    MW427369   2.849   5.675   5.652
 6763SOL     OW27370   2.962   6.968   7.052
 6763SOL    HW227371   2.873   6.974   7.020
 6763SOL    HW327372   3.006   7.047   7.020
 6763SOL    MW427373   2.957   6.978   7.044
 6764SOL     OW27374   2.255   5.636   7.394
 6764SOL    HW227375   2.183   5.601   7.342
 6764SOL    HW327376   2.313   5.677   7.329
 6764SOL    MW427377   2.253   5.637   7.379
 6765SOL     OW27378   2.279   7.126   6.693
 6765SOL    HW227379   2.324   7.188   6.750
 6765SOL    HW327380   2.186   7.145   6.706
 6765SOL    MW427381   2.272   7.136   6.700
 6766SOL     OW27382   3.719   6.655   7.047
 6766SOL    HW227383   3.634   6.668   7.006
 6766SOL    HW327384   3.699   6.619   7.134
 6766SOL    MW427385   3.706   6.651   7.052
 6767SOL     OW27386   2.701   7.194   6.801
 6767SOL    HW227387   2.725   7.183   6.710
 6767SOL    HW327388   2.624   7.251   6.799
 6767SOL    MW427389   2.693   7.199   6.790
 6768SOL     OW27390   2.343   6.577   5.656
 6768SOL    HW227391   2.266   6.590   5.712
 6768SOL    HW327392   2.307   6.541   5.575
 6768SOL    MW427393   2.329   6.573   5.653
 6769SOL     OW27394   2.996   6.550   5.899
 6769SOL    HW227395   2.906   6.571   5.874
 6769SOL    HW327396   3.023   6.623   5.955
 6769SOL    MW427397   2.988   6.562   5.902
 6770SOL     OW27398   2.496   6.899   6.591
 6770SOL    HW227399   2.489   6.878   6.685
 6770SOL    HW327400   2.414   6.867   6.554
 6770SOL    MW427401   2.484   6.893   6.598
 6771SOL     OW27402   3.360   5.909   6.993
 6771SOL    HW227403   3.307   5.911   7.073
 6771SOL    HW327404   3.345   5.822   6.956
 6771SOL    MW427405   3.352   5.899   6.998
 6772SOL     OW27406   3.696   5.833   6.866
 6772SOL    HW227407   3.677   5.900   6.801
 6772SOL    HW327408   3.753   5.771   6.821
 6772SOL    MW427409   3.700   5.834   6.852
 6773SOL     OW27410   1.942   6.991   7.254
 6773SOL    HW227411   1.986   6.924   7.200
 6773SOL    HW327412   1.857   6.953   7.274
 6773SOL    MW427413   1.937   6.977   7.250
 6774SOL     OW27414   2.625   5.666   6.306
 6774SOL    HW227415   2.554   5.727   6.288
 6774SOL    HW327416   2.676   5.663   6.225
 6774SOL    MW427417   2.621   5.672   6.293
 6775SOL     OW27418   2.978   7.299   6.964
 6775SOL    HW227419   2.898   7.284   6.914
 6775SOL    HW327420   2.985   7.394   6.971
 6775SOL    MW427421   2.969   7.310   6.958
 6776SOL     OW27422   3.092   7.264   6.454
 6776SOL    HW227423   3.139   7.337   6.413
 6776SOL    HW327424   3.013   7.303   6.490
 6776SOL    MW427425   3.087   7.279   6.453
 6777SOL     OW27426   3.500   7.359   6.729
 6777SOL    HW227427   3.543   7.329   6.809
 6777SOL    HW327428   3.419   7.307   6.726
 6777SOL    MW427429   3.495   7.348   6.739
 6778SOL     OW27430   2.585   6.323   7.436
 6778SOL    HW227431   2.655   6.265   7.408
 6778SOL    HW327432   2.528   6.268   7.491
 6778SOL    MW427433   2.587   6.310   7.440
 6779SOL     OW27434   3.372   6.535   7.069
 6779SOL    HW227435   3.377   6.588   7.149
 6779SOL    HW327436   3.334   6.452   7.097
 6779SOL    MW427437   3.368   6.530   7.084
 6780SOL     OW27438   3.012   5.670   7.315
 6780SOL    HW227439   3.007   5.577   7.296
 6780SOL    HW327440   3.095   5.681   7.361
 6780SOL    MW427441   3.020   5.659   7.319
 6781SOL     OW27442   2.386   6.190   5.769
 6781SOL    HW227443   2.352   6.246   5.839
 6781SOL    HW327444   2.457   6.140   5.809
 6781SOL    MW427445   2.392   6.191   5.783
 6782SOL     OW27446   3.482   6.941   6.591
 6782SOL    HW227447   3.517   6.923   6.504
 6782SOL    HW327448   3.387   6.942   6.578
 6782SOL    MW427449   3.474   6.938   6.578
 6783SOL     OW27450   2.911   6.589   6.960
 6783SOL    HW227451   2.954   6.624   7.038
 6783SOL    HW327452   2.894   6.666   6.906
 6783SOL    MW427453   2.914   6.604   6.963
 6784SOL     OW27454   3.442   6.076   5.833
 6784SOL    HW227455   3.434   6.147   5.770
 6784SOL    HW327456   3.460   6.120   5.916
 6784SOL    MW427457   3.443   6.090   5.835
 6785SOL     OW27458   2.302   5.731   6.262
 6785SOL    HW227459   2.352   5.774   6.193
 6785SOL    HW327460   2.217   5.775   6.262
 6785SOL    MW427461   2.299   5.744   6.253
 6786SOL     OW27462   2.061   6.793   7.122
 6786SOL    HW227463   2.089   6.746   7.200
 6786SOL    HW327464   1.982   6.748   7.093
 6786SOL    MW427465   2.054   6.782   7.128
 6787SOL     OW27466   2.569   6.120   7.089
 6787SOL    HW227467   2.541   6.208   7.113
 6787SOL    HW327468   2.538   6.064   7.160
 6787SOL    MW427469   2.561   6.123   7.101
 6788SOL     OW27470   3.111   6.338   5.808
 6788SOL    HW227471   3.158   6.356   5.727
 6788SOL    HW327472   3.077   6.422   5.836
 6788SOL    MW427473   3.113   6.352   5.801
 6789SOL     OW27474   2.224   6.516   6.302
 6789SOL    HW227475   2.282   6.572   6.250
 6789SOL    HW327476   2.268   6.431   6.304
 6789SOL    MW427477   2.237   6.513   6.295
 6790SOL     OW27478   3.364   5.868   6.139
 6790SOL    HW227479   3.286   5.818   6.164
 6790SOL    HW327480   3.335   5.959   6.139
 6790SOL    MW427481   3.350   5.872   6.142
 6791SOL     OW27482   2.950   5.830   6.298
 6791SOL    HW227483   2.970   5.905   6.242
 6791SOL    HW327484   2.930   5.869   6.383
 6791SOL    MW427485   2.951   5.846   6.302
 6792SOL     OW27486   3.710   6.603   7.317
 6792SOL    HW227487   3.623   6.583   7.353
 6792SOL    HW327488   3.764   6.529   7.342
 6792SOL    MW427489   3.705   6.592   7.325
 6793SOL     OW27490   1.931   7.116   6.474
 6793SOL    HW227491   1.963   7.120   6.565
 6793SOL    HW327492   1.836   7.124   6.482
 6793SOL    MW427493   1.923   7.119   6.487
 6794SOL     OW27494   1.886   6.242   6.021
 6794SOL    HW227495   1.826   6.214   6.091
 6794SOL    HW327496   1.960   6.182   6.027
 6794SOL    MW427497   1.888   6.231   6.030
 6795SOL     OW27498   3.454   7.454   7.455
 6795SOL    HW227499   3.499   7.378   7.420
 6795SOL    HW327500   3.492   7.467   7.542
 6795SOL    MW427501   3.464   7.447   7.461
 6796SOL     OW27502   3.054   6.973   6.181
 6796SOL    HW227503   3.077   6.924   6.259
 6796SOL    HW327504   3.135   7.015   6.153
 6796SOL    MW427505   3.067   6.973   6.188
 6797SOL     OW27506   2.312   5.981   6.910
 6797SOL    HW227507   2.345   6.062   6.950
 6797SOL    HW327508   2.285   6.007   6.822
 6797SOL    MW427509   2.311   5.995   6.904
 6798SOL     OW27510   2.266   5.948   6.646
 6798SOL    HW227511   2.296   5.862   6.617
 6798SOL    HW327512   2.171   5.941   6.649
 6798SOL    MW427513   2.258   5.937   6.644
 6799SOL     OW27514   3.095   6.157   7.337
 6799SOL    HW227515   3.147   6.092   7.290
 6799SOL    HW327516   3.053   6.208   7.267
 6799SOL    MW427517   3.096   6.154   7.320
 6800SOL     OW27518   3.194   5.952   7.198
 6800SOL    HW227519   3.101   5.936   7.185
 6800SOL    HW327520   3.220   5.890   7.266
 6800SOL    MW427521   3.184   5.942   7.205
 6801SOL     OW27522   2.409   5.726   6.537
 6801SOL    HW227523   2.419   5.635   6.563
 6801SOL    HW327524   2.365   5.722   6.452
 6801SOL    MW427525   2.405   5.714   6.529
 6802SOL     OW27526   2.503   7.341   7.083
 6802SOL    HW227527   2.420   7.326   7.128
 6802SOL    HW327528   2.562   7.274   7.118
 6802SOL    MW427529   2.501   7.331   7.093
 6803SOL     OW27530   3.560   6.048   6.708
 6803SOL    HW227531   3.493   6.081   6.768
 6803SOL    HW327532   3.603   6.126   6.674
 6803SOL    MW427533   3.558   6.063   6.712
 6804SOL     OW27534   3.738   6.768   6.678
 6804SOL    HW227535   3.731   6.708   6.603
 6804SOL    HW327536   3.664   6.828   6.667
 6804SOL    MW427537   3.728   6.768   6.667
 6805SOL     OW27538   3.203   6.125   6.875
 6805SOL    HW227539   3.224   6.126   6.782
 6805SOL    HW327540   3.248   6.047   6.908
 6805SOL    MW427541   3.210   6.115   6.867
 6806SOL     OW27542   3.696   6.256   7.417
 6806SOL    HW227543   3.733   6.201   7.486
 6806SOL    HW327544   3.721   6.213   7.335
 6806SOL    MW427545   3.703   6.244   7.416
 6807SOL     OW27546   3.243   6.554   7.468
 6807SOL    HW227547   3.309   6.502   7.422
 6807SOL    HW327548   3.263   6.541   7.561
 6807SOL    MW427549   3.254   6.545   7.475
 6808SOL     OW27550   3.254   6.415   6.095
 6808SOL    HW227551   3.169   6.385   6.065
 6808SOL    HW327552   3.246   6.422   6.190
 6808SOL    MW427553   3.242   6.413   6.104
 6809SOL     OW27554   2.330   6.878   6.826
 6809SOL    HW227555   2.342   6.905   6.917
 6809SOL    HW327556   2.311   6.959   6.779
 6809SOL    MW427557   2.329   6.893   6.831
 6810SOL     OW27558   2.614   5.858   6.649
 6810SOL    HW227559   2.587   5.860   6.740
 6810SOL    HW327560   2.544   5.810   6.604
 6810SOL    MW427561   2.602   5.854   6.656
 6811SOL     OW27562   2.468   7.350   6.811
 6811SOL    HW227563   2.520   7.427   6.788
 6811SOL    HW327564   2.477   7.342   6.906
 6811SOL    MW427565   2.477   7.357   6.822
 6812SOL     OW27566   3.370   6.935   7.043
 6812SOL    HW227567   3.355   6.864   7.106
 6812SOL    HW327568   3.416   6.893   6.971
 6812SOL    MW427569   3.376   6.919   7.043
 6813SOL     OW27570   2.444   6.666   7.160
 6813SOL    HW227571   2.481   6.671   7.072
 6813SOL    HW327572   2.483   6.739   7.207
 6813SOL    MW427573   2.454   6.676   7.155
 6814SOL     OW27574   2.624   6.709   6.972
 6814SOL    HW227575   2.683   6.655   7.025
 6814SOL    HW327576   2.639   6.681   6.882
 6814SOL    MW427577   2.634   6.698   6.968
 6815SOL     OW27578   2.627   6.081   5.821
 6815SOL    HW227579   2.700   6.130   5.784
 6815SOL    HW327580   2.643   5.990   5.795
 6815SOL    MW427581   2.639   6.076   5.814
 6816SOL     OW27582   3.435   7.198   7.144
 6816SOL    HW227583   3.477   7.183   7.229
 6816SOL    HW327584   3.426   7.111   7.106
 6816SOL    MW427585   3.439   7.186   7.151
 6817SOL     OW27586   3.095   5.677   6.735
 6817SOL    HW227587   3.150   5.686   6.657
 6817SOL    HW327588   3.150   5.711   6.806
 6817SOL    MW427589   3.109   5.682   6.734
 6818SOL     OW27590   2.102   6.590   5.919
 6818SOL    HW227591   2.039   6.606   5.848
 6818SOL    HW327592   2.049   6.553   5.990
 6818SOL    MW427593   2.087   6.587   5.919
 6819SOL     OW27594   2.256   7.333   6.499
 6819SOL    HW227595   2.260   7.244   6.534
 6819SOL    HW327596   2.282   7.324   6.408
 6819SOL    MW427597   2.259   7.321   6.491
 6820SOL     OW27598   2.873   6.811   6.742
 6820SOL    HW227599   2.805   6.745   6.758
 6820SOL    HW327600   2.891   6.805   6.649
 6820SOL    MW427601   2.866   6.802   6.733
 6821SOL     OW27602   2.866   5.950   6.563
 6821SOL    HW227603   2.796   5.902   6.608
 6821SOL    HW327604   2.898   6.013   6.627
 6821SOL    MW427605   2.861   5.952   6.577
 6822SOL     OW27606   2.517   6.386   7.183
 6822SOL    HW227607   2.510   6.481   7.171
 6822SOL    HW327608   2.526   6.375   7.278
 6822SOL    MW427609   2.518   6.398   7.193
 6823SOL     OW27610   2.238   6.901   7.441
 6823SOL    HW227611   2.310   6.903   7.378
 6823SOL    HW327612   2.208   6.810   7.440
 6823SOL    MW427613   2.243   6.890   7.433
 6824SOL     OW27614   3.322   5.664   6.908
 6824SOL    HW227615   3.393   5.610   6.872
 6824SOL    HW327616   3.321   5.643   7.001
 6824SOL    MW427617   3.331   5.655   6.916
 6825SOL     OW27618   3.522   7.194   7.392
 6825SOL    HW227619   3.495   7.191   7.483
 6825SOL    HW327620   3.618   7.198   7.395
 6825SOL    MW427621   3.532   7.194   7.404
 6826SOL     OW27622   2.333   6.056   6.376
 6826SOL    HW227623   2.404   6.004   6.339
 6826SOL    HW327624   2.319   6.021   6.463
 6826SOL    MW427625   2.341   6.045   6.383
 6827SOL     OW27626   1.888   7.391   7.448
 6827SOL    HW227627   1.938   7.369   7.370
 6827SOL    HW327628   1.896   7.486   7.456
 6827SOL    MW427629   1.896   7.400   7.439
 6828SOL     OW27630   2.649   7.149   6.452
 6828SOL    HW227631   2.577   7.086   6.465
 6828SOL    HW327632   2.610   7.234   6.470
 6828SOL    MW427633   2.633   7.152   6.455
 6829SOL     OW27634   2.969   5.997   6.100
 6829SOL    HW227635   2.991   5.934   6.032
 6829SOL    HW327636   2.874   5.989   6.111
 6829SOL    MW427637   2.959   5.988   6.092
 6830SOL     OW27638   2.054   5.687   6.032
 6830SOL    HW227639   2.125   5.708   5.971
 6830SOL    HW327640   2.008   5.615   5.990
 6830SOL    MW427641   2.058   5.681   6.018
 6831SOL     OW27642   1.885   6.154   7.175
 6831SOL    HW227643   1.949   6.220   7.150
 6831SOL    HW327644   1.804   6.181   7.132
 6831SOL    MW427645   1.883   6.166   7.167
 6832SOL     OW27646   3.623   7.061   6.132
 6832SOL    HW227647   3.593   6.994   6.193
 6832SOL    HW327648   3.717   7.067   6.146
 6832SOL    MW427649   3.631   7.053   6.142
 6833SOL     OW27650   2.841   5.658   6.115
 6833SOL    HW227651   2.878   5.717   6.180
 6833SOL    HW327652   2.818   5.714   6.041
 6833SOL    MW427653   2.842   5.673   6.114
 6834SOL     OW27654   2.070   6.380   7.116
 6834SOL    HW227655   2.091   6.449   7.054
 6834SOL    HW327656   2.150   6.327   7.121
 6834SOL    MW427657   2.083   6.381   7.110
 6835SOL     OW27658   2.055   6.395   7.383
 6835SOL    HW227659   1.981   6.339   7.409
 6835SOL    HW327660   2.050   6.398   7.288
 6835SOL    MW427661   2.044   6.388   7.373
 6836SOL     OW27662   2.221   5.682   6.833
 6836SOL    HW227663   2.264   5.766   6.853
 6836SOL    HW327664   2.294   5.620   6.826
 6836SOL    MW427665   2.236   5.685   6.834
 6837SOL     OW27666   2.262   6.349   6.011
 6837SOL    HW227667   2.262   6.444   5.996
 6837SOL    HW327668   2.339   6.333   6.065
 6837SOL    MW427669   2.272   6.360   6.016
 6838SOL     OW27670   3.038   6.208   7.075
 6838SOL    HW227671   3.074   6.181   6.991
 6838SOL    HW327672   2.951   6.242   7.054
 6838SOL    MW427673   3.032   6.209   7.062
 6839SOL     OW27674   2.021   6.080   6.300
 6839SOL    HW227675   2.083   6.087   6.373
 6839SOL    HW327676   2.021   5.987   6.277
 6839SOL    MW427677   2.029   6.069   6.307
 6840SOL     OW27678   3.568   7.420   5.832
 6840SOL    HW227679   3.635   7.453   5.772
 6840SOL    HW327680   3.525   7.499   5.866
 6840SOL    MW427681   3.570   7.435   5.828
 6841SOL     OW27682   2.703   6.341   6.784
 6841SOL    HW227683   2.661   6.259   6.760
 6841SOL    HW327684   2.704   6.340   6.880
 6841SOL    MW427685   2.696   6.330   6.793
 6842SOL     OW27686   3.374   7.474   7.183
 6842SOL    HW227687   3.377   7.380   7.166
 6842SOL    HW327688   3.397   7.482   7.275
 6842SOL    MW427689   3.377   7.462   7.193
 6843SOL     OW27690   2.507   5.811   6.889
 6843SOL    HW227691   2.438   5.874   6.910
 6843SOL    HW327692   2.534   5.775   6.974
 6843SOL    MW427693   2.501   5.814   6.902
 6844SOL     OW27694   1.890   6.652   5.758
 6844SOL    HW227695   1.859   6.717   5.821
 6844SOL    HW327696   1.839   6.574   5.777
 6844SOL    MW427697   1.880   6.649   5.768
 6845SOL     OW27698   3.302   5.664   6.506
 6845SOL    HW227699   3.390   5.673   6.543
 6845SOL    HW327700   3.312   5.605   6.432
 6845SOL    MW427701   3.316   5.658   6.500
 6846SOL     OW27702   3.334   6.403   6.350
 6846SOL    HW227703   3.414   6.418   6.299
 6846SOL    HW327704   3.327   6.308   6.356
 6846SOL    MW427705   3.343   6.392   6.345
 6847SOL     OW27706   2.474   7.452   5.700
 6847SOL    HW227707   2.379   7.452   5.692
 6847SOL    HW327708   2.490   7.398   5.778
 6847SOL    MW427709   2.464   7.446   5.709
 6848SOL     OW27710   2.784   6.329   7.047
 6848SOL    HW227711   2.853   6.396   7.044
 6848SOL    HW327712   2.717   6.367   7.103
 6848SOL    MW427713   2.785   6.342   7.054
 6849SOL     OW27714   2.202   6.629   7.295
 6849SOL    HW227715   2.156   6.545   7.297
 6849SOL    HW327716   2.259   6.623   7.219
 6849SOL    MW427717   2.204   6.617   7.287
 6850SOL     OW27718   3.319   6.272   5.615
 6850SOL    HW227719   3.247   6.248   5.557
 6850SOL    HW327720   3.385   6.309   5.557
 6850SOL    MW427721   3.318   6.274   5.600
 6851SOL     OW27722   2.453   7.004   6.296
 6851SOL    HW227723   2.518   6.937   6.317
 6851SOL    HW327724   2.505   7.081   6.273
 6851SOL    MW427725   2.468   7.006   6.295
 6852SOL     OW27726   2.714   6.169   6.426
 6852SOL    HW227727   2.654   6.187   6.498
 6852SOL    HW327728   2.748   6.081   6.445
 6852SOL    MW427729   2.710   6.159   6.439
 6853SOL     OW27730   3.655   5.668   7.095
 6853SOL    HW227731   3.576   5.714   7.123
 6853SOL    HW327732   3.690   5.722   7.024
 6853SOL    MW427733   3.649   5.681   7.089
 6854SOL     OW27734   2.939   6.752   6.445
 6854SOL    HW227735   3.031   6.733   6.463
 6854SOL    HW327736   2.912   6.682   6.385
 6854SOL    MW427737   2.947   6.740   6.439
 6855SOL     OW27738   2.732   6.572   5.800
 6855SOL    HW227739   2.718   6.484   5.765
 6855SOL    HW327740   2.683   6.629   5.741
 6855SOL    MW427741   2.724   6.567   5.788
 6856SOL     OW27742   3.213   6.990   6.541
 6856SOL    HW227743   3.186   7.074   6.506
 6856SOL    HW327744   3.173   6.985   6.628
 6856SOL    MW427745   3.206   6.999   6.547
 6857SOL     OW27746   3.132   6.938   6.809
 6857SOL    HW227747   3.143   6.905   6.898
 6857SOL    HW327748   3.051   6.897   6.778
 6857SOL    MW427749   3.122   6.930   6.815
 6858SOL     OW27750   2.145   6.296   6.579
 6858SOL    HW227751   2.095   6.295   6.660
 6858SOL    HW327752   2.165   6.388   6.563
 6858SOL    MW427753   2.141   6.308   6.587
 6859SOL     OW27754   3.212   7.060   7.341
 6859SOL    HW227755   3.212   7.154   7.357
 6859SOL    HW327756   3.257   7.050   7.257
 6859SOL    MW427757   3.218   7.070   7.332
 6860SOL     OW27758   3.451   5.778   5.902
 6860SOL    HW227759   3.444   5.782   5.997
 6860SOL    HW327760   3.463   5.869   5.875
 6860SOL    MW427761   3.452   5.791   5.910
 6861SOL     OW27762   2.740   6.341   6.016
 6861SOL    HW227763   2.720   6.327   5.923
 6861SOL    HW327764   2.833   6.320   6.023
 6861SOL    MW427765   2.750   6.336   6.005
 6862SOL     OW27766   2.067   5.964   7.320
 6862SOL    HW227767   2.024   6.023   7.257
 6862SOL    HW327768   2.135   6.019   7.360
 6862SOL    MW427769   2.071   5.979   7.317
 6863SOL     OW27770   3.179   6.584   6.865
 6863SOL    HW227771   3.242   6.581   6.938
 6863SOL    HW327772   3.095   6.602   6.907
 6863SOL    MW427773   3.175   6.586   6.880
 6864SOL     OW27774   2.723   7.299   6.054
 6864SOL    HW227775   2.781   7.370   6.081
 6864SOL    HW327776   2.746   7.227   6.112
 6864SOL    MW427777   2.734   7.299   6.065
 6865SOL     OW27778   3.518   5.761   6.644
 6865SOL    HW227779   3.563   5.679   6.663
 6865SOL    HW327780   3.538   5.817   6.720
 6865SOL    MW427781   3.528   5.757   6.656
 6866SOL     OW27782   1.966   5.604   6.743
 6866SOL    HW227783   1.957   5.605   6.648
 6866SOL    HW327784   2.060   5.616   6.758
 6866SOL    MW427785   1.978   5.607   6.734
 6867SOL     OW27786   3.603   6.797   6.363
 6867SOL    HW227787   3.582   6.743   6.286
 6867SOL    HW327788   3.699   6.795   6.367
 6867SOL    MW427789   3.612   6.790   6.352
 6868SOL     OW27790   2.295   6.942   7.106
 6868SOL    HW227791   2.216   6.892   7.129
 6868SOL    HW327792   2.365   6.901   7.156
 6868SOL    MW427793   2.293   6.930   7.116
 6869SOL     OW27794   2.179   5.731   5.789
 6869SOL    HW227795   2.108   5.786   5.757
 6869SOL    HW327796   2.221   5.697   5.710
 6869SOL    MW427797   2.175   5.733   5.775
 6870SOL     OW27798   3.303   6.228   6.625
 6870SOL    HW227799   3.226   6.274   6.591
 6870SOL    HW327800   3.360   6.297   6.659
 6870SOL    MW427801   3.300   6.243   6.625
 6871SOL     OW27802   1.935   5.830   5.638
 6871SOL    HW227803   1.902   5.909   5.682
 6871SOL    HW327804   1.990   5.863   5.567
 6871SOL    MW427805   1.938   5.844   5.635
 6872SOL     OW27806   1.969   7.087   5.827
 6872SOL    HW227807   1.986   7.171   5.869
 6872SOL    HW327808   2.004   7.096   5.739
 6872SOL    MW427809   1.974   7.100   5.821
 6873SOL     OW27810   3.241   7.176   6.044
 6873SOL    HW227811   3.304   7.166   5.973
 6873SOL    HW327812   3.158   7.196   5.999
 6873SOL    MW427813   3.238   7.177   6.029
 6874SOL     OW27814   5.472   0.839   0.257
 6874SOL    HW227815   5.513   0.781   0.322
 6874SOL    HW327816   5.379   0.831   0.274
 6874SOL    MW427817   5.466   0.831   0.267
 6875SOL     OW27818   5.338   0.771   1.252
 6875SOL    HW227819   5.293   0.838   1.303
 6875SOL    HW327820   5.426   0.807   1.238
 6875SOL    MW427821   5.344   0.784   1.256
 6876SOL     OW27822   4.266   1.022   0.486
 6876SOL    HW227823   4.356   0.997   0.470
 6876SOL    HW327824   4.262   1.115   0.463
 6876SOL    MW427825   4.278   1.031   0.481
 6877SOL     OW27826   5.382   1.725   0.628
 6877SOL    HW227827   5.394   1.671   0.706
 6877SOL    HW327828   5.419   1.673   0.557
 6877SOL    MW427829   5.388   1.710   0.629
 6878SOL     OW27830   4.761   1.610   1.629
 6878SOL    HW227831   4.802   1.646   1.550
 6878SOL    HW327832   4.796   1.521   1.636
 6878SOL    MW427833   4.772   1.603   1.620
 6879SOL     OW27834   5.318   1.165   1.233
 6879SOL    HW227835   5.239   1.130   1.191
 6879SOL    HW327836   5.345   1.237   1.177
 6879SOL    MW427837   5.311   1.170   1.220
 6880SOL     OW27838   4.550   0.478   0.499
 6880SOL    HW227839   4.525   0.566   0.527
 6880SOL    HW327840   4.547   0.481   0.403
 6880SOL    MW427841   4.546   0.490   0.491
 6881SOL     OW27842   3.992   0.506   0.427
 6881SOL    HW227843   4.024   0.594   0.409
 6881SOL    HW327844   3.980   0.504   0.522
 6881SOL    MW427845   3.995   0.518   0.439
 6882SOL     OW27846   4.070   0.919   1.328
 6882SOL    HW227847   4.133   0.866   1.279
 6882SOL    HW327848   4.051   0.993   1.271
 6882SOL    MW427849   4.076   0.921   1.315
 6883SOL     OW27850   4.391   0.261   0.514
 6883SOL    HW227851   4.449   0.337   0.516
 6883SOL    HW327852   4.326   0.282   0.447
 6883SOL    MW427853   4.390   0.273   0.505
 6884SOL     OW27854   4.478   1.188   0.689
 6884SOL    HW227855   4.558   1.191   0.741
 6884SOL    HW327856   4.506   1.155   0.603
 6884SOL    MW427857   4.492   1.184   0.684
 6885SOL     OW27858   4.503   1.529   1.592
 6885SOL    HW227859   4.587   1.555   1.631
 6885SOL    HW327860   4.527   1.473   1.518
 6885SOL    MW427861   4.517   1.525   1.587
 6886SOL     OW27862   4.255   0.692   0.680
 6886SOL    HW227863   4.240   0.612   0.731
 6886SOL    HW327864   4.337   0.727   0.714
 6886SOL    MW427865   4.263   0.684   0.692
 6887SOL     OW27866   4.592   1.378   1.365
 6887SOL    HW227867   4.556   1.444   1.305
 6887SOL    HW327868   4.520   1.316   1.378
 6887SOL    MW427869   4.578   1.378   1.359
 6888SOL     OW27870   4.397   0.518   1.057
 6888SOL    HW227871   4.303   0.514   1.075
 6888SOL    HW327872   4.427   0.427   1.066
 6888SOL    MW427873   4.388   0.506   1.060
 6889SOL     OW27874   4.143   0.932   0.961
 6889SOL    HW227875   4.098   0.939   0.877
 6889SOL    HW327876   4.123   1.015   1.005
 6889SOL    MW427877   4.135   0.944   0.955
 6890SOL     OW27878   3.840   1.778   0.836
 6890SOL    HW227879   3.929   1.770   0.871
 6890SOL    HW327880   3.804   1.690   0.841
 6890SOL    MW427881   3.847   1.765   0.841
 6891SOL     OW27882   5.105   1.170   0.205
 6891SOL    HW227883   5.023   1.206   0.171
 6891SOL    HW327884   5.173   1.213   0.154
 6891SOL    MW427885   5.103   1.180   0.193
 6892SOL     OW27886   4.104   1.305   0.871
 6892SOL    HW227887   4.080   1.358   0.947
 6892SOL    HW327888   4.160   1.363   0.819
 6892SOL    MW427889   4.108   1.320   0.874
 6893SOL     OW27890   4.666   0.949   0.681
 6893SOL    HW227891   4.580   0.936   0.721
 6893SOL    HW327892   4.719   0.876   0.713
 6893SOL    MW427893   4.662   0.938   0.690
 6894SOL     OW27894   4.074   1.601   1.466
 6894SOL    HW227895   3.982   1.577   1.451
 6894SOL    HW327896   4.118   1.518   1.483
 6894SOL    MW427897   4.068   1.586   1.465
 6895SOL     OW27898   4.657   1.311   0.398
 6895SOL    HW227899   4.634   1.373   0.466
 6895SOL    HW327900   4.614   1.229   0.424
 6895SOL    MW427901   4.649   1.307   0.409
 6896SOL     OW27902   5.530   0.312   0.854
 6896SOL    HW227903   5.467   0.292   0.923
 6896SOL    HW327904   5.520   0.241   0.791
 6896SOL    MW427905   5.520   0.299   0.855
 6897SOL     OW27906   4.154   0.284   0.366
 6897SOL    HW227907   4.128   0.246   0.282
 6897SOL    HW327908   4.091   0.354   0.382
 6897SOL    MW427909   4.143   0.287   0.357
 6898SOL     OW27910   3.989   1.245   0.403
 6898SOL    HW227911   3.937   1.313   0.359
 6898SOL    HW327912   3.986   1.171   0.343
 6898SOL    MW427913   3.981   1.244   0.390
 6899SOL     OW27914   4.651   1.708   0.181
 6899SOL    HW227915   4.606   1.724   0.264
 6899SOL    HW327916   4.582   1.673   0.123
 6899SOL    MW427917   4.637   1.705   0.183
 6900SOL     OW27918   5.586   0.481   0.156
 6900SOL    HW227919   5.495   0.483   0.184
 6900SOL    HW327920   5.631   0.543   0.214
 6900SOL    MW427921   5.579   0.489   0.166
 6901SOL     OW27922   5.331   1.084   0.506
 6901SOL    HW227923   5.241   1.084   0.541
 6901SOL    HW327924   5.324   1.130   0.423
 6901SOL    MW427925   5.318   1.090   0.500
 6902SOL     OW27926   5.131   0.719   1.578
 6902SOL    HW227927   5.200   0.657   1.555
 6902SOL    HW327928   5.056   0.693   1.525
 6902SOL    MW427929   5.131   0.706   1.569
 6903SOL     OW27930   3.872   1.599   1.130
 6903SOL    HW227931   3.855   1.545   1.207
 6903SOL    HW327932   3.860   1.689   1.160
 6903SOL    MW427933   3.869   1.603   1.144
 6904SOL     OW27934   4.867   1.106   1.570
 6904SOL    HW227935   4.852   1.199   1.555
 6904SOL    HW327936   4.962   1.096   1.570
 6904SOL    MW427937   4.876   1.116   1.567
 6905SOL     OW27938   4.663   0.530   1.771
 6905SOL    HW227939   4.753   0.531   1.738
 6905SOL    HW327940   4.622   0.455   1.729
 6905SOL    MW427941   4.669   0.520   1.762
 6906SOL     OW27942   5.238   1.062   0.898
 6906SOL    HW227943   5.241   0.996   0.829
 6906SOL    HW327944   5.323   1.105   0.894
 6906SOL    MW427945   5.250   1.058   0.889
 6907SOL     OW27946   4.858   0.665   0.467
 6907SOL    HW227947   4.884   0.689   0.378
 6907SOL    HW327948   4.840   0.572   0.463
 6907SOL    MW427949   4.860   0.657   0.454
 6908SOL     OW27950   5.523   1.285   0.318
 6908SOL    HW227951   5.479   1.326   0.393
 6908SOL    HW327952   5.580   1.353   0.283
 6908SOL    MW427953   5.525   1.299   0.323
 6909SOL     OW27954   4.443   0.334   1.721
 6909SOL    HW227955   4.453   0.260   1.661
 6909SOL    HW327956   4.479   0.303   1.804
 6909SOL    MW427957   4.449   0.320   1.723
 6910SOL     OW27958   4.179   1.701   0.636
 6910SOL    HW227959   4.211   1.789   0.614
 6910SOL    HW327960   4.132   1.673   0.558
 6910SOL    MW427961   4.178   1.709   0.623
 6911SOL     OW27962   5.563   0.063   0.685
 6911SOL    HW227963   5.617   0.014   0.747
 6911SOL    HW327964   5.506  -0.003   0.646
 6911SOL    MW427965   5.563   0.047   0.687
 6912SOL     OW27966   3.895   1.761   0.213
 6912SOL    HW227967   3.924   1.851   0.205
 6912SOL    HW327968   3.845   1.744   0.134
 6912SOL    MW427969   3.893   1.769   0.202
 6913SOL     OW27970   4.682   0.016   1.098
 6913SOL    HW227971   4.641   0.094   1.060
 6913SOL    HW327972   4.776   0.034   1.093
 6913SOL    MW427973   4.688   0.028   1.093
 6914SOL     OW27974   5.299   1.569   0.184
 6914SOL    HW227975   5.347   1.638   0.230
 6914SOL    HW327976   5.220   1.613   0.153
 6914SOL    MW427977   5.294   1.583   0.187
 6915SOL     OW27978   4.697   0.694   0.128
 6915SOL    HW227979   4.699   0.641   0.049
 6915SOL    HW327980   4.785   0.731   0.134
 6915SOL    MW427981   4.709   0.693   0.117
 6916SOL     OW27982   5.311   0.620   0.464
 6916SOL    HW227983   5.350   0.620   0.551
 6916SOL    HW327984   5.252   0.696   0.464
 6916SOL    MW427985   5.308   0.631   0.475
 6917SOL     OW27986   4.628   0.987   1.593
 6917SOL    HW227987   4.605   0.967   1.683
 6917SOL    HW327988   4.713   1.031   1.598
 6917SOL    MW427989   4.635   0.990   1.605
 6918SOL     OW27990   4.708   0.124   1.353
 6918SOL    HW227991   4.714   0.086   1.266
 6918SOL    HW327992   4.697   0.218   1.338
 6918SOL    MW427993   4.709   0.132   1.341
 6919SOL     OW27994   4.797   0.613   1.187
 6919SOL    HW227995   4.872   0.642   1.134
 6919SOL    HW327996   4.729   0.678   1.171
 6919SOL    MW427997   4.798   0.625   1.177
 6920SOL     OW27998   5.347   0.581   1.464
 6920SOL    HW227999   5.328   0.490   1.443
 6920SOL    HW328000   5.325   0.630   1.385
 6920SOL    MW428001   5.342   0.574   1.451
 6921SOL     OW28002   5.489   1.675   1.368
 6921SOL    HW228003   5.417   1.637   1.419
 6921SOL    HW328004   5.506   1.760   1.409
 6921SOL    MW428005   5.483   1.680   1.380
 6922SOL     OW28006   4.794   0.319   1.570
 6922SOL    HW228007   4.760   0.358   1.489
 6922SOL    HW328008   4.772   0.227   1.563
 6922SOL    MW428009   4.787   0.312   1.560
 6923SOL     OW28010   5.203   1.133   1.646
 6923SOL    HW228011   5.285   1.174   1.676
 6923SOL    HW328012   5.166   1.095   1.726
 6923SOL    MW428013   5.209   1.134   1.661
 6924SOL     OW28014   5.498   0.506   0.630
 6924SOL    HW228015   5.587   0.475   0.647
 6924SOL    HW328016   5.441   0.446   0.678
 6924SOL    MW428017   5.501   0.494   0.639
 6925SOL     OW28018   3.924   0.220   0.659
 6925SOL    HW228019   3.915   0.160   0.585
 6925SOL    HW328020   3.857   0.191   0.722
 6925SOL    MW428021   3.914   0.207   0.657
 6926SOL     OW28022   4.867   1.313   0.220
 6926SOL    HW228023   4.817   1.315   0.302
 6926SOL    HW328024   4.801   1.331   0.152
 6926SOL    MW428025   4.853   1.315   0.222
 6927SOL     OW28026   3.871   0.393   1.022
 6927SOL    HW228027   3.843   0.484   1.031
 6927SOL    HW328028   3.808   0.354   0.961
 6927SOL    MW428029   3.858   0.399   1.016
 6928SOL     OW28030   4.330   1.731   0.328
 6928SOL    HW228031   4.251   1.689   0.361
 6928SOL    HW328032   4.396   1.714   0.395
 6928SOL    MW428033   4.329   1.723   0.341
 6929SOL     OW28034   5.458   1.251   1.725
 6929SOL    HW228035   5.508   1.177   1.757
 6929SOL    HW328036   5.404   1.278   1.800
 6929SOL    MW428037   5.458   1.245   1.738
 6930SOL     OW28038   4.466   1.146   0.035
 6930SOL    HW228039   4.388   1.092   0.022
 6930SOL    HW328040   4.437   1.219   0.088
 6930SOL    MW428041   4.452   1.148   0.040
 6931SOL     OW28042   5.592   0.886   1.227
 6931SOL    HW228043   5.608   0.924   1.140
 6931SOL    HW328044   5.626   0.952   1.288
 6931SOL    MW428045   5.599   0.899   1.223
 6932SOL     OW28046   5.384   1.595   0.896
 6932SOL    HW228047   5.413   1.662   0.957
 6932SOL    HW328048   5.365   1.519   0.951
 6932SOL    MW428049   5.386   1.595   0.911
 6933SOL     OW28050   5.047   1.662   0.103
 6933SOL    HW228051   4.973   1.625   0.153
 6933SOL    HW328052   5.055   1.752   0.136
 6933SOL    MW428053   5.038   1.669   0.115
 6934SOL     OW28054   3.855   0.668   1.192
 6934SOL    HW228055   3.917   0.698   1.258
 6934SOL    HW328056   3.789   0.737   1.186
 6934SOL    MW428057   3.854   0.681   1.199
 6935SOL     OW28058   5.271   1.336   0.045
 6935SOL    HW228059   5.218   1.385  -0.019
 6935SOL    HW328060   5.302   1.402   0.106
 6935SOL    MW428061   5.269   1.350   0.043
 6936SOL     OW28062   4.496   0.225   0.100
 6936SOL    HW228063   4.444   0.145   0.088
 6936SOL    HW328064   4.583   0.202   0.068
 6936SOL    MW428065   4.499   0.211   0.094
 6937SOL     OW28066   3.950   1.777   1.644
 6937SOL    HW228067   3.924   1.845   1.582
 6937SOL    HW328068   3.998   1.714   1.592
 6937SOL    MW428069   3.952   1.777   1.630
 6938SOL     OW28070   4.002   1.096   1.151
 6938SOL    HW228071   4.055   1.171   1.176
 6938SOL    HW328072   3.921   1.134   1.117
 6938SOL    MW428073   3.998   1.111   1.151
 6939SOL     OW28074   4.542   1.000   1.139
 6939SOL    HW228075   4.570   0.909   1.151
 6939SOL    HW328076   4.471   0.994   1.075
 6939SOL    MW428077   4.535   0.988   1.134
 6940SOL     OW28078   3.857   0.865   0.557
 6940SOL    HW228079   3.948   0.880   0.584
 6940SOL    HW328080   3.860   0.786   0.503
 6940SOL    MW428081   3.869   0.857   0.555
 6941SOL     OW28082   4.093   0.573   1.811
 6941SOL    HW228083   4.040   0.653   1.818
 6941SOL    HW328084   4.163   0.585   1.876
 6941SOL    MW428085   4.095   0.586   1.819
 6942SOL     OW28086   4.479   0.123   1.518
 6942SOL    HW228087   4.456   0.031   1.520
 6942SOL    HW328088   4.565   0.125   1.475
 6942SOL    MW428089   4.486   0.113   1.514
 6943SOL     OW28090   4.163   0.647   1.557
 6943SOL    HW228091   4.243   0.697   1.543
 6943SOL    HW328092   4.154   0.641   1.652
 6943SOL    MW428093   4.172   0.653   1.567
 6944SOL     OW28094   4.484   1.797   0.931
 6944SOL    HW228095   4.573   1.812   0.961
 6944SOL    HW328096   4.479   1.844   0.847
 6944SOL    MW428097   4.494   1.805   0.924
 6945SOL     OW28098   5.140   0.172   1.828
 6945SOL    HW228099   5.196   0.099   1.854
 6945SOL    HW328100   5.110   0.210   1.910
 6945SOL    MW428101   5.144   0.167   1.841
 6946SOL     OW28102   3.865   1.477   0.596
 6946SOL    HW228103   3.837   1.516   0.678
 6946SOL    HW328104   3.885   1.386   0.618
 6946SOL    MW428105   3.863   1.469   0.609
 6947SOL     OW28106   4.698   1.520   0.631
 6947SOL    HW228107   4.781   1.474   0.615
 6947SOL    HW328108   4.688   1.519   0.727
 6947SOL    MW428109   4.708   1.513   0.641
 6948SOL     OW28110   5.530   0.665   0.945
 6948SOL    HW228111   5.619   0.695   0.927
 6948SOL    HW328112   5.510   0.605   0.874
 6948SOL    MW428113   5.539   0.662   0.934
 6949SOL     OW28114   5.381   0.844   1.825
 6949SOL    HW228115   5.436   0.768   1.806
 6949SOL    HW328116   5.383   0.852   1.920
 6949SOL    MW428117   5.389   0.835   1.833
 6950SOL     OW28118   4.431   1.577   0.036
 6950SOL    HW228119   4.371   1.646   0.006
 6950SOL    HW328120   4.376   1.519   0.089
 6950SOL    MW428121   4.415   1.579   0.038
 6951SOL     OW28122   4.869   0.222   0.259
 6951SOL    HW228123   4.802   0.198   0.196
 6951SOL    HW328124   4.934   0.271   0.208
 6951SOL    MW428125   4.869   0.224   0.244
 6952SOL     OW28126   4.676   0.406   1.344
 6952SOL    HW228127   4.595   0.447   1.372
 6952SOL    HW328128   4.723   0.474   1.296
 6952SOL    MW428129   4.671   0.421   1.342
 6953SOL     OW28130   4.936   0.744   0.967
 6953SOL    HW228131   4.949   0.838   0.977
 6953SOL    HW328132   4.897   0.734   0.881
 6953SOL    MW428133   4.932   0.755   0.957
 6954SOL     OW28134   4.388   0.939   0.771
 6954SOL    HW228135   4.299   0.930   0.804
 6954SOL    HW328136   4.392   1.029   0.739
 6954SOL    MW428137   4.377   0.950   0.771
 6955SOL     OW28138   5.187   0.522   0.766
 6955SOL    HW228139   5.132   0.443   0.765
 6955SOL    HW328140   5.169   0.563   0.850
 6955SOL    MW428141   5.177   0.517   0.775
 6956SOL     OW28142   4.158   0.209   1.583
 6956SOL    HW228143   4.079   0.227   1.635
 6956SOL    HW328144   4.153   0.271   1.510
 6956SOL    MW428145   4.148   0.219   1.580
 6957SOL     OW28146   4.806   0.726   0.723
 6957SOL    HW228147   4.743   0.658   0.747
 6957SOL    HW328148   4.826   0.707   0.631
 6957SOL    MW428149   4.800   0.713   0.715
 6958SOL     OW28150   4.062   1.621   0.425
 6958SOL    HW228151   4.023   1.668   0.351
 6958SOL    HW328152   3.996   1.556   0.450
 6958SOL    MW428153   4.049   1.619   0.419
 6959SOL     OW28154   4.554   1.030   0.449
 6959SOL    HW228155   4.556   1.004   0.356
 6959SOL    HW328156   4.612   0.967   0.492
 6959SOL    MW428157   4.562   1.019   0.443
 6960SOL     OW28158   5.107   1.590   1.221
 6960SOL    HW228159   5.032   1.636   1.259
 6960SOL    HW328160   5.089   1.497   1.238
 6960SOL    MW428161   5.096   1.584   1.229
 6961SOL     OW28162   5.111   1.798   0.651
 6961SOL    HW228163   5.054   1.751   0.590
 6961SOL    HW328164   5.197   1.759   0.638
 6961SOL    MW428165   5.114   1.789   0.641
 6962SOL     OW28166   5.064   0.274   0.782
 6962SOL    HW228167   5.092   0.206   0.843
 6962SOL    HW328168   4.978   0.245   0.752
 6962SOL    MW428169   5.057   0.261   0.786
 6963SOL     OW28170   3.869   1.208   0.716
 6963SOL    HW228171   3.933   1.240   0.779
 6963SOL    HW328172   3.918   1.144   0.664
 6963SOL    MW428173   3.884   1.204   0.717
 6964SOL     OW28174   4.369   1.284   1.698
 6964SOL    HW228175   4.417   1.367   1.685
 6964SOL    HW328176   4.426   1.232   1.754
 6964SOL    MW428177   4.383   1.288   1.704
 6965SOL     OW28178   3.945   1.526   1.838
 6965SOL    HW228179   4.001   1.450   1.853
 6965SOL    HW328180   3.894   1.504   1.760
 6965SOL    MW428181   3.945   1.513   1.829
 6966SOL     OW28182   5.044   0.378   0.117
 6966SOL    HW228183   5.017   0.444   0.053
 6966SOL    HW328184   5.114   0.421   0.167
 6966SOL    MW428185   5.049   0.391   0.114
 6967SOL     OW28186   4.712   0.083   0.054
 6967SOL    HW228187   4.768   0.075  -0.024
 6967SOL    HW328188   4.689  -0.007   0.076
 6967SOL    MW428189   4.717   0.070   0.047
 6968SOL     OW28190   5.217   0.934   0.259
 6968SOL    HW228191   5.184   1.023   0.249
 6968SOL    HW328192   5.182   0.905   0.344
 6968SOL    MW428193   5.207   0.943   0.270
 6969SOL     OW28194   4.830   1.363   1.447
 6969SOL    HW228195   4.741   1.369   1.415
 6969SOL    HW328196   4.874   1.442   1.415
 6969SOL    MW428197   4.825   1.373   1.439
 6970SOL     OW28198   4.123   0.031   1.789
 6970SOL    HW228199   4.051  -0.004   1.737
 6970SOL    HW328200   4.181   0.072   1.724
 6970SOL    MW428201   4.121   0.032   1.774
 6971SOL     OW28202   4.147   1.521   1.088
 6971SOL    HW228203   4.192   1.583   1.145
 6971SOL    HW328204   4.054   1.540   1.101
 6971SOL    MW428205   4.140   1.531   1.095
 6972SOL     OW28206   5.587   1.050   1.442
 6972SOL    HW228207   5.502   1.063   1.401
 6972SOL    HW328208   5.567   1.014   1.529
 6972SOL    MW428209   5.574   1.046   1.447
 6973SOL     OW28210   4.569   1.589   1.196
 6973SOL    HW228211   4.593   1.578   1.105
 6973SOL    HW328212   4.492   1.646   1.194
 6973SOL    MW428213   4.561   1.594   1.185
 6974SOL     OW28214   4.211   0.972   0.051
 6974SOL    HW228215   4.134   0.985   0.107
 6974SOL    HW328216   4.175   0.936  -0.030
 6974SOL    MW428217   4.197   0.968   0.048
 6975SOL     OW28218   4.864   0.945   0.294
 6975SOL    HW228219   4.774   0.966   0.269
 6975SOL    HW328220   4.891   1.018   0.350
 6975SOL    MW428221   4.856   0.957   0.297
 6976SOL     OW28222   4.364   1.294   0.986
 6976SOL    HW228223   4.357   1.273   1.080
 6976SOL    HW328224   4.282   1.262   0.949
 6976SOL    MW428225   4.352   1.288   0.993
 6977SOL     OW28226   5.228   0.304   1.388
 6977SOL    HW228227   5.175   0.306   1.468
 6977SOL    HW328228   5.213   0.217   1.351
 6977SOL    MW428229   5.220   0.294   1.393
 6978SOL     OW28230   5.564   0.228   1.261
 6978SOL    HW228231   5.545   0.295   1.196
 6978SOL    HW328232   5.621   0.166   1.216
 6978SOL    MW428233   5.568   0.229   1.247
 6979SOL     OW28234   3.810   1.386   1.649
 6979SOL    HW228235   3.854   1.319   1.595
 6979SOL    HW328236   3.725   1.348   1.669
 6979SOL    MW428237   3.805   1.372   1.645
 6980SOL     OW28238   4.493   0.061   0.701
 6980SOL    HW228239   4.422   0.122   0.683
 6980SOL    HW328240   4.544   0.058   0.620
 6980SOL    MW428241   4.489   0.067   0.688
 6981SOL     OW28242   4.251   1.301   0.450
 6981SOL    HW228243   4.244   1.333   0.540
 6981SOL    HW328244   4.161   1.285   0.422
 6981SOL    MW428245   4.239   1.303   0.457
 6982SOL     OW28246   4.846   1.694   1.359
 6982SOL    HW228247   4.766   1.679   1.309
 6982SOL    HW328248   4.853   1.789   1.366
 6982SOL    MW428249   4.837   1.705   1.353
 6983SOL     OW28250   4.960   1.659   0.849
 6983SOL    HW228251   5.007   1.732   0.808
 6983SOL    HW328252   4.881   1.698   0.885
 6983SOL    MW428253   4.955   1.674   0.848
 6984SOL     OW28254   5.368   1.754   1.124
 6984SOL    HW228255   5.411   1.724   1.204
 6984SOL    HW328256   5.287   1.702   1.121
 6984SOL    MW428257   5.363   1.743   1.134
 6985SOL     OW28258   4.453   0.718   1.831
 6985SOL    HW228259   4.523   0.660   1.803
 6985SOL    HW328260   4.396   0.663   1.886
 6985SOL    MW428261   4.455   0.705   1.835
 6986SOL     OW28262   5.240   0.930   1.464
 6986SOL    HW228263   5.245   0.983   1.544
 6986SOL    HW328264   5.202   0.847   1.492
 6986SOL    MW428265   5.236   0.925   1.479
 6987SOL     OW28266   4.880   0.065   1.710
 6987SOL    HW228267   4.875  -0.028   1.691
 6987SOL    HW328268   4.963   0.076   1.756
 6987SOL    MW428269   4.888   0.054   1.714
 6988SOL     OW28270   4.254   0.585   0.164
 6988SOL    HW228271   4.220   0.641   0.234
 6988SOL    HW328272   4.325   0.535   0.204
 6988SOL    MW428273   4.260   0.586   0.178
 6989SOL     OW28274   5.350   1.336   0.986
 6989SOL    HW228275   5.385   1.318   0.899
 6989SOL    HW328276   5.255   1.337   0.973
 6989SOL    MW428277   5.342   1.333   0.973
 6990SOL     OW28278   4.779   0.984   1.355
 6990SOL    HW228279   4.822   1.019   1.433
 6990SOL    HW328280   4.762   1.061   1.301
 6990SOL    MW428281   4.782   0.999   1.358
 6991SOL     OW28282   5.310   0.471   0.228
 6991SOL    HW228283   5.302   0.542   0.165
 6991SOL    HW328284   5.328   0.515   0.311
 6991SOL    MW428285   5.311   0.485   0.230
 6992SOL     OW28286   4.170   0.126   0.657
 6992SOL    HW228287   4.220   0.169   0.588
 6992SOL    HW328288   4.085   0.170   0.657
 6992SOL    MW428289   4.167   0.139   0.648
 6993SOL     OW28290   3.929   1.188   1.517
 6993SOL    HW228291   3.957   1.141   1.595
 6993SOL    HW328292   3.850   1.143   1.488
 6993SOL    MW428293   3.922   1.177   1.523
 6994SOL     OW28294   4.437   0.515   1.484
 6994SOL    HW228295   4.409   0.603   1.508
 6994SOL    HW328296   4.406   0.459   1.555
 6994SOL    MW428297   4.429   0.518   1.496
 6995SOL     OW28298   4.979   0.733   0.203
 6995SOL    HW228299   5.026   0.751   0.122
 6995SOL    HW328300   4.945   0.817   0.231
 6995SOL    MW428301   4.981   0.747   0.196
 6996SOL     OW28302   4.092   0.911   0.697
 6996SOL    HW228303   4.150   0.967   0.645
 6996SOL    HW328304   4.136   0.826   0.699
 6996SOL    MW428305   4.105   0.908   0.690
 6997SOL     OW28306   5.232   0.263   0.534
 6997SOL    HW228307   5.154   0.213   0.559
 6997SOL    HW328308   5.203   0.354   0.534
 6997SOL    MW428309   5.218   0.267   0.537
 6998SOL     OW28310   4.818   0.225   0.693
 6998SOL    HW228311   4.838   0.300   0.637
 6998SOL    HW328312   4.798   0.264   0.778
 6998SOL    MW428313   4.819   0.241   0.697
 6999SOL     OW28314   4.714   1.475   0.025
 6999SOL    HW228315   4.741   1.553  -0.023
 6999SOL    HW328316   4.621   1.490   0.044
 6999SOL    MW428317   4.705   1.488   0.021
 7000SOL     OW28318   5.578   0.998   1.712
 7000SOL    HW228319   5.491   0.978   1.748
 7000SOL    HW328320   5.632   0.924   1.737
 7000SOL    MW428321   5.573   0.987   1.720
 7001SOL     OW28322   3.799   1.511   0.869
 7001SOL    HW228323   3.831   1.515   0.960
 7001SOL    HW328324   3.704   1.519   0.877
 7001SOL    MW428325   3.791   1.514   0.882
 7002SOL     OW28326   3.754   0.637   0.416
 7002SOL    HW228327   3.694   0.609   0.486
 7002SOL    HW328328   3.828   0.577   0.422
 7002SOL    MW428329   3.756   0.626   0.425
 7003SOL     OW28330   5.322   1.849   1.850
 7003SOL    HW228331   5.367   1.773   1.815
 7003SOL    HW328332   5.360   1.862   1.937
 7003SOL    MW428333   5.332   1.842   1.856
 7004SOL     OW28334   4.922   1.368   0.576
 7004SOL    HW228335   4.945   1.319   0.654
 7004SOL    HW328336   5.003   1.410   0.548
 7004SOL    MW428337   4.935   1.368   0.583
 7005SOL     OW28338   4.180   0.376   1.305
 7005SOL    HW228339   4.213   0.457   1.345
 7005SOL    HW328340   4.153   0.402   1.217
 7005SOL    MW428341   4.179   0.390   1.299
 7006SOL     OW28342   4.134   0.343   1.041
 7006SOL    HW228343   4.164   0.257   1.012
 7006SOL    HW328344   4.039   0.336   1.044
 7006SOL    MW428345   4.126   0.332   1.039
 7007SOL     OW28346   4.963   0.552   1.732
 7007SOL    HW228347   5.015   0.487   1.685
 7007SOL    HW328348   4.921   0.603   1.662
 7007SOL    MW428349   4.964   0.549   1.715
 7008SOL     OW28350   5.062   0.347   1.593
 7008SOL    HW228351   4.969   0.331   1.580
 7008SOL    HW328352   5.088   0.285   1.661
 7008SOL    MW428353   5.052   0.337   1.600
 7009SOL     OW28354   4.277   0.121   0.932
 7009SOL    HW228355   4.287   0.030   0.958
 7009SOL    HW328356   4.233   0.117   0.847
 7009SOL    MW428357   4.273   0.109   0.924
 7010SOL     OW28358   4.371   1.736   1.478
 7010SOL    HW228359   4.288   1.721   1.523
 7010SOL    HW328360   4.430   1.669   1.513
 7010SOL    MW428361   4.369   1.726   1.488
 7011SOL     OW28362   5.428   0.443   1.103
 7011SOL    HW228363   5.361   0.476   1.163
 7011SOL    HW328364   5.471   0.521   1.069
 7011SOL    MW428365   5.426   0.458   1.107
 7012SOL     OW28366   5.606   1.163   1.073
 7012SOL    HW228367   5.599   1.103   0.998
 7012SOL    HW328368   5.532   1.223   1.062
 7012SOL    MW428369   5.596   1.163   1.062
 7013SOL     OW28370   4.988   1.025   0.991
 7013SOL    HW228371   5.002   0.997   1.082
 7013SOL    HW328372   5.074   1.056   0.963
 7013SOL    MW428373   5.001   1.026   1.000
 7014SOL     OW28374   5.071   0.520   1.270
 7014SOL    HW228375   5.092   0.521   1.177
 7014SOL    HW328376   5.116   0.442   1.303
 7014SOL    MW428377   5.078   0.510   1.262
 7015SOL     OW28378   5.564   0.651   1.812
 7015SOL    HW228379   5.601   0.596   1.881
 7015SOL    HW328380   5.589   0.608   1.730
 7015SOL    MW428381   5.571   0.639   1.811
 7016SOL     OW28382   5.111   0.949   1.863
 7016SOL    HW228383   5.177   0.897   1.817
 7016SOL    HW328384   5.131   0.936   1.956
 7016SOL    MW428385   5.122   0.940   1.870
 7017SOL     OW28386   5.062   0.035   0.212
 7017SOL    HW228387   5.136   0.079   0.255
 7017SOL    HW328388   4.986   0.089   0.234
 7017SOL    MW428389   5.062   0.047   0.220
 7018SOL     OW28390   5.122   0.810   0.490
 7018SOL    HW228391   5.037   0.780   0.460
 7018SOL    HW328392   5.114   0.817   0.585
 7018SOL    MW428393   5.110   0.808   0.499
 7019SOL     OW28394   4.198   1.273   1.221
 7019SOL    HW228395   4.210   1.300   1.312
 7019SOL    HW328396   4.179   1.354   1.174
 7019SOL    MW428397   4.197   1.288   1.226
 7020SOL     OW28398   4.482   0.253   1.044
 7020SOL    HW228399   4.455   0.255   1.135
 7020SOL    HW328400   4.412   0.205   0.999
 7020SOL    MW428401   4.470   0.249   1.051
 7021SOL     OW28402   4.336   1.745   1.206
 7021SOL    HW228403   4.388   1.822   1.183
 7021SOL    HW328404   4.345   1.737   1.301
 7021SOL    MW428405   4.345   1.752   1.217
 7022SOL     OW28406   5.238   1.330   1.438
 7022SOL    HW228407   5.223   1.259   1.501
 7022SOL    HW328408   5.284   1.288   1.366
 7022SOL    MW428409   5.244   1.314   1.438
 7023SOL     OW28410   4.312   1.061   1.555
 7023SOL    HW228411   4.349   1.066   1.467
 7023SOL    HW328412   4.351   1.134   1.602
 7023SOL    MW428413   4.322   1.071   1.550
 7024SOL     OW28414   4.492   1.104   1.367
 7024SOL    HW228415   4.551   1.050   1.420
 7024SOL    HW328416   4.507   1.076   1.277
 7024SOL    MW428417   4.502   1.093   1.363
 7025SOL     OW28418   4.495   0.476   0.216
 7025SOL    HW228419   4.568   0.525   0.179
 7025SOL    HW328420   4.511   0.385   0.190
 7025SOL    MW428421   4.507   0.471   0.209
 7026SOL     OW28422   5.303   1.593   1.539
 7026SOL    HW228423   5.345   1.578   1.624
 7026SOL    HW328424   5.294   1.506   1.501
 7026SOL    MW428425   5.307   1.581   1.546
 7027SOL     OW28426   4.963   0.072   1.130
 7027SOL    HW228427   5.018   0.081   1.052
 7027SOL    HW328428   5.018   0.106   1.201
 7027SOL    MW428429   4.977   0.077   1.129
 7028SOL     OW28430   3.970   0.985   0.314
 7028SOL    HW228431   3.907   1.001   0.243
 7028SOL    HW328432   3.917   0.948   0.385
 7028SOL    MW428433   3.955   0.982   0.314
 7029SOL     OW28434   4.326   1.339   0.173
 7029SOL    HW228435   4.341   1.315   0.265
 7029SOL    HW328436   4.234   1.317   0.157
 7029SOL    MW428437   4.316   1.332   0.183
 7030SOL     OW28438   4.865   1.570   0.325
 7030SOL    HW228439   4.873   1.488   0.276
 7030SOL    HW328440   4.784   1.609   0.292
 7030SOL    MW428441   4.855   1.565   0.315
 7031SOL     OW28442   4.124   1.728   0.894
 7031SOL    HW228443   4.128   1.639   0.929
 7031SOL    HW328444   4.150   1.719   0.803
 7031SOL    MW428445   4.127   1.716   0.886
 7032SOL     OW28446   4.741   1.206   1.137
 7032SOL    HW228447   4.673   1.140   1.153
 7032SOL    HW328448   4.759   1.200   1.044
 7032SOL    MW428449   4.734   1.197   1.128
 7033SOL     OW28450   3.830   1.481   1.388
 7033SOL    HW228451   3.820   1.439   1.474
 7033SOL    HW328452   3.751   1.534   1.378
 7033SOL    MW428453   3.819   1.482   1.399
 7034SOL     OW28454   4.734   0.345   0.958
 7034SOL    HW228455   4.664   0.297   1.003
 7034SOL    HW328456   4.766   0.408   1.022
 7034SOL    MW428457   4.729   0.347   0.972
 7035SOL     OW28458   4.385   0.781   1.578
 7035SOL    HW228459   4.378   0.876   1.566
 7035SOL    HW328460   4.394   0.770   1.673
 7035SOL    MW428461   4.386   0.793   1.588
 7036SOL     OW28462   4.106   1.296   1.836
 7036SOL    HW228463   4.178   1.298   1.773
 7036SOL    HW328464   4.076   1.205   1.835
 7036SOL    MW428465   4.111   1.285   1.828
 7037SOL     OW28466   5.190   0.059   1.303
 7037SOL    HW228467   5.261   0.005   1.267
 7037SOL    HW328468   5.189   0.038   1.396
 7037SOL    MW428469   5.199   0.050   1.311
 7038SOL     OW28470   5.390   1.589   1.787
 7038SOL    HW228471   5.363   1.586   1.878
 7038SOL    HW328472   5.486   1.593   1.790
 7038SOL    MW428473   5.400   1.589   1.799
 7039SOL     OW28474   4.201   0.451   0.771
 7039SOL    HW228475   4.272   0.399   0.734
 7039SOL    HW328476   4.187   0.416   0.858
 7039SOL    MW428477   4.209   0.440   0.778
 7040SOL     OW28478   3.756   1.786   1.843
 7040SOL    HW228479   3.806   1.764   1.765
 7040SOL    HW328480   3.764   1.881   1.851
 7040SOL    MW428481   3.764   1.795   1.834
 7041SOL     OW28482   4.517   1.544   0.847
 7041SOL    HW228483   4.445   1.481   0.860
 7041SOL    HW328484   4.478   1.629   0.865
 7041SOL    MW428485   4.501   1.547   0.850
 7042SOL     OW28486   4.837   0.392   0.495
 7042SOL    HW228487   4.859   0.329   0.427
 7042SOL    HW328488   4.742   0.384   0.506
 7042SOL    MW428489   4.827   0.383   0.487
 7043SOL     OW28490   3.922   0.082   0.427
 7043SOL    HW228491   3.993   0.103   0.366
 7043SOL    HW328492   3.876   0.010   0.385
 7043SOL    MW428493   3.926   0.076   0.413
 7044SOL     OW28494   3.753   0.549   1.570
 7044SOL    HW228495   3.817   0.615   1.545
 7044SOL    HW328496   3.672   0.576   1.527
 7044SOL    MW428497   3.751   0.561   1.562
 7045SOL     OW28498   5.491   1.456   0.527
 7045SOL    HW228499   5.461   1.389   0.588
 7045SOL    HW328500   5.585   1.462   0.541
 7045SOL    MW428501   5.499   1.448   0.537
 7046SOL     OW28502   5.047   1.133   0.457
 7046SOL    HW228503   5.019   1.219   0.490
 7046SOL    HW328504   5.075   1.149   0.367
 7046SOL    MW428505   5.047   1.147   0.449
 7047SOL     OW28506   4.709   0.053   0.510
 7047SOL    HW228507   4.746   0.112   0.575
 7047SOL    HW328508   4.686   0.109   0.436
 7047SOL    MW428509   4.710   0.068   0.509
 7048SOL     OW28510   5.562   0.935   0.932
 7048SOL    HW228511   5.553   0.967   0.843
 7048SOL    HW328512   5.515   0.851   0.932
 7048SOL    MW428513   5.555   0.928   0.922
 7049SOL     OW28514   3.938   0.775   1.511
 7049SOL    HW228515   3.959   0.844   1.449
 7049SOL    HW328516   4.018   0.722   1.516
 7049SOL    MW428517   3.951   0.776   1.505
 7050SOL     OW28518   5.474   0.866   0.633
 7050SOL    HW228519   5.568   0.855   0.621
 7050SOL    HW328520   5.450   0.938   0.574
 7050SOL    MW428521   5.484   0.874   0.624
 7051SOL     OW28522   3.923   0.790   1.778
 7051SOL    HW228523   3.849   0.734   1.804
 7051SOL    HW328524   3.918   0.793   1.683
 7051SOL    MW428525   3.912   0.783   1.768
 7052SOL     OW28526   4.089   0.077   1.228
 7052SOL    HW228527   4.132   0.161   1.248
 7052SOL    HW328528   4.162   0.015   1.221
 7052SOL    MW428529   4.104   0.080   1.229
 7053SOL     OW28530   4.130   0.744   0.406
 7053SOL    HW228531   4.130   0.839   0.391
 7053SOL    HW328532   4.207   0.728   0.460
 7053SOL    MW428533   4.140   0.755   0.411
 7054SOL     OW28534   4.906   0.603   1.470
 7054SOL    HW228535   4.942   0.576   1.386
 7054SOL    HW328536   4.819   0.637   1.449
 7054SOL    MW428537   4.900   0.604   1.457
 7055SOL     OW28538   3.889   0.475   0.695
 7055SOL    HW228539   3.951   0.482   0.768
 7055SOL    HW328540   3.889   0.382   0.672
 7055SOL    MW428541   3.897   0.464   0.702
 7056SOL     OW28542   5.436   1.815   0.227
 7056SOL    HW228543   5.503   1.848   0.167
 7056SOL    HW328544   5.393   1.894   0.261
 7056SOL    MW428545   5.438   1.830   0.223
 7057SOL     OW28546   4.571   0.736   1.179
 7057SOL    HW228547   4.529   0.654   1.155
 7057SOL    HW328548   4.572   0.735   1.275
 7057SOL    MW428549   4.564   0.725   1.188
 7058SOL     OW28550   5.242   1.869   1.578
 7058SOL    HW228551   5.245   1.775   1.561
 7058SOL    HW328552   5.265   1.877   1.670
 7058SOL    MW428553   5.245   1.857   1.588
 7059SOL     OW28554   4.375   0.206   1.284
 7059SOL    HW228555   4.306   0.269   1.305
 7059SOL    HW328556   4.402   0.170   1.369
 7059SOL    MW428557   4.369   0.209   1.297
 7060SOL     OW28558   3.758   1.047   0.153
 7060SOL    HW228559   3.727   1.112   0.216
 7060SOL    HW328560   3.707   0.969   0.172
 7060SOL    MW428561   3.748   1.044   0.163
 7061SOL     OW28562   5.170   0.059   0.901
 7061SOL    HW228563   5.258   0.068   0.938
 7061SOL    HW328564   5.180   0.000   0.827
 7061SOL    MW428565   5.184   0.053   0.895
 7062SOL     OW28566   5.202   0.798   0.745
 7062SOL    HW228567   5.282   0.813   0.694
 7062SOL    HW328568   5.195   0.703   0.751
 7062SOL    MW428569   5.211   0.787   0.740
 7063SOL     OW28570   4.342   1.847   0.095
 7063SOL    HW228571   4.247   1.847   0.087
 7063SOL    HW328572   4.358   1.793   0.173
 7063SOL    MW428573   4.332   1.841   0.104
 7064SOL     OW28574   4.652   0.724   1.442
 7064SOL    HW228575   4.721   0.791   1.439
 7064SOL    HW328576   4.585   0.762   1.498
 7064SOL    MW428577   4.653   0.737   1.449
 7065SOL     OW28578   4.070   1.024   1.690
 7065SOL    HW228579   4.024   0.940   1.692
 7065SOL    HW328580   4.127   1.018   1.614
 7065SOL    MW428581   4.072   1.012   1.682
 7066SOL     OW28582   5.187   0.667   0.011
 7066SOL    HW228583   5.115   0.643  -0.047
 7066SOL    HW328584   5.253   0.704  -0.047
 7066SOL    MW428585   5.186   0.669  -0.004
 7067SOL     OW28586   4.321   1.399   0.691
 7067SOL    HW228587   4.386   1.332   0.712
 7067SOL    HW328588   4.373   1.476   0.668
 7067SOL    MW428589   4.336   1.401   0.690
 7068SOL     OW28590   4.582   0.564   0.821
 7068SOL    HW228591   4.522   0.582   0.893
 7068SOL    HW328592   4.616   0.476   0.840
 7068SOL    MW428593   4.578   0.554   0.834
 7069SOL     OW28594   5.523   0.063   1.490
 7069SOL    HW228595   5.444   0.109   1.518
 7069SOL    HW328596   5.558   0.117   1.419
 7069SOL    MW428597   5.517   0.076   1.484
 7070SOL     OW28598   4.807   1.147   0.840
 7070SOL    HW228599   4.899   1.128   0.858
 7070SOL    HW328600   4.780   1.077   0.780
 7070SOL    MW428601   4.815   1.135   0.834
 7071SOL     OW28602   4.600   0.967   0.195
 7071SOL    HW228603   4.586   0.879   0.160
 7071SOL    HW328604   4.551   1.024   0.136
 7071SOL    MW428605   4.592   0.962   0.183
 7072SOL     OW28606   5.000   1.333   1.204
 7072SOL    HW228607   5.011   1.300   1.293
 7072SOL    HW328608   4.919   1.292   1.173
 7072SOL    MW428609   4.990   1.325   1.210
 7073SOL     OW28610   4.013   0.691   0.974
 7073SOL    HW228611   3.963   0.690   1.055
 7073SOL    HW328612   4.033   0.783   0.958
 7073SOL    MW428613   4.009   0.703   0.982
 7074SOL     OW28614   5.080   1.455   1.736
 7074SOL    HW228615   5.080   1.549   1.752
 7074SOL    HW328616   5.125   1.445   1.652
 7074SOL    MW428617   5.086   1.465   1.727
 7075SOL     OW28618   5.319   0.173   0.297
 7075SOL    HW228619   5.312   0.177   0.392
 7075SOL    HW328620   5.331   0.264   0.270
 7075SOL    MW428621   5.320   0.186   0.305
 7076SOL     OW28622   4.608   0.736   0.411
 7076SOL    HW228623   4.588   0.722   0.318
 7076SOL    HW328624   4.701   0.715   0.418
 7076SOL    MW428625   4.618   0.731   0.400
 7077SOL     OW28626   3.935   0.359   1.715
 7077SOL    HW228627   3.892   0.418   1.652
 7077SOL    HW328628   4.003   0.414   1.755
 7077SOL    MW428629   3.939   0.374   1.712
 7078SOL     OW28630   5.047   0.979   1.260
 7078SOL    HW228631   5.110   0.976   1.333
 7078SOL    HW328632   4.963   0.997   1.302
 7078SOL    MW428633   5.043   0.981   1.275
 7079SOL     OW28634   4.591   1.694   0.449
 7079SOL    HW228635   4.649   1.765   0.476
 7079SOL    HW328636   4.614   1.622   0.507
 7079SOL    MW428637   4.602   1.694   0.460
 7080SOL     OW28638   5.386   0.156   1.039
 7080SOL    HW228639   5.431   0.074   1.058
 7080SOL    HW328640   5.406   0.212   1.115
 7080SOL    MW428641   5.396   0.152   1.051
 7081SOL     OW28642   3.834  -0.001   1.138
 7081SOL    HW228643   3.825   0.000   1.043
 7081SOL    HW328644   3.928   0.011   1.153
 7081SOL    MW428645   3.846   0.002   1.129
 7082SOL     OW28646   5.471   1.192   0.758
 7082SOL    HW228647   5.450   1.138   0.681
 7082SOL    HW328648   5.567   1.190   0.762
 7082SOL    MW428649   5.480   1.185   0.747
 7083SOL     OW28650   4.163   1.337   1.501
 7083SOL    HW228651   4.084   1.287   1.524
 7083SOL    HW328652   4.233   1.296   1.551
 7083SOL    MW428653   4.161   1.325   1.511
 7084SOL     OW28654   4.047   0.126   0.184
 7084SOL    HW228655   3.976   0.181   0.152
 7084SOL    HW328656   4.089   0.092   0.105
 7084SOL    MW428657   4.043   0.128   0.170
 7085SOL     OW28658   5.171   0.623   1.020
 7085SOL    HW228659   5.094   0.669   0.986
 7085SOL    HW328660   5.228   0.692   1.054
 7085SOL    MW428661   5.168   0.638   1.020
 7086SOL     OW28662   3.803   0.225   0.033
 7086SOL    HW228663   3.770   0.304   0.077
 7086SOL    HW328664   3.858   0.258  -0.038
 7086SOL    MW428665   3.806   0.239   0.030
 7087SOL     OW28666   3.837   1.482   0.222
 7087SOL    HW228667   3.854   1.566   0.264
 7087SOL    HW328668   3.872   1.491   0.134
 7087SOL    MW428669   3.842   1.495   0.216
 7088SOL     OW28670   5.109   1.571   0.439
 7088SOL    HW228671   5.172   1.561   0.368
 7088SOL    HW328672   5.026   1.591   0.394
 7088SOL    MW428673   5.106   1.572   0.424
 7089SOL     OW28674   5.472   0.839   2.125
 7089SOL    HW228675   5.513   0.781   2.190
 7089SOL    HW328676   5.379   0.831   2.142
 7089SOL    MW428677   5.466   0.831   2.135
 7090SOL     OW28678   5.338   0.771   3.120
 7090SOL    HW228679   5.293   0.838   3.171
 7090SOL    HW328680   5.426   0.807   3.106
 7090SOL    MW428681   5.344   0.784   3.124
 7091SOL     OW28682   4.266   1.022   2.354
 7091SOL    HW228683   4.356   0.997   2.338
 7091SOL    HW328684   4.262   1.115   2.331
 7091SOL    MW428685   4.278   1.031   2.349
 7092SOL     OW28686   5.382   1.725   2.496
 7092SOL    HW228687   5.394   1.671   2.574
 7092SOL    HW328688   5.419   1.673   2.425
 7092SOL    MW428689   5.388   1.710   2.497
 7093SOL     OW28690   4.761   1.610   3.497
 7093SOL    HW228691   4.802   1.646   3.418
 7093SOL    HW328692   4.796   1.521   3.504
 7093SOL    MW428693   4.772   1.603   3.488
 7094SOL     OW28694   5.318   1.165   3.101
 7094SOL    HW228695   5.239   1.130   3.059
 7094SOL    HW328696   5.345   1.237   3.045
 7094SOL    MW428697   5.311   1.170   3.088
 7095SOL     OW28698   4.550   0.478   2.367
 7095SOL    HW228699   4.525   0.566   2.395
 7095SOL    HW328700   4.547   0.481   2.271
 7095SOL    MW428701   4.546   0.490   2.359
 7096SOL     OW28702   3.992   0.506   2.295
 7096SOL    HW228703   4.024   0.594   2.277
 7096SOL    HW328704   3.980   0.504   2.390
 7096SOL    MW428705   3.995   0.518   2.307
 7097SOL     OW28706   4.070   0.919   3.196
 7097SOL    HW228707   4.133   0.866   3.147
 7097SOL    HW328708   4.051   0.993   3.139
 7097SOL    MW428709   4.076   0.921   3.183
 7098SOL     OW28710   4.391   0.261   2.382
 7098SOL    HW228711   4.449   0.337   2.384
 7098SOL    HW328712   4.326   0.282   2.315
 7098SOL    MW428713   4.390   0.273   2.373
 7099SOL     OW28714   4.478   1.188   2.557
 7099SOL    HW228715   4.558   1.191   2.609
 7099SOL    HW328716   4.506   1.155   2.471
 7099SOL    MW428717   4.492   1.184   2.552
 7100SOL     OW28718   4.503   1.529   3.460
 7100SOL    HW228719   4.587   1.555   3.499
 7100SOL    HW328720   4.527   1.473   3.386
 7100SOL    MW428721   4.517   1.525   3.455
 7101SOL     OW28722   4.255   0.692   2.548
 7101SOL    HW228723   4.240   0.612   2.599
 7101SOL    HW328724   4.337   0.727   2.582
 7101SOL    MW428725   4.263   0.684   2.560
 7102SOL     OW28726   4.397   0.518   2.925
 7102SOL    HW228727   4.303   0.514   2.943
 7102SOL    HW328728   4.427   0.427   2.934
 7102SOL    MW428729   4.388   0.506   2.928
 7103SOL     OW28730   4.143   0.932   2.829
 7103SOL    HW228731   4.098   0.939   2.745
 7103SOL    HW328732   4.123   1.015   2.873
 7103SOL    MW428733   4.135   0.944   2.823
 7104SOL     OW28734   3.840   1.778   2.704
 7104SOL    HW228735   3.929   1.770   2.739
 7104SOL    HW328736   3.804   1.690   2.709
 7104SOL    MW428737   3.847   1.765   2.709
 7105SOL     OW28738   5.105   1.170   2.073
 7105SOL    HW228739   5.023   1.206   2.039
 7105SOL    HW328740   5.173   1.213   2.022
 7105SOL    MW428741   5.103   1.180   2.061
 7106SOL     OW28742   4.104   1.305   2.739
 7106SOL    HW228743   4.080   1.358   2.815
 7106SOL    HW328744   4.160   1.363   2.687
 7106SOL    MW428745   4.108   1.320   2.742
 7107SOL     OW28746   4.666   0.949   2.549
 7107SOL    HW228747   4.580   0.936   2.589
 7107SOL    HW328748   4.719   0.876   2.581
 7107SOL    MW428749   4.662   0.938   2.558
 7108SOL     OW28750   4.074   1.601   3.334
 7108SOL    HW228751   3.982   1.577   3.319
 7108SOL    HW328752   4.118   1.518   3.351
 7108SOL    MW428753   4.068   1.586   3.333
 7109SOL     OW28754   5.530   0.312   2.722
 7109SOL    HW228755   5.467   0.292   2.791
 7109SOL    HW328756   5.520   0.241   2.659
 7109SOL    MW428757   5.520   0.299   2.723
 7110SOL     OW28758   4.154   0.284   2.234
 7110SOL    HW228759   4.128   0.246   2.150
 7110SOL    HW328760   4.091   0.354   2.250
 7110SOL    MW428761   4.143   0.287   2.225
 7111SOL     OW28762   3.989   1.245   2.271
 7111SOL    HW228763   3.937   1.313   2.227
 7111SOL    HW328764   3.986   1.171   2.211
 7111SOL    MW428765   3.981   1.244   2.258
 7112SOL     OW28766   4.651   1.708   2.049
 7112SOL    HW228767   4.606   1.724   2.132
 7112SOL    HW328768   4.582   1.673   1.991
 7112SOL    MW428769   4.637   1.705   2.051
 7113SOL     OW28770   5.586   0.481   2.024
 7113SOL    HW228771   5.495   0.483   2.052
 7113SOL    HW328772   5.631   0.543   2.082
 7113SOL    MW428773   5.579   0.489   2.034
 7114SOL     OW28774   5.331   1.084   2.374
 7114SOL    HW228775   5.241   1.084   2.409
 7114SOL    HW328776   5.324   1.130   2.291
 7114SOL    MW428777   5.318   1.090   2.368
 7115SOL     OW28778   5.131   0.719   3.446
 7115SOL    HW228779   5.200   0.657   3.423
 7115SOL    HW328780   5.056   0.693   3.393
 7115SOL    MW428781   5.131   0.706   3.437
 7116SOL     OW28782   3.872   1.599   2.998
 7116SOL    HW228783   3.855   1.545   3.075
 7116SOL    HW328784   3.860   1.689   3.028
 7116SOL    MW428785   3.869   1.603   3.012
 7117SOL     OW28786   4.867   1.106   3.438
 7117SOL    HW228787   4.852   1.199   3.423
 7117SOL    HW328788   4.962   1.096   3.438
 7117SOL    MW428789   4.876   1.116   3.435
 7118SOL     OW28790   4.663   0.530   3.639
 7118SOL    HW228791   4.753   0.531   3.606
 7118SOL    HW328792   4.622   0.455   3.597
 7118SOL    MW428793   4.669   0.520   3.630
 7119SOL     OW28794   5.238   1.062   2.766
 7119SOL    HW228795   5.241   0.996   2.697
 7119SOL    HW328796   5.323   1.105   2.762
 7119SOL    MW428797   5.250   1.058   2.757
 7120SOL     OW28798   4.858   0.665   2.335
 7120SOL    HW228799   4.884   0.689   2.246
 7120SOL    HW328800   4.840   0.572   2.331
 7120SOL    MW428801   4.860   0.657   2.322
 7121SOL     OW28802   5.523   1.285   2.186
 7121SOL    HW228803   5.479   1.326   2.261
 7121SOL    HW328804   5.580   1.353   2.151
 7121SOL    MW428805   5.525   1.299   2.191
 7122SOL     OW28806   4.443   0.334   3.589
 7122SOL    HW228807   4.453   0.260   3.529
 7122SOL    HW328808   4.479   0.303   3.672
 7122SOL    MW428809   4.449   0.320   3.591
 7123SOL     OW28810   4.179   1.701   2.504
 7123SOL    HW228811   4.211   1.789   2.482
 7123SOL    HW328812   4.132   1.673   2.426
 7123SOL    MW428813   4.178   1.709   2.491
 7124SOL     OW28814   5.563   0.063   2.553
 7124SOL    HW228815   5.617   0.014   2.615
 7124SOL    HW328816   5.506  -0.003   2.514
 7124SOL    MW428817   5.563   0.047   2.555
 7125SOL     OW28818   3.895   1.761   2.081
 7125SOL    HW228819   3.924   1.851   2.073
 7125SOL    HW328820   3.845   1.744   2.002
 7125SOL    MW428821   3.893   1.769   2.070
 7126SOL     OW28822   4.682   0.016   2.966
 7126SOL    HW228823   4.641   0.094   2.928
 7126SOL    HW328824   4.776   0.034   2.961
 7126SOL    MW428825   4.688   0.028   2.961
 7127SOL     OW28826   5.299   1.569   2.052
 7127SOL    HW228827   5.347   1.638   2.098
 7127SOL    HW328828   5.220   1.613   2.021
 7127SOL    MW428829   5.294   1.583   2.055
 7128SOL     OW28830   4.697   0.694   1.996
 7128SOL    HW228831   4.699   0.641   1.917
 7128SOL    HW328832   4.785   0.731   2.002
 7128SOL    MW428833   4.709   0.693   1.985
 7129SOL     OW28834   5.311   0.620   2.332
 7129SOL    HW228835   5.350   0.620   2.419
 7129SOL    HW328836   5.252   0.696   2.332
 7129SOL    MW428837   5.308   0.631   2.343
 7130SOL     OW28838   4.628   0.987   3.461
 7130SOL    HW228839   4.605   0.967   3.551
 7130SOL    HW328840   4.713   1.031   3.466
 7130SOL    MW428841   4.635   0.990   3.473
 7131SOL     OW28842   4.708   0.124   3.221
 7131SOL    HW228843   4.714   0.086   3.134
 7131SOL    HW328844   4.697   0.218   3.206
 7131SOL    MW428845   4.709   0.132   3.209
 7132SOL     OW28846   4.797   0.613   3.055
 7132SOL    HW228847   4.872   0.642   3.002
 7132SOL    HW328848   4.729   0.678   3.039
 7132SOL    MW428849   4.798   0.625   3.045
 7133SOL     OW28850   5.347   0.581   3.332
 7133SOL    HW228851   5.328   0.490   3.311
 7133SOL    HW328852   5.325   0.630   3.253
 7133SOL    MW428853   5.342   0.574   3.319
 7134SOL     OW28854   5.489   1.675   3.236
 7134SOL    HW228855   5.417   1.637   3.287
 7134SOL    HW328856   5.506   1.760   3.277
 7134SOL    MW428857   5.483   1.680   3.248
 7135SOL     OW28858   4.794   0.319   3.438
 7135SOL    HW228859   4.760   0.358   3.357
 7135SOL    HW328860   4.772   0.227   3.431
 7135SOL    MW428861   4.787   0.312   3.428
 7136SOL     OW28862   5.203   1.133   3.514
 7136SOL    HW228863   5.285   1.174   3.544
 7136SOL    HW328864   5.166   1.095   3.594
 7136SOL    MW428865   5.209   1.134   3.529
 7137SOL     OW28866   5.498   0.506   2.498
 7137SOL    HW228867   5.587   0.475   2.515
 7137SOL    HW328868   5.441   0.446   2.546
 7137SOL    MW428869   5.501   0.494   2.507
 7138SOL     OW28870   3.924   0.220   2.527
 7138SOL    HW228871   3.915   0.160   2.453
 7138SOL    HW328872   3.857   0.191   2.590
 7138SOL    MW428873   3.914   0.207   2.525
 7139SOL     OW28874   4.867   1.313   2.088
 7139SOL    HW228875   4.817   1.315   2.170
 7139SOL    HW328876   4.801   1.331   2.020
 7139SOL    MW428877   4.853   1.315   2.090
 7140SOL     OW28878   3.871   0.393   2.890
 7140SOL    HW228879   3.843   0.484   2.899
 7140SOL    HW328880   3.808   0.354   2.829
 7140SOL    MW428881   3.858   0.399   2.884
 7141SOL     OW28882   4.330   1.731   2.196
 7141SOL    HW228883   4.251   1.689   2.229
 7141SOL    HW328884   4.396   1.714   2.263
 7141SOL    MW428885   4.329   1.723   2.209
 7142SOL     OW28886   5.458   1.251   3.593
 7142SOL    HW228887   5.508   1.177   3.625
 7142SOL    HW328888   5.404   1.278   3.668
 7142SOL    MW428889   5.458   1.245   3.606
 7143SOL     OW28890   4.466   1.146   1.903
 7143SOL    HW228891   4.388   1.092   1.890
 7143SOL    HW328892   4.437   1.219   1.956
 7143SOL    MW428893   4.452   1.148   1.908
 7144SOL     OW28894   5.592   0.886   3.095
 7144SOL    HW228895   5.608   0.924   3.008
 7144SOL    HW328896   5.626   0.952   3.156
 7144SOL    MW428897   5.599   0.899   3.091
 7145SOL     OW28898   5.384   1.595   2.764
 7145SOL    HW228899   5.413   1.662   2.825
 7145SOL    HW328900   5.365   1.519   2.819
 7145SOL    MW428901   5.386   1.595   2.779
 7146SOL     OW28902   5.047   1.662   1.971
 7146SOL    HW228903   4.973   1.625   2.021
 7146SOL    HW328904   5.055   1.752   2.004
 7146SOL    MW428905   5.038   1.669   1.983
 7147SOL     OW28906   3.855   0.668   3.060
 7147SOL    HW228907   3.917   0.698   3.126
 7147SOL    HW328908   3.789   0.737   3.054
 7147SOL    MW428909   3.854   0.681   3.067
 7148SOL     OW28910   5.271   1.336   1.913
 7148SOL    HW228911   5.218   1.385   1.849
 7148SOL    HW328912   5.302   1.402   1.974
 7148SOL    MW428913   5.269   1.350   1.911
 7149SOL     OW28914   4.496   0.225   1.968
 7149SOL    HW228915   4.444   0.145   1.956
 7149SOL    HW328916   4.583   0.202   1.936
 7149SOL    MW428917   4.499   0.211   1.962
 7150SOL     OW28918   3.950   1.777   3.512
 7150SOL    HW228919   3.924   1.845   3.450
 7150SOL    HW328920   3.998   1.714   3.460
 7150SOL    MW428921   3.952   1.777   3.498
 7151SOL     OW28922   4.002   1.096   3.019
 7151SOL    HW228923   4.055   1.171   3.044
 7151SOL    HW328924   3.921   1.134   2.985
 7151SOL    MW428925   3.998   1.111   3.019
 7152SOL     OW28926   4.542   1.000   3.007
 7152SOL    HW228927   4.570   0.909   3.019
 7152SOL    HW328928   4.471   0.994   2.943
 7152SOL    MW428929   4.535   0.988   3.002
 7153SOL     OW28930   3.857   0.865   2.425
 7153SOL    HW228931   3.948   0.880   2.452
 7153SOL    HW328932   3.860   0.786   2.371
 7153SOL    MW428933   3.869   0.857   2.423
 7154SOL     OW28934   4.093   0.573   3.679
 7154SOL    HW228935   4.040   0.653   3.686
 7154SOL    HW328936   4.163   0.585   3.744
 7154SOL    MW428937   4.095   0.586   3.687
 7155SOL     OW28938   4.479   0.123   3.386
 7155SOL    HW228939   4.456   0.031   3.388
 7155SOL    HW328940   4.565   0.125   3.343
 7155SOL    MW428941   4.486   0.113   3.382
 7156SOL     OW28942   4.163   0.647   3.425
 7156SOL    HW228943   4.243   0.697   3.411
 7156SOL    HW328944   4.154   0.641   3.520
 7156SOL    MW428945   4.172   0.653   3.435
 7157SOL     OW28946   4.484   1.797   2.799
 7157SOL    HW228947   4.573   1.812   2.829
 7157SOL    HW328948   4.479   1.844   2.715
 7157SOL    MW428949   4.494   1.805   2.792
 7158SOL     OW28950   5.140   0.172   3.696
 7158SOL    HW228951   5.196   0.099   3.722
 7158SOL    HW328952   5.110   0.210   3.778
 7158SOL    MW428953   5.144   0.167   3.709
 7159SOL     OW28954   3.865   1.477   2.464
 7159SOL    HW228955   3.837   1.516   2.546
 7159SOL    HW328956   3.885   1.386   2.486
 7159SOL    MW428957   3.863   1.469   2.477
 7160SOL     OW28958   4.698   1.520   2.499
 7160SOL    HW228959   4.781   1.474   2.483
 7160SOL    HW328960   4.688   1.519   2.595
 7160SOL    MW428961   4.708   1.513   2.509
 7161SOL     OW28962   5.530   0.665   2.813
 7161SOL    HW228963   5.619   0.695   2.795
 7161SOL    HW328964   5.510   0.605   2.742
 7161SOL    MW428965   5.539   0.662   2.802
 7162SOL     OW28966   5.381   0.844   3.693
 7162SOL    HW228967   5.436   0.768   3.674
 7162SOL    HW328968   5.383   0.852   3.788
 7162SOL    MW428969   5.389   0.835   3.701
 7163SOL     OW28970   4.431   1.577   1.904
 7163SOL    HW228971   4.371   1.646   1.874
 7163SOL    HW328972   4.376   1.519   1.957
 7163SOL    MW428973   4.415   1.579   1.906
 7164SOL     OW28974   4.869   0.222   2.127
 7164SOL    HW228975   4.802   0.198   2.064
 7164SOL    HW328976   4.934   0.271   2.076
 7164SOL    MW428977   4.869   0.224   2.112
 7165SOL     OW28978   4.676   0.406   3.212
 7165SOL    HW228979   4.595   0.447   3.240
 7165SOL    HW328980   4.723   0.474   3.164
 7165SOL    MW428981   4.671   0.421   3.210
 7166SOL     OW28982   4.936   0.744   2.835
 7166SOL    HW228983   4.949   0.838   2.845
 7166SOL    HW328984   4.897   0.734   2.749
 7166SOL    MW428985   4.932   0.755   2.825
 7167SOL     OW28986   4.388   0.939   2.639
 7167SOL    HW228987   4.299   0.930   2.672
 7167SOL    HW328988   4.392   1.029   2.607
 7167SOL    MW428989   4.377   0.950   2.639
 7168SOL     OW28990   5.187   0.522   2.634
 7168SOL    HW228991   5.132   0.443   2.633
 7168SOL    HW328992   5.169   0.563   2.718
 7168SOL    MW428993   5.177   0.517   2.643
 7169SOL     OW28994   4.158   0.209   3.451
 7169SOL    HW228995   4.079   0.227   3.503
 7169SOL    HW328996   4.153   0.271   3.378
 7169SOL    MW428997   4.148   0.219   3.448
 7170SOL     OW28998   4.806   0.726   2.591
 7170SOL    HW228999   4.743   0.658   2.615
 7170SOL    HW329000   4.826   0.707   2.499
 7170SOL    MW429001   4.800   0.713   2.583
 7171SOL     OW29002   4.062   1.621   2.293
 7171SOL    HW229003   4.023   1.668   2.219
 7171SOL    HW329004   3.996   1.556   2.318
 7171SOL    MW429005   4.049   1.619   2.287
 7172SOL     OW29006   4.554   1.030   2.317
 7172SOL    HW229007   4.556   1.004   2.224
 7172SOL    HW329008   4.612   0.967   2.360
 7172SOL    MW429009   4.562   1.019   2.311
 7173SOL     OW29010   5.107   1.590   3.089
 7173SOL    HW229011   5.032   1.636   3.127
 7173SOL    HW329012   5.089   1.497   3.106
 7173SOL    MW429013   5.096   1.584   3.097
 7174SOL     OW29014   5.111   1.798   2.519
 7174SOL    HW229015   5.054   1.751   2.458
 7174SOL    HW329016   5.197   1.759   2.506
 7174SOL    MW429017   5.114   1.789   2.509
 7175SOL     OW29018   5.064   0.274   2.650
 7175SOL    HW229019   5.092   0.206   2.711
 7175SOL    HW329020   4.978   0.245   2.620
 7175SOL    MW429021   5.057   0.261   2.654
 7176SOL     OW29022   3.869   1.208   2.584
 7176SOL    HW229023   3.933   1.240   2.647
 7176SOL    HW329024   3.918   1.144   2.532
 7176SOL    MW429025   3.884   1.204   2.585
 7177SOL     OW29026   4.369   1.284   3.566
 7177SOL    HW229027   4.417   1.367   3.553
 7177SOL    HW329028   4.426   1.232   3.622
 7177SOL    MW429029   4.383   1.288   3.572
 7178SOL     OW29030   3.945   1.526   3.706
 7178SOL    HW229031   4.001   1.450   3.721
 7178SOL    HW329032   3.894   1.504   3.628
 7178SOL    MW429033   3.945   1.513   3.697
 7179SOL     OW29034   5.044   0.378   1.985
 7179SOL    HW229035   5.017   0.444   1.921
 7179SOL    HW329036   5.114   0.421   2.035
 7179SOL    MW429037   5.049   0.391   1.982
 7180SOL     OW29038   4.712   0.083   1.922
 7180SOL    HW229039   4.768   0.075   1.844
 7180SOL    HW329040   4.689  -0.007   1.944
 7180SOL    MW429041   4.717   0.070   1.915
 7181SOL     OW29042   5.217   0.934   2.127
 7181SOL    HW229043   5.184   1.023   2.117
 7181SOL    HW329044   5.182   0.905   2.212
 7181SOL    MW429045   5.207   0.943   2.138
 7182SOL     OW29046   4.830   1.363   3.315
 7182SOL    HW229047   4.741   1.369   3.283
 7182SOL    HW329048   4.874   1.442   3.283
 7182SOL    MW429049   4.825   1.373   3.307
 7183SOL     OW29050   4.123   0.031   3.657
 7183SOL    HW229051   4.051  -0.004   3.605
 7183SOL    HW329052   4.181   0.072   3.592
 7183SOL    MW429053   4.121   0.032   3.642
 7184SOL     OW29054   4.147   1.521   2.956
 7184SOL    HW229055   4.192   1.583   3.013
 7184SOL    HW329056   4.054   1.540   2.969
 7184SOL    MW429057   4.140   1.531   2.963
 7185SOL     OW29058   5.587   1.050   3.310
 7185SOL    HW229059   5.502   1.063   3.269
 7185SOL    HW329060   5.567   1.014   3.397
 7185SOL    MW429061   5.574   1.046   3.315
 7186SOL     OW29062   4.569   1.589   3.064
 7186SOL    HW229063   4.593   1.578   2.973
 7186SOL    HW329064   4.492   1.646   3.062
 7186SOL    MW429065   4.561   1.594   3.053
 7187SOL     OW29066   4.211   0.972   1.919
 7187SOL    HW229067   4.134   0.985   1.975
 7187SOL    HW329068   4.175   0.936   1.838
 7187SOL    MW429069   4.197   0.968   1.916
 7188SOL     OW29070   4.864   0.945   2.162
 7188SOL    HW229071   4.774   0.966   2.137
 7188SOL    HW329072   4.891   1.018   2.218
 7188SOL    MW429073   4.856   0.957   2.165
 7189SOL     OW29074   4.364   1.294   2.854
 7189SOL    HW229075   4.357   1.273   2.948
 7189SOL    HW329076   4.282   1.262   2.817
 7189SOL    MW429077   4.352   1.288   2.861
 7190SOL     OW29078   5.228   0.304   3.256
 7190SOL    HW229079   5.175   0.306   3.336
 7190SOL    HW329080   5.213   0.217   3.219
 7190SOL    MW429081   5.220   0.294   3.261
 7191SOL     OW29082   5.564   0.228   3.129
 7191SOL    HW229083   5.545   0.295   3.064
 7191SOL    HW329084   5.621   0.166   3.084
 7191SOL    MW429085   5.568   0.229   3.115
 7192SOL     OW29086   3.810   1.386   3.517
 7192SOL    HW229087   3.854   1.319   3.463
 7192SOL    HW329088   3.725   1.348   3.537
 7192SOL    MW429089   3.805   1.372   3.513
 7193SOL     OW29090   4.493   0.061   2.569
 7193SOL    HW229091   4.422   0.122   2.551
 7193SOL    HW329092   4.544   0.058   2.488
 7193SOL    MW429093   4.489   0.067   2.556
 7194SOL     OW29094   4.251   1.301   2.318
 7194SOL    HW229095   4.244   1.333   2.408
 7194SOL    HW329096   4.161   1.285   2.290
 7194SOL    MW429097   4.239   1.303   2.325
 7195SOL     OW29098   4.846   1.694   3.227
 7195SOL    HW229099   4.766   1.679   3.177
 7195SOL    HW329100   4.853   1.789   3.234
 7195SOL    MW429101   4.837   1.705   3.221
 7196SOL     OW29102   4.960   1.659   2.717
 7196SOL    HW229103   5.007   1.732   2.676
 7196SOL    HW329104   4.881   1.698   2.753
 7196SOL    MW429105   4.955   1.674   2.716
 7197SOL     OW29106   5.368   1.754   2.992
 7197SOL    HW229107   5.411   1.724   3.072
 7197SOL    HW329108   5.287   1.702   2.989
 7197SOL    MW429109   5.363   1.743   3.002
 7198SOL     OW29110   4.453   0.718   3.699
 7198SOL    HW229111   4.523   0.660   3.671
 7198SOL    HW329112   4.396   0.663   3.754
 7198SOL    MW429113   4.455   0.705   3.703
 7199SOL     OW29114   5.240   0.930   3.332
 7199SOL    HW229115   5.245   0.983   3.412
 7199SOL    HW329116   5.202   0.847   3.360
 7199SOL    MW429117   5.236   0.925   3.347
 7200SOL     OW29118   4.880   0.065   3.578
 7200SOL    HW229119   4.875  -0.028   3.559
 7200SOL    HW329120   4.963   0.076   3.624
 7200SOL    MW429121   4.888   0.054   3.582
 7201SOL     OW29122   4.254   0.585   2.032
 7201SOL    HW229123   4.220   0.641   2.102
 7201SOL    HW329124   4.325   0.535   2.072
 7201SOL    MW429125   4.260   0.586   2.046
 7202SOL     OW29126   5.350   1.336   2.854
 7202SOL    HW229127   5.385   1.318   2.767
 7202SOL    HW329128   5.255   1.337   2.841
 7202SOL    MW429129   5.342   1.333   2.841
 7203SOL     OW29130   4.779   0.984   3.223
 7203SOL    HW229131   4.822   1.019   3.301
 7203SOL    HW329132   4.762   1.061   3.169
 7203SOL    MW429133   4.782   0.999   3.226
 7204SOL     OW29134   5.310   0.471   2.096
 7204SOL    HW229135   5.302   0.542   2.033
 7204SOL    HW329136   5.328   0.515   2.179
 7204SOL    MW429137   5.311   0.485   2.098
 7205SOL     OW29138   4.170   0.126   2.525
 7205SOL    HW229139   4.220   0.169   2.456
 7205SOL    HW329140   4.085   0.170   2.525
 7205SOL    MW429141   4.167   0.139   2.516
 7206SOL     OW29142   3.929   1.188   3.385
 7206SOL    HW229143   3.957   1.141   3.463
 7206SOL    HW329144   3.850   1.143   3.356
 7206SOL    MW429145   3.922   1.177   3.391
 7207SOL     OW29146   4.437   0.515   3.352
 7207SOL    HW229147   4.409   0.603   3.376
 7207SOL    HW329148   4.406   0.459   3.423
 7207SOL    MW429149   4.429   0.518   3.364
 7208SOL     OW29150   4.979   0.733   2.071
 7208SOL    HW229151   5.026   0.751   1.990
 7208SOL    HW329152   4.945   0.817   2.099
 7208SOL    MW429153   4.981   0.747   2.064
 7209SOL     OW29154   4.092   0.911   2.565
 7209SOL    HW229155   4.150   0.967   2.513
 7209SOL    HW329156   4.136   0.826   2.567
 7209SOL    MW429157   4.105   0.908   2.558
 7210SOL     OW29158   5.232   0.263   2.402
 7210SOL    HW229159   5.154   0.213   2.427
 7210SOL    HW329160   5.203   0.354   2.402
 7210SOL    MW429161   5.218   0.267   2.405
 7211SOL     OW29162   4.818   0.225   2.561
 7211SOL    HW229163   4.838   0.300   2.505
 7211SOL    HW329164   4.798   0.264   2.646
 7211SOL    MW429165   4.819   0.241   2.565
 7212SOL     OW29166   4.714   1.475   1.893
 7212SOL    HW229167   4.741   1.553   1.845
 7212SOL    HW329168   4.621   1.490   1.912
 7212SOL    MW429169   4.705   1.488   1.889
 7213SOL     OW29170   5.578   0.998   3.580
 7213SOL    HW229171   5.491   0.978   3.616
 7213SOL    HW329172   5.632   0.924   3.605
 7213SOL    MW429173   5.573   0.987   3.588
 7214SOL     OW29174   3.799   1.511   2.737
 7214SOL    HW229175   3.831   1.515   2.828
 7214SOL    HW329176   3.704   1.519   2.745
 7214SOL    MW429177   3.791   1.514   2.750
 7215SOL     OW29178   3.754   0.637   2.284
 7215SOL    HW229179   3.694   0.609   2.354
 7215SOL    HW329180   3.828   0.577   2.290
 7215SOL    MW429181   3.756   0.626   2.293
 7216SOL     OW29182   5.322   1.849   3.718
 7216SOL    HW229183   5.367   1.773   3.683
 7216SOL    HW329184   5.360   1.862   3.805
 7216SOL    MW429185   5.332   1.842   3.724
 7217SOL     OW29186   4.922   1.368   2.444
 7217SOL    HW229187   4.945   1.319   2.522
 7217SOL    HW329188   5.003   1.410   2.416
 7217SOL    MW429189   4.935   1.368   2.451
 7218SOL     OW29190   4.180   0.376   3.173
 7218SOL    HW229191   4.213   0.457   3.213
 7218SOL    HW329192   4.153   0.402   3.085
 7218SOL    MW429193   4.179   0.390   3.167
 7219SOL     OW29194   4.134   0.343   2.909
 7219SOL    HW229195   4.164   0.257   2.880
 7219SOL    HW329196   4.039   0.336   2.912
 7219SOL    MW429197   4.126   0.332   2.907
 7220SOL     OW29198   4.963   0.552   3.600
 7220SOL    HW229199   5.015   0.487   3.553
 7220SOL    HW329200   4.921   0.603   3.530
 7220SOL    MW429201   4.964   0.549   3.583
 7221SOL     OW29202   5.062   0.347   3.461
 7221SOL    HW229203   4.969   0.331   3.448
 7221SOL    HW329204   5.088   0.285   3.529
 7221SOL    MW429205   5.052   0.337   3.468
 7222SOL     OW29206   4.277   0.121   2.800
 7222SOL    HW229207   4.287   0.030   2.826
 7222SOL    HW329208   4.233   0.117   2.715
 7222SOL    MW429209   4.273   0.109   2.792
 7223SOL     OW29210   4.371   1.736   3.346
 7223SOL    HW229211   4.288   1.721   3.391
 7223SOL    HW329212   4.430   1.669   3.381
 7223SOL    MW429213   4.369   1.726   3.356
 7224SOL     OW29214   5.428   0.443   2.971
 7224SOL    HW229215   5.361   0.476   3.031
 7224SOL    HW329216   5.471   0.521   2.937
 7224SOL    MW429217   5.426   0.458   2.975
 7225SOL     OW29218   5.606   1.163   2.941
 7225SOL    HW229219   5.599   1.103   2.866
 7225SOL    HW329220   5.532   1.223   2.930
 7225SOL    MW429221   5.596   1.163   2.930
 7226SOL     OW29222   4.988   1.025   2.859
 7226SOL    HW229223   5.002   0.997   2.950
 7226SOL    HW329224   5.074   1.056   2.831
 7226SOL    MW429225   5.001   1.026   2.868
 7227SOL     OW29226   5.071   0.520   3.138
 7227SOL    HW229227   5.092   0.521   3.045
 7227SOL    HW329228   5.116   0.442   3.171
 7227SOL    MW429229   5.078   0.510   3.130
 7228SOL     OW29230   5.564   0.651   3.680
 7228SOL    HW229231   5.601   0.596   3.749
 7228SOL    HW329232   5.589   0.608   3.598
 7228SOL    MW429233   5.571   0.639   3.679
 7229SOL     OW29234   5.111   0.949   3.731
 7229SOL    HW229235   5.177   0.897   3.685
 7229SOL    HW329236   5.131   0.936   3.824
 7229SOL    MW429237   5.122   0.940   3.738
 7230SOL     OW29238   5.062   0.035   2.080
 7230SOL    HW229239   5.136   0.079   2.123
 7230SOL    HW329240   4.986   0.089   2.102
 7230SOL    MW429241   5.062   0.047   2.088
 7231SOL     OW29242   5.122   0.810   2.358
 7231SOL    HW229243   5.037   0.780   2.328
 7231SOL    HW329244   5.114   0.817   2.453
 7231SOL    MW429245   5.110   0.808   2.367
 7232SOL     OW29246   4.198   1.273   3.089
 7232SOL    HW229247   4.210   1.300   3.180
 7232SOL    HW329248   4.179   1.354   3.042
 7232SOL    MW429249   4.197   1.288   3.094
 7233SOL     OW29250   4.482   0.253   2.912
 7233SOL    HW229251   4.455   0.255   3.003
 7233SOL    HW329252   4.412   0.205   2.867
 7233SOL    MW429253   4.470   0.249   2.919
 7234SOL     OW29254   4.336   1.745   3.074
 7234SOL    HW229255   4.388   1.822   3.051
 7234SOL    HW329256   4.345   1.737   3.169
 7234SOL    MW429257   4.345   1.752   3.085
 7235SOL     OW29258   5.238   1.330   3.306
 7235SOL    HW229259   5.223   1.259   3.369
 7235SOL    HW329260   5.284   1.288   3.234
 7235SOL    MW429261   5.244   1.314   3.306
 7236SOL     OW29262   4.312   1.061   3.423
 7236SOL    HW229263   4.349   1.066   3.335
 7236SOL    HW329264   4.351   1.134   3.470
 7236SOL    MW429265   4.322   1.071   3.418
 7237SOL     OW29266   4.492   1.104   3.235
 7237SOL    HW229267   4.551   1.050   3.288
 7237SOL    HW329268   4.507   1.076   3.145
 7237SOL    MW429269   4.502   1.093   3.231
 7238SOL     OW29270   4.495   0.476   2.084
 7238SOL    HW229271   4.568   0.525   2.047
 7238SOL    HW329272   4.511   0.385   2.058
 7238SOL    MW429273   4.507   0.471   2.077
 7239SOL     OW29274   5.303   1.593   3.407
 7239SOL    HW229275   5.345   1.578   3.492
 7239SOL    HW329276   5.294   1.506   3.369
 7239SOL    MW429277   5.307   1.581   3.414
 7240SOL     OW29278   4.963   0.072   2.998
 7240SOL    HW229279   5.018   0.081   2.920
 7240SOL    HW329280   5.018   0.106   3.069
 7240SOL    MW429281   4.977   0.077   2.997
 7241SOL     OW29282   3.970   0.985   2.182
 7241SOL    HW229283   3.907   1.001   2.111
 7241SOL    HW329284   3.917   0.948   2.253
 7241SOL    MW429285   3.955   0.982   2.182
 7242SOL     OW29286   4.326   1.339   2.041
 7242SOL    HW229287   4.341   1.315   2.133
 7242SOL    HW329288   4.234   1.317   2.025
 7242SOL    MW429289   4.316   1.332   2.051
 7243SOL     OW29290   4.865   1.570   2.193
 7243SOL    HW229291   4.873   1.488   2.144
 7243SOL    HW329292   4.784   1.609   2.160
 7243SOL    MW429293   4.855   1.565   2.183
 7244SOL     OW29294   4.124   1.728   2.762
 7244SOL    HW229295   4.128   1.639   2.797
 7244SOL    HW329296   4.150   1.719   2.671
 7244SOL    MW429297   4.127   1.716   2.754
 7245SOL     OW29298   4.741   1.206   3.005
 7245SOL    HW229299   4.673   1.140   3.021
 7245SOL    HW329300   4.759   1.200   2.912
 7245SOL    MW429301   4.734   1.197   2.996
 7246SOL     OW29302   3.830   1.481   3.256
 7246SOL    HW229303   3.820   1.439   3.342
 7246SOL    HW329304   3.751   1.534   3.246
 7246SOL    MW429305   3.819   1.482   3.267
 7247SOL     OW29306   4.734   0.345   2.826
 7247SOL    HW229307   4.664   0.297   2.871
 7247SOL    HW329308   4.766   0.408   2.890
 7247SOL    MW429309   4.729   0.347   2.840
 7248SOL     OW29310   4.385   0.781   3.446
 7248SOL    HW229311   4.378   0.876   3.434
 7248SOL    HW329312   4.394   0.770   3.541
 7248SOL    MW429313   4.386   0.793   3.456
 7249SOL     OW29314   4.106   1.296   3.704
 7249SOL    HW229315   4.178   1.298   3.641
 7249SOL    HW329316   4.076   1.205   3.703
 7249SOL    MW429317   4.111   1.285   3.696
 7250SOL     OW29318   5.190   0.059   3.171
 7250SOL    HW229319   5.261   0.005   3.135
 7250SOL    HW329320   5.189   0.038   3.264
 7250SOL    MW429321   5.199   0.050   3.179
 7251SOL     OW29322   5.390   1.589   3.655
 7251SOL    HW229323   5.363   1.586   3.746
 7251SOL    HW329324   5.486   1.593   3.658
 7251SOL    MW429325   5.400   1.589   3.667
 7252SOL     OW29326   4.201   0.451   2.639
 7252SOL    HW229327   4.272   0.399   2.602
 7252SOL    HW329328   4.187   0.416   2.726
 7252SOL    MW429329   4.209   0.440   2.646
 7253SOL     OW29330   3.756   1.786   3.711
 7253SOL    HW229331   3.806   1.764   3.633
 7253SOL    HW329332   3.764   1.881   3.719
 7253SOL    MW429333   3.764   1.795   3.702
 7254SOL     OW29334   4.517   1.544   2.715
 7254SOL    HW229335   4.445   1.481   2.728
 7254SOL    HW329336   4.478   1.629   2.733
 7254SOL    MW429337   4.501   1.547   2.718
 7255SOL     OW29338   4.837   0.392   2.363
 7255SOL    HW229339   4.859   0.329   2.295
 7255SOL    HW329340   4.742   0.384   2.374
 7255SOL    MW429341   4.827   0.383   2.355
 7256SOL     OW29342   3.922   0.082   2.295
 7256SOL    HW229343   3.993   0.103   2.234
 7256SOL    HW329344   3.876   0.010   2.253
 7256SOL    MW429345   3.926   0.076   2.281
 7257SOL     OW29346   3.753   0.549   3.438
 7257SOL    HW229347   3.817   0.615   3.413
 7257SOL    HW329348   3.672   0.576   3.395
 7257SOL    MW429349   3.751   0.561   3.430
 7258SOL     OW29350   5.491   1.456   2.395
 7258SOL    HW229351   5.461   1.389   2.456
 7258SOL    HW329352   5.585   1.462   2.409
 7258SOL    MW429353   5.499   1.448   2.405
 7259SOL     OW29354   5.047   1.133   2.325
 7259SOL    HW229355   5.019   1.219   2.358
 7259SOL    HW329356   5.075   1.149   2.235
 7259SOL    MW429357   5.047   1.147   2.317
 7260SOL     OW29358   4.709   0.053   2.378
 7260SOL    HW229359   4.746   0.112   2.443
 7260SOL    HW329360   4.686   0.109   2.304
 7260SOL    MW429361   4.710   0.068   2.377
 7261SOL     OW29362   5.562   0.935   2.800
 7261SOL    HW229363   5.553   0.967   2.711
 7261SOL    HW329364   5.515   0.851   2.800
 7261SOL    MW429365   5.555   0.928   2.790
 7262SOL     OW29366   3.938   0.775   3.379
 7262SOL    HW229367   3.959   0.844   3.317
 7262SOL    HW329368   4.018   0.722   3.384
 7262SOL    MW429369   3.951   0.776   3.373
 7263SOL     OW29370   5.474   0.866   2.501
 7263SOL    HW229371   5.568   0.855   2.489
 7263SOL    HW329372   5.450   0.938   2.442
 7263SOL    MW429373   5.484   0.874   2.492
 7264SOL     OW29374   3.923   0.790   3.646
 7264SOL    HW229375   3.849   0.734   3.672
 7264SOL    HW329376   3.918   0.793   3.551
 7264SOL    MW429377   3.912   0.783   3.636
 7265SOL     OW29378   4.089   0.077   3.096
 7265SOL    HW229379   4.132   0.161   3.116
 7265SOL    HW329380   4.162   0.015   3.089
 7265SOL    MW429381   4.104   0.080   3.097
 7266SOL     OW29382   4.130   0.744   2.274
 7266SOL    HW229383   4.130   0.839   2.259
 7266SOL    HW329384   4.207   0.728   2.328
 7266SOL    MW429385   4.140   0.755   2.279
 7267SOL     OW29386   4.906   0.603   3.338
 7267SOL    HW229387   4.942   0.576   3.254
 7267SOL    HW329388   4.819   0.637   3.317
 7267SOL    MW429389   4.900   0.604   3.325
 7268SOL     OW29390   3.889   0.475   2.563
 7268SOL    HW229391   3.951   0.482   2.636
 7268SOL    HW329392   3.889   0.382   2.540
 7268SOL    MW429393   3.897   0.464   2.570
 7269SOL     OW29394   5.436   1.815   2.095
 7269SOL    HW229395   5.503   1.848   2.035
 7269SOL    HW329396   5.393   1.894   2.129
 7269SOL    MW429397   5.438   1.830   2.091
 7270SOL     OW29398   4.571   0.736   3.047
 7270SOL    HW229399   4.529   0.654   3.023
 7270SOL    HW329400   4.572   0.735   3.143
 7270SOL    MW429401   4.564   0.725   3.056
 7271SOL     OW29402   5.242   1.869   3.446
 7271SOL    HW229403   5.245   1.775   3.429
 7271SOL    HW329404   5.265   1.877   3.538
 7271SOL    MW429405   5.245   1.857   3.456
 7272SOL     OW29406   4.375   0.206   3.152
 7272SOL    HW229407   4.306   0.269   3.173
 7272SOL    HW329408   4.402   0.170   3.237
 7272SOL    MW429409   4.369   0.209   3.165
 7273SOL     OW29410   3.758   1.047   2.021
 7273SOL    HW229411   3.727   1.112   2.084
 7273SOL    HW329412   3.707   0.969   2.040
 7273SOL    MW429413   3.748   1.044   2.031
 7274SOL     OW29414   5.170   0.059   2.769
 7274SOL    HW229415   5.258   0.068   2.806
 7274SOL    HW329416   5.180   0.000   2.695
 7274SOL    MW429417   5.184   0.053   2.763
 7275SOL     OW29418   5.202   0.798   2.613
 7275SOL    HW229419   5.282   0.813   2.562
 7275SOL    HW329420   5.195   0.703   2.619
 7275SOL    MW429421   5.211   0.787   2.608
 7276SOL     OW29422   4.342   1.847   1.963
 7276SOL    HW229423   4.247   1.847   1.955
 7276SOL    HW329424   4.358   1.793   2.041
 7276SOL    MW429425   4.332   1.841   1.972
 7277SOL     OW29426   4.652   0.724   3.310
 7277SOL    HW229427   4.721   0.791   3.307
 7277SOL    HW329428   4.585   0.762   3.366
 7277SOL    MW429429   4.653   0.737   3.317
 7278SOL     OW29430   4.070   1.024   3.558
 7278SOL    HW229431   4.024   0.940   3.560
 7278SOL    HW329432   4.127   1.018   3.482
 7278SOL    MW429433   4.072   1.012   3.550
 7279SOL     OW29434   5.187   0.667   1.879
 7279SOL    HW229435   5.115   0.643   1.821
 7279SOL    HW329436   5.253   0.704   1.821
 7279SOL    MW429437   5.186   0.669   1.864
 7280SOL     OW29438   4.321   1.399   2.559
 7280SOL    HW229439   4.386   1.332   2.580
 7280SOL    HW329440   4.373   1.476   2.536
 7280SOL    MW429441   4.336   1.401   2.558
 7281SOL     OW29442   4.582   0.564   2.689
 7281SOL    HW229443   4.522   0.582   2.761
 7281SOL    HW329444   4.616   0.476   2.708
 7281SOL    MW429445   4.578   0.554   2.702
 7282SOL     OW29446   5.523   0.063   3.358
 7282SOL    HW229447   5.444   0.109   3.386
 7282SOL    HW329448   5.558   0.117   3.287
 7282SOL    MW429449   5.517   0.076   3.352
 7283SOL     OW29450   4.807   1.147   2.708
 7283SOL    HW229451   4.899   1.128   2.726
 7283SOL    HW329452   4.780   1.077   2.648
 7283SOL    MW429453   4.815   1.135   2.702
 7284SOL     OW29454   4.600   0.967   2.063
 7284SOL    HW229455   4.586   0.879   2.028
 7284SOL    HW329456   4.551   1.024   2.004
 7284SOL    MW429457   4.592   0.962   2.051
 7285SOL     OW29458   5.081   1.385   2.804
 7285SOL    HW229459   5.054   1.469   2.769
 7285SOL    HW329460   5.041   1.380   2.891
 7285SOL    MW429461   5.074   1.394   2.810
 7286SOL     OW29462   5.000   1.333   3.072
 7286SOL    HW229463   5.011   1.300   3.161
 7286SOL    HW329464   4.919   1.292   3.041
 7286SOL    MW429465   4.990   1.325   3.078
 7287SOL     OW29466   4.013   0.691   2.842
 7287SOL    HW229467   3.963   0.690   2.923
 7287SOL    HW329468   4.033   0.783   2.826
 7287SOL    MW429469   4.009   0.703   2.850
 7288SOL     OW29470   5.080   1.455   3.604
 7288SOL    HW229471   5.080   1.549   3.620
 7288SOL    HW329472   5.125   1.445   3.520
 7288SOL    MW429473   5.086   1.465   3.595
 7289SOL     OW29474   5.319   0.173   2.165
 7289SOL    HW229475   5.312   0.177   2.260
 7289SOL    HW329476   5.331   0.264   2.138
 7289SOL    MW429477   5.320   0.186   2.173
 7290SOL     OW29478   4.608   0.736   2.279
 7290SOL    HW229479   4.588   0.722   2.186
 7290SOL    HW329480   4.701   0.715   2.286
 7290SOL    MW429481   4.618   0.731   2.268
 7291SOL     OW29482   3.935   0.359   3.583
 7291SOL    HW229483   3.892   0.418   3.520
 7291SOL    HW329484   4.003   0.414   3.623
 7291SOL    MW429485   3.939   0.374   3.580
 7292SOL     OW29486   5.047   0.979   3.128
 7292SOL    HW229487   5.110   0.976   3.201
 7292SOL    HW329488   4.963   0.997   3.170
 7292SOL    MW429489   5.043   0.981   3.143
 7293SOL     OW29490   4.591   1.694   2.317
 7293SOL    HW229491   4.649   1.765   2.344
 7293SOL    HW329492   4.614   1.622   2.375
 7293SOL    MW429493   4.602   1.694   2.328
 7294SOL     OW29494   5.386   0.156   2.907
 7294SOL    HW229495   5.431   0.074   2.926
 7294SOL    HW329496   5.406   0.212   2.983
 7294SOL    MW429497   5.396   0.152   2.919
 7295SOL     OW29498   3.834  -0.001   3.006
 7295SOL    HW229499   3.825   0.000   2.911
 7295SOL    HW329500   3.928   0.011   3.021
 7295SOL    MW429501   3.846   0.002   2.997
 7296SOL     OW29502   5.471   1.192   2.626
 7296SOL    HW229503   5.450   1.138   2.549
 7296SOL    HW329504   5.567   1.190   2.630
 7296SOL    MW429505   5.480   1.185   2.615
 7297SOL     OW29506   4.163   1.337   3.369
 7297SOL    HW229507   4.084   1.287   3.392
 7297SOL    HW329508   4.233   1.296   3.419
 7297SOL    MW429509   4.161   1.325   3.379
 7298SOL     OW29510   4.047   0.126   2.052
 7298SOL    HW229511   3.976   0.181   2.020
 7298SOL    HW329512   4.089   0.092   1.973
 7298SOL    MW429513   4.043   0.128   2.038
 7299SOL     OW29514   5.171   0.623   2.888
 7299SOL    HW229515   5.094   0.669   2.854
 7299SOL    HW329516   5.228   0.692   2.922
 7299SOL    MW429517   5.168   0.638   2.888
 7300SOL     OW29518   3.803   0.225   1.901
 7300SOL    HW229519   3.770   0.304   1.945
 7300SOL    HW329520   3.858   0.258   1.830
 7300SOL    MW429521   3.806   0.239   1.898
 7301SOL     OW29522   3.837   1.482   2.090
 7301SOL    HW229523   3.854   1.566   2.132
 7301SOL    HW329524   3.872   1.491   2.002
 7301SOL    MW429525   3.842   1.495   2.084
 7302SOL     OW29526   5.109   1.571   2.307
 7302SOL    HW229527   5.172   1.561   2.236
 7302SOL    HW329528   5.026   1.591   2.262
 7302SOL    MW429529   5.106   1.572   2.292
 7303SOL     OW29530   5.472   0.839   3.993
 7303SOL    HW229531   5.513   0.781   4.058
 7303SOL    HW329532   5.379   0.831   4.010
 7303SOL    MW429533   5.466   0.831   4.003
 7304SOL     OW29534   5.338   0.771   4.988
 7304SOL    HW229535   5.293   0.838   5.039
 7304SOL    HW329536   5.426   0.807   4.974
 7304SOL    MW429537   5.344   0.784   4.992
 7305SOL     OW29538   4.266   1.022   4.222
 7305SOL    HW229539   4.356   0.997   4.206
 7305SOL    HW329540   4.262   1.115   4.199
 7305SOL    MW429541   4.278   1.031   4.217
 7306SOL     OW29542   5.382   1.725   4.364
 7306SOL    HW229543   5.394   1.671   4.442
 7306SOL    HW329544   5.419   1.673   4.293
 7306SOL    MW429545   5.388   1.710   4.365
 7307SOL     OW29546   4.761   1.610   5.365
 7307SOL    HW229547   4.802   1.646   5.286
 7307SOL    HW329548   4.796   1.521   5.372
 7307SOL    MW429549   4.772   1.603   5.356
 7308SOL     OW29550   5.318   1.165   4.969
 7308SOL    HW229551   5.239   1.130   4.927
 7308SOL    HW329552   5.345   1.237   4.913
 7308SOL    MW429553   5.311   1.170   4.956
 7309SOL     OW29554   4.550   0.478   4.235
 7309SOL    HW229555   4.525   0.566   4.263
 7309SOL    HW329556   4.547   0.481   4.139
 7309SOL    MW429557   4.546   0.490   4.227
 7310SOL     OW29558   3.992   0.506   4.163
 7310SOL    HW229559   4.024   0.594   4.145
 7310SOL    HW329560   3.980   0.504   4.258
 7310SOL    MW429561   3.995   0.518   4.175
 7311SOL     OW29562   4.070   0.919   5.064
 7311SOL    HW229563   4.133   0.866   5.015
 7311SOL    HW329564   4.051   0.993   5.007
 7311SOL    MW429565   4.076   0.921   5.051
 7312SOL     OW29566   4.391   0.261   4.250
 7312SOL    HW229567   4.449   0.337   4.252
 7312SOL    HW329568   4.326   0.282   4.183
 7312SOL    MW429569   4.390   0.273   4.241
 7313SOL     OW29570   4.478   1.188   4.425
 7313SOL    HW229571   4.558   1.191   4.477
 7313SOL    HW329572   4.506   1.155   4.339
 7313SOL    MW429573   4.492   1.184   4.420
 7314SOL     OW29574   4.503   1.529   5.328
 7314SOL    HW229575   4.587   1.555   5.367
 7314SOL    HW329576   4.527   1.473   5.254
 7314SOL    MW429577   4.517   1.525   5.323
 7315SOL     OW29578   4.255   0.692   4.416
 7315SOL    HW229579   4.240   0.612   4.467
 7315SOL    HW329580   4.337   0.727   4.450
 7315SOL    MW429581   4.263   0.684   4.428
 7316SOL     OW29582   4.592   1.378   5.101
 7316SOL    HW229583   4.556   1.444   5.041
 7316SOL    HW329584   4.520   1.316   5.114
 7316SOL    MW429585   4.578   1.378   5.095
 7317SOL     OW29586   4.397   0.518   4.793
 7317SOL    HW229587   4.303   0.514   4.811
 7317SOL    HW329588   4.427   0.427   4.802
 7317SOL    MW429589   4.388   0.506   4.796
 7318SOL     OW29590   4.143   0.932   4.697
 7318SOL    HW229591   4.098   0.939   4.613
 7318SOL    HW329592   4.123   1.015   4.741
 7318SOL    MW429593   4.135   0.944   4.691
 7319SOL     OW29594   3.840   1.778   4.572
 7319SOL    HW229595   3.929   1.770   4.607
 7319SOL    HW329596   3.804   1.690   4.577
 7319SOL    MW429597   3.847   1.765   4.577
 7320SOL     OW29598   5.105   1.170   3.941
 7320SOL    HW229599   5.023   1.206   3.907
 7320SOL    HW329600   5.173   1.213   3.890
 7320SOL    MW429601   5.103   1.180   3.929
 7321SOL     OW29602   4.104   1.305   4.607
 7321SOL    HW229603   4.080   1.358   4.683
 7321SOL    HW329604   4.160   1.363   4.555
 7321SOL    MW429605   4.108   1.320   4.610
 7322SOL     OW29606   4.074   1.601   5.202
 7322SOL    HW229607   3.982   1.577   5.187
 7322SOL    HW329608   4.118   1.518   5.219
 7322SOL    MW429609   4.068   1.586   5.201
 7323SOL     OW29610   4.657   1.311   4.134
 7323SOL    HW229611   4.634   1.373   4.202
 7323SOL    HW329612   4.614   1.229   4.160
 7323SOL    MW429613   4.649   1.307   4.145
 7324SOL     OW29614   5.530   0.312   4.590
 7324SOL    HW229615   5.467   0.292   4.659
 7324SOL    HW329616   5.520   0.241   4.527
 7324SOL    MW429617   5.520   0.299   4.591
 7325SOL     OW29618   4.154   0.284   4.102
 7325SOL    HW229619   4.128   0.246   4.018
 7325SOL    HW329620   4.091   0.354   4.118
 7325SOL    MW429621   4.143   0.287   4.093
 7326SOL     OW29622   3.989   1.245   4.139
 7326SOL    HW229623   3.937   1.313   4.095
 7326SOL    HW329624   3.986   1.171   4.079
 7326SOL    MW429625   3.981   1.244   4.126
 7327SOL     OW29626   4.651   1.708   3.917
 7327SOL    HW229627   4.606   1.724   4.000
 7327SOL    HW329628   4.582   1.673   3.859
 7327SOL    MW429629   4.637   1.705   3.919
 7328SOL     OW29630   5.586   0.481   3.892
 7328SOL    HW229631   5.495   0.483   3.920
 7328SOL    HW329632   5.631   0.543   3.950
 7328SOL    MW429633   5.579   0.489   3.902
 7329SOL     OW29634   5.331   1.084   4.242
 7329SOL    HW229635   5.241   1.084   4.277
 7329SOL    HW329636   5.324   1.130   4.159
 7329SOL    MW429637   5.318   1.090   4.236
 7330SOL     OW29638   5.131   0.719   5.314
 7330SOL    HW229639   5.200   0.657   5.291
 7330SOL    HW329640   5.056   0.693   5.261
 7330SOL    MW429641   5.131   0.706   5.305
 7331SOL     OW29642   3.872   1.599   4.866
 7331SOL    HW229643   3.855   1.545   4.943
 7331SOL    HW329644   3.860   1.689   4.896
 7331SOL    MW429645   3.869   1.603   4.880
 7332SOL     OW29646   4.867   1.106   5.306
 7332SOL    HW229647   4.852   1.199   5.291
 7332SOL    HW329648   4.962   1.096   5.306
 7332SOL    MW429649   4.876   1.116   5.303
 7333SOL     OW29650   4.663   0.530   5.507
 7333SOL    HW229651   4.753   0.531   5.474
 7333SOL    HW329652   4.622   0.455   5.465
 7333SOL    MW429653   4.669   0.520   5.498
 7334SOL     OW29654   5.238   1.062   4.634
 7334SOL    HW229655   5.241   0.996   4.565
 7334SOL    HW329656   5.323   1.105   4.630
 7334SOL    MW429657   5.250   1.058   4.625
 7335SOL     OW29658   4.858   0.665   4.203
 7335SOL    HW229659   4.884   0.689   4.114
 7335SOL    HW329660   4.840   0.572   4.199
 7335SOL    MW429661   4.860   0.657   4.190
 7336SOL     OW29662   5.523   1.285   4.054
 7336SOL    HW229663   5.479   1.326   4.129
 7336SOL    HW329664   5.580   1.353   4.019
 7336SOL    MW429665   5.525   1.299   4.059
 7337SOL     OW29666   4.443   0.334   5.457
 7337SOL    HW229667   4.453   0.260   5.397
 7337SOL    HW329668   4.479   0.303   5.540
 7337SOL    MW429669   4.449   0.320   5.459
 7338SOL     OW29670   4.179   1.701   4.372
 7338SOL    HW229671   4.211   1.789   4.350
 7338SOL    HW329672   4.132   1.673   4.294
 7338SOL    MW429673   4.178   1.709   4.359
 7339SOL     OW29674   5.563   0.063   4.421
 7339SOL    HW229675   5.617   0.014   4.483
 7339SOL    HW329676   5.506  -0.003   4.382
 7339SOL    MW429677   5.563   0.047   4.423
 7340SOL     OW29678   3.895   1.761   3.949
 7340SOL    HW229679   3.924   1.851   3.941
 7340SOL    HW329680   3.845   1.744   3.870
 7340SOL    MW429681   3.893   1.769   3.938
 7341SOL     OW29682   4.682   0.016   4.834
 7341SOL    HW229683   4.641   0.094   4.796
 7341SOL    HW329684   4.776   0.034   4.829
 7341SOL    MW429685   4.688   0.028   4.829
 7342SOL     OW29686   5.299   1.569   3.920
 7342SOL    HW229687   5.347   1.638   3.966
 7342SOL    HW329688   5.220   1.613   3.889
 7342SOL    MW429689   5.294   1.583   3.923
 7343SOL     OW29690   4.697   0.694   3.864
 7343SOL    HW229691   4.699   0.641   3.785
 7343SOL    HW329692   4.785   0.731   3.870
 7343SOL    MW429693   4.709   0.693   3.853
 7344SOL     OW29694   5.311   0.620   4.200
 7344SOL    HW229695   5.350   0.620   4.287
 7344SOL    HW329696   5.252   0.696   4.200
 7344SOL    MW429697   5.308   0.631   4.211
 7345SOL     OW29698   4.628   0.987   5.329
 7345SOL    HW229699   4.605   0.967   5.419
 7345SOL    HW329700   4.713   1.031   5.334
 7345SOL    MW429701   4.635   0.990   5.341
 7346SOL     OW29702   4.708   0.124   5.089
 7346SOL    HW229703   4.714   0.086   5.002
 7346SOL    HW329704   4.697   0.218   5.074
 7346SOL    MW429705   4.709   0.132   5.077
 7347SOL     OW29706   4.797   0.613   4.923
 7347SOL    HW229707   4.872   0.642   4.870
 7347SOL    HW329708   4.729   0.678   4.907
 7347SOL    MW429709   4.798   0.625   4.913
 7348SOL     OW29710   5.347   0.581   5.200
 7348SOL    HW229711   5.328   0.490   5.179
 7348SOL    HW329712   5.325   0.630   5.121
 7348SOL    MW429713   5.342   0.574   5.187
 7349SOL     OW29714   5.489   1.675   5.104
 7349SOL    HW229715   5.417   1.637   5.155
 7349SOL    HW329716   5.506   1.760   5.145
 7349SOL    MW429717   5.483   1.680   5.116
 7350SOL     OW29718   4.794   0.319   5.306
 7350SOL    HW229719   4.760   0.358   5.225
 7350SOL    HW329720   4.772   0.227   5.299
 7350SOL    MW429721   4.787   0.312   5.296
 7351SOL     OW29722   5.203   1.133   5.382
 7351SOL    HW229723   5.285   1.174   5.412
 7351SOL    HW329724   5.166   1.095   5.462
 7351SOL    MW429725   5.209   1.134   5.397
 7352SOL     OW29726   5.498   0.506   4.366
 7352SOL    HW229727   5.587   0.475   4.383
 7352SOL    HW329728   5.441   0.446   4.414
 7352SOL    MW429729   5.501   0.494   4.375
 7353SOL     OW29730   3.924   0.220   4.395
 7353SOL    HW229731   3.915   0.160   4.321
 7353SOL    HW329732   3.857   0.191   4.458
 7353SOL    MW429733   3.914   0.207   4.393
 7354SOL     OW29734   4.867   1.313   3.956
 7354SOL    HW229735   4.817   1.315   4.038
 7354SOL    HW329736   4.801   1.331   3.888
 7354SOL    MW429737   4.853   1.315   3.958
 7355SOL     OW29738   3.871   0.393   4.758
 7355SOL    HW229739   3.843   0.484   4.767
 7355SOL    HW329740   3.808   0.354   4.697
 7355SOL    MW429741   3.858   0.399   4.752
 7356SOL     OW29742   4.330   1.731   4.064
 7356SOL    HW229743   4.251   1.689   4.097
 7356SOL    HW329744   4.396   1.714   4.131
 7356SOL    MW429745   4.329   1.723   4.077
 7357SOL     OW29746   5.458   1.251   5.461
 7357SOL    HW229747   5.508   1.177   5.493
 7357SOL    HW329748   5.404   1.278   5.536
 7357SOL    MW429749   5.458   1.245   5.474
 7358SOL     OW29750   4.466   1.146   3.771
 7358SOL    HW229751   4.388   1.092   3.758
 7358SOL    HW329752   4.437   1.219   3.824
 7358SOL    MW429753   4.452   1.148   3.776
 7359SOL     OW29754   5.592   0.886   4.963
 7359SOL    HW229755   5.608   0.924   4.876
 7359SOL    HW329756   5.626   0.952   5.024
 7359SOL    MW429757   5.599   0.899   4.959
 7360SOL     OW29758   5.384   1.595   4.632
 7360SOL    HW229759   5.413   1.662   4.693
 7360SOL    HW329760   5.365   1.519   4.687
 7360SOL    MW429761   5.386   1.595   4.647
 7361SOL     OW29762   5.047   1.662   3.839
 7361SOL    HW229763   4.973   1.625   3.889
 7361SOL    HW329764   5.055   1.752   3.872
 7361SOL    MW429765   5.038   1.669   3.851
 7362SOL     OW29766   3.855   0.668   4.928
 7362SOL    HW229767   3.917   0.698   4.994
 7362SOL    HW329768   3.789   0.737   4.922
 7362SOL    MW429769   3.854   0.681   4.935
 7363SOL     OW29770   5.271   1.336   3.781
 7363SOL    HW229771   5.218   1.385   3.717
 7363SOL    HW329772   5.302   1.402   3.842
 7363SOL    MW429773   5.269   1.350   3.779
 7364SOL     OW29774   4.496   0.225   3.836
 7364SOL    HW229775   4.444   0.145   3.824
 7364SOL    HW329776   4.583   0.202   3.804
 7364SOL    MW429777   4.499   0.211   3.830
 7365SOL     OW29778   3.950   1.777   5.380
 7365SOL    HW229779   3.924   1.845   5.318
 7365SOL    HW329780   3.998   1.714   5.328
 7365SOL    MW429781   3.952   1.777   5.366
 7366SOL     OW29782   4.002   1.096   4.887
 7366SOL    HW229783   4.055   1.171   4.912
 7366SOL    HW329784   3.921   1.134   4.853
 7366SOL    MW429785   3.998   1.111   4.887
 7367SOL     OW29786   4.542   1.000   4.875
 7367SOL    HW229787   4.570   0.909   4.887
 7367SOL    HW329788   4.471   0.994   4.811
 7367SOL    MW429789   4.535   0.988   4.870
 7368SOL     OW29790   3.857   0.865   4.293
 7368SOL    HW229791   3.948   0.880   4.320
 7368SOL    HW329792   3.860   0.786   4.239
 7368SOL    MW429793   3.869   0.857   4.291
 7369SOL     OW29794   4.093   0.573   5.547
 7369SOL    HW229795   4.040   0.653   5.554
 7369SOL    HW329796   4.163   0.585   5.612
 7369SOL    MW429797   4.095   0.586   5.555
 7370SOL     OW29798   4.479   0.123   5.254
 7370SOL    HW229799   4.456   0.031   5.256
 7370SOL    HW329800   4.565   0.125   5.211
 7370SOL    MW429801   4.486   0.113   5.250
 7371SOL     OW29802   4.163   0.647   5.293
 7371SOL    HW229803   4.243   0.697   5.279
 7371SOL    HW329804   4.154   0.641   5.388
 7371SOL    MW429805   4.172   0.653   5.303
 7372SOL     OW29806   4.484   1.797   4.667
 7372SOL    HW229807   4.573   1.812   4.697
 7372SOL    HW329808   4.479   1.844   4.583
 7372SOL    MW429809   4.494   1.805   4.660
 7373SOL     OW29810   5.140   0.172   5.564
 7373SOL    HW229811   5.196   0.099   5.590
 7373SOL    HW329812   5.110   0.210   5.646
 7373SOL    MW429813   5.144   0.167   5.577
 7374SOL     OW29814   3.865   1.477   4.332
 7374SOL    HW229815   3.837   1.516   4.414
 7374SOL    HW329816   3.885   1.386   4.354
 7374SOL    MW429817   3.863   1.469   4.345
 7375SOL     OW29818   4.698   1.520   4.367
 7375SOL    HW229819   4.781   1.474   4.351
 7375SOL    HW329820   4.688   1.519   4.463
 7375SOL    MW429821   4.708   1.513   4.377
 7376SOL     OW29822   5.530   0.665   4.681
 7376SOL    HW229823   5.619   0.695   4.663
 7376SOL    HW329824   5.510   0.605   4.610
 7376SOL    MW429825   5.539   0.662   4.670
 7377SOL     OW29826   5.381   0.844   5.561
 7377SOL    HW229827   5.436   0.768   5.542
 7377SOL    HW329828   5.383   0.852   5.656
 7377SOL    MW429829   5.389   0.835   5.569
 7378SOL     OW29830   4.431   1.577   3.772
 7378SOL    HW229831   4.371   1.646   3.742
 7378SOL    HW329832   4.376   1.519   3.825
 7378SOL    MW429833   4.415   1.579   3.774
 7379SOL     OW29834   4.869   0.222   3.995
 7379SOL    HW229835   4.802   0.198   3.932
 7379SOL    HW329836   4.934   0.271   3.944
 7379SOL    MW429837   4.869   0.224   3.980
 7380SOL     OW29838   4.676   0.406   5.080
 7380SOL    HW229839   4.595   0.447   5.108
 7380SOL    HW329840   4.723   0.474   5.032
 7380SOL    MW429841   4.671   0.421   5.078
 7381SOL     OW29842   4.936   0.744   4.703
 7381SOL    HW229843   4.949   0.838   4.713
 7381SOL    HW329844   4.897   0.734   4.617
 7381SOL    MW429845   4.932   0.755   4.693
 7382SOL     OW29846   4.388   0.939   4.507
 7382SOL    HW229847   4.299   0.930   4.540
 7382SOL    HW329848   4.392   1.029   4.475
 7382SOL    MW429849   4.377   0.950   4.507
 7383SOL     OW29850   5.187   0.522   4.502
 7383SOL    HW229851   5.132   0.443   4.501
 7383SOL    HW329852   5.169   0.563   4.586
 7383SOL    MW429853   5.177   0.517   4.511
 7384SOL     OW29854   4.158   0.209   5.319
 7384SOL    HW229855   4.079   0.227   5.371
 7384SOL    HW329856   4.153   0.271   5.246
 7384SOL    MW429857   4.148   0.219   5.316
 7385SOL     OW29858   4.806   0.726   4.459
 7385SOL    HW229859   4.743   0.658   4.483
 7385SOL    HW329860   4.826   0.707   4.367
 7385SOL    MW429861   4.800   0.713   4.451
 7386SOL     OW29862   4.062   1.621   4.161
 7386SOL    HW229863   4.023   1.668   4.087
 7386SOL    HW329864   3.996   1.556   4.186
 7386SOL    MW429865   4.049   1.619   4.155
 7387SOL     OW29866   4.554   1.030   4.185
 7387SOL    HW229867   4.556   1.004   4.092
 7387SOL    HW329868   4.612   0.967   4.228
 7387SOL    MW429869   4.562   1.019   4.179
 7388SOL     OW29870   5.107   1.590   4.957
 7388SOL    HW229871   5.032   1.636   4.995
 7388SOL    HW329872   5.089   1.497   4.974
 7388SOL    MW429873   5.096   1.584   4.965
 7389SOL     OW29874   5.111   1.798   4.387
 7389SOL    HW229875   5.054   1.751   4.326
 7389SOL    HW329876   5.197   1.759   4.374
 7389SOL    MW429877   5.114   1.789   4.377
 7390SOL     OW29878   5.064   0.274   4.518
 7390SOL    HW229879   5.092   0.206   4.579
 7390SOL    HW329880   4.978   0.245   4.488
 7390SOL    MW429881   5.057   0.261   4.522
 7391SOL     OW29882   3.869   1.208   4.452
 7391SOL    HW229883   3.933   1.240   4.515
 7391SOL    HW329884   3.918   1.144   4.400
 7391SOL    MW429885   3.884   1.204   4.453
 7392SOL     OW29886   4.369   1.284   5.434
 7392SOL    HW229887   4.417   1.367   5.421
 7392SOL    HW329888   4.426   1.232   5.490
 7392SOL    MW429889   4.383   1.288   5.440
 7393SOL     OW29890   3.945   1.526   5.574
 7393SOL    HW229891   4.001   1.450   5.589
 7393SOL    HW329892   3.894   1.504   5.496
 7393SOL    MW429893   3.945   1.513   5.565
 7394SOL     OW29894   5.044   0.378   3.853
 7394SOL    HW229895   5.017   0.444   3.789
 7394SOL    HW329896   5.114   0.421   3.903
 7394SOL    MW429897   5.049   0.391   3.850
 7395SOL     OW29898   4.712   0.083   3.790
 7395SOL    HW229899   4.768   0.075   3.712
 7395SOL    HW329900   4.689  -0.007   3.812
 7395SOL    MW429901   4.717   0.070   3.783
 7396SOL     OW29902   5.217   0.934   3.995
 7396SOL    HW229903   5.184   1.023   3.985
 7396SOL    HW329904   5.182   0.905   4.080
 7396SOL    MW429905   5.207   0.943   4.006
 7397SOL     OW29906   4.830   1.363   5.183
 7397SOL    HW229907   4.741   1.369   5.151
 7397SOL    HW329908   4.874   1.442   5.151
 7397SOL    MW429909   4.825   1.373   5.175
 7398SOL     OW29910   4.123   0.031   5.525
 7398SOL    HW229911   4.051  -0.004   5.473
 7398SOL    HW329912   4.181   0.072   5.460
 7398SOL    MW429913   4.121   0.032   5.510
 7399SOL     OW29914   4.147   1.521   4.824
 7399SOL    HW229915   4.192   1.583   4.881
 7399SOL    HW329916   4.054   1.540   4.837
 7399SOL    MW429917   4.140   1.531   4.831
 7400SOL     OW29918   5.587   1.050   5.178
 7400SOL    HW229919   5.502   1.063   5.137
 7400SOL    HW329920   5.567   1.014   5.265
 7400SOL    MW429921   5.574   1.046   5.183
 7401SOL     OW29922   4.569   1.589   4.932
 7401SOL    HW229923   4.593   1.578   4.841
 7401SOL    HW329924   4.492   1.646   4.930
 7401SOL    MW429925   4.561   1.594   4.921
 7402SOL     OW29926   4.211   0.972   3.787
 7402SOL    HW229927   4.134   0.985   3.843
 7402SOL    HW329928   4.175   0.936   3.706
 7402SOL    MW429929   4.197   0.968   3.784
 7403SOL     OW29930   4.864   0.945   4.030
 7403SOL    HW229931   4.774   0.966   4.005
 7403SOL    HW329932   4.891   1.018   4.086
 7403SOL    MW429933   4.856   0.957   4.033
 7404SOL     OW29934   4.364   1.294   4.722
 7404SOL    HW229935   4.357   1.273   4.816
 7404SOL    HW329936   4.282   1.262   4.685
 7404SOL    MW429937   4.352   1.288   4.729
 7405SOL     OW29938   5.228   0.304   5.124
 7405SOL    HW229939   5.175   0.306   5.204
 7405SOL    HW329940   5.213   0.217   5.087
 7405SOL    MW429941   5.220   0.294   5.129
 7406SOL     OW29942   5.564   0.228   4.997
 7406SOL    HW229943   5.545   0.295   4.932
 7406SOL    HW329944   5.621   0.166   4.952
 7406SOL    MW429945   5.568   0.229   4.983
 7407SOL     OW29946   3.810   1.386   5.385
 7407SOL    HW229947   3.854   1.319   5.331
 7407SOL    HW329948   3.725   1.348   5.405
 7407SOL    MW429949   3.805   1.372   5.381
 7408SOL     OW29950   4.493   0.061   4.437
 7408SOL    HW229951   4.422   0.122   4.419
 7408SOL    HW329952   4.544   0.058   4.356
 7408SOL    MW429953   4.489   0.067   4.424
 7409SOL     OW29954   4.251   1.301   4.186
 7409SOL    HW229955   4.244   1.333   4.276
 7409SOL    HW329956   4.161   1.285   4.158
 7409SOL    MW429957   4.239   1.303   4.193
 7410SOL     OW29958   4.846   1.694   5.095
 7410SOL    HW229959   4.766   1.679   5.045
 7410SOL    HW329960   4.853   1.789   5.102
 7410SOL    MW429961   4.837   1.705   5.089
 7411SOL     OW29962   4.960   1.659   4.585
 7411SOL    HW229963   5.007   1.732   4.544
 7411SOL    HW329964   4.881   1.698   4.621
 7411SOL    MW429965   4.955   1.674   4.584
 7412SOL     OW29966   4.453   0.718   5.567
 7412SOL    HW229967   4.523   0.660   5.539
 7412SOL    HW329968   4.396   0.663   5.622
 7412SOL    MW429969   4.455   0.705   5.571
 7413SOL     OW29970   5.240   0.930   5.200
 7413SOL    HW229971   5.245   0.983   5.280
 7413SOL    HW329972   5.202   0.847   5.228
 7413SOL    MW429973   5.236   0.925   5.215
 7414SOL     OW29974   4.880   0.065   5.446
 7414SOL    HW229975   4.875  -0.028   5.427
 7414SOL    HW329976   4.963   0.076   5.492
 7414SOL    MW429977   4.888   0.054   5.450
 7415SOL     OW29978   4.254   0.585   3.900
 7415SOL    HW229979   4.220   0.641   3.970
 7415SOL    HW329980   4.325   0.535   3.940
 7415SOL    MW429981   4.260   0.586   3.914
 7416SOL     OW29982   5.350   1.336   4.722
 7416SOL    HW229983   5.385   1.318   4.635
 7416SOL    HW329984   5.255   1.337   4.709
 7416SOL    MW429985   5.342   1.333   4.709
 7417SOL     OW29986   4.779   0.984   5.091
 7417SOL    HW229987   4.822   1.019   5.169
 7417SOL    HW329988   4.762   1.061   5.037
 7417SOL    MW429989   4.782   0.999   5.094
 7418SOL     OW29990   5.310   0.471   3.964
 7418SOL    HW229991   5.302   0.542   3.901
 7418SOL    HW329992   5.328   0.515   4.047
 7418SOL    MW429993   5.311   0.485   3.966
 7419SOL     OW29994   4.170   0.126   4.393
 7419SOL    HW229995   4.220   0.169   4.324
 7419SOL    HW329996   4.085   0.170   4.393
 7419SOL    MW429997   4.167   0.139   4.384
 7420SOL     OW29998   3.929   1.188   5.253
 7420SOL    HW229999   3.957   1.141   5.331
 7420SOL    HW330000   3.850   1.143   5.224
 7420SOL    MW430001   3.922   1.177   5.259
 7421SOL     OW30002   4.437   0.515   5.220
 7421SOL    HW230003   4.409   0.603   5.244
 7421SOL    HW330004   4.406   0.459   5.291
 7421SOL    MW430005   4.429   0.518   5.232
 7422SOL     OW30006   4.979   0.733   3.939
 7422SOL    HW230007   5.026   0.751   3.858
 7422SOL    HW330008   4.945   0.817   3.967
 7422SOL    MW430009   4.981   0.747   3.932
 7423SOL     OW30010   4.092   0.911   4.433
 7423SOL    HW230011   4.150   0.967   4.381
 7423SOL    HW330012   4.136   0.826   4.435
 7423SOL    MW430013   4.105   0.908   4.426
 7424SOL     OW30014   5.232   0.263   4.270
 7424SOL    HW230015   5.154   0.213   4.295
 7424SOL    HW330016   5.203   0.354   4.270
 7424SOL    MW430017   5.218   0.267   4.273
 7425SOL     OW30018   4.818   0.225   4.429
 7425SOL    HW230019   4.838   0.300   4.373
 7425SOL    HW330020   4.798   0.264   4.514
 7425SOL    MW430021   4.819   0.241   4.433
 7426SOL     OW30022   4.714   1.475   3.761
 7426SOL    HW230023   4.741   1.553   3.713
 7426SOL    HW330024   4.621   1.490   3.780
 7426SOL    MW430025   4.705   1.488   3.757
 7427SOL     OW30026   5.578   0.998   5.448
 7427SOL    HW230027   5.491   0.978   5.484
 7427SOL    HW330028   5.632   0.924   5.473
 7427SOL    MW430029   5.573   0.987   5.456
 7428SOL     OW30030   3.799   1.511   4.605
 7428SOL    HW230031   3.831   1.515   4.696
 7428SOL    HW330032   3.704   1.519   4.613
 7428SOL    MW430033   3.791   1.514   4.618
 7429SOL     OW30034   3.754   0.637   4.152
 7429SOL    HW230035   3.694   0.609   4.222
 7429SOL    HW330036   3.828   0.577   4.158
 7429SOL    MW430037   3.756   0.626   4.161
 7430SOL     OW30038   5.322   1.849   5.586
 7430SOL    HW230039   5.367   1.773   5.551
 7430SOL    HW330040   5.360   1.862   5.673
 7430SOL    MW430041   5.332   1.842   5.592
 7431SOL     OW30042   4.922   1.368   4.312
 7431SOL    HW230043   4.945   1.319   4.390
 7431SOL    HW330044   5.003   1.410   4.284
 7431SOL    MW430045   4.935   1.368   4.319
 7432SOL     OW30046   4.180   0.376   5.041
 7432SOL    HW230047   4.213   0.457   5.081
 7432SOL    HW330048   4.153   0.402   4.953
 7432SOL    MW430049   4.179   0.390   5.035
 7433SOL     OW30050   4.134   0.343   4.777
 7433SOL    HW230051   4.164   0.257   4.748
 7433SOL    HW330052   4.039   0.336   4.780
 7433SOL    MW430053   4.126   0.332   4.775
 7434SOL     OW30054   4.963   0.552   5.468
 7434SOL    HW230055   5.015   0.487   5.421
 7434SOL    HW330056   4.921   0.603   5.398
 7434SOL    MW430057   4.964   0.549   5.451
 7435SOL     OW30058   5.062   0.347   5.329
 7435SOL    HW230059   4.969   0.331   5.316
 7435SOL    HW330060   5.088   0.285   5.397
 7435SOL    MW430061   5.052   0.337   5.336
 7436SOL     OW30062   4.277   0.121   4.668
 7436SOL    HW230063   4.287   0.030   4.694
 7436SOL    HW330064   4.233   0.117   4.583
 7436SOL    MW430065   4.273   0.109   4.660
 7437SOL     OW30066   4.371   1.736   5.214
 7437SOL    HW230067   4.288   1.721   5.259
 7437SOL    HW330068   4.430   1.669   5.249
 7437SOL    MW430069   4.369   1.726   5.224
 7438SOL     OW30070   5.428   0.443   4.839
 7438SOL    HW230071   5.361   0.476   4.899
 7438SOL    HW330072   5.471   0.521   4.805
 7438SOL    MW430073   5.426   0.458   4.843
 7439SOL     OW30074   5.606   1.163   4.809
 7439SOL    HW230075   5.599   1.103   4.734
 7439SOL    HW330076   5.532   1.223   4.798
 7439SOL    MW430077   5.596   1.163   4.798
 7440SOL     OW30078   4.988   1.025   4.727
 7440SOL    HW230079   5.002   0.997   4.818
 7440SOL    HW330080   5.074   1.056   4.699
 7440SOL    MW430081   5.001   1.026   4.736
 7441SOL     OW30082   5.071   0.520   5.006
 7441SOL    HW230083   5.092   0.521   4.913
 7441SOL    HW330084   5.116   0.442   5.039
 7441SOL    MW430085   5.078   0.510   4.998
 7442SOL     OW30086   5.564   0.651   5.548
 7442SOL    HW230087   5.601   0.596   5.617
 7442SOL    HW330088   5.589   0.608   5.466
 7442SOL    MW430089   5.571   0.639   5.547
 7443SOL     OW30090   5.111   0.949   5.600
 7443SOL    HW230091   5.177   0.897   5.554
 7443SOL    HW330092   5.131   0.936   5.693
 7443SOL    MW430093   5.122   0.940   5.607
 7444SOL     OW30094   5.062   0.035   3.948
 7444SOL    HW230095   5.136   0.079   3.991
 7444SOL    HW330096   4.986   0.089   3.970
 7444SOL    MW430097   5.062   0.047   3.956
 7445SOL     OW30098   5.122   0.810   4.226
 7445SOL    HW230099   5.037   0.780   4.196
 7445SOL    HW330100   5.114   0.817   4.321
 7445SOL    MW430101   5.110   0.808   4.235
 7446SOL     OW30102   4.198   1.273   4.957
 7446SOL    HW230103   4.210   1.300   5.048
 7446SOL    HW330104   4.179   1.354   4.910
 7446SOL    MW430105   4.197   1.288   4.962
 7447SOL     OW30106   4.482   0.253   4.780
 7447SOL    HW230107   4.455   0.255   4.871
 7447SOL    HW330108   4.412   0.205   4.735
 7447SOL    MW430109   4.470   0.249   4.787
 7448SOL     OW30110   4.336   1.745   4.942
 7448SOL    HW230111   4.388   1.822   4.919
 7448SOL    HW330112   4.345   1.737   5.037
 7448SOL    MW430113   4.345   1.752   4.953
 7449SOL     OW30114   5.238   1.330   5.174
 7449SOL    HW230115   5.223   1.259   5.237
 7449SOL    HW330116   5.284   1.288   5.102
 7449SOL    MW430117   5.244   1.314   5.174
 7450SOL     OW30118   4.312   1.061   5.291
 7450SOL    HW230119   4.349   1.066   5.203
 7450SOL    HW330120   4.351   1.134   5.338
 7450SOL    MW430121   4.322   1.071   5.286
 7451SOL     OW30122   4.492   1.104   5.103
 7451SOL    HW230123   4.551   1.050   5.156
 7451SOL    HW330124   4.507   1.076   5.013
 7451SOL    MW430125   4.502   1.093   5.099
 7452SOL     OW30126   4.495   0.476   3.952
 7452SOL    HW230127   4.568   0.525   3.915
 7452SOL    HW330128   4.511   0.385   3.926
 7452SOL    MW430129   4.507   0.471   3.945
 7453SOL     OW30130   5.303   1.593   5.275
 7453SOL    HW230131   5.345   1.578   5.360
 7453SOL    HW330132   5.294   1.506   5.237
 7453SOL    MW430133   5.307   1.581   5.282
 7454SOL     OW30134   4.963   0.072   4.866
 7454SOL    HW230135   5.018   0.081   4.788
 7454SOL    HW330136   5.018   0.106   4.937
 7454SOL    MW430137   4.977   0.077   4.865
 7455SOL     OW30138   3.970   0.985   4.050
 7455SOL    HW230139   3.907   1.001   3.979
 7455SOL    HW330140   3.917   0.948   4.121
 7455SOL    MW430141   3.955   0.982   4.050
 7456SOL     OW30142   4.326   1.339   3.909
 7456SOL    HW230143   4.341   1.315   4.001
 7456SOL    HW330144   4.234   1.317   3.893
 7456SOL    MW430145   4.316   1.332   3.919
 7457SOL     OW30146   4.865   1.570   4.061
 7457SOL    HW230147   4.873   1.488   4.012
 7457SOL    HW330148   4.784   1.609   4.028
 7457SOL    MW430149   4.855   1.565   4.051
 7458SOL     OW30150   4.124   1.728   4.630
 7458SOL    HW230151   4.128   1.639   4.665
 7458SOL    HW330152   4.150   1.719   4.539
 7458SOL    MW430153   4.127   1.716   4.622
 7459SOL     OW30154   4.741   1.206   4.873
 7459SOL    HW230155   4.673   1.140   4.889
 7459SOL    HW330156   4.759   1.200   4.780
 7459SOL    MW430157   4.734   1.197   4.864
 7460SOL     OW30158   3.830   1.481   5.124
 7460SOL    HW230159   3.820   1.439   5.210
 7460SOL    HW330160   3.751   1.534   5.114
 7460SOL    MW430161   3.819   1.482   5.135
 7461SOL     OW30162   4.734   0.345   4.694
 7461SOL    HW230163   4.664   0.297   4.739
 7461SOL    HW330164   4.766   0.408   4.758
 7461SOL    MW430165   4.729   0.347   4.708
 7462SOL     OW30166   4.385   0.781   5.314
 7462SOL    HW230167   4.378   0.876   5.302
 7462SOL    HW330168   4.394   0.770   5.409
 7462SOL    MW430169   4.386   0.793   5.324
 7463SOL     OW30170   4.106   1.296   5.572
 7463SOL    HW230171   4.178   1.298   5.509
 7463SOL    HW330172   4.076   1.205   5.571
 7463SOL    MW430173   4.111   1.285   5.564
 7464SOL     OW30174   5.190   0.059   5.039
 7464SOL    HW230175   5.261   0.005   5.003
 7464SOL    HW330176   5.189   0.038   5.132
 7464SOL    MW430177   5.199   0.050   5.047
 7465SOL     OW30178   5.390   1.589   5.523
 7465SOL    HW230179   5.363   1.586   5.614
 7465SOL    HW330180   5.486   1.593   5.526
 7465SOL    MW430181   5.400   1.589   5.535
 7466SOL     OW30182   4.201   0.451   4.507
 7466SOL    HW230183   4.272   0.399   4.470
 7466SOL    HW330184   4.187   0.416   4.594
 7466SOL    MW430185   4.209   0.440   4.514
 7467SOL     OW30186   3.756   1.786   5.579
 7467SOL    HW230187   3.806   1.764   5.501
 7467SOL    HW330188   3.764   1.881   5.587
 7467SOL    MW430189   3.764   1.795   5.570
 7468SOL     OW30190   4.517   1.544   4.583
 7468SOL    HW230191   4.445   1.481   4.596
 7468SOL    HW330192   4.478   1.629   4.601
 7468SOL    MW430193   4.501   1.547   4.586
 7469SOL     OW30194   4.837   0.392   4.231
 7469SOL    HW230195   4.859   0.329   4.163
 7469SOL    HW330196   4.742   0.384   4.242
 7469SOL    MW430197   4.827   0.383   4.223
 7470SOL     OW30198   3.922   0.082   4.163
 7470SOL    HW230199   3.993   0.103   4.102
 7470SOL    HW330200   3.876   0.010   4.121
 7470SOL    MW430201   3.926   0.076   4.149
 7471SOL     OW30202   3.753   0.549   5.306
 7471SOL    HW230203   3.817   0.615   5.281
 7471SOL    HW330204   3.672   0.576   5.263
 7471SOL    MW430205   3.751   0.561   5.298
 7472SOL     OW30206   5.491   1.456   4.263
 7472SOL    HW230207   5.461   1.389   4.324
 7472SOL    HW330208   5.585   1.462   4.277
 7472SOL    MW430209   5.499   1.448   4.273
 7473SOL     OW30210   5.047   1.133   4.193
 7473SOL    HW230211   5.019   1.219   4.226
 7473SOL    HW330212   5.075   1.149   4.103
 7473SOL    MW430213   5.047   1.147   4.185
 7474SOL     OW30214   4.709   0.053   4.246
 7474SOL    HW230215   4.746   0.112   4.311
 7474SOL    HW330216   4.686   0.109   4.172
 7474SOL    MW430217   4.710   0.068   4.245
 7475SOL     OW30218   5.562   0.935   4.668
 7475SOL    HW230219   5.553   0.967   4.579
 7475SOL    HW330220   5.515   0.851   4.668
 7475SOL    MW430221   5.555   0.928   4.658
 7476SOL     OW30222   3.938   0.775   5.247
 7476SOL    HW230223   3.959   0.844   5.185
 7476SOL    HW330224   4.018   0.722   5.252
 7476SOL    MW430225   3.951   0.776   5.241
 7477SOL     OW30226   5.474   0.866   4.369
 7477SOL    HW230227   5.568   0.855   4.357
 7477SOL    HW330228   5.450   0.938   4.310
 7477SOL    MW430229   5.484   0.874   4.360
 7478SOL     OW30230   3.923   0.790   5.514
 7478SOL    HW230231   3.849   0.734   5.540
 7478SOL    HW330232   3.918   0.793   5.419
 7478SOL    MW430233   3.912   0.783   5.504
 7479SOL     OW30234   4.089   0.077   4.964
 7479SOL    HW230235   4.132   0.161   4.984
 7479SOL    HW330236   4.162   0.015   4.957
 7479SOL    MW430237   4.104   0.080   4.965
 7480SOL     OW30238   4.130   0.744   4.142
 7480SOL    HW230239   4.130   0.839   4.127
 7480SOL    HW330240   4.207   0.728   4.196
 7480SOL    MW430241   4.140   0.755   4.147
 7481SOL     OW30242   4.906   0.603   5.206
 7481SOL    HW230243   4.942   0.576   5.122
 7481SOL    HW330244   4.819   0.637   5.185
 7481SOL    MW430245   4.900   0.604   5.193
 7482SOL     OW30246   3.889   0.475   4.431
 7482SOL    HW230247   3.951   0.482   4.504
 7482SOL    HW330248   3.889   0.382   4.408
 7482SOL    MW430249   3.897   0.464   4.438
 7483SOL     OW30250   5.436   1.815   3.963
 7483SOL    HW230251   5.503   1.848   3.903
 7483SOL    HW330252   5.393   1.894   3.997
 7483SOL    MW430253   5.438   1.830   3.959
 7484SOL     OW30254   4.571   0.736   4.915
 7484SOL    HW230255   4.529   0.654   4.891
 7484SOL    HW330256   4.572   0.735   5.011
 7484SOL    MW430257   4.564   0.725   4.924
 7485SOL     OW30258   5.242   1.869   5.314
 7485SOL    HW230259   5.245   1.775   5.297
 7485SOL    HW330260   5.265   1.877   5.406
 7485SOL    MW430261   5.245   1.857   5.324
 7486SOL     OW30262   4.375   0.206   5.020
 7486SOL    HW230263   4.306   0.269   5.041
 7486SOL    HW330264   4.402   0.170   5.105
 7486SOL    MW430265   4.369   0.209   5.033
 7487SOL     OW30266   3.758   1.047   3.889
 7487SOL    HW230267   3.727   1.112   3.952
 7487SOL    HW330268   3.707   0.969   3.908
 7487SOL    MW430269   3.748   1.044   3.899
 7488SOL     OW30270   5.170   0.059   4.637
 7488SOL    HW230271   5.258   0.068   4.674
 7488SOL    HW330272   5.180   0.000   4.563
 7488SOL    MW430273   5.184   0.053   4.631
 7489SOL     OW30274   5.202   0.798   4.481
 7489SOL    HW230275   5.282   0.813   4.430
 7489SOL    HW330276   5.195   0.703   4.487
 7489SOL    MW430277   5.211   0.787   4.476
 7490SOL     OW30278   4.342   1.847   3.831
 7490SOL    HW230279   4.247   1.847   3.823
 7490SOL    HW330280   4.358   1.793   3.909
 7490SOL    MW430281   4.332   1.841   3.840
 7491SOL     OW30282   4.652   0.724   5.178
 7491SOL    HW230283   4.721   0.791   5.175
 7491SOL    HW330284   4.585   0.762   5.234
 7491SOL    MW430285   4.653   0.737   5.185
 7492SOL     OW30286   4.070   1.024   5.426
 7492SOL    HW230287   4.024   0.940   5.428
 7492SOL    HW330288   4.127   1.018   5.350
 7492SOL    MW430289   4.072   1.012   5.418
 7493SOL     OW30290   5.187   0.667   3.747
 7493SOL    HW230291   5.115   0.643   3.689
 7493SOL    HW330292   5.253   0.704   3.689
 7493SOL    MW430293   5.186   0.669   3.732
 7494SOL     OW30294   4.321   1.399   4.427
 7494SOL    HW230295   4.386   1.332   4.448
 7494SOL    HW330296   4.373   1.476   4.404
 7494SOL    MW430297   4.336   1.401   4.426
 7495SOL     OW30298   4.582   0.564   4.557
 7495SOL    HW230299   4.522   0.582   4.629
 7495SOL    HW330300   4.616   0.476   4.576
 7495SOL    MW430301   4.578   0.554   4.570
 7496SOL     OW30302   5.523   0.063   5.226
 7496SOL    HW230303   5.444   0.109   5.254
 7496SOL    HW330304   5.558   0.117   5.155
 7496SOL    MW430305   5.517   0.076   5.220
 7497SOL     OW30306   4.807   1.147   4.576
 7497SOL    HW230307   4.899   1.128   4.594
 7497SOL    HW330308   4.780   1.077   4.516
 7497SOL    MW430309   4.815   1.135   4.570
 7498SOL     OW30310   4.600   0.967   3.931
 7498SOL    HW230311   4.586   0.879   3.896
 7498SOL    HW330312   4.551   1.024   3.872
 7498SOL    MW430313   4.592   0.962   3.919
 7499SOL     OW30314   5.081   1.385   4.672
 7499SOL    HW230315   5.054   1.469   4.637
 7499SOL    HW330316   5.041   1.380   4.759
 7499SOL    MW430317   5.074   1.394   4.678
 7500SOL     OW30318   5.000   1.333   4.940
 7500SOL    HW230319   5.011   1.300   5.029
 7500SOL    HW330320   4.919   1.292   4.909
 7500SOL    MW430321   4.990   1.325   4.946
 7501SOL     OW30322   4.013   0.691   4.710
 7501SOL    HW230323   3.963   0.690   4.791
 7501SOL    HW330324   4.033   0.783   4.694
 7501SOL    MW430325   4.009   0.703   4.718
 7502SOL     OW30326   5.080   1.455   5.472
 7502SOL    HW230327   5.080   1.549   5.488
 7502SOL    HW330328   5.125   1.445   5.388
 7502SOL    MW430329   5.086   1.465   5.463
 7503SOL     OW30330   5.319   0.173   4.033
 7503SOL    HW230331   5.312   0.177   4.128
 7503SOL    HW330332   5.331   0.264   4.006
 7503SOL    MW430333   5.320   0.186   4.041
 7504SOL     OW30334   4.608   0.736   4.147
 7504SOL    HW230335   4.588   0.722   4.054
 7504SOL    HW330336   4.701   0.715   4.154
 7504SOL    MW430337   4.618   0.731   4.136
 7505SOL     OW30338   3.935   0.359   5.451
 7505SOL    HW230339   3.892   0.418   5.388
 7505SOL    HW330340   4.003   0.414   5.491
 7505SOL    MW430341   3.939   0.374   5.448
 7506SOL     OW30342   5.047   0.979   4.996
 7506SOL    HW230343   5.110   0.976   5.069
 7506SOL    HW330344   4.963   0.997   5.038
 7506SOL    MW430345   5.043   0.981   5.011
 7507SOL     OW30346   4.591   1.694   4.185
 7507SOL    HW230347   4.649   1.765   4.212
 7507SOL    HW330348   4.614   1.622   4.243
 7507SOL    MW430349   4.602   1.694   4.196
 7508SOL     OW30350   5.386   0.156   4.775
 7508SOL    HW230351   5.431   0.074   4.794
 7508SOL    HW330352   5.406   0.212   4.851
 7508SOL    MW430353   5.396   0.152   4.787
 7509SOL     OW30354   3.834  -0.001   4.874
 7509SOL    HW230355   3.825   0.000   4.779
 7509SOL    HW330356   3.928   0.011   4.889
 7509SOL    MW430357   3.846   0.002   4.865
 7510SOL     OW30358   5.471   1.192   4.494
 7510SOL    HW230359   5.450   1.138   4.417
 7510SOL    HW330360   5.567   1.190   4.498
 7510SOL    MW430361   5.480   1.185   4.483
 7511SOL     OW30362   4.163   1.337   5.237
 7511SOL    HW230363   4.084   1.287   5.260
 7511SOL    HW330364   4.233   1.296   5.287
 7511SOL    MW430365   4.161   1.325   5.247
 7512SOL     OW30366   4.047   0.126   3.920
 7512SOL    HW230367   3.976   0.181   3.888
 7512SOL    HW330368   4.089   0.092   3.841
 7512SOL    MW430369   4.043   0.128   3.906
 7513SOL     OW30370   5.171   0.623   4.756
 7513SOL    HW230371   5.094   0.669   4.722
 7513SOL    HW330372   5.228   0.692   4.790
 7513SOL    MW430373   5.168   0.638   4.756
 7514SOL     OW30374   3.803   0.225   3.769
 7514SOL    HW230375   3.770   0.304   3.813
 7514SOL    HW330376   3.858   0.258   3.698
 7514SOL    MW430377   3.806   0.239   3.766
 7515SOL     OW30378   3.837   1.482   3.958
 7515SOL    HW230379   3.854   1.566   4.000
 7515SOL    HW330380   3.872   1.491   3.870
 7515SOL    MW430381   3.842   1.495   3.952
 7516SOL     OW30382   5.109   1.571   4.175
 7516SOL    HW230383   5.172   1.561   4.104
 7516SOL    HW330384   5.026   1.591   4.130
 7516SOL    MW430385   5.106   1.572   4.160
 7517SOL     OW30386   5.472   0.839   5.862
 7517SOL    HW230387   5.513   0.781   5.927
 7517SOL    HW330388   5.379   0.831   5.879
 7517SOL    MW430389   5.466   0.831   5.872
 7518SOL     OW30390   5.338   0.771   6.857
 7518SOL    HW230391   5.293   0.838   6.908
 7518SOL    HW330392   5.426   0.807   6.843
 7518SOL    MW430393   5.344   0.784   6.861
 7519SOL     OW30394   4.266   1.022   6.091
 7519SOL    HW230395   4.356   0.997   6.075
 7519SOL    HW330396   4.262   1.115   6.068
 7519SOL    MW430397   4.278   1.031   6.086
 7520SOL     OW30398   5.382   1.725   6.233
 7520SOL    HW230399   5.394   1.671   6.311
 7520SOL    HW330400   5.419   1.673   6.162
 7520SOL    MW430401   5.388   1.710   6.234
 7521SOL     OW30402   4.761   1.610   7.234
 7521SOL    HW230403   4.802   1.646   7.155
 7521SOL    HW330404   4.796   1.521   7.241
 7521SOL    MW430405   4.772   1.603   7.225
 7522SOL     OW30406   5.318   1.165   6.838
 7522SOL    HW230407   5.239   1.130   6.796
 7522SOL    HW330408   5.345   1.237   6.782
 7522SOL    MW430409   5.311   1.170   6.825
 7523SOL     OW30410   4.550   0.478   6.104
 7523SOL    HW230411   4.525   0.566   6.132
 7523SOL    HW330412   4.547   0.481   6.008
 7523SOL    MW430413   4.546   0.490   6.096
 7524SOL     OW30414   3.992   0.506   6.032
 7524SOL    HW230415   4.024   0.594   6.014
 7524SOL    HW330416   3.980   0.504   6.127
 7524SOL    MW430417   3.995   0.518   6.044
 7525SOL     OW30418   4.070   0.919   6.933
 7525SOL    HW230419   4.133   0.866   6.884
 7525SOL    HW330420   4.051   0.993   6.876
 7525SOL    MW430421   4.076   0.921   6.920
 7526SOL     OW30422   4.391   0.261   6.119
 7526SOL    HW230423   4.449   0.337   6.121
 7526SOL    HW330424   4.326   0.282   6.052
 7526SOL    MW430425   4.390   0.273   6.110
 7527SOL     OW30426   4.478   1.188   6.294
 7527SOL    HW230427   4.558   1.191   6.346
 7527SOL    HW330428   4.506   1.155   6.208
 7527SOL    MW430429   4.492   1.184   6.289
 7528SOL     OW30430   4.503   1.529   7.197
 7528SOL    HW230431   4.587   1.555   7.236
 7528SOL    HW330432   4.527   1.473   7.123
 7528SOL    MW430433   4.517   1.525   7.192
 7529SOL     OW30434   4.255   0.692   6.285
 7529SOL    HW230435   4.240   0.612   6.336
 7529SOL    HW330436   4.337   0.727   6.319
 7529SOL    MW430437   4.263   0.684   6.297
 7530SOL     OW30438   4.592   1.378   6.970
 7530SOL    HW230439   4.556   1.444   6.910
 7530SOL    HW330440   4.520   1.316   6.983
 7530SOL    MW430441   4.578   1.378   6.964
 7531SOL     OW30442   4.397   0.518   6.662
 7531SOL    HW230443   4.303   0.514   6.680
 7531SOL    HW330444   4.427   0.427   6.671
 7531SOL    MW430445   4.388   0.506   6.665
 7532SOL     OW30446   4.143   0.932   6.566
 7532SOL    HW230447   4.098   0.939   6.482
 7532SOL    HW330448   4.123   1.015   6.610
 7532SOL    MW430449   4.135   0.944   6.560
 7533SOL     OW30450   3.840   1.778   6.441
 7533SOL    HW230451   3.929   1.770   6.476
 7533SOL    HW330452   3.804   1.690   6.446
 7533SOL    MW430453   3.847   1.765   6.446
 7534SOL     OW30454   5.105   1.170   5.810
 7534SOL    HW230455   5.023   1.206   5.776
 7534SOL    HW330456   5.173   1.213   5.759
 7534SOL    MW430457   5.103   1.180   5.798
 7535SOL     OW30458   4.104   1.305   6.476
 7535SOL    HW230459   4.080   1.358   6.552
 7535SOL    HW330460   4.160   1.363   6.424
 7535SOL    MW430461   4.108   1.320   6.479
 7536SOL     OW30462   4.666   0.949   6.286
 7536SOL    HW230463   4.580   0.936   6.326
 7536SOL    HW330464   4.719   0.876   6.318
 7536SOL    MW430465   4.662   0.938   6.295
 7537SOL     OW30466   4.074   1.601   7.071
 7537SOL    HW230467   3.982   1.577   7.056
 7537SOL    HW330468   4.118   1.518   7.088
 7537SOL    MW430469   4.068   1.586   7.070
 7538SOL     OW30470   4.657   1.311   6.003
 7538SOL    HW230471   4.634   1.373   6.071
 7538SOL    HW330472   4.614   1.229   6.029
 7538SOL    MW430473   4.649   1.307   6.014
 7539SOL     OW30474   5.530   0.312   6.459
 7539SOL    HW230475   5.467   0.292   6.528
 7539SOL    HW330476   5.520   0.241   6.396
 7539SOL    MW430477   5.520   0.299   6.460
 7540SOL     OW30478   4.154   0.284   5.971
 7540SOL    HW230479   4.128   0.246   5.887
 7540SOL    HW330480   4.091   0.354   5.987
 7540SOL    MW430481   4.143   0.287   5.962
 7541SOL     OW30482   3.989   1.245   6.008
 7541SOL    HW230483   3.937   1.313   5.964
 7541SOL    HW330484   3.986   1.171   5.948
 7541SOL    MW430485   3.981   1.244   5.995
 7542SOL     OW30486   4.651   1.708   5.786
 7542SOL    HW230487   4.606   1.724   5.869
 7542SOL    HW330488   4.582   1.673   5.728
 7542SOL    MW430489   4.637   1.705   5.788
 7543SOL     OW30490   5.586   0.481   5.761
 7543SOL    HW230491   5.495   0.483   5.789
 7543SOL    HW330492   5.631   0.543   5.819
 7543SOL    MW430493   5.579   0.489   5.771
 7544SOL     OW30494   5.331   1.084   6.111
 7544SOL    HW230495   5.241   1.084   6.146
 7544SOL    HW330496   5.324   1.130   6.028
 7544SOL    MW430497   5.318   1.090   6.105
 7545SOL     OW30498   5.131   0.719   7.183
 7545SOL    HW230499   5.200   0.657   7.160
 7545SOL    HW330500   5.056   0.693   7.130
 7545SOL    MW430501   5.131   0.706   7.174
 7546SOL     OW30502   3.872   1.599   6.735
 7546SOL    HW230503   3.855   1.545   6.812
 7546SOL    HW330504   3.860   1.689   6.765
 7546SOL    MW430505   3.869   1.603   6.749
 7547SOL     OW30506   4.867   1.106   7.175
 7547SOL    HW230507   4.852   1.199   7.160
 7547SOL    HW330508   4.962   1.096   7.175
 7547SOL    MW430509   4.876   1.116   7.172
 7548SOL     OW30510   4.663   0.530   7.376
 7548SOL    HW230511   4.753   0.531   7.343
 7548SOL    HW330512   4.622   0.455   7.334
 7548SOL    MW430513   4.669   0.520   7.367
 7549SOL     OW30514   5.238   1.062   6.503
 7549SOL    HW230515   5.241   0.996   6.434
 7549SOL    HW330516   5.323   1.105   6.499
 7549SOL    MW430517   5.250   1.058   6.494
 7550SOL     OW30518   4.858   0.665   6.072
 7550SOL    HW230519   4.884   0.689   5.983
 7550SOL    HW330520   4.840   0.572   6.068
 7550SOL    MW430521   4.860   0.657   6.059
 7551SOL     OW30522   5.523   1.285   5.923
 7551SOL    HW230523   5.479   1.326   5.998
 7551SOL    HW330524   5.580   1.353   5.888
 7551SOL    MW430525   5.525   1.299   5.928
 7552SOL     OW30526   4.443   0.334   7.326
 7552SOL    HW230527   4.453   0.260   7.266
 7552SOL    HW330528   4.479   0.303   7.409
 7552SOL    MW430529   4.449   0.320   7.328
 7553SOL     OW30530   4.179   1.701   6.241
 7553SOL    HW230531   4.211   1.789   6.219
 7553SOL    HW330532   4.132   1.673   6.163
 7553SOL    MW430533   4.178   1.709   6.228
 7554SOL     OW30534   5.563   0.063   6.290
 7554SOL    HW230535   5.617   0.014   6.352
 7554SOL    HW330536   5.506  -0.003   6.251
 7554SOL    MW430537   5.563   0.047   6.292
 7555SOL     OW30538   3.895   1.761   5.818
 7555SOL    HW230539   3.924   1.851   5.810
 7555SOL    HW330540   3.845   1.744   5.739
 7555SOL    MW430541   3.893   1.769   5.807
 7556SOL     OW30542   4.682   0.016   6.703
 7556SOL    HW230543   4.641   0.094   6.665
 7556SOL    HW330544   4.776   0.034   6.698
 7556SOL    MW430545   4.688   0.028   6.698
 7557SOL     OW30546   5.299   1.569   5.789
 7557SOL    HW230547   5.347   1.638   5.835
 7557SOL    HW330548   5.220   1.613   5.758
 7557SOL    MW430549   5.294   1.583   5.792
 7558SOL     OW30550   4.697   0.694   5.733
 7558SOL    HW230551   4.699   0.641   5.654
 7558SOL    HW330552   4.785   0.731   5.739
 7558SOL    MW430553   4.709   0.693   5.722
 7559SOL     OW30554   5.311   0.620   6.069
 7559SOL    HW230555   5.350   0.620   6.156
 7559SOL    HW330556   5.252   0.696   6.069
 7559SOL    MW430557   5.308   0.631   6.080
 7560SOL     OW30558   4.628   0.987   7.198
 7560SOL    HW230559   4.605   0.967   7.288
 7560SOL    HW330560   4.713   1.031   7.203
 7560SOL    MW430561   4.635   0.990   7.210
 7561SOL     OW30562   4.708   0.124   6.958
 7561SOL    HW230563   4.714   0.086   6.871
 7561SOL    HW330564   4.697   0.218   6.943
 7561SOL    MW430565   4.709   0.132   6.946
 7562SOL     OW30566   4.797   0.613   6.792
 7562SOL    HW230567   4.872   0.642   6.739
 7562SOL    HW330568   4.729   0.678   6.776
 7562SOL    MW430569   4.798   0.625   6.782
 7563SOL     OW30570   5.347   0.581   7.069
 7563SOL    HW230571   5.328   0.490   7.048
 7563SOL    HW330572   5.325   0.630   6.990
 7563SOL    MW430573   5.342   0.574   7.056
 7564SOL     OW30574   5.489   1.675   6.973
 7564SOL    HW230575   5.417   1.637   7.024
 7564SOL    HW330576   5.506   1.760   7.014
 7564SOL    MW430577   5.483   1.680   6.985
 7565SOL     OW30578   4.794   0.319   7.175
 7565SOL    HW230579   4.760   0.358   7.094
 7565SOL    HW330580   4.772   0.227   7.168
 7565SOL    MW430581   4.787   0.312   7.165
 7566SOL     OW30582   5.203   1.133   7.251
 7566SOL    HW230583   5.285   1.174   7.281
 7566SOL    HW330584   5.166   1.095   7.331
 7566SOL    MW430585   5.209   1.134   7.266
 7567SOL     OW30586   5.498   0.506   6.235
 7567SOL    HW230587   5.587   0.475   6.252
 7567SOL    HW330588   5.441   0.446   6.283
 7567SOL    MW430589   5.501   0.494   6.244
 7568SOL     OW30590   3.924   0.220   6.264
 7568SOL    HW230591   3.915   0.160   6.190
 7568SOL    HW330592   3.857   0.191   6.327
 7568SOL    MW430593   3.914   0.207   6.262
 7569SOL     OW30594   4.867   1.313   5.825
 7569SOL    HW230595   4.817   1.315   5.907
 7569SOL    HW330596   4.801   1.331   5.757
 7569SOL    MW430597   4.853   1.315   5.827
 7570SOL     OW30598   3.871   0.393   6.627
 7570SOL    HW230599   3.843   0.484   6.636
 7570SOL    HW330600   3.808   0.354   6.566
 7570SOL    MW430601   3.858   0.399   6.621
 7571SOL     OW30602   4.330   1.731   5.933
 7571SOL    HW230603   4.251   1.689   5.966
 7571SOL    HW330604   4.396   1.714   6.000
 7571SOL    MW430605   4.329   1.723   5.946
 7572SOL     OW30606   5.458   1.251   7.330
 7572SOL    HW230607   5.508   1.177   7.362
 7572SOL    HW330608   5.404   1.278   7.405
 7572SOL    MW430609   5.458   1.245   7.343
 7573SOL     OW30610   4.466   1.146   5.640
 7573SOL    HW230611   4.388   1.092   5.627
 7573SOL    HW330612   4.437   1.219   5.693
 7573SOL    MW430613   4.452   1.148   5.645
 7574SOL     OW30614   5.592   0.886   6.832
 7574SOL    HW230615   5.608   0.924   6.745
 7574SOL    HW330616   5.626   0.952   6.893
 7574SOL    MW430617   5.599   0.899   6.828
 7575SOL     OW30618   5.384   1.595   6.501
 7575SOL    HW230619   5.413   1.662   6.562
 7575SOL    HW330620   5.365   1.519   6.556
 7575SOL    MW430621   5.386   1.595   6.516
 7576SOL     OW30622   5.047   1.662   5.708
 7576SOL    HW230623   4.973   1.625   5.758
 7576SOL    HW330624   5.055   1.752   5.741
 7576SOL    MW430625   5.038   1.669   5.720
 7577SOL     OW30626   3.855   0.668   6.797
 7577SOL    HW230627   3.917   0.698   6.863
 7577SOL    HW330628   3.789   0.737   6.791
 7577SOL    MW430629   3.854   0.681   6.804
 7578SOL     OW30630   5.271   1.336   5.650
 7578SOL    HW230631   5.218   1.385   5.586
 7578SOL    HW330632   5.302   1.402   5.711
 7578SOL    MW430633   5.269   1.350   5.648
 7579SOL     OW30634   4.496   0.225   5.705
 7579SOL    HW230635   4.444   0.145   5.693
 7579SOL    HW330636   4.583   0.202   5.673
 7579SOL    MW430637   4.499   0.211   5.699
 7580SOL     OW30638   3.950   1.777   7.249
 7580SOL    HW230639   3.924   1.845   7.187
 7580SOL    HW330640   3.998   1.714   7.197
 7580SOL    MW430641   3.952   1.777   7.235
 7581SOL     OW30642   4.002   1.096   6.756
 7581SOL    HW230643   4.055   1.171   6.781
 7581SOL    HW330644   3.921   1.134   6.722
 7581SOL    MW430645   3.998   1.111   6.756
 7582SOL     OW30646   4.542   1.000   6.744
 7582SOL    HW230647   4.570   0.909   6.756
 7582SOL    HW330648   4.471   0.994   6.680
 7582SOL    MW430649   4.535   0.988   6.739
 7583SOL     OW30650   4.093   0.573   7.416
 7583SOL    HW230651   4.040   0.653   7.423
 7583SOL    HW330652   4.163   0.585   7.481
 7583SOL    MW430653   4.095   0.586   7.424
 7584SOL     OW30654   4.479   0.123   7.123
 7584SOL    HW230655   4.456   0.031   7.125
 7584SOL    HW330656   4.565   0.125   7.080
 7584SOL    MW430657   4.486   0.113   7.119
 7585SOL     OW30658   4.163   0.647   7.162
 7585SOL    HW230659   4.243   0.697   7.148
 7585SOL    HW330660   4.154   0.641   7.257
 7585SOL    MW430661   4.172   0.653   7.172
 7586SOL     OW30662   4.484   1.797   6.536
 7586SOL    HW230663   4.573   1.812   6.566
 7586SOL    HW330664   4.479   1.844   6.452
 7586SOL    MW430665   4.494   1.805   6.529
 7587SOL     OW30666   5.140   0.172   7.433
 7587SOL    HW230667   5.196   0.099   7.459
 7587SOL    HW330668   5.110   0.210   7.515
 7587SOL    MW430669   5.144   0.167   7.446
 7588SOL     OW30670   3.865   1.477   6.201
 7588SOL    HW230671   3.837   1.516   6.283
 7588SOL    HW330672   3.885   1.386   6.223
 7588SOL    MW430673   3.863   1.469   6.214
 7589SOL     OW30674   4.698   1.520   6.236
 7589SOL    HW230675   4.781   1.474   6.220
 7589SOL    HW330676   4.688   1.519   6.332
 7589SOL    MW430677   4.708   1.513   6.246
 7590SOL     OW30678   5.530   0.665   6.550
 7590SOL    HW230679   5.619   0.695   6.532
 7590SOL    HW330680   5.510   0.605   6.479
 7590SOL    MW430681   5.539   0.662   6.539
 7591SOL     OW30682   5.381   0.844   7.430
 7591SOL    HW230683   5.436   0.768   7.411
 7591SOL    HW330684   5.383   0.852   7.525
 7591SOL    MW430685   5.389   0.835   7.438
 7592SOL     OW30686   4.431   1.577   5.641
 7592SOL    HW230687   4.371   1.646   5.611
 7592SOL    HW330688   4.376   1.519   5.694
 7592SOL    MW430689   4.415   1.579   5.643
 7593SOL     OW30690   4.869   0.222   5.864
 7593SOL    HW230691   4.802   0.198   5.801
 7593SOL    HW330692   4.934   0.271   5.813
 7593SOL    MW430693   4.869   0.224   5.849
 7594SOL     OW30694   4.676   0.406   6.949
 7594SOL    HW230695   4.595   0.447   6.977
 7594SOL    HW330696   4.723   0.474   6.901
 7594SOL    MW430697   4.671   0.421   6.947
 7595SOL     OW30698   4.936   0.744   6.572
 7595SOL    HW230699   4.949   0.838   6.582
 7595SOL    HW330700   4.897   0.734   6.486
 7595SOL    MW430701   4.932   0.755   6.562
 7596SOL     OW30702   4.388   0.939   6.376
 7596SOL    HW230703   4.299   0.930   6.409
 7596SOL    HW330704   4.392   1.029   6.344
 7596SOL    MW430705   4.377   0.950   6.376
 7597SOL     OW30706   5.187   0.522   6.371
 7597SOL    HW230707   5.132   0.443   6.370
 7597SOL    HW330708   5.169   0.563   6.455
 7597SOL    MW430709   5.177   0.517   6.380
 7598SOL     OW30710   4.158   0.209   7.188
 7598SOL    HW230711   4.079   0.227   7.240
 7598SOL    HW330712   4.153   0.271   7.115
 7598SOL    MW430713   4.148   0.219   7.185
 7599SOL     OW30714   4.806   0.726   6.328
 7599SOL    HW230715   4.743   0.658   6.352
 7599SOL    HW330716   4.826   0.707   6.236
 7599SOL    MW430717   4.800   0.713   6.320
 7600SOL     OW30718   4.062   1.621   6.030
 7600SOL    HW230719   4.023   1.668   5.956
 7600SOL    HW330720   3.996   1.556   6.055
 7600SOL    MW430721   4.049   1.619   6.024
 7601SOL     OW30722   4.554   1.030   6.054
 7601SOL    HW230723   4.556   1.004   5.961
 7601SOL    HW330724   4.612   0.967   6.097
 7601SOL    MW430725   4.562   1.019   6.048
 7602SOL     OW30726   5.107   1.590   6.826
 7602SOL    HW230727   5.032   1.636   6.864
 7602SOL    HW330728   5.089   1.497   6.843
 7602SOL    MW430729   5.096   1.584   6.834
 7603SOL     OW30730   5.111   1.798   6.256
 7603SOL    HW230731   5.054   1.751   6.195
 7603SOL    HW330732   5.197   1.759   6.243
 7603SOL    MW430733   5.114   1.789   6.246
 7604SOL     OW30734   5.064   0.274   6.387
 7604SOL    HW230735   5.092   0.206   6.448
 7604SOL    HW330736   4.978   0.245   6.357
 7604SOL    MW430737   5.057   0.261   6.391
 7605SOL     OW30738   3.869   1.208   6.321
 7605SOL    HW230739   3.933   1.240   6.384
 7605SOL    HW330740   3.918   1.144   6.269
 7605SOL    MW430741   3.884   1.204   6.322
 7606SOL     OW30742   4.369   1.284   7.303
 7606SOL    HW230743   4.417   1.367   7.290
 7606SOL    HW330744   4.426   1.232   7.359
 7606SOL    MW430745   4.383   1.288   7.309
 7607SOL     OW30746   3.945   1.526   7.443
 7607SOL    HW230747   4.001   1.450   7.458
 7607SOL    HW330748   3.894   1.504   7.365
 7607SOL    MW430749   3.945   1.513   7.434
 7608SOL     OW30750   5.044   0.378   5.722
 7608SOL    HW230751   5.017   0.444   5.658
 7608SOL    HW330752   5.114   0.421   5.772
 7608SOL    MW430753   5.049   0.391   5.719
 7609SOL     OW30754   4.712   0.083   5.659
 7609SOL    HW230755   4.768   0.075   5.581
 7609SOL    HW330756   4.689  -0.007   5.681
 7609SOL    MW430757   4.717   0.070   5.652
 7610SOL     OW30758   5.217   0.934   5.864
 7610SOL    HW230759   5.184   1.023   5.854
 7610SOL    HW330760   5.182   0.905   5.949
 7610SOL    MW430761   5.207   0.943   5.875
 7611SOL     OW30762   4.830   1.363   7.052
 7611SOL    HW230763   4.741   1.369   7.020
 7611SOL    HW330764   4.874   1.442   7.020
 7611SOL    MW430765   4.825   1.373   7.044
 7612SOL     OW30766   4.123   0.031   7.394
 7612SOL    HW230767   4.051  -0.004   7.342
 7612SOL    HW330768   4.181   0.072   7.329
 7612SOL    MW430769   4.121   0.032   7.379
 7613SOL     OW30770   4.147   1.521   6.693
 7613SOL    HW230771   4.192   1.583   6.750
 7613SOL    HW330772   4.054   1.540   6.706
 7613SOL    MW430773   4.140   1.531   6.700
 7614SOL     OW30774   5.587   1.050   7.047
 7614SOL    HW230775   5.502   1.063   7.006
 7614SOL    HW330776   5.567   1.014   7.134
 7614SOL    MW430777   5.574   1.046   7.052
 7615SOL     OW30778   4.569   1.589   6.801
 7615SOL    HW230779   4.593   1.578   6.710
 7615SOL    HW330780   4.492   1.646   6.799
 7615SOL    MW430781   4.561   1.594   6.790
 7616SOL     OW30782   4.211   0.972   5.656
 7616SOL    HW230783   4.134   0.985   5.712
 7616SOL    HW330784   4.175   0.936   5.575
 7616SOL    MW430785   4.197   0.968   5.653
 7617SOL     OW30786   4.864   0.945   5.899
 7617SOL    HW230787   4.774   0.966   5.874
 7617SOL    HW330788   4.891   1.018   5.955
 7617SOL    MW430789   4.856   0.957   5.902
 7618SOL     OW30790   4.364   1.294   6.591
 7618SOL    HW230791   4.357   1.273   6.685
 7618SOL    HW330792   4.282   1.262   6.554
 7618SOL    MW430793   4.352   1.288   6.598
 7619SOL     OW30794   5.228   0.304   6.993
 7619SOL    HW230795   5.175   0.306   7.073
 7619SOL    HW330796   5.213   0.217   6.956
 7619SOL    MW430797   5.220   0.294   6.998
 7620SOL     OW30798   5.564   0.228   6.866
 7620SOL    HW230799   5.545   0.295   6.801
 7620SOL    HW330800   5.621   0.166   6.821
 7620SOL    MW430801   5.568   0.229   6.852
 7621SOL     OW30802   3.810   1.386   7.254
 7621SOL    HW230803   3.854   1.319   7.200
 7621SOL    HW330804   3.725   1.348   7.274
 7621SOL    MW430805   3.805   1.372   7.250
 7622SOL     OW30806   4.493   0.061   6.306
 7622SOL    HW230807   4.422   0.122   6.288
 7622SOL    HW330808   4.544   0.058   6.225
 7622SOL    MW430809   4.489   0.067   6.293
 7623SOL     OW30810   4.251   1.301   6.055
 7623SOL    HW230811   4.244   1.333   6.145
 7623SOL    HW330812   4.161   1.285   6.027
 7623SOL    MW430813   4.239   1.303   6.062
 7624SOL     OW30814   4.846   1.694   6.964
 7624SOL    HW230815   4.766   1.679   6.914
 7624SOL    HW330816   4.853   1.789   6.971
 7624SOL    MW430817   4.837   1.705   6.958
 7625SOL     OW30818   4.960   1.659   6.454
 7625SOL    HW230819   5.007   1.732   6.413
 7625SOL    HW330820   4.881   1.698   6.490
 7625SOL    MW430821   4.955   1.674   6.453
 7626SOL     OW30822   5.368   1.754   6.729
 7626SOL    HW230823   5.411   1.724   6.809
 7626SOL    HW330824   5.287   1.702   6.726
 7626SOL    MW430825   5.363   1.743   6.739
 7627SOL     OW30826   4.453   0.718   7.436
 7627SOL    HW230827   4.523   0.660   7.408
 7627SOL    HW330828   4.396   0.663   7.491
 7627SOL    MW430829   4.455   0.705   7.440
 7628SOL     OW30830   5.240   0.930   7.069
 7628SOL    HW230831   5.245   0.983   7.149
 7628SOL    HW330832   5.202   0.847   7.097
 7628SOL    MW430833   5.236   0.925   7.084
 7629SOL     OW30834   4.880   0.065   7.315
 7629SOL    HW230835   4.875  -0.028   7.296
 7629SOL    HW330836   4.963   0.076   7.361
 7629SOL    MW430837   4.888   0.054   7.319
 7630SOL     OW30838   4.254   0.585   5.769
 7630SOL    HW230839   4.220   0.641   5.839
 7630SOL    HW330840   4.325   0.535   5.809
 7630SOL    MW430841   4.260   0.586   5.783
 7631SOL     OW30842   5.350   1.336   6.591
 7631SOL    HW230843   5.385   1.318   6.504
 7631SOL    HW330844   5.255   1.337   6.578
 7631SOL    MW430845   5.342   1.333   6.578
 7632SOL     OW30846   4.779   0.984   6.960
 7632SOL    HW230847   4.822   1.019   7.038
 7632SOL    HW330848   4.762   1.061   6.906
 7632SOL    MW430849   4.782   0.999   6.963
 7633SOL     OW30850   5.310   0.471   5.833
 7633SOL    HW230851   5.302   0.542   5.770
 7633SOL    HW330852   5.328   0.515   5.916
 7633SOL    MW430853   5.311   0.485   5.835
 7634SOL     OW30854   4.170   0.126   6.262
 7634SOL    HW230855   4.220   0.169   6.193
 7634SOL    HW330856   4.085   0.170   6.262
 7634SOL    MW430857   4.167   0.139   6.253
 7635SOL     OW30858   3.929   1.188   7.122
 7635SOL    HW230859   3.957   1.141   7.200
 7635SOL    HW330860   3.850   1.143   7.093
 7635SOL    MW430861   3.922   1.177   7.128
 7636SOL     OW30862   4.437   0.515   7.089
 7636SOL    HW230863   4.409   0.603   7.113
 7636SOL    HW330864   4.406   0.459   7.160
 7636SOL    MW430865   4.429   0.518   7.101
 7637SOL     OW30866   4.979   0.733   5.808
 7637SOL    HW230867   5.026   0.751   5.727
 7637SOL    HW330868   4.945   0.817   5.836
 7637SOL    MW430869   4.981   0.747   5.801
 7638SOL     OW30870   4.092   0.911   6.302
 7638SOL    HW230871   4.150   0.967   6.250
 7638SOL    HW330872   4.136   0.826   6.304
 7638SOL    MW430873   4.105   0.908   6.295
 7639SOL     OW30874   5.232   0.263   6.139
 7639SOL    HW230875   5.154   0.213   6.164
 7639SOL    HW330876   5.203   0.354   6.139
 7639SOL    MW430877   5.218   0.267   6.142
 7640SOL     OW30878   4.818   0.225   6.298
 7640SOL    HW230879   4.838   0.300   6.242
 7640SOL    HW330880   4.798   0.264   6.383
 7640SOL    MW430881   4.819   0.241   6.302
 7641SOL     OW30882   4.714   1.475   5.630
 7641SOL    HW230883   4.741   1.553   5.582
 7641SOL    HW330884   4.621   1.490   5.649
 7641SOL    MW430885   4.705   1.488   5.626
 7642SOL     OW30886   5.578   0.998   7.317
 7642SOL    HW230887   5.491   0.978   7.353
 7642SOL    HW330888   5.632   0.924   7.342
 7642SOL    MW430889   5.573   0.987   7.325
 7643SOL     OW30890   3.799   1.511   6.474
 7643SOL    HW230891   3.831   1.515   6.565
 7643SOL    HW330892   3.704   1.519   6.482
 7643SOL    MW430893   3.791   1.514   6.487
 7644SOL     OW30894   3.754   0.637   6.021
 7644SOL    HW230895   3.694   0.609   6.091
 7644SOL    HW330896   3.828   0.577   6.027
 7644SOL    MW430897   3.756   0.626   6.030
 7645SOL     OW30898   5.322   1.849   7.455
 7645SOL    HW230899   5.367   1.773   7.420
 7645SOL    HW330900   5.360   1.862   7.542
 7645SOL    MW430901   5.332   1.842   7.461
 7646SOL     OW30902   4.922   1.368   6.181
 7646SOL    HW230903   4.945   1.319   6.259
 7646SOL    HW330904   5.003   1.410   6.153
 7646SOL    MW430905   4.935   1.368   6.188
 7647SOL     OW30906   4.180   0.376   6.910
 7647SOL    HW230907   4.213   0.457   6.950
 7647SOL    HW330908   4.153   0.402   6.822
 7647SOL    MW430909   4.179   0.390   6.904
 7648SOL     OW30910   4.134   0.343   6.646
 7648SOL    HW230911   4.164   0.257   6.617
 7648SOL    HW330912   4.039   0.336   6.649
 7648SOL    MW430913   4.126   0.332   6.644
 7649SOL     OW30914   4.963   0.552   7.337
 7649SOL    HW230915   5.015   0.487   7.290
 7649SOL    HW330916   4.921   0.603   7.267
 7649SOL    MW430917   4.964   0.549   7.320
 7650SOL     OW30918   5.062   0.347   7.198
 7650SOL    HW230919   4.969   0.331   7.185
 7650SOL    HW330920   5.088   0.285   7.266
 7650SOL    MW430921   5.052   0.337   7.205
 7651SOL     OW30922   4.277   0.121   6.537
 7651SOL    HW230923   4.287   0.030   6.563
 7651SOL    HW330924   4.233   0.117   6.452
 7651SOL    MW430925   4.273   0.109   6.529
 7652SOL     OW30926   4.371   1.736   7.083
 7652SOL    HW230927   4.288   1.721   7.128
 7652SOL    HW330928   4.430   1.669   7.118
 7652SOL    MW430929   4.369   1.726   7.093
 7653SOL     OW30930   5.428   0.443   6.708
 7653SOL    HW230931   5.361   0.476   6.768
 7653SOL    HW330932   5.471   0.521   6.674
 7653SOL    MW430933   5.426   0.458   6.712
 7654SOL     OW30934   5.606   1.163   6.678
 7654SOL    HW230935   5.599   1.103   6.603
 7654SOL    HW330936   5.532   1.223   6.667
 7654SOL    MW430937   5.596   1.163   6.667
 7655SOL     OW30938   4.988   1.025   6.596
 7655SOL    HW230939   5.002   0.997   6.687
 7655SOL    HW330940   5.074   1.056   6.568
 7655SOL    MW430941   5.001   1.026   6.605
 7656SOL     OW30942   5.071   0.520   6.875
 7656SOL    HW230943   5.092   0.521   6.782
 7656SOL    HW330944   5.116   0.442   6.908
 7656SOL    MW430945   5.078   0.510   6.867
 7657SOL     OW30946   5.564   0.651   7.417
 7657SOL    HW230947   5.601   0.596   7.486
 7657SOL    HW330948   5.589   0.608   7.335
 7657SOL    MW430949   5.571   0.639   7.416
 7658SOL     OW30950   5.111   0.949   7.468
 7658SOL    HW230951   5.177   0.897   7.422
 7658SOL    HW330952   5.131   0.936   7.561
 7658SOL    MW430953   5.122   0.940   7.475
 7659SOL     OW30954   5.062   0.035   5.817
 7659SOL    HW230955   5.136   0.079   5.860
 7659SOL    HW330956   4.986   0.089   5.839
 7659SOL    MW430957   5.062   0.047   5.825
 7660SOL     OW30958   5.122   0.810   6.095
 7660SOL    HW230959   5.037   0.780   6.065
 7660SOL    HW330960   5.114   0.817   6.190
 7660SOL    MW430961   5.110   0.808   6.104
 7661SOL     OW30962   4.198   1.273   6.826
 7661SOL    HW230963   4.210   1.300   6.917
 7661SOL    HW330964   4.179   1.354   6.779
 7661SOL    MW430965   4.197   1.288   6.831
 7662SOL     OW30966   4.482   0.253   6.649
 7662SOL    HW230967   4.455   0.255   6.740
 7662SOL    HW330968   4.412   0.205   6.604
 7662SOL    MW430969   4.470   0.249   6.656
 7663SOL     OW30970   4.336   1.745   6.811
 7663SOL    HW230971   4.388   1.822   6.788
 7663SOL    HW330972   4.345   1.737   6.906
 7663SOL    MW430973   4.345   1.752   6.822
 7664SOL     OW30974   5.238   1.330   7.043
 7664SOL    HW230975   5.223   1.259   7.106
 7664SOL    HW330976   5.284   1.288   6.971
 7664SOL    MW430977   5.244   1.314   7.043
 7665SOL     OW30978   4.312   1.061   7.160
 7665SOL    HW230979   4.349   1.066   7.072
 7665SOL    HW330980   4.351   1.134   7.207
 7665SOL    MW430981   4.322   1.071   7.155
 7666SOL     OW30982   4.492   1.104   6.972
 7666SOL    HW230983   4.551   1.050   7.025
 7666SOL    HW330984   4.507   1.076   6.882
 7666SOL    MW430985   4.502   1.093   6.968
 7667SOL     OW30986   4.495   0.476   5.821
 7667SOL    HW230987   4.568   0.525   5.784
 7667SOL    HW330988   4.511   0.385   5.795
 7667SOL    MW430989   4.507   0.471   5.814
 7668SOL     OW30990   5.303   1.593   7.144
 7668SOL    HW230991   5.345   1.578   7.229
 7668SOL    HW330992   5.294   1.506   7.106
 7668SOL    MW430993   5.307   1.581   7.151
 7669SOL     OW30994   4.963   0.072   6.735
 7669SOL    HW230995   5.018   0.081   6.657
 7669SOL    HW330996   5.018   0.106   6.806
 7669SOL    MW430997   4.977   0.077   6.734
 7670SOL     OW30998   3.970   0.985   5.919
 7670SOL    HW230999   3.907   1.001   5.848
 7670SOL    HW331000   3.917   0.948   5.990
 7670SOL    MW431001   3.955   0.982   5.919
 7671SOL     OW31002   4.326   1.339   5.778
 7671SOL    HW231003   4.341   1.315   5.870
 7671SOL    HW331004   4.234   1.317   5.762
 7671SOL    MW431005   4.316   1.332   5.788
 7672SOL     OW31006   4.865   1.570   5.930
 7672SOL    HW231007   4.873   1.488   5.881
 7672SOL    HW331008   4.784   1.609   5.897
 7672SOL    MW431009   4.855   1.565   5.920
 7673SOL     OW31010   4.124   1.728   6.499
 7673SOL    HW231011   4.128   1.639   6.534
 7673SOL    HW331012   4.150   1.719   6.408
 7673SOL    MW431013   4.127   1.716   6.491
 7674SOL     OW31014   4.741   1.206   6.742
 7674SOL    HW231015   4.673   1.140   6.758
 7674SOL    HW331016   4.759   1.200   6.649
 7674SOL    MW431017   4.734   1.197   6.733
 7675SOL     OW31018   3.830   1.481   6.993
 7675SOL    HW231019   3.820   1.439   7.079
 7675SOL    HW331020   3.751   1.534   6.983
 7675SOL    MW431021   3.819   1.482   7.004
 7676SOL     OW31022   4.734   0.345   6.563
 7676SOL    HW231023   4.664   0.297   6.608
 7676SOL    HW331024   4.766   0.408   6.627
 7676SOL    MW431025   4.729   0.347   6.577
 7677SOL     OW31026   4.385   0.781   7.183
 7677SOL    HW231027   4.378   0.876   7.171
 7677SOL    HW331028   4.394   0.770   7.278
 7677SOL    MW431029   4.386   0.793   7.193
 7678SOL     OW31030   4.106   1.296   7.441
 7678SOL    HW231031   4.178   1.298   7.378
 7678SOL    HW331032   4.076   1.205   7.440
 7678SOL    MW431033   4.111   1.285   7.433
 7679SOL     OW31034   5.190   0.059   6.908
 7679SOL    HW231035   5.261   0.005   6.872
 7679SOL    HW331036   5.189   0.038   7.001
 7679SOL    MW431037   5.199   0.050   6.916
 7680SOL     OW31038   5.390   1.589   7.392
 7680SOL    HW231039   5.363   1.586   7.483
 7680SOL    HW331040   5.486   1.593   7.395
 7680SOL    MW431041   5.400   1.589   7.404
 7681SOL     OW31042   4.201   0.451   6.376
 7681SOL    HW231043   4.272   0.399   6.339
 7681SOL    HW331044   4.187   0.416   6.463
 7681SOL    MW431045   4.209   0.440   6.383
 7682SOL     OW31046   4.517   1.544   6.452
 7682SOL    HW231047   4.445   1.481   6.465
 7682SOL    HW331048   4.478   1.629   6.470
 7682SOL    MW431049   4.501   1.547   6.455
 7683SOL     OW31050   4.837   0.392   6.100
 7683SOL    HW231051   4.859   0.329   6.032
 7683SOL    HW331052   4.742   0.384   6.111
 7683SOL    MW431053   4.827   0.383   6.092
 7684SOL     OW31054   3.922   0.082   6.032
 7684SOL    HW231055   3.993   0.103   5.971
 7684SOL    HW331056   3.876   0.010   5.990
 7684SOL    MW431057   3.926   0.076   6.018
 7685SOL     OW31058   3.753   0.549   7.175
 7685SOL    HW231059   3.817   0.615   7.150
 7685SOL    HW331060   3.672   0.576   7.132
 7685SOL    MW431061   3.751   0.561   7.167
 7686SOL     OW31062   5.491   1.456   6.132
 7686SOL    HW231063   5.461   1.389   6.193
 7686SOL    HW331064   5.585   1.462   6.146
 7686SOL    MW431065   5.499   1.448   6.142
 7687SOL     OW31066   5.047   1.133   6.062
 7687SOL    HW231067   5.019   1.219   6.095
 7687SOL    HW331068   5.075   1.149   5.972
 7687SOL    MW431069   5.047   1.147   6.054
 7688SOL     OW31070   4.709   0.053   6.115
 7688SOL    HW231071   4.746   0.112   6.180
 7688SOL    HW331072   4.686   0.109   6.041
 7688SOL    MW431073   4.710   0.068   6.114
 7689SOL     OW31074   5.562   0.935   6.537
 7689SOL    HW231075   5.553   0.967   6.448
 7689SOL    HW331076   5.515   0.851   6.537
 7689SOL    MW431077   5.555   0.928   6.527
 7690SOL     OW31078   3.938   0.775   7.116
 7690SOL    HW231079   3.959   0.844   7.054
 7690SOL    HW331080   4.018   0.722   7.121
 7690SOL    MW431081   3.951   0.776   7.110
 7691SOL     OW31082   5.474   0.866   6.238
 7691SOL    HW231083   5.568   0.855   6.226
 7691SOL    HW331084   5.450   0.938   6.179
 7691SOL    MW431085   5.484   0.874   6.229
 7692SOL     OW31086   3.923   0.790   7.383
 7692SOL    HW231087   3.849   0.734   7.409
 7692SOL    HW331088   3.918   0.793   7.288
 7692SOL    MW431089   3.912   0.783   7.373
 7693SOL     OW31090   4.089   0.077   6.833
 7693SOL    HW231091   4.132   0.161   6.853
 7693SOL    HW331092   4.162   0.015   6.826
 7693SOL    MW431093   4.104   0.080   6.834
 7694SOL     OW31094   4.130   0.744   6.011
 7694SOL    HW231095   4.130   0.839   5.996
 7694SOL    HW331096   4.207   0.728   6.065
 7694SOL    MW431097   4.140   0.755   6.016
 7695SOL     OW31098   4.906   0.603   7.075
 7695SOL    HW231099   4.942   0.576   6.991
 7695SOL    HW331100   4.819   0.637   7.054
 7695SOL    MW431101   4.900   0.604   7.062
 7696SOL     OW31102   3.889   0.475   6.300
 7696SOL    HW231103   3.951   0.482   6.373
 7696SOL    HW331104   3.889   0.382   6.277
 7696SOL    MW431105   3.897   0.464   6.307
 7697SOL     OW31106   5.436   1.815   5.832
 7697SOL    HW231107   5.503   1.848   5.772
 7697SOL    HW331108   5.393   1.894   5.866
 7697SOL    MW431109   5.438   1.830   5.828
 7698SOL     OW31110   4.571   0.736   6.784
 7698SOL    HW231111   4.529   0.654   6.760
 7698SOL    HW331112   4.572   0.735   6.880
 7698SOL    MW431113   4.564   0.725   6.793
 7699SOL     OW31114   5.242   1.869   7.183
 7699SOL    HW231115   5.245   1.775   7.166
 7699SOL    HW331116   5.265   1.877   7.275
 7699SOL    MW431117   5.245   1.857   7.193
 7700SOL     OW31118   4.375   0.206   6.889
 7700SOL    HW231119   4.306   0.269   6.910
 7700SOL    HW331120   4.402   0.170   6.974
 7700SOL    MW431121   4.369   0.209   6.902
 7701SOL     OW31122   3.758   1.047   5.758
 7701SOL    HW231123   3.727   1.112   5.821
 7701SOL    HW331124   3.707   0.969   5.777
 7701SOL    MW431125   3.748   1.044   5.768
 7702SOL     OW31126   5.170   0.059   6.506
 7702SOL    HW231127   5.258   0.068   6.543
 7702SOL    HW331128   5.180   0.000   6.432
 7702SOL    MW431129   5.184   0.053   6.500
 7703SOL     OW31130   5.202   0.798   6.350
 7703SOL    HW231131   5.282   0.813   6.299
 7703SOL    HW331132   5.195   0.703   6.356
 7703SOL    MW431133   5.211   0.787   6.345
 7704SOL     OW31134   4.342   1.847   5.700
 7704SOL    HW231135   4.247   1.847   5.692
 7704SOL    HW331136   4.358   1.793   5.778
 7704SOL    MW431137   4.332   1.841   5.709
 7705SOL     OW31138   4.652   0.724   7.047
 7705SOL    HW231139   4.721   0.791   7.044
 7705SOL    HW331140   4.585   0.762   7.103
 7705SOL    MW431141   4.653   0.737   7.054
 7706SOL     OW31142   4.070   1.024   7.295
 7706SOL    HW231143   4.024   0.940   7.297
 7706SOL    HW331144   4.127   1.018   7.219
 7706SOL    MW431145   4.072   1.012   7.287
 7707SOL     OW31146   5.187   0.667   5.615
 7707SOL    HW231147   5.115   0.643   5.557
 7707SOL    HW331148   5.253   0.704   5.557
 7707SOL    MW431149   5.186   0.669   5.600
 7708SOL     OW31150   4.321   1.399   6.296
 7708SOL    HW231151   4.386   1.332   6.317
 7708SOL    HW331152   4.373   1.476   6.273
 7708SOL    MW431153   4.336   1.401   6.295
 7709SOL     OW31154   4.582   0.564   6.426
 7709SOL    HW231155   4.522   0.582   6.498
 7709SOL    HW331156   4.616   0.476   6.445
 7709SOL    MW431157   4.578   0.554   6.439
 7710SOL     OW31158   5.523   0.063   7.095
 7710SOL    HW231159   5.444   0.109   7.123
 7710SOL    HW331160   5.558   0.117   7.024
 7710SOL    MW431161   5.517   0.076   7.089
 7711SOL     OW31162   4.807   1.147   6.445
 7711SOL    HW231163   4.899   1.128   6.463
 7711SOL    HW331164   4.780   1.077   6.385
 7711SOL    MW431165   4.815   1.135   6.439
 7712SOL     OW31166   4.600   0.967   5.800
 7712SOL    HW231167   4.586   0.879   5.765
 7712SOL    HW331168   4.551   1.024   5.741
 7712SOL    MW431169   4.592   0.962   5.788
 7713SOL     OW31170   5.081   1.385   6.541
 7713SOL    HW231171   5.054   1.469   6.506
 7713SOL    HW331172   5.041   1.380   6.628
 7713SOL    MW431173   5.074   1.394   6.547
 7714SOL     OW31174   5.000   1.333   6.809
 7714SOL    HW231175   5.011   1.300   6.898
 7714SOL    HW331176   4.919   1.292   6.778
 7714SOL    MW431177   4.990   1.325   6.815
 7715SOL     OW31178   4.013   0.691   6.579
 7715SOL    HW231179   3.963   0.690   6.660
 7715SOL    HW331180   4.033   0.783   6.563
 7715SOL    MW431181   4.009   0.703   6.587
 7716SOL     OW31182   5.080   1.455   7.341
 7716SOL    HW231183   5.080   1.549   7.357
 7716SOL    HW331184   5.125   1.445   7.257
 7716SOL    MW431185   5.086   1.465   7.332
 7717SOL     OW31186   5.319   0.173   5.902
 7717SOL    HW231187   5.312   0.177   5.997
 7717SOL    HW331188   5.331   0.264   5.875
 7717SOL    MW431189   5.320   0.186   5.910
 7718SOL     OW31190   4.608   0.736   6.016
 7718SOL    HW231191   4.588   0.722   5.923
 7718SOL    HW331192   4.701   0.715   6.023
 7718SOL    MW431193   4.618   0.731   6.005
 7719SOL     OW31194   3.935   0.359   7.320
 7719SOL    HW231195   3.892   0.418   7.257
 7719SOL    HW331196   4.003   0.414   7.360
 7719SOL    MW431197   3.939   0.374   7.317
 7720SOL     OW31198   5.047   0.979   6.865
 7720SOL    HW231199   5.110   0.976   6.938
 7720SOL    HW331200   4.963   0.997   6.907
 7720SOL    MW431201   5.043   0.981   6.880
 7721SOL     OW31202   4.591   1.694   6.054
 7721SOL    HW231203   4.649   1.765   6.081
 7721SOL    HW331204   4.614   1.622   6.112
 7721SOL    MW431205   4.602   1.694   6.065
 7722SOL     OW31206   5.386   0.156   6.644
 7722SOL    HW231207   5.431   0.074   6.663
 7722SOL    HW331208   5.406   0.212   6.720
 7722SOL    MW431209   5.396   0.152   6.656
 7723SOL     OW31210   3.834  -0.001   6.743
 7723SOL    HW231211   3.825   0.000   6.648
 7723SOL    HW331212   3.928   0.011   6.758
 7723SOL    MW431213   3.846   0.002   6.734
 7724SOL     OW31214   5.471   1.192   6.363
 7724SOL    HW231215   5.450   1.138   6.286
 7724SOL    HW331216   5.567   1.190   6.367
 7724SOL    MW431217   5.480   1.185   6.352
 7725SOL     OW31218   4.163   1.337   7.106
 7725SOL    HW231219   4.084   1.287   7.129
 7725SOL    HW331220   4.233   1.296   7.156
 7725SOL    MW431221   4.161   1.325   7.116
 7726SOL     OW31222   4.047   0.126   5.789
 7726SOL    HW231223   3.976   0.181   5.757
 7726SOL    HW331224   4.089   0.092   5.710
 7726SOL    MW431225   4.043   0.128   5.775
 7727SOL     OW31226   5.171   0.623   6.625
 7727SOL    HW231227   5.094   0.669   6.591
 7727SOL    HW331228   5.228   0.692   6.659
 7727SOL    MW431229   5.168   0.638   6.625
 7728SOL     OW31230   3.803   0.225   5.638
 7728SOL    HW231231   3.770   0.304   5.682
 7728SOL    HW331232   3.858   0.258   5.567
 7728SOL    MW431233   3.806   0.239   5.635
 7729SOL     OW31234   3.837   1.482   5.827
 7729SOL    HW231235   3.854   1.566   5.869
 7729SOL    HW331236   3.872   1.491   5.739
 7729SOL    MW431237   3.842   1.495   5.821
 7730SOL     OW31238   5.109   1.571   6.044
 7730SOL    HW231239   5.172   1.561   5.973
 7730SOL    HW331240   5.026   1.591   5.999
 7730SOL    MW431241   5.106   1.572   6.029
 7731SOL     OW31242   5.472   2.707   0.257
 7731SOL    HW231243   5.513   2.649   0.322
 7731SOL    HW331244   5.379   2.699   0.274
 7731SOL    MW431245   5.466   2.699   0.267
 7732SOL     OW31246   5.338   2.639   1.252
 7732SOL    HW231247   5.293   2.706   1.303
 7732SOL    HW331248   5.426   2.675   1.238
 7732SOL    MW431249   5.344   2.652   1.256
 7733SOL     OW31250   4.266   2.890   0.486
 7733SOL    HW231251   4.356   2.865   0.470
 7733SOL    HW331252   4.262   2.983   0.463
 7733SOL    MW431253   4.278   2.899   0.481
 7734SOL     OW31254   5.382   3.593   0.628
 7734SOL    HW231255   5.394   3.539   0.706
 7734SOL    HW331256   5.419   3.541   0.557
 7734SOL    MW431257   5.388   3.578   0.629
 7735SOL     OW31258   4.761   3.478   1.629
 7735SOL    HW231259   4.802   3.514   1.550
 7735SOL    HW331260   4.796   3.389   1.636
 7735SOL    MW431261   4.772   3.471   1.620
 7736SOL     OW31262   5.318   3.033   1.233
 7736SOL    HW231263   5.239   2.998   1.191
 7736SOL    HW331264   5.345   3.105   1.177
 7736SOL    MW431265   5.311   3.038   1.220
 7737SOL     OW31266   4.550   2.346   0.499
 7737SOL    HW231267   4.525   2.434   0.527
 7737SOL    HW331268   4.547   2.349   0.403
 7737SOL    MW431269   4.546   2.358   0.491
 7738SOL     OW31270   3.992   2.374   0.427
 7738SOL    HW231271   4.024   2.462   0.409
 7738SOL    HW331272   3.980   2.372   0.522
 7738SOL    MW431273   3.995   2.386   0.439
 7739SOL     OW31274   4.070   2.787   1.328
 7739SOL    HW231275   4.133   2.734   1.279
 7739SOL    HW331276   4.051   2.861   1.271
 7739SOL    MW431277   4.076   2.789   1.315
 7740SOL     OW31278   4.391   2.129   0.514
 7740SOL    HW231279   4.449   2.205   0.516
 7740SOL    HW331280   4.326   2.150   0.447
 7740SOL    MW431281   4.390   2.141   0.505
 7741SOL     OW31282   4.478   3.056   0.689
 7741SOL    HW231283   4.558   3.059   0.741
 7741SOL    HW331284   4.506   3.023   0.603
 7741SOL    MW431285   4.492   3.052   0.684
 7742SOL     OW31286   4.503   3.397   1.592
 7742SOL    HW231287   4.587   3.423   1.631
 7742SOL    HW331288   4.527   3.341   1.518
 7742SOL    MW431289   4.517   3.393   1.587
 7743SOL     OW31290   4.255   2.560   0.680
 7743SOL    HW231291   4.240   2.480   0.731
 7743SOL    HW331292   4.337   2.595   0.714
 7743SOL    MW431293   4.263   2.552   0.692
 7744SOL     OW31294   4.592   3.246   1.365
 7744SOL    HW231295   4.556   3.312   1.305
 7744SOL    HW331296   4.520   3.184   1.378
 7744SOL    MW431297   4.578   3.246   1.359
 7745SOL     OW31298   4.397   2.386   1.057
 7745SOL    HW231299   4.303   2.382   1.075
 7745SOL    HW331300   4.427   2.295   1.066
 7745SOL    MW431301   4.388   2.374   1.060
 7746SOL     OW31302   4.143   2.800   0.961
 7746SOL    HW231303   4.098   2.807   0.877
 7746SOL    HW331304   4.123   2.883   1.005
 7746SOL    MW431305   4.135   2.812   0.955
 7747SOL     OW31306   3.840   3.646   0.836
 7747SOL    HW231307   3.929   3.638   0.871
 7747SOL    HW331308   3.804   3.558   0.841
 7747SOL    MW431309   3.847   3.633   0.841
 7748SOL     OW31310   5.105   3.038   0.205
 7748SOL    HW231311   5.023   3.074   0.171
 7748SOL    HW331312   5.173   3.081   0.154
 7748SOL    MW431313   5.103   3.048   0.193
 7749SOL     OW31314   4.104   3.173   0.871
 7749SOL    HW231315   4.080   3.226   0.947
 7749SOL    HW331316   4.160   3.231   0.819
 7749SOL    MW431317   4.108   3.188   0.874
 7750SOL     OW31318   4.666   2.817   0.681
 7750SOL    HW231319   4.580   2.804   0.721
 7750SOL    HW331320   4.719   2.744   0.713
 7750SOL    MW431321   4.662   2.806   0.690
 7751SOL     OW31322   4.074   3.469   1.466
 7751SOL    HW231323   3.982   3.445   1.451
 7751SOL    HW331324   4.118   3.386   1.483
 7751SOL    MW431325   4.068   3.454   1.465
 7752SOL     OW31326   4.657   3.179   0.398
 7752SOL    HW231327   4.634   3.241   0.466
 7752SOL    HW331328   4.614   3.097   0.424
 7752SOL    MW431329   4.649   3.175   0.409
 7753SOL     OW31330   5.530   2.180   0.854
 7753SOL    HW231331   5.467   2.160   0.923
 7753SOL    HW331332   5.520   2.109   0.791
 7753SOL    MW431333   5.520   2.167   0.855
 7754SOL     OW31334   4.154   2.152   0.366
 7754SOL    HW231335   4.128   2.114   0.282
 7754SOL    HW331336   4.091   2.222   0.382
 7754SOL    MW431337   4.143   2.155   0.357
 7755SOL     OW31338   3.989   3.113   0.403
 7755SOL    HW231339   3.937   3.181   0.359
 7755SOL    HW331340   3.986   3.039   0.343
 7755SOL    MW431341   3.981   3.112   0.390
 7756SOL     OW31342   4.651   3.576   0.181
 7756SOL    HW231343   4.606   3.592   0.264
 7756SOL    HW331344   4.582   3.541   0.123
 7756SOL    MW431345   4.637   3.573   0.183
 7757SOL     OW31346   5.586   2.349   0.156
 7757SOL    HW231347   5.495   2.351   0.184
 7757SOL    HW331348   5.631   2.411   0.214
 7757SOL    MW431349   5.579   2.357   0.166
 7758SOL     OW31350   5.331   2.952   0.506
 7758SOL    HW231351   5.241   2.952   0.541
 7758SOL    HW331352   5.324   2.998   0.423
 7758SOL    MW431353   5.318   2.958   0.500
 7759SOL     OW31354   5.131   2.587   1.578
 7759SOL    HW231355   5.200   2.525   1.555
 7759SOL    HW331356   5.056   2.561   1.525
 7759SOL    MW431357   5.131   2.574   1.569
 7760SOL     OW31358   3.872   3.467   1.130
 7760SOL    HW231359   3.855   3.413   1.207
 7760SOL    HW331360   3.860   3.557   1.160
 7760SOL    MW431361   3.869   3.471   1.144
 7761SOL     OW31362   4.867   2.974   1.570
 7761SOL    HW231363   4.852   3.067   1.555
 7761SOL    HW331364   4.962   2.964   1.570
 7761SOL    MW431365   4.876   2.984   1.567
 7762SOL     OW31366   4.663   2.398   1.771
 7762SOL    HW231367   4.753   2.399   1.738
 7762SOL    HW331368   4.622   2.323   1.729
 7762SOL    MW431369   4.669   2.388   1.762
 7763SOL     OW31370   5.238   2.930   0.898
 7763SOL    HW231371   5.241   2.864   0.829
 7763SOL    HW331372   5.323   2.973   0.894
 7763SOL    MW431373   5.250   2.926   0.889
 7764SOL     OW31374   4.858   2.533   0.467
 7764SOL    HW231375   4.884   2.557   0.378
 7764SOL    HW331376   4.840   2.440   0.463
 7764SOL    MW431377   4.860   2.525   0.454
 7765SOL     OW31378   5.523   3.153   0.318
 7765SOL    HW231379   5.479   3.194   0.393
 7765SOL    HW331380   5.580   3.221   0.283
 7765SOL    MW431381   5.525   3.167   0.323
 7766SOL     OW31382   4.443   2.202   1.721
 7766SOL    HW231383   4.453   2.128   1.661
 7766SOL    HW331384   4.479   2.171   1.804
 7766SOL    MW431385   4.449   2.188   1.723
 7767SOL     OW31386   4.179   3.569   0.636
 7767SOL    HW231387   4.211   3.657   0.614
 7767SOL    HW331388   4.132   3.541   0.558
 7767SOL    MW431389   4.178   3.577   0.623
 7768SOL     OW31390   5.563   1.931   0.685
 7768SOL    HW231391   5.617   1.882   0.747
 7768SOL    HW331392   5.506   1.865   0.646
 7768SOL    MW431393   5.563   1.915   0.687
 7769SOL     OW31394   3.895   3.629   0.213
 7769SOL    HW231395   3.924   3.719   0.205
 7769SOL    HW331396   3.845   3.612   0.134
 7769SOL    MW431397   3.893   3.637   0.202
 7770SOL     OW31398   4.682   1.884   1.098
 7770SOL    HW231399   4.641   1.962   1.060
 7770SOL    HW331400   4.776   1.902   1.093
 7770SOL    MW431401   4.688   1.896   1.093
 7771SOL     OW31402   5.299   3.437   0.184
 7771SOL    HW231403   5.347   3.506   0.230
 7771SOL    HW331404   5.220   3.481   0.153
 7771SOL    MW431405   5.294   3.451   0.187
 7772SOL     OW31406   4.697   2.562   0.128
 7772SOL    HW231407   4.699   2.509   0.049
 7772SOL    HW331408   4.785   2.599   0.134
 7772SOL    MW431409   4.709   2.561   0.117
 7773SOL     OW31410   5.311   2.488   0.464
 7773SOL    HW231411   5.350   2.488   0.551
 7773SOL    HW331412   5.252   2.564   0.464
 7773SOL    MW431413   5.308   2.499   0.475
 7774SOL     OW31414   4.628   2.855   1.593
 7774SOL    HW231415   4.605   2.835   1.683
 7774SOL    HW331416   4.713   2.899   1.598
 7774SOL    MW431417   4.635   2.858   1.605
 7775SOL     OW31418   4.708   1.992   1.353
 7775SOL    HW231419   4.714   1.954   1.266
 7775SOL    HW331420   4.697   2.086   1.338
 7775SOL    MW431421   4.709   2.000   1.341
 7776SOL     OW31422   4.797   2.481   1.187
 7776SOL    HW231423   4.872   2.510   1.134
 7776SOL    HW331424   4.729   2.546   1.171
 7776SOL    MW431425   4.798   2.493   1.177
 7777SOL     OW31426   5.347   2.449   1.464
 7777SOL    HW231427   5.328   2.358   1.443
 7777SOL    HW331428   5.325   2.498   1.385
 7777SOL    MW431429   5.342   2.442   1.451
 7778SOL     OW31430   5.489   3.543   1.368
 7778SOL    HW231431   5.417   3.505   1.419
 7778SOL    HW331432   5.506   3.628   1.409
 7778SOL    MW431433   5.483   3.548   1.380
 7779SOL     OW31434   4.794   2.187   1.570
 7779SOL    HW231435   4.760   2.226   1.489
 7779SOL    HW331436   4.772   2.095   1.563
 7779SOL    MW431437   4.787   2.180   1.560
 7780SOL     OW31438   5.203   3.001   1.646
 7780SOL    HW231439   5.285   3.042   1.676
 7780SOL    HW331440   5.166   2.963   1.726
 7780SOL    MW431441   5.209   3.002   1.661
 7781SOL     OW31442   5.498   2.374   0.630
 7781SOL    HW231443   5.587   2.343   0.647
 7781SOL    HW331444   5.441   2.314   0.678
 7781SOL    MW431445   5.501   2.362   0.639
 7782SOL     OW31446   3.924   2.088   0.659
 7782SOL    HW231447   3.915   2.028   0.585
 7782SOL    HW331448   3.857   2.059   0.722
 7782SOL    MW431449   3.914   2.075   0.657
 7783SOL     OW31450   4.867   3.181   0.220
 7783SOL    HW231451   4.817   3.183   0.302
 7783SOL    HW331452   4.801   3.199   0.152
 7783SOL    MW431453   4.853   3.183   0.222
 7784SOL     OW31454   3.871   2.261   1.022
 7784SOL    HW231455   3.843   2.352   1.031
 7784SOL    HW331456   3.808   2.222   0.961
 7784SOL    MW431457   3.858   2.267   1.016
 7785SOL     OW31458   4.330   3.599   0.328
 7785SOL    HW231459   4.251   3.557   0.361
 7785SOL    HW331460   4.396   3.582   0.395
 7785SOL    MW431461   4.329   3.591   0.341
 7786SOL     OW31462   5.458   3.119   1.725
 7786SOL    HW231463   5.508   3.045   1.757
 7786SOL    HW331464   5.404   3.146   1.800
 7786SOL    MW431465   5.458   3.113   1.738
 7787SOL     OW31466   4.466   3.014   0.035
 7787SOL    HW231467   4.388   2.960   0.022
 7787SOL    HW331468   4.437   3.087   0.088
 7787SOL    MW431469   4.452   3.016   0.040
 7788SOL     OW31470   5.592   2.754   1.227
 7788SOL    HW231471   5.608   2.792   1.140
 7788SOL    HW331472   5.626   2.820   1.288
 7788SOL    MW431473   5.599   2.767   1.223
 7789SOL     OW31474   5.384   3.463   0.896
 7789SOL    HW231475   5.413   3.530   0.957
 7789SOL    HW331476   5.365   3.387   0.951
 7789SOL    MW431477   5.386   3.463   0.911
 7790SOL     OW31478   5.047   3.530   0.103
 7790SOL    HW231479   4.973   3.493   0.153
 7790SOL    HW331480   5.055   3.620   0.136
 7790SOL    MW431481   5.038   3.537   0.115
 7791SOL     OW31482   3.855   2.536   1.192
 7791SOL    HW231483   3.917   2.566   1.258
 7791SOL    HW331484   3.789   2.605   1.186
 7791SOL    MW431485   3.854   2.549   1.199
 7792SOL     OW31486   5.271   3.204   0.045
 7792SOL    HW231487   5.218   3.253  -0.019
 7792SOL    HW331488   5.302   3.270   0.106
 7792SOL    MW431489   5.269   3.218   0.043
 7793SOL     OW31490   4.496   2.093   0.100
 7793SOL    HW231491   4.444   2.013   0.088
 7793SOL    HW331492   4.583   2.070   0.068
 7793SOL    MW431493   4.499   2.079   0.094
 7794SOL     OW31494   3.950   3.645   1.644
 7794SOL    HW231495   3.924   3.713   1.582
 7794SOL    HW331496   3.998   3.582   1.592
 7794SOL    MW431497   3.952   3.645   1.630
 7795SOL     OW31498   4.002   2.964   1.151
 7795SOL    HW231499   4.055   3.039   1.176
 7795SOL    HW331500   3.921   3.002   1.117
 7795SOL    MW431501   3.998   2.979   1.151
 7796SOL     OW31502   4.542   2.868   1.139
 7796SOL    HW231503   4.570   2.777   1.151
 7796SOL    HW331504   4.471   2.862   1.075
 7796SOL    MW431505   4.535   2.856   1.134
 7797SOL     OW31506   3.857   2.733   0.557
 7797SOL    HW231507   3.948   2.748   0.584
 7797SOL    HW331508   3.860   2.654   0.503
 7797SOL    MW431509   3.869   2.725   0.555
 7798SOL     OW31510   4.093   2.441   1.811
 7798SOL    HW231511   4.040   2.521   1.818
 7798SOL    HW331512   4.163   2.453   1.876
 7798SOL    MW431513   4.095   2.454   1.819
 7799SOL     OW31514   4.479   1.991   1.518
 7799SOL    HW231515   4.456   1.899   1.520
 7799SOL    HW331516   4.565   1.993   1.475
 7799SOL    MW431517   4.486   1.981   1.514
 7800SOL     OW31518   4.163   2.515   1.557
 7800SOL    HW231519   4.243   2.565   1.543
 7800SOL    HW331520   4.154   2.509   1.652
 7800SOL    MW431521   4.172   2.521   1.567
 7801SOL     OW31522   4.484   3.665   0.931
 7801SOL    HW231523   4.573   3.680   0.961
 7801SOL    HW331524   4.479   3.712   0.847
 7801SOL    MW431525   4.494   3.673   0.924
 7802SOL     OW31526   5.140   2.040   1.828
 7802SOL    HW231527   5.196   1.967   1.854
 7802SOL    HW331528   5.110   2.078   1.910
 7802SOL    MW431529   5.144   2.035   1.841
 7803SOL     OW31530   3.865   3.345   0.596
 7803SOL    HW231531   3.837   3.384   0.678
 7803SOL    HW331532   3.885   3.254   0.618
 7803SOL    MW431533   3.863   3.337   0.609
 7804SOL     OW31534   4.698   3.388   0.631
 7804SOL    HW231535   4.781   3.342   0.615
 7804SOL    HW331536   4.688   3.387   0.727
 7804SOL    MW431537   4.708   3.381   0.641
 7805SOL     OW31538   5.530   2.533   0.945
 7805SOL    HW231539   5.619   2.563   0.927
 7805SOL    HW331540   5.510   2.473   0.874
 7805SOL    MW431541   5.539   2.530   0.934
 7806SOL     OW31542   5.381   2.712   1.825
 7806SOL    HW231543   5.436   2.636   1.806
 7806SOL    HW331544   5.383   2.720   1.920
 7806SOL    MW431545   5.389   2.703   1.833
 7807SOL     OW31546   4.431   3.445   0.036
 7807SOL    HW231547   4.371   3.514   0.006
 7807SOL    HW331548   4.376   3.387   0.089
 7807SOL    MW431549   4.415   3.447   0.038
 7808SOL     OW31550   4.869   2.090   0.259
 7808SOL    HW231551   4.802   2.066   0.196
 7808SOL    HW331552   4.934   2.139   0.208
 7808SOL    MW431553   4.869   2.092   0.244
 7809SOL     OW31554   4.676   2.274   1.344
 7809SOL    HW231555   4.595   2.315   1.372
 7809SOL    HW331556   4.723   2.342   1.296
 7809SOL    MW431557   4.671   2.289   1.342
 7810SOL     OW31558   4.936   2.612   0.967
 7810SOL    HW231559   4.949   2.706   0.977
 7810SOL    HW331560   4.897   2.602   0.881
 7810SOL    MW431561   4.932   2.623   0.957
 7811SOL     OW31562   4.388   2.807   0.771
 7811SOL    HW231563   4.299   2.798   0.804
 7811SOL    HW331564   4.392   2.897   0.739
 7811SOL    MW431565   4.377   2.818   0.771
 7812SOL     OW31566   5.187   2.390   0.766
 7812SOL    HW231567   5.132   2.311   0.765
 7812SOL    HW331568   5.169   2.431   0.850
 7812SOL    MW431569   5.177   2.385   0.775
 7813SOL     OW31570   4.158   2.077   1.583
 7813SOL    HW231571   4.079   2.095   1.635
 7813SOL    HW331572   4.153   2.139   1.510
 7813SOL    MW431573   4.148   2.087   1.580
 7814SOL     OW31574   4.806   2.594   0.723
 7814SOL    HW231575   4.743   2.526   0.747
 7814SOL    HW331576   4.826   2.575   0.631
 7814SOL    MW431577   4.800   2.581   0.715
 7815SOL     OW31578   4.062   3.489   0.425
 7815SOL    HW231579   4.023   3.536   0.351
 7815SOL    HW331580   3.996   3.424   0.450
 7815SOL    MW431581   4.049   3.487   0.419
 7816SOL     OW31582   4.554   2.898   0.449
 7816SOL    HW231583   4.556   2.872   0.356
 7816SOL    HW331584   4.612   2.835   0.492
 7816SOL    MW431585   4.562   2.887   0.443
 7817SOL     OW31586   5.107   3.458   1.221
 7817SOL    HW231587   5.032   3.504   1.259
 7817SOL    HW331588   5.089   3.365   1.238
 7817SOL    MW431589   5.096   3.452   1.229
 7818SOL     OW31590   5.111   3.666   0.651
 7818SOL    HW231591   5.054   3.619   0.590
 7818SOL    HW331592   5.197   3.627   0.638
 7818SOL    MW431593   5.114   3.657   0.641
 7819SOL     OW31594   5.064   2.142   0.782
 7819SOL    HW231595   5.092   2.074   0.843
 7819SOL    HW331596   4.978   2.113   0.752
 7819SOL    MW431597   5.057   2.129   0.786
 7820SOL     OW31598   3.869   3.076   0.716
 7820SOL    HW231599   3.933   3.108   0.779
 7820SOL    HW331600   3.918   3.012   0.664
 7820SOL    MW431601   3.884   3.072   0.717
 7821SOL     OW31602   4.369   3.152   1.698
 7821SOL    HW231603   4.417   3.235   1.685
 7821SOL    HW331604   4.426   3.100   1.754
 7821SOL    MW431605   4.383   3.156   1.704
 7822SOL     OW31606   3.945   3.394   1.838
 7822SOL    HW231607   4.001   3.318   1.853
 7822SOL    HW331608   3.894   3.372   1.760
 7822SOL    MW431609   3.945   3.381   1.829
 7823SOL     OW31610   5.044   2.246   0.117
 7823SOL    HW231611   5.017   2.312   0.053
 7823SOL    HW331612   5.114   2.289   0.167
 7823SOL    MW431613   5.049   2.259   0.114
 7824SOL     OW31614   4.712   1.951   0.054
 7824SOL    HW231615   4.768   1.943  -0.024
 7824SOL    HW331616   4.689   1.861   0.076
 7824SOL    MW431617   4.717   1.938   0.047
 7825SOL     OW31618   5.217   2.802   0.259
 7825SOL    HW231619   5.184   2.891   0.249
 7825SOL    HW331620   5.182   2.773   0.344
 7825SOL    MW431621   5.207   2.811   0.270
 7826SOL     OW31622   4.830   3.231   1.447
 7826SOL    HW231623   4.741   3.237   1.415
 7826SOL    HW331624   4.874   3.310   1.415
 7826SOL    MW431625   4.825   3.241   1.439
 7827SOL     OW31626   4.123   1.899   1.789
 7827SOL    HW231627   4.051   1.864   1.737
 7827SOL    HW331628   4.181   1.940   1.724
 7827SOL    MW431629   4.121   1.900   1.774
 7828SOL     OW31630   4.147   3.389   1.088
 7828SOL    HW231631   4.192   3.451   1.145
 7828SOL    HW331632   4.054   3.408   1.101
 7828SOL    MW431633   4.140   3.399   1.095
 7829SOL     OW31634   5.587   2.918   1.442
 7829SOL    HW231635   5.502   2.931   1.401
 7829SOL    HW331636   5.567   2.882   1.529
 7829SOL    MW431637   5.574   2.914   1.447
 7830SOL     OW31638   4.569   3.457   1.196
 7830SOL    HW231639   4.593   3.446   1.105
 7830SOL    HW331640   4.492   3.514   1.194
 7830SOL    MW431641   4.561   3.462   1.185
 7831SOL     OW31642   4.211   2.840   0.051
 7831SOL    HW231643   4.134   2.853   0.107
 7831SOL    HW331644   4.175   2.804  -0.030
 7831SOL    MW431645   4.197   2.836   0.048
 7832SOL     OW31646   4.864   2.813   0.294
 7832SOL    HW231647   4.774   2.834   0.269
 7832SOL    HW331648   4.891   2.886   0.350
 7832SOL    MW431649   4.856   2.825   0.297
 7833SOL     OW31650   4.364   3.162   0.986
 7833SOL    HW231651   4.357   3.141   1.080
 7833SOL    HW331652   4.282   3.130   0.949
 7833SOL    MW431653   4.352   3.156   0.993
 7834SOL     OW31654   5.228   2.172   1.388
 7834SOL    HW231655   5.175   2.174   1.468
 7834SOL    HW331656   5.213   2.085   1.351
 7834SOL    MW431657   5.220   2.162   1.393
 7835SOL     OW31658   5.564   2.096   1.261
 7835SOL    HW231659   5.545   2.163   1.196
 7835SOL    HW331660   5.621   2.034   1.216
 7835SOL    MW431661   5.568   2.097   1.247
 7836SOL     OW31662   3.810   3.254   1.649
 7836SOL    HW231663   3.854   3.187   1.595
 7836SOL    HW331664   3.725   3.216   1.669
 7836SOL    MW431665   3.805   3.240   1.645
 7837SOL     OW31666   4.493   1.929   0.701
 7837SOL    HW231667   4.422   1.990   0.683
 7837SOL    HW331668   4.544   1.926   0.620
 7837SOL    MW431669   4.489   1.935   0.688
 7838SOL     OW31670   4.251   3.169   0.450
 7838SOL    HW231671   4.244   3.201   0.540
 7838SOL    HW331672   4.161   3.153   0.422
 7838SOL    MW431673   4.239   3.171   0.457
 7839SOL     OW31674   4.846   3.562   1.359
 7839SOL    HW231675   4.766   3.547   1.309
 7839SOL    HW331676   4.853   3.657   1.366
 7839SOL    MW431677   4.837   3.573   1.353
 7840SOL     OW31678   4.960   3.527   0.849
 7840SOL    HW231679   5.007   3.600   0.808
 7840SOL    HW331680   4.881   3.566   0.885
 7840SOL    MW431681   4.955   3.542   0.848
 7841SOL     OW31682   5.368   3.622   1.124
 7841SOL    HW231683   5.411   3.592   1.204
 7841SOL    HW331684   5.287   3.570   1.121
 7841SOL    MW431685   5.363   3.611   1.134
 7842SOL     OW31686   4.453   2.586   1.831
 7842SOL    HW231687   4.523   2.528   1.803
 7842SOL    HW331688   4.396   2.531   1.886
 7842SOL    MW431689   4.455   2.573   1.835
 7843SOL     OW31690   5.240   2.798   1.464
 7843SOL    HW231691   5.245   2.851   1.544
 7843SOL    HW331692   5.202   2.715   1.492
 7843SOL    MW431693   5.236   2.793   1.479
 7844SOL     OW31694   4.880   1.933   1.710
 7844SOL    HW231695   4.875   1.840   1.691
 7844SOL    HW331696   4.963   1.944   1.756
 7844SOL    MW431697   4.888   1.922   1.714
 7845SOL     OW31698   4.254   2.453   0.164
 7845SOL    HW231699   4.220   2.509   0.234
 7845SOL    HW331700   4.325   2.403   0.204
 7845SOL    MW431701   4.260   2.454   0.178
 7846SOL     OW31702   5.350   3.204   0.986
 7846SOL    HW231703   5.385   3.186   0.899
 7846SOL    HW331704   5.255   3.205   0.973
 7846SOL    MW431705   5.342   3.201   0.973
 7847SOL     OW31706   4.779   2.852   1.355
 7847SOL    HW231707   4.822   2.887   1.433
 7847SOL    HW331708   4.762   2.929   1.301
 7847SOL    MW431709   4.782   2.867   1.358
 7848SOL     OW31710   5.310   2.339   0.228
 7848SOL    HW231711   5.302   2.410   0.165
 7848SOL    HW331712   5.328   2.383   0.311
 7848SOL    MW431713   5.311   2.353   0.230
 7849SOL     OW31714   4.170   1.994   0.657
 7849SOL    HW231715   4.220   2.037   0.588
 7849SOL    HW331716   4.085   2.038   0.657
 7849SOL    MW431717   4.167   2.007   0.648
 7850SOL     OW31718   3.929   3.056   1.517
 7850SOL    HW231719   3.957   3.009   1.595
 7850SOL    HW331720   3.850   3.011   1.488
 7850SOL    MW431721   3.922   3.045   1.523
 7851SOL     OW31722   4.437   2.383   1.484
 7851SOL    HW231723   4.409   2.471   1.508
 7851SOL    HW331724   4.406   2.327   1.555
 7851SOL    MW431725   4.429   2.386   1.496
 7852SOL     OW31726   4.979   2.601   0.203
 7852SOL    HW231727   5.026   2.619   0.122
 7852SOL    HW331728   4.945   2.685   0.231
 7852SOL    MW431729   4.981   2.615   0.196
 7853SOL     OW31730   4.092   2.779   0.697
 7853SOL    HW231731   4.150   2.835   0.645
 7853SOL    HW331732   4.136   2.694   0.699
 7853SOL    MW431733   4.105   2.776   0.690
 7854SOL     OW31734   5.232   2.131   0.534
 7854SOL    HW231735   5.154   2.081   0.559
 7854SOL    HW331736   5.203   2.222   0.534
 7854SOL    MW431737   5.218   2.135   0.537
 7855SOL     OW31738   4.818   2.093   0.693
 7855SOL    HW231739   4.838   2.168   0.637
 7855SOL    HW331740   4.798   2.132   0.778
 7855SOL    MW431741   4.819   2.109   0.697
 7856SOL     OW31742   4.714   3.343   0.025
 7856SOL    HW231743   4.741   3.421  -0.023
 7856SOL    HW331744   4.621   3.358   0.044
 7856SOL    MW431745   4.705   3.356   0.021
 7857SOL     OW31746   5.578   2.866   1.712
 7857SOL    HW231747   5.491   2.846   1.748
 7857SOL    HW331748   5.632   2.792   1.737
 7857SOL    MW431749   5.573   2.855   1.720
 7858SOL     OW31750   3.799   3.379   0.869
 7858SOL    HW231751   3.831   3.383   0.960
 7858SOL    HW331752   3.704   3.387   0.877
 7858SOL    MW431753   3.791   3.382   0.882
 7859SOL     OW31754   3.754   2.505   0.416
 7859SOL    HW231755   3.694   2.477   0.486
 7859SOL    HW331756   3.828   2.445   0.422
 7859SOL    MW431757   3.756   2.494   0.425
 7860SOL     OW31758   5.322   3.717   1.850
 7860SOL    HW231759   5.367   3.641   1.815
 7860SOL    HW331760   5.360   3.730   1.937
 7860SOL    MW431761   5.332   3.710   1.856
 7861SOL     OW31762   4.922   3.236   0.576
 7861SOL    HW231763   4.945   3.187   0.654
 7861SOL    HW331764   5.003   3.278   0.548
 7861SOL    MW431765   4.935   3.236   0.583
 7862SOL     OW31766   4.180   2.244   1.305
 7862SOL    HW231767   4.213   2.325   1.345
 7862SOL    HW331768   4.153   2.270   1.217
 7862SOL    MW431769   4.179   2.258   1.299
 7863SOL     OW31770   4.134   2.211   1.041
 7863SOL    HW231771   4.164   2.125   1.012
 7863SOL    HW331772   4.039   2.204   1.044
 7863SOL    MW431773   4.126   2.200   1.039
 7864SOL     OW31774   4.963   2.420   1.732
 7864SOL    HW231775   5.015   2.355   1.685
 7864SOL    HW331776   4.921   2.471   1.662
 7864SOL    MW431777   4.964   2.417   1.715
 7865SOL     OW31778   5.062   2.215   1.593
 7865SOL    HW231779   4.969   2.199   1.580
 7865SOL    HW331780   5.088   2.153   1.661
 7865SOL    MW431781   5.052   2.205   1.600
 7866SOL     OW31782   4.277   1.989   0.932
 7866SOL    HW231783   4.287   1.898   0.958
 7866SOL    HW331784   4.233   1.985   0.847
 7866SOL    MW431785   4.273   1.977   0.924
 7867SOL     OW31786   4.371   3.604   1.478
 7867SOL    HW231787   4.288   3.589   1.523
 7867SOL    HW331788   4.430   3.537   1.513
 7867SOL    MW431789   4.369   3.594   1.488
 7868SOL     OW31790   5.428   2.311   1.103
 7868SOL    HW231791   5.361   2.344   1.163
 7868SOL    HW331792   5.471   2.389   1.069
 7868SOL    MW431793   5.426   2.326   1.107
 7869SOL     OW31794   5.606   3.031   1.073
 7869SOL    HW231795   5.599   2.971   0.998
 7869SOL    HW331796   5.532   3.091   1.062
 7869SOL    MW431797   5.596   3.031   1.062
 7870SOL     OW31798   4.988   2.893   0.991
 7870SOL    HW231799   5.002   2.865   1.082
 7870SOL    HW331800   5.074   2.924   0.963
 7870SOL    MW431801   5.001   2.894   1.000
 7871SOL     OW31802   5.071   2.388   1.270
 7871SOL    HW231803   5.092   2.389   1.177
 7871SOL    HW331804   5.116   2.310   1.303
 7871SOL    MW431805   5.078   2.378   1.262
 7872SOL     OW31806   5.564   2.519   1.812
 7872SOL    HW231807   5.601   2.464   1.881
 7872SOL    HW331808   5.589   2.476   1.730
 7872SOL    MW431809   5.571   2.507   1.811
 7873SOL     OW31810   5.111   2.817   1.863
 7873SOL    HW231811   5.177   2.765   1.817
 7873SOL    HW331812   5.131   2.804   1.956
 7873SOL    MW431813   5.122   2.808   1.870
 7874SOL     OW31814   5.062   1.903   0.212
 7874SOL    HW231815   5.136   1.947   0.255
 7874SOL    HW331816   4.986   1.957   0.234
 7874SOL    MW431817   5.062   1.915   0.220
 7875SOL     OW31818   5.122   2.678   0.490
 7875SOL    HW231819   5.037   2.648   0.460
 7875SOL    HW331820   5.114   2.685   0.585
 7875SOL    MW431821   5.110   2.676   0.499
 7876SOL     OW31822   4.198   3.141   1.221
 7876SOL    HW231823   4.210   3.168   1.312
 7876SOL    HW331824   4.179   3.222   1.174
 7876SOL    MW431825   4.197   3.156   1.226
 7877SOL     OW31826   4.482   2.121   1.044
 7877SOL    HW231827   4.455   2.123   1.135
 7877SOL    HW331828   4.412   2.073   0.999
 7877SOL    MW431829   4.470   2.117   1.051
 7878SOL     OW31830   4.336   3.613   1.206
 7878SOL    HW231831   4.388   3.690   1.183
 7878SOL    HW331832   4.345   3.605   1.301
 7878SOL    MW431833   4.345   3.620   1.217
 7879SOL     OW31834   5.238   3.198   1.438
 7879SOL    HW231835   5.223   3.127   1.501
 7879SOL    HW331836   5.284   3.156   1.366
 7879SOL    MW431837   5.244   3.182   1.438
 7880SOL     OW31838   4.312   2.929   1.555
 7880SOL    HW231839   4.349   2.934   1.467
 7880SOL    HW331840   4.351   3.002   1.602
 7880SOL    MW431841   4.322   2.939   1.550
 7881SOL     OW31842   4.492   2.972   1.367
 7881SOL    HW231843   4.551   2.918   1.420
 7881SOL    HW331844   4.507   2.944   1.277
 7881SOL    MW431845   4.502   2.961   1.363
 7882SOL     OW31846   4.495   2.344   0.216
 7882SOL    HW231847   4.568   2.393   0.179
 7882SOL    HW331848   4.511   2.253   0.190
 7882SOL    MW431849   4.507   2.339   0.209
 7883SOL     OW31850   5.303   3.461   1.539
 7883SOL    HW231851   5.345   3.446   1.624
 7883SOL    HW331852   5.294   3.374   1.501
 7883SOL    MW431853   5.307   3.449   1.546
 7884SOL     OW31854   4.963   1.940   1.130
 7884SOL    HW231855   5.018   1.949   1.052
 7884SOL    HW331856   5.018   1.974   1.201
 7884SOL    MW431857   4.977   1.945   1.129
 7885SOL     OW31858   3.970   2.853   0.314
 7885SOL    HW231859   3.907   2.869   0.243
 7885SOL    HW331860   3.917   2.816   0.385
 7885SOL    MW431861   3.955   2.850   0.314
 7886SOL     OW31862   4.326   3.207   0.173
 7886SOL    HW231863   4.341   3.183   0.265
 7886SOL    HW331864   4.234   3.185   0.157
 7886SOL    MW431865   4.316   3.200   0.183
 7887SOL     OW31866   4.865   3.438   0.325
 7887SOL    HW231867   4.873   3.356   0.276
 7887SOL    HW331868   4.784   3.477   0.292
 7887SOL    MW431869   4.855   3.433   0.315
 7888SOL     OW31870   4.124   3.596   0.894
 7888SOL    HW231871   4.128   3.507   0.929
 7888SOL    HW331872   4.150   3.587   0.803
 7888SOL    MW431873   4.127   3.584   0.886
 7889SOL     OW31874   4.741   3.074   1.137
 7889SOL    HW231875   4.673   3.008   1.153
 7889SOL    HW331876   4.759   3.068   1.044
 7889SOL    MW431877   4.734   3.065   1.128
 7890SOL     OW31878   3.830   3.349   1.388
 7890SOL    HW231879   3.820   3.307   1.474
 7890SOL    HW331880   3.751   3.402   1.378
 7890SOL    MW431881   3.819   3.350   1.399
 7891SOL     OW31882   4.734   2.213   0.958
 7891SOL    HW231883   4.664   2.165   1.003
 7891SOL    HW331884   4.766   2.276   1.022
 7891SOL    MW431885   4.729   2.215   0.972
 7892SOL     OW31886   4.385   2.649   1.578
 7892SOL    HW231887   4.378   2.744   1.566
 7892SOL    HW331888   4.394   2.638   1.673
 7892SOL    MW431889   4.386   2.661   1.588
 7893SOL     OW31890   4.106   3.164   1.836
 7893SOL    HW231891   4.178   3.166   1.773
 7893SOL    HW331892   4.076   3.073   1.835
 7893SOL    MW431893   4.111   3.153   1.828
 7894SOL     OW31894   5.190   1.927   1.303
 7894SOL    HW231895   5.261   1.873   1.267
 7894SOL    HW331896   5.189   1.906   1.396
 7894SOL    MW431897   5.199   1.918   1.311
 7895SOL     OW31898   5.390   3.457   1.787
 7895SOL    HW231899   5.363   3.454   1.878
 7895SOL    HW331900   5.486   3.461   1.790
 7895SOL    MW431901   5.400   3.457   1.799
 7896SOL     OW31902   4.201   2.319   0.771
 7896SOL    HW231903   4.272   2.267   0.734
 7896SOL    HW331904   4.187   2.284   0.858
 7896SOL    MW431905   4.209   2.308   0.778
 7897SOL     OW31906   3.756   3.654   1.843
 7897SOL    HW231907   3.806   3.632   1.765
 7897SOL    HW331908   3.764   3.749   1.851
 7897SOL    MW431909   3.764   3.663   1.834
 7898SOL     OW31910   4.517   3.412   0.847
 7898SOL    HW231911   4.445   3.349   0.860
 7898SOL    HW331912   4.478   3.497   0.865
 7898SOL    MW431913   4.501   3.415   0.850
 7899SOL     OW31914   4.837   2.260   0.495
 7899SOL    HW231915   4.859   2.197   0.427
 7899SOL    HW331916   4.742   2.252   0.506
 7899SOL    MW431917   4.827   2.251   0.487
 7900SOL     OW31918   3.922   1.950   0.427
 7900SOL    HW231919   3.993   1.971   0.366
 7900SOL    HW331920   3.876   1.878   0.385
 7900SOL    MW431921   3.926   1.944   0.413
 7901SOL     OW31922   3.753   2.417   1.570
 7901SOL    HW231923   3.817   2.483   1.545
 7901SOL    HW331924   3.672   2.444   1.527
 7901SOL    MW431925   3.751   2.429   1.562
 7902SOL     OW31926   5.491   3.324   0.527
 7902SOL    HW231927   5.461   3.257   0.588
 7902SOL    HW331928   5.585   3.330   0.541
 7902SOL    MW431929   5.499   3.316   0.537
 7903SOL     OW31930   5.047   3.001   0.457
 7903SOL    HW231931   5.019   3.087   0.490
 7903SOL    HW331932   5.075   3.017   0.367
 7903SOL    MW431933   5.047   3.015   0.449
 7904SOL     OW31934   4.709   1.921   0.510
 7904SOL    HW231935   4.746   1.980   0.575
 7904SOL    HW331936   4.686   1.977   0.436
 7904SOL    MW431937   4.710   1.936   0.509
 7905SOL     OW31938   5.562   2.803   0.932
 7905SOL    HW231939   5.553   2.835   0.843
 7905SOL    HW331940   5.515   2.719   0.932
 7905SOL    MW431941   5.555   2.796   0.922
 7906SOL     OW31942   3.938   2.643   1.511
 7906SOL    HW231943   3.959   2.712   1.449
 7906SOL    HW331944   4.018   2.590   1.516
 7906SOL    MW431945   3.951   2.644   1.505
 7907SOL     OW31946   5.474   2.734   0.633
 7907SOL    HW231947   5.568   2.723   0.621
 7907SOL    HW331948   5.450   2.806   0.574
 7907SOL    MW431949   5.484   2.742   0.624
 7908SOL     OW31950   3.923   2.658   1.778
 7908SOL    HW231951   3.849   2.602   1.804
 7908SOL    HW331952   3.918   2.661   1.683
 7908SOL    MW431953   3.912   2.651   1.768
 7909SOL     OW31954   4.089   1.945   1.228
 7909SOL    HW231955   4.132   2.029   1.248
 7909SOL    HW331956   4.162   1.883   1.221
 7909SOL    MW431957   4.104   1.948   1.229
 7910SOL     OW31958   4.130   2.612   0.406
 7910SOL    HW231959   4.130   2.707   0.391
 7910SOL    HW331960   4.207   2.596   0.460
 7910SOL    MW431961   4.140   2.623   0.411
 7911SOL     OW31962   4.906   2.471   1.470
 7911SOL    HW231963   4.942   2.444   1.386
 7911SOL    HW331964   4.819   2.505   1.449
 7911SOL    MW431965   4.900   2.472   1.457
 7912SOL     OW31966   3.889   2.343   0.695
 7912SOL    HW231967   3.951   2.350   0.768
 7912SOL    HW331968   3.889   2.250   0.672
 7912SOL    MW431969   3.897   2.332   0.702
 7913SOL     OW31970   5.436   3.683   0.227
 7913SOL    HW231971   5.503   3.716   0.167
 7913SOL    HW331972   5.393   3.762   0.261
 7913SOL    MW431973   5.438   3.698   0.223
 7914SOL     OW31974   4.571   2.604   1.179
 7914SOL    HW231975   4.529   2.522   1.155
 7914SOL    HW331976   4.572   2.603   1.275
 7914SOL    MW431977   4.564   2.593   1.188
 7915SOL     OW31978   5.242   3.737   1.578
 7915SOL    HW231979   5.245   3.643   1.561
 7915SOL    HW331980   5.265   3.745   1.670
 7915SOL    MW431981   5.245   3.725   1.588
 7916SOL     OW31982   4.375   2.074   1.284
 7916SOL    HW231983   4.306   2.137   1.305
 7916SOL    HW331984   4.402   2.038   1.369
 7916SOL    MW431985   4.369   2.077   1.297
 7917SOL     OW31986   3.758   2.915   0.153
 7917SOL    HW231987   3.727   2.980   0.216
 7917SOL    HW331988   3.707   2.837   0.172
 7917SOL    MW431989   3.748   2.912   0.163
 7918SOL     OW31990   5.170   1.927   0.901
 7918SOL    HW231991   5.258   1.936   0.938
 7918SOL    HW331992   5.180   1.868   0.827
 7918SOL    MW431993   5.184   1.921   0.895
 7919SOL     OW31994   5.202   2.666   0.745
 7919SOL    HW231995   5.282   2.681   0.694
 7919SOL    HW331996   5.195   2.571   0.751
 7919SOL    MW431997   5.211   2.655   0.740
 7920SOL     OW31998   4.342   3.715   0.095
 7920SOL    HW231999   4.247   3.715   0.087
 7920SOL    HW332000   4.358   3.661   0.173
 7920SOL    MW432001   4.332   3.709   0.104
 7921SOL     OW32002   4.652   2.592   1.442
 7921SOL    HW232003   4.721   2.659   1.439
 7921SOL    HW332004   4.585   2.630   1.498
 7921SOL    MW432005   4.653   2.605   1.449
 7922SOL     OW32006   4.070   2.892   1.690
 7922SOL    HW232007   4.024   2.808   1.692
 7922SOL    HW332008   4.127   2.886   1.614
 7922SOL    MW432009   4.072   2.880   1.682
 7923SOL     OW32010   5.187   2.535   0.011
 7923SOL    HW232011   5.115   2.511  -0.047
 7923SOL    HW332012   5.253   2.572  -0.047
 7923SOL    MW432013   5.186   2.537  -0.004
 7924SOL     OW32014   4.321   3.267   0.691
 7924SOL    HW232015   4.386   3.200   0.712
 7924SOL    HW332016   4.373   3.344   0.668
 7924SOL    MW432017   4.336   3.269   0.690
 7925SOL     OW32018   4.582   2.432   0.821
 7925SOL    HW232019   4.522   2.450   0.893
 7925SOL    HW332020   4.616   2.344   0.840
 7925SOL    MW432021   4.578   2.422   0.834
 7926SOL     OW32022   5.523   1.931   1.490
 7926SOL    HW232023   5.444   1.977   1.518
 7926SOL    HW332024   5.558   1.985   1.419
 7926SOL    MW432025   5.517   1.944   1.484
 7927SOL     OW32026   4.807   3.015   0.840
 7927SOL    HW232027   4.899   2.996   0.858
 7927SOL    HW332028   4.780   2.945   0.780
 7927SOL    MW432029   4.815   3.003   0.834
 7928SOL     OW32030   4.600   2.835   0.195
 7928SOL    HW232031   4.586   2.747   0.160
 7928SOL    HW332032   4.551   2.892   0.136
 7928SOL    MW432033   4.592   2.830   0.183
 7929SOL     OW32034   5.081   3.253   0.936
 7929SOL    HW232035   5.054   3.337   0.901
 7929SOL    HW332036   5.041   3.248   1.023
 7929SOL    MW432037   5.074   3.262   0.942
 7930SOL     OW32038   5.000   3.201   1.204
 7930SOL    HW232039   5.011   3.168   1.293
 7930SOL    HW332040   4.919   3.160   1.173
 7930SOL    MW432041   4.990   3.193   1.210
 7931SOL     OW32042   4.013   2.559   0.974
 7931SOL    HW232043   3.963   2.558   1.055
 7931SOL    HW332044   4.033   2.651   0.958
 7931SOL    MW432045   4.009   2.571   0.982
 7932SOL     OW32046   5.080   3.323   1.736
 7932SOL    HW232047   5.080   3.417   1.752
 7932SOL    HW332048   5.125   3.313   1.652
 7932SOL    MW432049   5.086   3.333   1.727
 7933SOL     OW32050   5.319   2.041   0.297
 7933SOL    HW232051   5.312   2.045   0.392
 7933SOL    HW332052   5.331   2.132   0.270
 7933SOL    MW432053   5.320   2.054   0.305
 7934SOL     OW32054   4.608   2.604   0.411
 7934SOL    HW232055   4.588   2.590   0.318
 7934SOL    HW332056   4.701   2.583   0.418
 7934SOL    MW432057   4.618   2.599   0.400
 7935SOL     OW32058   3.935   2.227   1.715
 7935SOL    HW232059   3.892   2.286   1.652
 7935SOL    HW332060   4.003   2.282   1.755
 7935SOL    MW432061   3.939   2.242   1.712
 7936SOL     OW32062   5.047   2.847   1.260
 7936SOL    HW232063   5.110   2.844   1.333
 7936SOL    HW332064   4.963   2.865   1.302
 7936SOL    MW432065   5.043   2.849   1.275
 7937SOL     OW32066   4.591   3.562   0.449
 7937SOL    HW232067   4.649   3.633   0.476
 7937SOL    HW332068   4.614   3.490   0.507
 7937SOL    MW432069   4.602   3.562   0.460
 7938SOL     OW32070   5.386   2.024   1.039
 7938SOL    HW232071   5.431   1.942   1.058
 7938SOL    HW332072   5.406   2.080   1.115
 7938SOL    MW432073   5.396   2.020   1.051
 7939SOL     OW32074   3.834   1.867   1.138
 7939SOL    HW232075   3.825   1.868   1.043
 7939SOL    HW332076   3.928   1.879   1.153
 7939SOL    MW432077   3.846   1.870   1.129
 7940SOL     OW32078   5.471   3.060   0.758
 7940SOL    HW232079   5.450   3.006   0.681
 7940SOL    HW332080   5.567   3.058   0.762
 7940SOL    MW432081   5.480   3.053   0.747
 7941SOL     OW32082   4.163   3.205   1.501
 7941SOL    HW232083   4.084   3.155   1.524
 7941SOL    HW332084   4.233   3.164   1.551
 7941SOL    MW432085   4.161   3.193   1.511
 7942SOL     OW32086   4.047   1.994   0.184
 7942SOL    HW232087   3.976   2.049   0.152
 7942SOL    HW332088   4.089   1.960   0.105
 7942SOL    MW432089   4.043   1.996   0.170
 7943SOL     OW32090   5.171   2.491   1.020
 7943SOL    HW232091   5.094   2.537   0.986
 7943SOL    HW332092   5.228   2.560   1.054
 7943SOL    MW432093   5.168   2.506   1.020
 7944SOL     OW32094   3.803   2.093   0.033
 7944SOL    HW232095   3.770   2.172   0.077
 7944SOL    HW332096   3.858   2.126  -0.038
 7944SOL    MW432097   3.806   2.107   0.030
 7945SOL     OW32098   3.837   3.350   0.222
 7945SOL    HW232099   3.854   3.434   0.264
 7945SOL    HW332100   3.872   3.359   0.134
 7945SOL    MW432101   3.842   3.363   0.216
 7946SOL     OW32102   5.109   3.439   0.439
 7946SOL    HW232103   5.172   3.429   0.368
 7946SOL    HW332104   5.026   3.459   0.394
 7946SOL    MW432105   5.106   3.440   0.424
 7947SOL     OW32106   5.472   2.707   2.125
 7947SOL    HW232107   5.513   2.649   2.190
 7947SOL    HW332108   5.379   2.699   2.142
 7947SOL    MW432109   5.466   2.699   2.135
 7948SOL     OW32110   5.338   2.639   3.120
 7948SOL    HW232111   5.293   2.706   3.171
 7948SOL    HW332112   5.426   2.675   3.106
 7948SOL    MW432113   5.344   2.652   3.124
 7949SOL     OW32114   4.266   2.890   2.354
 7949SOL    HW232115   4.356   2.865   2.338
 7949SOL    HW332116   4.262   2.983   2.331
 7949SOL    MW432117   4.278   2.899   2.349
 7950SOL     OW32118   5.382   3.593   2.496
 7950SOL    HW232119   5.394   3.539   2.574
 7950SOL    HW332120   5.419   3.541   2.425
 7950SOL    MW432121   5.388   3.578   2.497
 7951SOL     OW32122   4.761   3.478   3.497
 7951SOL    HW232123   4.802   3.514   3.418
 7951SOL    HW332124   4.796   3.389   3.504
 7951SOL    MW432125   4.772   3.471   3.488
 7952SOL     OW32126   5.318   3.033   3.101
 7952SOL    HW232127   5.239   2.998   3.059
 7952SOL    HW332128   5.345   3.105   3.045
 7952SOL    MW432129   5.311   3.038   3.088
 7953SOL     OW32130   4.550   2.346   2.367
 7953SOL    HW232131   4.525   2.434   2.395
 7953SOL    HW332132   4.547   2.349   2.271
 7953SOL    MW432133   4.546   2.358   2.359
 7954SOL     OW32134   3.992   2.374   2.295
 7954SOL    HW232135   4.024   2.462   2.277
 7954SOL    HW332136   3.980   2.372   2.390
 7954SOL    MW432137   3.995   2.386   2.307
 7955SOL     OW32138   4.070   2.787   3.196
 7955SOL    HW232139   4.133   2.734   3.147
 7955SOL    HW332140   4.051   2.861   3.139
 7955SOL    MW432141   4.076   2.789   3.183
 7956SOL     OW32142   4.391   2.129   2.382
 7956SOL    HW232143   4.449   2.205   2.384
 7956SOL    HW332144   4.326   2.150   2.315
 7956SOL    MW432145   4.390   2.141   2.373
 7957SOL     OW32146   4.478   3.056   2.557
 7957SOL    HW232147   4.558   3.059   2.609
 7957SOL    HW332148   4.506   3.023   2.471
 7957SOL    MW432149   4.492   3.052   2.552
 7958SOL     OW32150   4.503   3.397   3.460
 7958SOL    HW232151   4.587   3.423   3.499
 7958SOL    HW332152   4.527   3.341   3.386
 7958SOL    MW432153   4.517   3.393   3.455
 7959SOL     OW32154   4.255   2.560   2.548
 7959SOL    HW232155   4.240   2.480   2.599
 7959SOL    HW332156   4.337   2.595   2.582
 7959SOL    MW432157   4.263   2.552   2.560
 7960SOL     OW32158   4.592   3.246   3.233
 7960SOL    HW232159   4.556   3.312   3.173
 7960SOL    HW332160   4.520   3.184   3.246
 7960SOL    MW432161   4.578   3.246   3.227
 7961SOL     OW32162   4.397   2.386   2.925
 7961SOL    HW232163   4.303   2.382   2.943
 7961SOL    HW332164   4.427   2.295   2.934
 7961SOL    MW432165   4.388   2.374   2.928
 7962SOL     OW32166   4.143   2.800   2.829
 7962SOL    HW232167   4.098   2.807   2.745
 7962SOL    HW332168   4.123   2.883   2.873
 7962SOL    MW432169   4.135   2.812   2.823
 7963SOL     OW32170   3.840   3.646   2.704
 7963SOL    HW232171   3.929   3.638   2.739
 7963SOL    HW332172   3.804   3.558   2.709
 7963SOL    MW432173   3.847   3.633   2.709
 7964SOL     OW32174   5.105   3.038   2.073
 7964SOL    HW232175   5.023   3.074   2.039
 7964SOL    HW332176   5.173   3.081   2.022
 7964SOL    MW432177   5.103   3.048   2.061
 7965SOL     OW32178   4.104   3.173   2.739
 7965SOL    HW232179   4.080   3.226   2.815
 7965SOL    HW332180   4.160   3.231   2.687
 7965SOL    MW432181   4.108   3.188   2.742
 7966SOL     OW32182   4.666   2.817   2.549
 7966SOL    HW232183   4.580   2.804   2.589
 7966SOL    HW332184   4.719   2.744   2.581
 7966SOL    MW432185   4.662   2.806   2.558
 7967SOL     OW32186   4.074   3.469   3.334
 7967SOL    HW232187   3.982   3.445   3.319
 7967SOL    HW332188   4.118   3.386   3.351
 7967SOL    MW432189   4.068   3.454   3.333
 7968SOL     OW32190   4.657   3.179   2.266
 7968SOL    HW232191   4.634   3.241   2.334
 7968SOL    HW332192   4.614   3.097   2.292
 7968SOL    MW432193   4.649   3.175   2.277
 7969SOL     OW32194   5.530   2.180   2.722
 7969SOL    HW232195   5.467   2.160   2.791
 7969SOL    HW332196   5.520   2.109   2.659
 7969SOL    MW432197   5.520   2.167   2.723
 7970SOL     OW32198   4.154   2.152   2.234
 7970SOL    HW232199   4.128   2.114   2.150
 7970SOL    HW332200   4.091   2.222   2.250
 7970SOL    MW432201   4.143   2.155   2.225
 7971SOL     OW32202   3.989   3.113   2.271
 7971SOL    HW232203   3.937   3.181   2.227
 7971SOL    HW332204   3.986   3.039   2.211
 7971SOL    MW432205   3.981   3.112   2.258
 7972SOL     OW32206   4.651   3.576   2.049
 7972SOL    HW232207   4.606   3.592   2.132
 7972SOL    HW332208   4.582   3.541   1.991
 7972SOL    MW432209   4.637   3.573   2.051
 7973SOL     OW32210   5.586   2.349   2.024
 7973SOL    HW232211   5.495   2.351   2.052
 7973SOL    HW332212   5.631   2.411   2.082
 7973SOL    MW432213   5.579   2.357   2.034
 7974SOL     OW32214   5.331   2.952   2.374
 7974SOL    HW232215   5.241   2.952   2.409
 7974SOL    HW332216   5.324   2.998   2.291
 7974SOL    MW432217   5.318   2.958   2.368
 7975SOL     OW32218   5.131   2.587   3.446
 7975SOL    HW232219   5.200   2.525   3.423
 7975SOL    HW332220   5.056   2.561   3.393
 7975SOL    MW432221   5.131   2.574   3.437
 7976SOL     OW32222   3.872   3.467   2.998
 7976SOL    HW232223   3.855   3.413   3.075
 7976SOL    HW332224   3.860   3.557   3.028
 7976SOL    MW432225   3.869   3.471   3.012
 7977SOL     OW32226   4.867   2.974   3.438
 7977SOL    HW232227   4.852   3.067   3.423
 7977SOL    HW332228   4.962   2.964   3.438
 7977SOL    MW432229   4.876   2.984   3.435
 7978SOL     OW32230   4.663   2.398   3.639
 7978SOL    HW232231   4.753   2.399   3.606
 7978SOL    HW332232   4.622   2.323   3.597
 7978SOL    MW432233   4.669   2.388   3.630
 7979SOL     OW32234   5.238   2.930   2.766
 7979SOL    HW232235   5.241   2.864   2.697
 7979SOL    HW332236   5.323   2.973   2.762
 7979SOL    MW432237   5.250   2.926   2.757
 7980SOL     OW32238   4.858   2.533   2.335
 7980SOL    HW232239   4.884   2.557   2.246
 7980SOL    HW332240   4.840   2.440   2.331
 7980SOL    MW432241   4.860   2.525   2.322
 7981SOL     OW32242   5.523   3.153   2.186
 7981SOL    HW232243   5.479   3.194   2.261
 7981SOL    HW332244   5.580   3.221   2.151
 7981SOL    MW432245   5.525   3.167   2.191
 7982SOL     OW32246   4.443   2.202   3.589
 7982SOL    HW232247   4.453   2.128   3.529
 7982SOL    HW332248   4.479   2.171   3.672
 7982SOL    MW432249   4.449   2.188   3.591
 7983SOL     OW32250   4.179   3.569   2.504
 7983SOL    HW232251   4.211   3.657   2.482
 7983SOL    HW332252   4.132   3.541   2.426
 7983SOL    MW432253   4.178   3.577   2.491
 7984SOL     OW32254   5.563   1.931   2.553
 7984SOL    HW232255   5.617   1.882   2.615
 7984SOL    HW332256   5.506   1.865   2.514
 7984SOL    MW432257   5.563   1.915   2.555
 7985SOL     OW32258   3.895   3.629   2.081
 7985SOL    HW232259   3.924   3.719   2.073
 7985SOL    HW332260   3.845   3.612   2.002
 7985SOL    MW432261   3.893   3.637   2.070
 7986SOL     OW32262   4.682   1.884   2.966
 7986SOL    HW232263   4.641   1.962   2.928
 7986SOL    HW332264   4.776   1.902   2.961
 7986SOL    MW432265   4.688   1.896   2.961
 7987SOL     OW32266   5.299   3.437   2.052
 7987SOL    HW232267   5.347   3.506   2.098
 7987SOL    HW332268   5.220   3.481   2.021
 7987SOL    MW432269   5.294   3.451   2.055
 7988SOL     OW32270   4.697   2.562   1.996
 7988SOL    HW232271   4.699   2.509   1.917
 7988SOL    HW332272   4.785   2.599   2.002
 7988SOL    MW432273   4.709   2.561   1.985
 7989SOL     OW32274   5.311   2.488   2.332
 7989SOL    HW232275   5.350   2.488   2.419
 7989SOL    HW332276   5.252   2.564   2.332
 7989SOL    MW432277   5.308   2.499   2.343
 7990SOL     OW32278   4.628   2.855   3.461
 7990SOL    HW232279   4.605   2.835   3.551
 7990SOL    HW332280   4.713   2.899   3.466
 7990SOL    MW432281   4.635   2.858   3.473
 7991SOL     OW32282   4.708   1.992   3.221
 7991SOL    HW232283   4.714   1.954   3.134
 7991SOL    HW332284   4.697   2.086   3.206
 7991SOL    MW432285   4.709   2.000   3.209
 7992SOL     OW32286   4.797   2.481   3.055
 7992SOL    HW232287   4.872   2.510   3.002
 7992SOL    HW332288   4.729   2.546   3.039
 7992SOL    MW432289   4.798   2.493   3.045
 7993SOL     OW32290   5.347   2.449   3.332
 7993SOL    HW232291   5.328   2.358   3.311
 7993SOL    HW332292   5.325   2.498   3.253
 7993SOL    MW432293   5.342   2.442   3.319
 7994SOL     OW32294   5.489   3.543   3.236
 7994SOL    HW232295   5.417   3.505   3.287
 7994SOL    HW332296   5.506   3.628   3.277
 7994SOL    MW432297   5.483   3.548   3.248
 7995SOL     OW32298   4.794   2.187   3.438
 7995SOL    HW232299   4.760   2.226   3.357
 7995SOL    HW332300   4.772   2.095   3.431
 7995SOL    MW432301   4.787   2.180   3.428
 7996SOL     OW32302   5.203   3.001   3.514
 7996SOL    HW232303   5.285   3.042   3.544
 7996SOL    HW332304   5.166   2.963   3.594
 7996SOL    MW432305   5.209   3.002   3.529
 7997SOL     OW32306   5.498   2.374   2.498
 7997SOL    HW232307   5.587   2.343   2.515
 7997SOL    HW332308   5.441   2.314   2.546
 7997SOL    MW432309   5.501   2.362   2.507
 7998SOL     OW32310   3.924   2.088   2.527
 7998SOL    HW232311   3.915   2.028   2.453
 7998SOL    HW332312   3.857   2.059   2.590
 7998SOL    MW432313   3.914   2.075   2.525
 7999SOL     OW32314   4.867   3.181   2.088
 7999SOL    HW232315   4.817   3.183   2.170
 7999SOL    HW332316   4.801   3.199   2.020
 7999SOL    MW432317   4.853   3.183   2.090
 8000SOL     OW32318   3.871   2.261   2.890
 8000SOL    HW232319   3.843   2.352   2.899
 8000SOL    HW332320   3.808   2.222   2.829
 8000SOL    MW432321   3.858   2.267   2.884
 8001SOL     OW32322   4.330   3.599   2.196
 8001SOL    HW232323   4.251   3.557   2.229
 8001SOL    HW332324   4.396   3.582   2.263
 8001SOL    MW432325   4.329   3.591   2.209
 8002SOL     OW32326   5.458   3.119   3.593
 8002SOL    HW232327   5.508   3.045   3.625
 8002SOL    HW332328   5.404   3.146   3.668
 8002SOL    MW432329   5.458   3.113   3.606
 8003SOL     OW32330   4.466   3.014   1.903
 8003SOL    HW232331   4.388   2.960   1.890
 8003SOL    HW332332   4.437   3.087   1.956
 8003SOL    MW432333   4.452   3.016   1.908
 8004SOL     OW32334   5.592   2.754   3.095
 8004SOL    HW232335   5.608   2.792   3.008
 8004SOL    HW332336   5.626   2.820   3.156
 8004SOL    MW432337   5.599   2.767   3.091
 8005SOL     OW32338   5.384   3.463   2.764
 8005SOL    HW232339   5.413   3.530   2.825
 8005SOL    HW332340   5.365   3.387   2.819
 8005SOL    MW432341   5.386   3.463   2.779
 8006SOL     OW32342   5.047   3.530   1.971
 8006SOL    HW232343   4.973   3.493   2.021
 8006SOL    HW332344   5.055   3.620   2.004
 8006SOL    MW432345   5.038   3.537   1.983
 8007SOL     OW32346   3.855   2.536   3.060
 8007SOL    HW232347   3.917   2.566   3.126
 8007SOL    HW332348   3.789   2.605   3.054
 8007SOL    MW432349   3.854   2.549   3.067
 8008SOL     OW32350   5.271   3.204   1.913
 8008SOL    HW232351   5.218   3.253   1.849
 8008SOL    HW332352   5.302   3.270   1.974
 8008SOL    MW432353   5.269   3.218   1.911
 8009SOL     OW32354   4.496   2.093   1.968
 8009SOL    HW232355   4.444   2.013   1.956
 8009SOL    HW332356   4.583   2.070   1.936
 8009SOL    MW432357   4.499   2.079   1.962
 8010SOL     OW32358   3.950   3.645   3.512
 8010SOL    HW232359   3.924   3.713   3.450
 8010SOL    HW332360   3.998   3.582   3.460
 8010SOL    MW432361   3.952   3.645   3.498
 8011SOL     OW32362   4.002   2.964   3.019
 8011SOL    HW232363   4.055   3.039   3.044
 8011SOL    HW332364   3.921   3.002   2.985
 8011SOL    MW432365   3.998   2.979   3.019
 8012SOL     OW32366   4.542   2.868   3.007
 8012SOL    HW232367   4.570   2.777   3.019
 8012SOL    HW332368   4.471   2.862   2.943
 8012SOL    MW432369   4.535   2.856   3.002
 8013SOL     OW32370   3.857   2.733   2.425
 8013SOL    HW232371   3.948   2.748   2.452
 8013SOL    HW332372   3.860   2.654   2.371
 8013SOL    MW432373   3.869   2.725   2.423
 8014SOL     OW32374   4.093   2.441   3.679
 8014SOL    HW232375   4.040   2.521   3.686
 8014SOL    HW332376   4.163   2.453   3.744
 8014SOL    MW432377   4.095   2.454   3.687
 8015SOL     OW32378   4.479   1.991   3.386
 8015SOL    HW232379   4.456   1.899   3.388
 8015SOL    HW332380   4.565   1.993   3.343
 8015SOL    MW432381   4.486   1.981   3.382
 8016SOL     OW32382   4.163   2.515   3.425
 8016SOL    HW232383   4.243   2.565   3.411
 8016SOL    HW332384   4.154   2.509   3.520
 8016SOL    MW432385   4.172   2.521   3.435
 8017SOL     OW32386   4.484   3.665   2.799
 8017SOL    HW232387   4.573   3.680   2.829
 8017SOL    HW332388   4.479   3.712   2.715
 8017SOL    MW432389   4.494   3.673   2.792
 8018SOL     OW32390   5.140   2.040   3.696
 8018SOL    HW232391   5.196   1.967   3.722
 8018SOL    HW332392   5.110   2.078   3.778
 8018SOL    MW432393   5.144   2.035   3.709
 8019SOL     OW32394   3.865   3.345   2.464
 8019SOL    HW232395   3.837   3.384   2.546
 8019SOL    HW332396   3.885   3.254   2.486
 8019SOL    MW432397   3.863   3.337   2.477
 8020SOL     OW32398   4.698   3.388   2.499
 8020SOL    HW232399   4.781   3.342   2.483
 8020SOL    HW332400   4.688   3.387   2.595
 8020SOL    MW432401   4.708   3.381   2.509
 8021SOL     OW32402   5.530   2.533   2.813
 8021SOL    HW232403   5.619   2.563   2.795
 8021SOL    HW332404   5.510   2.473   2.742
 8021SOL    MW432405   5.539   2.530   2.802
 8022SOL     OW32406   5.381   2.712   3.693
 8022SOL    HW232407   5.436   2.636   3.674
 8022SOL    HW332408   5.383   2.720   3.788
 8022SOL    MW432409   5.389   2.703   3.701
 8023SOL     OW32410   4.431   3.445   1.904
 8023SOL    HW232411   4.371   3.514   1.874
 8023SOL    HW332412   4.376   3.387   1.957
 8023SOL    MW432413   4.415   3.447   1.906
 8024SOL     OW32414   4.869   2.090   2.127
 8024SOL    HW232415   4.802   2.066   2.064
 8024SOL    HW332416   4.934   2.139   2.076
 8024SOL    MW432417   4.869   2.092   2.112
 8025SOL     OW32418   4.676   2.274   3.212
 8025SOL    HW232419   4.595   2.315   3.240
 8025SOL    HW332420   4.723   2.342   3.164
 8025SOL    MW432421   4.671   2.289   3.210
 8026SOL     OW32422   4.936   2.612   2.835
 8026SOL    HW232423   4.949   2.706   2.845
 8026SOL    HW332424   4.897   2.602   2.749
 8026SOL    MW432425   4.932   2.623   2.825
 8027SOL     OW32426   4.388   2.807   2.639
 8027SOL    HW232427   4.299   2.798   2.672
 8027SOL    HW332428   4.392   2.897   2.607
 8027SOL    MW432429   4.377   2.818   2.639
 8028SOL     OW32430   5.187   2.390   2.634
 8028SOL    HW232431   5.132   2.311   2.633
 8028SOL    HW332432   5.169   2.431   2.718
 8028SOL    MW432433   5.177   2.385   2.643
 8029SOL     OW32434   4.158   2.077   3.451
 8029SOL    HW232435   4.079   2.095   3.503
 8029SOL    HW332436   4.153   2.139   3.378
 8029SOL    MW432437   4.148   2.087   3.448
 8030SOL     OW32438   4.806   2.594   2.591
 8030SOL    HW232439   4.743   2.526   2.615
 8030SOL    HW332440   4.826   2.575   2.499
 8030SOL    MW432441   4.800   2.581   2.583
 8031SOL     OW32442   4.062   3.489   2.293
 8031SOL    HW232443   4.023   3.536   2.219
 8031SOL    HW332444   3.996   3.424   2.318
 8031SOL    MW432445   4.049   3.487   2.287
 8032SOL     OW32446   4.554   2.898   2.317
 8032SOL    HW232447   4.556   2.872   2.224
 8032SOL    HW332448   4.612   2.835   2.360
 8032SOL    MW432449   4.562   2.887   2.311
 8033SOL     OW32450   5.107   3.458   3.089
 8033SOL    HW232451   5.032   3.504   3.127
 8033SOL    HW332452   5.089   3.365   3.106
 8033SOL    MW432453   5.096   3.452   3.097
 8034SOL     OW32454   5.111   3.666   2.519
 8034SOL    HW232455   5.054   3.619   2.458
 8034SOL    HW332456   5.197   3.627   2.506
 8034SOL    MW432457   5.114   3.657   2.509
 8035SOL     OW32458   5.064   2.142   2.650
 8035SOL    HW232459   5.092   2.074   2.711
 8035SOL    HW332460   4.978   2.113   2.620
 8035SOL    MW432461   5.057   2.129   2.654
 8036SOL     OW32462   3.869   3.076   2.584
 8036SOL    HW232463   3.933   3.108   2.647
 8036SOL    HW332464   3.918   3.012   2.532
 8036SOL    MW432465   3.884   3.072   2.585
 8037SOL     OW32466   4.369   3.152   3.566
 8037SOL    HW232467   4.417   3.235   3.553
 8037SOL    HW332468   4.426   3.100   3.622
 8037SOL    MW432469   4.383   3.156   3.572
 8038SOL     OW32470   3.945   3.394   3.706
 8038SOL    HW232471   4.001   3.318   3.721
 8038SOL    HW332472   3.894   3.372   3.628
 8038SOL    MW432473   3.945   3.381   3.697
 8039SOL     OW32474   5.044   2.246   1.985
 8039SOL    HW232475   5.017   2.312   1.921
 8039SOL    HW332476   5.114   2.289   2.035
 8039SOL    MW432477   5.049   2.259   1.982
 8040SOL     OW32478   4.712   1.951   1.922
 8040SOL    HW232479   4.768   1.943   1.844
 8040SOL    HW332480   4.689   1.861   1.944
 8040SOL    MW432481   4.717   1.938   1.915
 8041SOL     OW32482   5.217   2.802   2.127
 8041SOL    HW232483   5.184   2.891   2.117
 8041SOL    HW332484   5.182   2.773   2.212
 8041SOL    MW432485   5.207   2.811   2.138
 8042SOL     OW32486   4.830   3.231   3.315
 8042SOL    HW232487   4.741   3.237   3.283
 8042SOL    HW332488   4.874   3.310   3.283
 8042SOL    MW432489   4.825   3.241   3.307
 8043SOL     OW32490   4.123   1.899   3.657
 8043SOL    HW232491   4.051   1.864   3.605
 8043SOL    HW332492   4.181   1.940   3.592
 8043SOL    MW432493   4.121   1.900   3.642
 8044SOL     OW32494   4.147   3.389   2.956
 8044SOL    HW232495   4.192   3.451   3.013
 8044SOL    HW332496   4.054   3.408   2.969
 8044SOL    MW432497   4.140   3.399   2.963
 8045SOL     OW32498   5.587   2.918   3.310
 8045SOL    HW232499   5.502   2.931   3.269
 8045SOL    HW332500   5.567   2.882   3.397
 8045SOL    MW432501   5.574   2.914   3.315
 8046SOL     OW32502   4.569   3.457   3.064
 8046SOL    HW232503   4.593   3.446   2.973
 8046SOL    HW332504   4.492   3.514   3.062
 8046SOL    MW432505   4.561   3.462   3.053
 8047SOL     OW32506   4.211   2.840   1.919
 8047SOL    HW232507   4.134   2.853   1.975
 8047SOL    HW332508   4.175   2.804   1.838
 8047SOL    MW432509   4.197   2.836   1.916
 8048SOL     OW32510   4.864   2.813   2.162
 8048SOL    HW232511   4.774   2.834   2.137
 8048SOL    HW332512   4.891   2.886   2.218
 8048SOL    MW432513   4.856   2.825   2.165
 8049SOL     OW32514   4.364   3.162   2.854
 8049SOL    HW232515   4.357   3.141   2.948
 8049SOL    HW332516   4.282   3.130   2.817
 8049SOL    MW432517   4.352   3.156   2.861
 8050SOL     OW32518   5.228   2.172   3.256
 8050SOL    HW232519   5.175   2.174   3.336
 8050SOL    HW332520   5.213   2.085   3.219
 8050SOL    MW432521   5.220   2.162   3.261
 8051SOL     OW32522   5.564   2.096   3.129
 8051SOL    HW232523   5.545   2.163   3.064
 8051SOL    HW332524   5.621   2.034   3.084
 8051SOL    MW432525   5.568   2.097   3.115
 8052SOL     OW32526   3.810   3.254   3.517
 8052SOL    HW232527   3.854   3.187   3.463
 8052SOL    HW332528   3.725   3.216   3.537
 8052SOL    MW432529   3.805   3.240   3.513
 8053SOL     OW32530   4.493   1.929   2.569
 8053SOL    HW232531   4.422   1.990   2.551
 8053SOL    HW332532   4.544   1.926   2.488
 8053SOL    MW432533   4.489   1.935   2.556
 8054SOL     OW32534   4.251   3.169   2.318
 8054SOL    HW232535   4.244   3.201   2.408
 8054SOL    HW332536   4.161   3.153   2.290
 8054SOL    MW432537   4.239   3.171   2.325
 8055SOL     OW32538   4.846   3.562   3.227
 8055SOL    HW232539   4.766   3.547   3.177
 8055SOL    HW332540   4.853   3.657   3.234
 8055SOL    MW432541   4.837   3.573   3.221
 8056SOL     OW32542   4.960   3.527   2.717
 8056SOL    HW232543   5.007   3.600   2.676
 8056SOL    HW332544   4.881   3.566   2.753
 8056SOL    MW432545   4.955   3.542   2.716
 8057SOL     OW32546   5.368   3.622   2.992
 8057SOL    HW232547   5.411   3.592   3.072
 8057SOL    HW332548   5.287   3.570   2.989
 8057SOL    MW432549   5.363   3.611   3.002
 8058SOL     OW32550   4.453   2.586   3.699
 8058SOL    HW232551   4.523   2.528   3.671
 8058SOL    HW332552   4.396   2.531   3.754
 8058SOL    MW432553   4.455   2.573   3.703
 8059SOL     OW32554   5.240   2.798   3.332
 8059SOL    HW232555   5.245   2.851   3.412
 8059SOL    HW332556   5.202   2.715   3.360
 8059SOL    MW432557   5.236   2.793   3.347
 8060SOL     OW32558   4.880   1.933   3.578
 8060SOL    HW232559   4.875   1.840   3.559
 8060SOL    HW332560   4.963   1.944   3.624
 8060SOL    MW432561   4.888   1.922   3.582
 8061SOL     OW32562   4.254   2.453   2.032
 8061SOL    HW232563   4.220   2.509   2.102
 8061SOL    HW332564   4.325   2.403   2.072
 8061SOL    MW432565   4.260   2.454   2.046
 8062SOL     OW32566   5.350   3.204   2.854
 8062SOL    HW232567   5.385   3.186   2.767
 8062SOL    HW332568   5.255   3.205   2.841
 8062SOL    MW432569   5.342   3.201   2.841
 8063SOL     OW32570   4.779   2.852   3.223
 8063SOL    HW232571   4.822   2.887   3.301
 8063SOL    HW332572   4.762   2.929   3.169
 8063SOL    MW432573   4.782   2.867   3.226
 8064SOL     OW32574   5.310   2.339   2.096
 8064SOL    HW232575   5.302   2.410   2.033
 8064SOL    HW332576   5.328   2.383   2.179
 8064SOL    MW432577   5.311   2.353   2.098
 8065SOL     OW32578   4.170   1.994   2.525
 8065SOL    HW232579   4.220   2.037   2.456
 8065SOL    HW332580   4.085   2.038   2.525
 8065SOL    MW432581   4.167   2.007   2.516
 8066SOL     OW32582   3.929   3.056   3.385
 8066SOL    HW232583   3.957   3.009   3.463
 8066SOL    HW332584   3.850   3.011   3.356
 8066SOL    MW432585   3.922   3.045   3.391
 8067SOL     OW32586   4.437   2.383   3.352
 8067SOL    HW232587   4.409   2.471   3.376
 8067SOL    HW332588   4.406   2.327   3.423
 8067SOL    MW432589   4.429   2.386   3.364
 8068SOL     OW32590   4.979   2.601   2.071
 8068SOL    HW232591   5.026   2.619   1.990
 8068SOL    HW332592   4.945   2.685   2.099
 8068SOL    MW432593   4.981   2.615   2.064
 8069SOL     OW32594   4.092   2.779   2.565
 8069SOL    HW232595   4.150   2.835   2.513
 8069SOL    HW332596   4.136   2.694   2.567
 8069SOL    MW432597   4.105   2.776   2.558
 8070SOL     OW32598   5.232   2.131   2.402
 8070SOL    HW232599   5.154   2.081   2.427
 8070SOL    HW332600   5.203   2.222   2.402
 8070SOL    MW432601   5.218   2.135   2.405
 8071SOL     OW32602   4.818   2.093   2.561
 8071SOL    HW232603   4.838   2.168   2.505
 8071SOL    HW332604   4.798   2.132   2.646
 8071SOL    MW432605   4.819   2.109   2.565
 8072SOL     OW32606   4.714   3.343   1.893
 8072SOL    HW232607   4.741   3.421   1.845
 8072SOL    HW332608   4.621   3.358   1.912
 8072SOL    MW432609   4.705   3.356   1.889
 8073SOL     OW32610   5.578   2.866   3.580
 8073SOL    HW232611   5.491   2.846   3.616
 8073SOL    HW332612   5.632   2.792   3.605
 8073SOL    MW432613   5.573   2.855   3.588
 8074SOL     OW32614   3.799   3.379   2.737
 8074SOL    HW232615   3.831   3.383   2.828
 8074SOL    HW332616   3.704   3.387   2.745
 8074SOL    MW432617   3.791   3.382   2.750
 8075SOL     OW32618   3.754   2.505   2.284
 8075SOL    HW232619   3.694   2.477   2.354
 8075SOL    HW332620   3.828   2.445   2.290
 8075SOL    MW432621   3.756   2.494   2.293
 8076SOL     OW32622   5.322   3.717   3.718
 8076SOL    HW232623   5.367   3.641   3.683
 8076SOL    HW332624   5.360   3.730   3.805
 8076SOL    MW432625   5.332   3.710   3.724
 8077SOL     OW32626   4.922   3.236   2.444
 8077SOL    HW232627   4.945   3.187   2.522
 8077SOL    HW332628   5.003   3.278   2.416
 8077SOL    MW432629   4.935   3.236   2.451
 8078SOL     OW32630   4.180   2.244   3.173
 8078SOL    HW232631   4.213   2.325   3.213
 8078SOL    HW332632   4.153   2.270   3.085
 8078SOL    MW432633   4.179   2.258   3.167
 8079SOL     OW32634   4.134   2.211   2.909
 8079SOL    HW232635   4.164   2.125   2.880
 8079SOL    HW332636   4.039   2.204   2.912
 8079SOL    MW432637   4.126   2.200   2.907
 8080SOL     OW32638   4.963   2.420   3.600
 8080SOL    HW232639   5.015   2.355   3.553
 8080SOL    HW332640   4.921   2.471   3.530
 8080SOL    MW432641   4.964   2.417   3.583
 8081SOL     OW32642   5.062   2.215   3.461
 8081SOL    HW232643   4.969   2.199   3.448
 8081SOL    HW332644   5.088   2.153   3.529
 8081SOL    MW432645   5.052   2.205   3.468
 8082SOL     OW32646   4.277   1.989   2.800
 8082SOL    HW232647   4.287   1.898   2.826
 8082SOL    HW332648   4.233   1.985   2.715
 8082SOL    MW432649   4.273   1.977   2.792
 8083SOL     OW32650   4.371   3.604   3.346
 8083SOL    HW232651   4.288   3.589   3.391
 8083SOL    HW332652   4.430   3.537   3.381
 8083SOL    MW432653   4.369   3.594   3.356
 8084SOL     OW32654   5.428   2.311   2.971
 8084SOL    HW232655   5.361   2.344   3.031
 8084SOL    HW332656   5.471   2.389   2.937
 8084SOL    MW432657   5.426   2.326   2.975
 8085SOL     OW32658   5.606   3.031   2.941
 8085SOL    HW232659   5.599   2.971   2.866
 8085SOL    HW332660   5.532   3.091   2.930
 8085SOL    MW432661   5.596   3.031   2.930
 8086SOL     OW32662   4.988   2.893   2.859
 8086SOL    HW232663   5.002   2.865   2.950
 8086SOL    HW332664   5.074   2.924   2.831
 8086SOL    MW432665   5.001   2.894   2.868
 8087SOL     OW32666   5.071   2.388   3.138
 8087SOL    HW232667   5.092   2.389   3.045
 8087SOL    HW332668   5.116   2.310   3.171
 8087SOL    MW432669   5.078   2.378   3.130
 8088SOL     OW32670   5.564   2.519   3.680
 8088SOL    HW232671   5.601   2.464   3.749
 8088SOL    HW332672   5.589   2.476   3.598
 8088SOL    MW432673   5.571   2.507   3.679
 8089SOL     OW32674   5.111   2.817   3.731
 8089SOL    HW232675   5.177   2.765   3.685
 8089SOL    HW332676   5.131   2.804   3.824
 8089SOL    MW432677   5.122   2.808   3.738
 8090SOL     OW32678   5.062   1.903   2.080
 8090SOL    HW232679   5.136   1.947   2.123
 8090SOL    HW332680   4.986   1.957   2.102
 8090SOL    MW432681   5.062   1.915   2.088
 8091SOL     OW32682   5.122   2.678   2.358
 8091SOL    HW232683   5.037   2.648   2.328
 8091SOL    HW332684   5.114   2.685   2.453
 8091SOL    MW432685   5.110   2.676   2.367
 8092SOL     OW32686   4.198   3.141   3.089
 8092SOL    HW232687   4.210   3.168   3.180
 8092SOL    HW332688   4.179   3.222   3.042
 8092SOL    MW432689   4.197   3.156   3.094
 8093SOL     OW32690   4.482   2.121   2.912
 8093SOL    HW232691   4.455   2.123   3.003
 8093SOL    HW332692   4.412   2.073   2.867
 8093SOL    MW432693   4.470   2.117   2.919
 8094SOL     OW32694   4.336   3.613   3.074
 8094SOL    HW232695   4.388   3.690   3.051
 8094SOL    HW332696   4.345   3.605   3.169
 8094SOL    MW432697   4.345   3.620   3.085
 8095SOL     OW32698   5.238   3.198   3.306
 8095SOL    HW232699   5.223   3.127   3.369
 8095SOL    HW332700   5.284   3.156   3.234
 8095SOL    MW432701   5.244   3.182   3.306
 8096SOL     OW32702   4.312   2.929   3.423
 8096SOL    HW232703   4.349   2.934   3.335
 8096SOL    HW332704   4.351   3.002   3.470
 8096SOL    MW432705   4.322   2.939   3.418
 8097SOL     OW32706   4.492   2.972   3.235
 8097SOL    HW232707   4.551   2.918   3.288
 8097SOL    HW332708   4.507   2.944   3.145
 8097SOL    MW432709   4.502   2.961   3.231
 8098SOL     OW32710   4.495   2.344   2.084
 8098SOL    HW232711   4.568   2.393   2.047
 8098SOL    HW332712   4.511   2.253   2.058
 8098SOL    MW432713   4.507   2.339   2.077
 8099SOL     OW32714   5.303   3.461   3.407
 8099SOL    HW232715   5.345   3.446   3.492
 8099SOL    HW332716   5.294   3.374   3.369
 8099SOL    MW432717   5.307   3.449   3.414
 8100SOL     OW32718   4.963   1.940   2.998
 8100SOL    HW232719   5.018   1.949   2.920
 8100SOL    HW332720   5.018   1.974   3.069
 8100SOL    MW432721   4.977   1.945   2.997
 8101SOL     OW32722   3.970   2.853   2.182
 8101SOL    HW232723   3.907   2.869   2.111
 8101SOL    HW332724   3.917   2.816   2.253
 8101SOL    MW432725   3.955   2.850   2.182
 8102SOL     OW32726   4.326   3.207   2.041
 8102SOL    HW232727   4.341   3.183   2.133
 8102SOL    HW332728   4.234   3.185   2.025
 8102SOL    MW432729   4.316   3.200   2.051
 8103SOL     OW32730   4.865   3.438   2.193
 8103SOL    HW232731   4.873   3.356   2.144
 8103SOL    HW332732   4.784   3.477   2.160
 8103SOL    MW432733   4.855   3.433   2.183
 8104SOL     OW32734   4.124   3.596   2.762
 8104SOL    HW232735   4.128   3.507   2.797
 8104SOL    HW332736   4.150   3.587   2.671
 8104SOL    MW432737   4.127   3.584   2.754
 8105SOL     OW32738   4.741   3.074   3.005
 8105SOL    HW232739   4.673   3.008   3.021
 8105SOL    HW332740   4.759   3.068   2.912
 8105SOL    MW432741   4.734   3.065   2.996
 8106SOL     OW32742   3.830   3.349   3.256
 8106SOL    HW232743   3.820   3.307   3.342
 8106SOL    HW332744   3.751   3.402   3.246
 8106SOL    MW432745   3.819   3.350   3.267
 8107SOL     OW32746   4.734   2.213   2.826
 8107SOL    HW232747   4.664   2.165   2.871
 8107SOL    HW332748   4.766   2.276   2.890
 8107SOL    MW432749   4.729   2.215   2.840
 8108SOL     OW32750   4.385   2.649   3.446
 8108SOL    HW232751   4.378   2.744   3.434
 8108SOL    HW332752   4.394   2.638   3.541
 8108SOL    MW432753   4.386   2.661   3.456
 8109SOL     OW32754   4.106   3.164   3.704
 8109SOL    HW232755   4.178   3.166   3.641
 8109SOL    HW332756   4.076   3.073   3.703
 8109SOL    MW432757   4.111   3.153   3.696
 8110SOL     OW32758   5.190   1.927   3.171
 8110SOL    HW232759   5.261   1.873   3.135
 8110SOL    HW332760   5.189   1.906   3.264
 8110SOL    MW432761   5.199   1.918   3.179
 8111SOL     OW32762   5.390   3.457   3.655
 8111SOL    HW232763   5.363   3.454   3.746
 8111SOL    HW332764   5.486   3.461   3.658
 8111SOL    MW432765   5.400   3.457   3.667
 8112SOL     OW32766   4.201   2.319   2.639
 8112SOL    HW232767   4.272   2.267   2.602
 8112SOL    HW332768   4.187   2.284   2.726
 8112SOL    MW432769   4.209   2.308   2.646
 8113SOL     OW32770   3.756   3.654   3.711
 8113SOL    HW232771   3.806   3.632   3.633
 8113SOL    HW332772   3.764   3.749   3.719
 8113SOL    MW432773   3.764   3.663   3.702
 8114SOL     OW32774   4.517   3.412   2.715
 8114SOL    HW232775   4.445   3.349   2.728
 8114SOL    HW332776   4.478   3.497   2.733
 8114SOL    MW432777   4.501   3.415   2.718
 8115SOL     OW32778   4.837   2.260   2.363
 8115SOL    HW232779   4.859   2.197   2.295
 8115SOL    HW332780   4.742   2.252   2.374
 8115SOL    MW432781   4.827   2.251   2.355
 8116SOL     OW32782   3.922   1.950   2.295
 8116SOL    HW232783   3.993   1.971   2.234
 8116SOL    HW332784   3.876   1.878   2.253
 8116SOL    MW432785   3.926   1.944   2.281
 8117SOL     OW32786   3.753   2.417   3.438
 8117SOL    HW232787   3.817   2.483   3.413
 8117SOL    HW332788   3.672   2.444   3.395
 8117SOL    MW432789   3.751   2.429   3.430
 8118SOL     OW32790   5.491   3.324   2.395
 8118SOL    HW232791   5.461   3.257   2.456
 8118SOL    HW332792   5.585   3.330   2.409
 8118SOL    MW432793   5.499   3.316   2.405
 8119SOL     OW32794   5.047   3.001   2.325
 8119SOL    HW232795   5.019   3.087   2.358
 8119SOL    HW332796   5.075   3.017   2.235
 8119SOL    MW432797   5.047   3.015   2.317
 8120SOL     OW32798   4.709   1.921   2.378
 8120SOL    HW232799   4.746   1.980   2.443
 8120SOL    HW332800   4.686   1.977   2.304
 8120SOL    MW432801   4.710   1.936   2.377
 8121SOL     OW32802   5.562   2.803   2.800
 8121SOL    HW232803   5.553   2.835   2.711
 8121SOL    HW332804   5.515   2.719   2.800
 8121SOL    MW432805   5.555   2.796   2.790
 8122SOL     OW32806   3.938   2.643   3.379
 8122SOL    HW232807   3.959   2.712   3.317
 8122SOL    HW332808   4.018   2.590   3.384
 8122SOL    MW432809   3.951   2.644   3.373
 8123SOL     OW32810   5.474   2.734   2.501
 8123SOL    HW232811   5.568   2.723   2.489
 8123SOL    HW332812   5.450   2.806   2.442
 8123SOL    MW432813   5.484   2.742   2.492
 8124SOL     OW32814   3.923   2.658   3.646
 8124SOL    HW232815   3.849   2.602   3.672
 8124SOL    HW332816   3.918   2.661   3.551
 8124SOL    MW432817   3.912   2.651   3.636
 8125SOL     OW32818   4.089   1.945   3.096
 8125SOL    HW232819   4.132   2.029   3.116
 8125SOL    HW332820   4.162   1.883   3.089
 8125SOL    MW432821   4.104   1.948   3.097
 8126SOL     OW32822   4.130   2.612   2.274
 8126SOL    HW232823   4.130   2.707   2.259
 8126SOL    HW332824   4.207   2.596   2.328
 8126SOL    MW432825   4.140   2.623   2.279
 8127SOL     OW32826   4.906   2.471   3.338
 8127SOL    HW232827   4.942   2.444   3.254
 8127SOL    HW332828   4.819   2.505   3.317
 8127SOL    MW432829   4.900   2.472   3.325
 8128SOL     OW32830   3.889   2.343   2.563
 8128SOL    HW232831   3.951   2.350   2.636
 8128SOL    HW332832   3.889   2.250   2.540
 8128SOL    MW432833   3.897   2.332   2.570
 8129SOL     OW32834   5.436   3.683   2.095
 8129SOL    HW232835   5.503   3.716   2.035
 8129SOL    HW332836   5.393   3.762   2.129
 8129SOL    MW432837   5.438   3.698   2.091
 8130SOL     OW32838   4.571   2.604   3.047
 8130SOL    HW232839   4.529   2.522   3.023
 8130SOL    HW332840   4.572   2.603   3.143
 8130SOL    MW432841   4.564   2.593   3.056
 8131SOL     OW32842   5.242   3.737   3.446
 8131SOL    HW232843   5.245   3.643   3.429
 8131SOL    HW332844   5.265   3.745   3.538
 8131SOL    MW432845   5.245   3.725   3.456
 8132SOL     OW32846   4.375   2.074   3.152
 8132SOL    HW232847   4.306   2.137   3.173
 8132SOL    HW332848   4.402   2.038   3.237
 8132SOL    MW432849   4.369   2.077   3.165
 8133SOL     OW32850   3.758   2.915   2.021
 8133SOL    HW232851   3.727   2.980   2.084
 8133SOL    HW332852   3.707   2.837   2.040
 8133SOL    MW432853   3.748   2.912   2.031
 8134SOL     OW32854   5.170   1.927   2.769
 8134SOL    HW232855   5.258   1.936   2.806
 8134SOL    HW332856   5.180   1.868   2.695
 8134SOL    MW432857   5.184   1.921   2.763
 8135SOL     OW32858   5.202   2.666   2.613
 8135SOL    HW232859   5.282   2.681   2.562
 8135SOL    HW332860   5.195   2.571   2.619
 8135SOL    MW432861   5.211   2.655   2.608
 8136SOL     OW32862   4.342   3.715   1.963
 8136SOL    HW232863   4.247   3.715   1.955
 8136SOL    HW332864   4.358   3.661   2.041
 8136SOL    MW432865   4.332   3.709   1.972
 8137SOL     OW32866   4.652   2.592   3.310
 8137SOL    HW232867   4.721   2.659   3.307
 8137SOL    HW332868   4.585   2.630   3.366
 8137SOL    MW432869   4.653   2.605   3.317
 8138SOL     OW32870   4.070   2.892   3.558
 8138SOL    HW232871   4.024   2.808   3.560
 8138SOL    HW332872   4.127   2.886   3.482
 8138SOL    MW432873   4.072   2.880   3.550
 8139SOL     OW32874   5.187   2.535   1.879
 8139SOL    HW232875   5.115   2.511   1.821
 8139SOL    HW332876   5.253   2.572   1.821
 8139SOL    MW432877   5.186   2.537   1.864
 8140SOL     OW32878   4.321   3.267   2.559
 8140SOL    HW232879   4.386   3.200   2.580
 8140SOL    HW332880   4.373   3.344   2.536
 8140SOL    MW432881   4.336   3.269   2.558
 8141SOL     OW32882   4.582   2.432   2.689
 8141SOL    HW232883   4.522   2.450   2.761
 8141SOL    HW332884   4.616   2.344   2.708
 8141SOL    MW432885   4.578   2.422   2.702
 8142SOL     OW32886   5.523   1.931   3.358
 8142SOL    HW232887   5.444   1.977   3.386
 8142SOL    HW332888   5.558   1.985   3.287
 8142SOL    MW432889   5.517   1.944   3.352
 8143SOL     OW32890   4.807   3.015   2.708
 8143SOL    HW232891   4.899   2.996   2.726
 8143SOL    HW332892   4.780   2.945   2.648
 8143SOL    MW432893   4.815   3.003   2.702
 8144SOL     OW32894   4.600   2.835   2.063
 8144SOL    HW232895   4.586   2.747   2.028
 8144SOL    HW332896   4.551   2.892   2.004
 8144SOL    MW432897   4.592   2.830   2.051
 8145SOL     OW32898   5.081   3.253   2.804
 8145SOL    HW232899   5.054   3.337   2.769
 8145SOL    HW332900   5.041   3.248   2.891
 8145SOL    MW432901   5.074   3.262   2.810
 8146SOL     OW32902   5.000   3.201   3.072
 8146SOL    HW232903   5.011   3.168   3.161
 8146SOL    HW332904   4.919   3.160   3.041
 8146SOL    MW432905   4.990   3.193   3.078
 8147SOL     OW32906   4.013   2.559   2.842
 8147SOL    HW232907   3.963   2.558   2.923
 8147SOL    HW332908   4.033   2.651   2.826
 8147SOL    MW432909   4.009   2.571   2.850
 8148SOL     OW32910   5.080   3.323   3.604
 8148SOL    HW232911   5.080   3.417   3.620
 8148SOL    HW332912   5.125   3.313   3.520
 8148SOL    MW432913   5.086   3.333   3.595
 8149SOL     OW32914   5.319   2.041   2.165
 8149SOL    HW232915   5.312   2.045   2.260
 8149SOL    HW332916   5.331   2.132   2.138
 8149SOL    MW432917   5.320   2.054   2.173
 8150SOL     OW32918   4.608   2.604   2.279
 8150SOL    HW232919   4.588   2.590   2.186
 8150SOL    HW332920   4.701   2.583   2.286
 8150SOL    MW432921   4.618   2.599   2.268
 8151SOL     OW32922   3.935   2.227   3.583
 8151SOL    HW232923   3.892   2.286   3.520
 8151SOL    HW332924   4.003   2.282   3.623
 8151SOL    MW432925   3.939   2.242   3.580
 8152SOL     OW32926   5.047   2.847   3.128
 8152SOL    HW232927   5.110   2.844   3.201
 8152SOL    HW332928   4.963   2.865   3.170
 8152SOL    MW432929   5.043   2.849   3.143
 8153SOL     OW32930   4.591   3.562   2.317
 8153SOL    HW232931   4.649   3.633   2.344
 8153SOL    HW332932   4.614   3.490   2.375
 8153SOL    MW432933   4.602   3.562   2.328
 8154SOL     OW32934   5.386   2.024   2.907
 8154SOL    HW232935   5.431   1.942   2.926
 8154SOL    HW332936   5.406   2.080   2.983
 8154SOL    MW432937   5.396   2.020   2.919
 8155SOL     OW32938   3.834   1.867   3.006
 8155SOL    HW232939   3.825   1.868   2.911
 8155SOL    HW332940   3.928   1.879   3.021
 8155SOL    MW432941   3.846   1.870   2.997
 8156SOL     OW32942   5.471   3.060   2.626
 8156SOL    HW232943   5.450   3.006   2.549
 8156SOL    HW332944   5.567   3.058   2.630
 8156SOL    MW432945   5.480   3.053   2.615
 8157SOL     OW32946   4.163   3.205   3.369
 8157SOL    HW232947   4.084   3.155   3.392
 8157SOL    HW332948   4.233   3.164   3.419
 8157SOL    MW432949   4.161   3.193   3.379
 8158SOL     OW32950   4.047   1.994   2.052
 8158SOL    HW232951   3.976   2.049   2.020
 8158SOL    HW332952   4.089   1.960   1.973
 8158SOL    MW432953   4.043   1.996   2.038
 8159SOL     OW32954   5.171   2.491   2.888
 8159SOL    HW232955   5.094   2.537   2.854
 8159SOL    HW332956   5.228   2.560   2.922
 8159SOL    MW432957   5.168   2.506   2.888
 8160SOL     OW32958   3.803   2.093   1.901
 8160SOL    HW232959   3.770   2.172   1.945
 8160SOL    HW332960   3.858   2.126   1.830
 8160SOL    MW432961   3.806   2.107   1.898
 8161SOL     OW32962   3.837   3.350   2.090
 8161SOL    HW232963   3.854   3.434   2.132
 8161SOL    HW332964   3.872   3.359   2.002
 8161SOL    MW432965   3.842   3.363   2.084
 8162SOL     OW32966   5.109   3.439   2.307
 8162SOL    HW232967   5.172   3.429   2.236
 8162SOL    HW332968   5.026   3.459   2.262
 8162SOL    MW432969   5.106   3.440   2.292
 8163SOL     OW32970   5.472   2.707   3.993
 8163SOL    HW232971   5.513   2.649   4.058
 8163SOL    HW332972   5.379   2.699   4.010
 8163SOL    MW432973   5.466   2.699   4.003
 8164SOL     OW32974   5.338   2.639   4.988
 8164SOL    HW232975   5.293   2.706   5.039
 8164SOL    HW332976   5.426   2.675   4.974
 8164SOL    MW432977   5.344   2.652   4.992
 8165SOL     OW32978   4.266   2.890   4.222
 8165SOL    HW232979   4.356   2.865   4.206
 8165SOL    HW332980   4.262   2.983   4.199
 8165SOL    MW432981   4.278   2.899   4.217
 8166SOL     OW32982   5.382   3.593   4.364
 8166SOL    HW232983   5.394   3.539   4.442
 8166SOL    HW332984   5.419   3.541   4.293
 8166SOL    MW432985   5.388   3.578   4.365
 8167SOL     OW32986   4.761   3.478   5.365
 8167SOL    HW232987   4.802   3.514   5.286
 8167SOL    HW332988   4.796   3.389   5.372
 8167SOL    MW432989   4.772   3.471   5.356
 8168SOL     OW32990   5.318   3.033   4.969
 8168SOL    HW232991   5.239   2.998   4.927
 8168SOL    HW332992   5.345   3.105   4.913
 8168SOL    MW432993   5.311   3.038   4.956
 8169SOL     OW32994   4.550   2.346   4.235
 8169SOL    HW232995   4.525   2.434   4.263
 8169SOL    HW332996   4.547   2.349   4.139
 8169SOL    MW432997   4.546   2.358   4.227
 8170SOL     OW32998   3.992   2.374   4.163
 8170SOL    HW232999   4.024   2.462   4.145
 8170SOL    HW333000   3.980   2.372   4.258
 8170SOL    MW433001   3.995   2.386   4.175
 8171SOL     OW33002   4.070   2.787   5.064
 8171SOL    HW233003   4.133   2.734   5.015
 8171SOL    HW333004   4.051   2.861   5.007
 8171SOL    MW433005   4.076   2.789   5.051
 8172SOL     OW33006   4.391   2.129   4.250
 8172SOL    HW233007   4.449   2.205   4.252
 8172SOL    HW333008   4.326   2.150   4.183
 8172SOL    MW433009   4.390   2.141   4.241
 8173SOL     OW33010   4.478   3.056   4.425
 8173SOL    HW233011   4.558   3.059   4.477
 8173SOL    HW333012   4.506   3.023   4.339
 8173SOL    MW433013   4.492   3.052   4.420
 8174SOL     OW33014   4.503   3.397   5.328
 8174SOL    HW233015   4.587   3.423   5.367
 8174SOL    HW333016   4.527   3.341   5.254
 8174SOL    MW433017   4.517   3.393   5.323
 8175SOL     OW33018   4.255   2.560   4.416
 8175SOL    HW233019   4.240   2.480   4.467
 8175SOL    HW333020   4.337   2.595   4.450
 8175SOL    MW433021   4.263   2.552   4.428
 8176SOL     OW33022   4.592   3.246   5.101
 8176SOL    HW233023   4.556   3.312   5.041
 8176SOL    HW333024   4.520   3.184   5.114
 8176SOL    MW433025   4.578   3.246   5.095
 8177SOL     OW33026   4.397   2.386   4.793
 8177SOL    HW233027   4.303   2.382   4.811
 8177SOL    HW333028   4.427   2.295   4.802
 8177SOL    MW433029   4.388   2.374   4.796
 8178SOL     OW33030   4.143   2.800   4.697
 8178SOL    HW233031   4.098   2.807   4.613
 8178SOL    HW333032   4.123   2.883   4.741
 8178SOL    MW433033   4.135   2.812   4.691
 8179SOL     OW33034   3.840   3.646   4.572
 8179SOL    HW233035   3.929   3.638   4.607
 8179SOL    HW333036   3.804   3.558   4.577
 8179SOL    MW433037   3.847   3.633   4.577
 8180SOL     OW33038   5.105   3.038   3.941
 8180SOL    HW233039   5.023   3.074   3.907
 8180SOL    HW333040   5.173   3.081   3.890
 8180SOL    MW433041   5.103   3.048   3.929
 8181SOL     OW33042   4.104   3.173   4.607
 8181SOL    HW233043   4.080   3.226   4.683
 8181SOL    HW333044   4.160   3.231   4.555
 8181SOL    MW433045   4.108   3.188   4.610
 8182SOL     OW33046   4.666   2.817   4.417
 8182SOL    HW233047   4.580   2.804   4.457
 8182SOL    HW333048   4.719   2.744   4.449
 8182SOL    MW433049   4.662   2.806   4.426
 8183SOL     OW33050   4.074   3.469   5.202
 8183SOL    HW233051   3.982   3.445   5.187
 8183SOL    HW333052   4.118   3.386   5.219
 8183SOL    MW433053   4.068   3.454   5.201
 8184SOL     OW33054   4.657   3.179   4.134
 8184SOL    HW233055   4.634   3.241   4.202
 8184SOL    HW333056   4.614   3.097   4.160
 8184SOL    MW433057   4.649   3.175   4.145
 8185SOL     OW33058   5.530   2.180   4.590
 8185SOL    HW233059   5.467   2.160   4.659
 8185SOL    HW333060   5.520   2.109   4.527
 8185SOL    MW433061   5.520   2.167   4.591
 8186SOL     OW33062   4.154   2.152   4.102
 8186SOL    HW233063   4.128   2.114   4.018
 8186SOL    HW333064   4.091   2.222   4.118
 8186SOL    MW433065   4.143   2.155   4.093
 8187SOL     OW33066   3.989   3.113   4.139
 8187SOL    HW233067   3.937   3.181   4.095
 8187SOL    HW333068   3.986   3.039   4.079
 8187SOL    MW433069   3.981   3.112   4.126
 8188SOL     OW33070   4.651   3.576   3.917
 8188SOL    HW233071   4.606   3.592   4.000
 8188SOL    HW333072   4.582   3.541   3.859
 8188SOL    MW433073   4.637   3.573   3.919
 8189SOL     OW33074   5.586   2.349   3.892
 8189SOL    HW233075   5.495   2.351   3.920
 8189SOL    HW333076   5.631   2.411   3.950
 8189SOL    MW433077   5.579   2.357   3.902
 8190SOL     OW33078   5.331   2.952   4.242
 8190SOL    HW233079   5.241   2.952   4.277
 8190SOL    HW333080   5.324   2.998   4.159
 8190SOL    MW433081   5.318   2.958   4.236
 8191SOL     OW33082   5.131   2.587   5.314
 8191SOL    HW233083   5.200   2.525   5.291
 8191SOL    HW333084   5.056   2.561   5.261
 8191SOL    MW433085   5.131   2.574   5.305
 8192SOL     OW33086   3.872   3.467   4.866
 8192SOL    HW233087   3.855   3.413   4.943
 8192SOL    HW333088   3.860   3.557   4.896
 8192SOL    MW433089   3.869   3.471   4.880
 8193SOL     OW33090   4.867   2.974   5.306
 8193SOL    HW233091   4.852   3.067   5.291
 8193SOL    HW333092   4.962   2.964   5.306
 8193SOL    MW433093   4.876   2.984   5.303
 8194SOL     OW33094   4.663   2.398   5.507
 8194SOL    HW233095   4.753   2.399   5.474
 8194SOL    HW333096   4.622   2.323   5.465
 8194SOL    MW433097   4.669   2.388   5.498
 8195SOL     OW33098   5.238   2.930   4.634
 8195SOL    HW233099   5.241   2.864   4.565
 8195SOL    HW333100   5.323   2.973   4.630
 8195SOL    MW433101   5.250   2.926   4.625
 8196SOL     OW33102   4.858   2.533   4.203
 8196SOL    HW233103   4.884   2.557   4.114
 8196SOL    HW333104   4.840   2.440   4.199
 8196SOL    MW433105   4.860   2.525   4.190
 8197SOL     OW33106   5.523   3.153   4.054
 8197SOL    HW233107   5.479   3.194   4.129
 8197SOL    HW333108   5.580   3.221   4.019
 8197SOL    MW433109   5.525   3.167   4.059
 8198SOL     OW33110   4.443   2.202   5.457
 8198SOL    HW233111   4.453   2.128   5.397
 8198SOL    HW333112   4.479   2.171   5.540
 8198SOL    MW433113   4.449   2.188   5.459
 8199SOL     OW33114   4.179   3.569   4.372
 8199SOL    HW233115   4.211   3.657   4.350
 8199SOL    HW333116   4.132   3.541   4.294
 8199SOL    MW433117   4.178   3.577   4.359
 8200SOL     OW33118   5.563   1.931   4.421
 8200SOL    HW233119   5.617   1.882   4.483
 8200SOL    HW333120   5.506   1.865   4.382
 8200SOL    MW433121   5.563   1.915   4.423
 8201SOL     OW33122   3.895   3.629   3.949
 8201SOL    HW233123   3.924   3.719   3.941
 8201SOL    HW333124   3.845   3.612   3.870
 8201SOL    MW433125   3.893   3.637   3.938
 8202SOL     OW33126   4.682   1.884   4.834
 8202SOL    HW233127   4.641   1.962   4.796
 8202SOL    HW333128   4.776   1.902   4.829
 8202SOL    MW433129   4.688   1.896   4.829
 8203SOL     OW33130   5.299   3.437   3.920
 8203SOL    HW233131   5.347   3.506   3.966
 8203SOL    HW333132   5.220   3.481   3.889
 8203SOL    MW433133   5.294   3.451   3.923
 8204SOL     OW33134   4.697   2.562   3.864
 8204SOL    HW233135   4.699   2.509   3.785
 8204SOL    HW333136   4.785   2.599   3.870
 8204SOL    MW433137   4.709   2.561   3.853
 8205SOL     OW33138   5.311   2.488   4.200
 8205SOL    HW233139   5.350   2.488   4.287
 8205SOL    HW333140   5.252   2.564   4.200
 8205SOL    MW433141   5.308   2.499   4.211
 8206SOL     OW33142   4.628   2.855   5.329
 8206SOL    HW233143   4.605   2.835   5.419
 8206SOL    HW333144   4.713   2.899   5.334
 8206SOL    MW433145   4.635   2.858   5.341
 8207SOL     OW33146   4.708   1.992   5.089
 8207SOL    HW233147   4.714   1.954   5.002
 8207SOL    HW333148   4.697   2.086   5.074
 8207SOL    MW433149   4.709   2.000   5.077
 8208SOL     OW33150   4.797   2.481   4.923
 8208SOL    HW233151   4.872   2.510   4.870
 8208SOL    HW333152   4.729   2.546   4.907
 8208SOL    MW433153   4.798   2.493   4.913
 8209SOL     OW33154   5.347   2.449   5.200
 8209SOL    HW233155   5.328   2.358   5.179
 8209SOL    HW333156   5.325   2.498   5.121
 8209SOL    MW433157   5.342   2.442   5.187
 8210SOL     OW33158   5.489   3.543   5.104
 8210SOL    HW233159   5.417   3.505   5.155
 8210SOL    HW333160   5.506   3.628   5.145
 8210SOL    MW433161   5.483   3.548   5.116
 8211SOL     OW33162   4.794   2.187   5.306
 8211SOL    HW233163   4.760   2.226   5.225
 8211SOL    HW333164   4.772   2.095   5.299
 8211SOL    MW433165   4.787   2.180   5.296
 8212SOL     OW33166   5.203   3.001   5.382
 8212SOL    HW233167   5.285   3.042   5.412
 8212SOL    HW333168   5.166   2.963   5.462
 8212SOL    MW433169   5.209   3.002   5.397
 8213SOL     OW33170   5.498   2.374   4.366
 8213SOL    HW233171   5.587   2.343   4.383
 8213SOL    HW333172   5.441   2.314   4.414
 8213SOL    MW433173   5.501   2.362   4.375
 8214SOL     OW33174   3.924   2.088   4.395
 8214SOL    HW233175   3.915   2.028   4.321
 8214SOL    HW333176   3.857   2.059   4.458
 8214SOL    MW433177   3.914   2.075   4.393
 8215SOL     OW33178   4.867   3.181   3.956
 8215SOL    HW233179   4.817   3.183   4.038
 8215SOL    HW333180   4.801   3.199   3.888
 8215SOL    MW433181   4.853   3.183   3.958
 8216SOL     OW33182   3.871   2.261   4.758
 8216SOL    HW233183   3.843   2.352   4.767
 8216SOL    HW333184   3.808   2.222   4.697
 8216SOL    MW433185   3.858   2.267   4.752
 8217SOL     OW33186   4.330   3.599   4.064
 8217SOL    HW233187   4.251   3.557   4.097
 8217SOL    HW333188   4.396   3.582   4.131
 8217SOL    MW433189   4.329   3.591   4.077
 8218SOL     OW33190   5.458   3.119   5.461
 8218SOL    HW233191   5.508   3.045   5.493
 8218SOL    HW333192   5.404   3.146   5.536
 8218SOL    MW433193   5.458   3.113   5.474
 8219SOL     OW33194   4.466   3.014   3.771
 8219SOL    HW233195   4.388   2.960   3.758
 8219SOL    HW333196   4.437   3.087   3.824
 8219SOL    MW433197   4.452   3.016   3.776
 8220SOL     OW33198   5.592   2.754   4.963
 8220SOL    HW233199   5.608   2.792   4.876
 8220SOL    HW333200   5.626   2.820   5.024
 8220SOL    MW433201   5.599   2.767   4.959
 8221SOL     OW33202   5.384   3.463   4.632
 8221SOL    HW233203   5.413   3.530   4.693
 8221SOL    HW333204   5.365   3.387   4.687
 8221SOL    MW433205   5.386   3.463   4.647
 8222SOL     OW33206   5.047   3.530   3.839
 8222SOL    HW233207   4.973   3.493   3.889
 8222SOL    HW333208   5.055   3.620   3.872
 8222SOL    MW433209   5.038   3.537   3.851
 8223SOL     OW33210   3.855   2.536   4.928
 8223SOL    HW233211   3.917   2.566   4.994
 8223SOL    HW333212   3.789   2.605   4.922
 8223SOL    MW433213   3.854   2.549   4.935
 8224SOL     OW33214   5.271   3.204   3.781
 8224SOL    HW233215   5.218   3.253   3.717
 8224SOL    HW333216   5.302   3.270   3.842
 8224SOL    MW433217   5.269   3.218   3.779
 8225SOL     OW33218   4.496   2.093   3.836
 8225SOL    HW233219   4.444   2.013   3.824
 8225SOL    HW333220   4.583   2.070   3.804
 8225SOL    MW433221   4.499   2.079   3.830
 8226SOL     OW33222   3.950   3.645   5.380
 8226SOL    HW233223   3.924   3.713   5.318
 8226SOL    HW333224   3.998   3.582   5.328
 8226SOL    MW433225   3.952   3.645   5.366
 8227SOL     OW33226   4.002   2.964   4.887
 8227SOL    HW233227   4.055   3.039   4.912
 8227SOL    HW333228   3.921   3.002   4.853
 8227SOL    MW433229   3.998   2.979   4.887
 8228SOL     OW33230   4.542   2.868   4.875
 8228SOL    HW233231   4.570   2.777   4.887
 8228SOL    HW333232   4.471   2.862   4.811
 8228SOL    MW433233   4.535   2.856   4.870
 8229SOL     OW33234   3.857   2.733   4.293
 8229SOL    HW233235   3.948   2.748   4.320
 8229SOL    HW333236   3.860   2.654   4.239
 8229SOL    MW433237   3.869   2.725   4.291
 8230SOL     OW33238   4.093   2.441   5.547
 8230SOL    HW233239   4.040   2.521   5.554
 8230SOL    HW333240   4.163   2.453   5.612
 8230SOL    MW433241   4.095   2.454   5.555
 8231SOL     OW33242   4.479   1.991   5.254
 8231SOL    HW233243   4.456   1.899   5.256
 8231SOL    HW333244   4.565   1.993   5.211
 8231SOL    MW433245   4.486   1.981   5.250
 8232SOL     OW33246   4.163   2.515   5.293
 8232SOL    HW233247   4.243   2.565   5.279
 8232SOL    HW333248   4.154   2.509   5.388
 8232SOL    MW433249   4.172   2.521   5.303
 8233SOL     OW33250   4.484   3.665   4.667
 8233SOL    HW233251   4.573   3.680   4.697
 8233SOL    HW333252   4.479   3.712   4.583
 8233SOL    MW433253   4.494   3.673   4.660
 8234SOL     OW33254   5.140   2.040   5.564
 8234SOL    HW233255   5.196   1.967   5.590
 8234SOL    HW333256   5.110   2.078   5.646
 8234SOL    MW433257   5.144   2.035   5.577
 8235SOL     OW33258   3.865   3.345   4.332
 8235SOL    HW233259   3.837   3.384   4.414
 8235SOL    HW333260   3.885   3.254   4.354
 8235SOL    MW433261   3.863   3.337   4.345
 8236SOL     OW33262   4.698   3.388   4.367
 8236SOL    HW233263   4.781   3.342   4.351
 8236SOL    HW333264   4.688   3.387   4.463
 8236SOL    MW433265   4.708   3.381   4.377
 8237SOL     OW33266   5.530   2.533   4.681
 8237SOL    HW233267   5.619   2.563   4.663
 8237SOL    HW333268   5.510   2.473   4.610
 8237SOL    MW433269   5.539   2.530   4.670
 8238SOL     OW33270   5.381   2.712   5.561
 8238SOL    HW233271   5.436   2.636   5.542
 8238SOL    HW333272   5.383   2.720   5.656
 8238SOL    MW433273   5.389   2.703   5.569
 8239SOL     OW33274   4.431   3.445   3.772
 8239SOL    HW233275   4.371   3.514   3.742
 8239SOL    HW333276   4.376   3.387   3.825
 8239SOL    MW433277   4.415   3.447   3.774
 8240SOL     OW33278   4.869   2.090   3.995
 8240SOL    HW233279   4.802   2.066   3.932
 8240SOL    HW333280   4.934   2.139   3.944
 8240SOL    MW433281   4.869   2.092   3.980
 8241SOL     OW33282   4.676   2.274   5.080
 8241SOL    HW233283   4.595   2.315   5.108
 8241SOL    HW333284   4.723   2.342   5.032
 8241SOL    MW433285   4.671   2.289   5.078
 8242SOL     OW33286   4.936   2.612   4.703
 8242SOL    HW233287   4.949   2.706   4.713
 8242SOL    HW333288   4.897   2.602   4.617
 8242SOL    MW433289   4.932   2.623   4.693
 8243SOL     OW33290   4.388   2.807   4.507
 8243SOL    HW233291   4.299   2.798   4.540
 8243SOL    HW333292   4.392   2.897   4.475
 8243SOL    MW433293   4.377   2.818   4.507
 8244SOL     OW33294   5.187   2.390   4.502
 8244SOL    HW233295   5.132   2.311   4.501
 8244SOL    HW333296   5.169   2.431   4.586
 8244SOL    MW433297   5.177   2.385   4.511
 8245SOL     OW33298   4.158   2.077   5.319
 8245SOL    HW233299   4.079   2.095   5.371
 8245SOL    HW333300   4.153   2.139   5.246
 8245SOL    MW433301   4.148   2.087   5.316
 8246SOL     OW33302   4.806   2.594   4.459
 8246SOL    HW233303   4.743   2.526   4.483
 8246SOL    HW333304   4.826   2.575   4.367
 8246SOL    MW433305   4.800   2.581   4.451
 8247SOL     OW33306   4.062   3.489   4.161
 8247SOL    HW233307   4.023   3.536   4.087
 8247SOL    HW333308   3.996   3.424   4.186
 8247SOL    MW433309   4.049   3.487   4.155
 8248SOL     OW33310   4.554   2.898   4.185
 8248SOL    HW233311   4.556   2.872   4.092
 8248SOL    HW333312   4.612   2.835   4.228
 8248SOL    MW433313   4.562   2.887   4.179
 8249SOL     OW33314   5.107   3.458   4.957
 8249SOL    HW233315   5.032   3.504   4.995
 8249SOL    HW333316   5.089   3.365   4.974
 8249SOL    MW433317   5.096   3.452   4.965
 8250SOL     OW33318   5.111   3.666   4.387
 8250SOL    HW233319   5.054   3.619   4.326
 8250SOL    HW333320   5.197   3.627   4.374
 8250SOL    MW433321   5.114   3.657   4.377
 8251SOL     OW33322   5.064   2.142   4.518
 8251SOL    HW233323   5.092   2.074   4.579
 8251SOL    HW333324   4.978   2.113   4.488
 8251SOL    MW433325   5.057   2.129   4.522
 8252SOL     OW33326   3.869   3.076   4.452
 8252SOL    HW233327   3.933   3.108   4.515
 8252SOL    HW333328   3.918   3.012   4.400
 8252SOL    MW433329   3.884   3.072   4.453
 8253SOL     OW33330   4.369   3.152   5.434
 8253SOL    HW233331   4.417   3.235   5.421
 8253SOL    HW333332   4.426   3.100   5.490
 8253SOL    MW433333   4.383   3.156   5.440
 8254SOL     OW33334   3.945   3.394   5.574
 8254SOL    HW233335   4.001   3.318   5.589
 8254SOL    HW333336   3.894   3.372   5.496
 8254SOL    MW433337   3.945   3.381   5.565
 8255SOL     OW33338   5.044   2.246   3.853
 8255SOL    HW233339   5.017   2.312   3.789
 8255SOL    HW333340   5.114   2.289   3.903
 8255SOL    MW433341   5.049   2.259   3.850
 8256SOL     OW33342   4.712   1.951   3.790
 8256SOL    HW233343   4.768   1.943   3.712
 8256SOL    HW333344   4.689   1.861   3.812
 8256SOL    MW433345   4.717   1.938   3.783
 8257SOL     OW33346   5.217   2.802   3.995
 8257SOL    HW233347   5.184   2.891   3.985
 8257SOL    HW333348   5.182   2.773   4.080
 8257SOL    MW433349   5.207   2.811   4.006
 8258SOL     OW33350   4.830   3.231   5.183
 8258SOL    HW233351   4.741   3.237   5.151
 8258SOL    HW333352   4.874   3.310   5.151
 8258SOL    MW433353   4.825   3.241   5.175
 8259SOL     OW33354   4.123   1.899   5.525
 8259SOL    HW233355   4.051   1.864   5.473
 8259SOL    HW333356   4.181   1.940   5.460
 8259SOL    MW433357   4.121   1.900   5.510
 8260SOL     OW33358   4.147   3.389   4.824
 8260SOL    HW233359   4.192   3.451   4.881
 8260SOL    HW333360   4.054   3.408   4.837
 8260SOL    MW433361   4.140   3.399   4.831
 8261SOL     OW33362   5.587   2.918   5.178
 8261SOL    HW233363   5.502   2.931   5.137
 8261SOL    HW333364   5.567   2.882   5.265
 8261SOL    MW433365   5.574   2.914   5.183
 8262SOL     OW33366   4.569   3.457   4.932
 8262SOL    HW233367   4.593   3.446   4.841
 8262SOL    HW333368   4.492   3.514   4.930
 8262SOL    MW433369   4.561   3.462   4.921
 8263SOL     OW33370   4.211   2.840   3.787
 8263SOL    HW233371   4.134   2.853   3.843
 8263SOL    HW333372   4.175   2.804   3.706
 8263SOL    MW433373   4.197   2.836   3.784
 8264SOL     OW33374   4.864   2.813   4.030
 8264SOL    HW233375   4.774   2.834   4.005
 8264SOL    HW333376   4.891   2.886   4.086
 8264SOL    MW433377   4.856   2.825   4.033
 8265SOL     OW33378   4.364   3.162   4.722
 8265SOL    HW233379   4.357   3.141   4.816
 8265SOL    HW333380   4.282   3.130   4.685
 8265SOL    MW433381   4.352   3.156   4.729
 8266SOL     OW33382   5.228   2.172   5.124
 8266SOL    HW233383   5.175   2.174   5.204
 8266SOL    HW333384   5.213   2.085   5.087
 8266SOL    MW433385   5.220   2.162   5.129
 8267SOL     OW33386   5.564   2.096   4.997
 8267SOL    HW233387   5.545   2.163   4.932
 8267SOL    HW333388   5.621   2.034   4.952
 8267SOL    MW433389   5.568   2.097   4.983
 8268SOL     OW33390   3.810   3.254   5.385
 8268SOL    HW233391   3.854   3.187   5.331
 8268SOL    HW333392   3.725   3.216   5.405
 8268SOL    MW433393   3.805   3.240   5.381
 8269SOL     OW33394   4.493   1.929   4.437
 8269SOL    HW233395   4.422   1.990   4.419
 8269SOL    HW333396   4.544   1.926   4.356
 8269SOL    MW433397   4.489   1.935   4.424
 8270SOL     OW33398   4.251   3.169   4.186
 8270SOL    HW233399   4.244   3.201   4.276
 8270SOL    HW333400   4.161   3.153   4.158
 8270SOL    MW433401   4.239   3.171   4.193
 8271SOL     OW33402   4.846   3.562   5.095
 8271SOL    HW233403   4.766   3.547   5.045
 8271SOL    HW333404   4.853   3.657   5.102
 8271SOL    MW433405   4.837   3.573   5.089
 8272SOL     OW33406   4.960   3.527   4.585
 8272SOL    HW233407   5.007   3.600   4.544
 8272SOL    HW333408   4.881   3.566   4.621
 8272SOL    MW433409   4.955   3.542   4.584
 8273SOL     OW33410   5.368   3.622   4.860
 8273SOL    HW233411   5.411   3.592   4.940
 8273SOL    HW333412   5.287   3.570   4.857
 8273SOL    MW433413   5.363   3.611   4.870
 8274SOL     OW33414   4.453   2.586   5.567
 8274SOL    HW233415   4.523   2.528   5.539
 8274SOL    HW333416   4.396   2.531   5.622
 8274SOL    MW433417   4.455   2.573   5.571
 8275SOL     OW33418   5.240   2.798   5.200
 8275SOL    HW233419   5.245   2.851   5.280
 8275SOL    HW333420   5.202   2.715   5.228
 8275SOL    MW433421   5.236   2.793   5.215
 8276SOL     OW33422   4.880   1.933   5.446
 8276SOL    HW233423   4.875   1.840   5.427
 8276SOL    HW333424   4.963   1.944   5.492
 8276SOL    MW433425   4.888   1.922   5.450
 8277SOL     OW33426   4.254   2.453   3.900
 8277SOL    HW233427   4.220   2.509   3.970
 8277SOL    HW333428   4.325   2.403   3.940
 8277SOL    MW433429   4.260   2.454   3.914
 8278SOL     OW33430   5.350   3.204   4.722
 8278SOL    HW233431   5.385   3.186   4.635
 8278SOL    HW333432   5.255   3.205   4.709
 8278SOL    MW433433   5.342   3.201   4.709
 8279SOL     OW33434   4.779   2.852   5.091
 8279SOL    HW233435   4.822   2.887   5.169
 8279SOL    HW333436   4.762   2.929   5.037
 8279SOL    MW433437   4.782   2.867   5.094
 8280SOL     OW33438   5.310   2.339   3.964
 8280SOL    HW233439   5.302   2.410   3.901
 8280SOL    HW333440   5.328   2.383   4.047
 8280SOL    MW433441   5.311   2.353   3.966
 8281SOL     OW33442   4.170   1.994   4.393
 8281SOL    HW233443   4.220   2.037   4.324
 8281SOL    HW333444   4.085   2.038   4.393
 8281SOL    MW433445   4.167   2.007   4.384
 8282SOL     OW33446   3.929   3.056   5.253
 8282SOL    HW233447   3.957   3.009   5.331
 8282SOL    HW333448   3.850   3.011   5.224
 8282SOL    MW433449   3.922   3.045   5.259
 8283SOL     OW33450   4.437   2.383   5.220
 8283SOL    HW233451   4.409   2.471   5.244
 8283SOL    HW333452   4.406   2.327   5.291
 8283SOL    MW433453   4.429   2.386   5.232
 8284SOL     OW33454   4.979   2.601   3.939
 8284SOL    HW233455   5.026   2.619   3.858
 8284SOL    HW333456   4.945   2.685   3.967
 8284SOL    MW433457   4.981   2.615   3.932
 8285SOL     OW33458   4.092   2.779   4.433
 8285SOL    HW233459   4.150   2.835   4.381
 8285SOL    HW333460   4.136   2.694   4.435
 8285SOL    MW433461   4.105   2.776   4.426
 8286SOL     OW33462   5.232   2.131   4.270
 8286SOL    HW233463   5.154   2.081   4.295
 8286SOL    HW333464   5.203   2.222   4.270
 8286SOL    MW433465   5.218   2.135   4.273
 8287SOL     OW33466   4.818   2.093   4.429
 8287SOL    HW233467   4.838   2.168   4.373
 8287SOL    HW333468   4.798   2.132   4.514
 8287SOL    MW433469   4.819   2.109   4.433
 8288SOL     OW33470   4.714   3.343   3.761
 8288SOL    HW233471   4.741   3.421   3.713
 8288SOL    HW333472   4.621   3.358   3.780
 8288SOL    MW433473   4.705   3.356   3.757
 8289SOL     OW33474   5.578   2.866   5.448
 8289SOL    HW233475   5.491   2.846   5.484
 8289SOL    HW333476   5.632   2.792   5.473
 8289SOL    MW433477   5.573   2.855   5.456
 8290SOL     OW33478   3.799   3.379   4.605
 8290SOL    HW233479   3.831   3.383   4.696
 8290SOL    HW333480   3.704   3.387   4.613
 8290SOL    MW433481   3.791   3.382   4.618
 8291SOL     OW33482   3.754   2.505   4.152
 8291SOL    HW233483   3.694   2.477   4.222
 8291SOL    HW333484   3.828   2.445   4.158
 8291SOL    MW433485   3.756   2.494   4.161
 8292SOL     OW33486   5.322   3.717   5.586
 8292SOL    HW233487   5.367   3.641   5.551
 8292SOL    HW333488   5.360   3.730   5.673
 8292SOL    MW433489   5.332   3.710   5.592
 8293SOL     OW33490   4.922   3.236   4.312
 8293SOL    HW233491   4.945   3.187   4.390
 8293SOL    HW333492   5.003   3.278   4.284
 8293SOL    MW433493   4.935   3.236   4.319
 8294SOL     OW33494   4.180   2.244   5.041
 8294SOL    HW233495   4.213   2.325   5.081
 8294SOL    HW333496   4.153   2.270   4.953
 8294SOL    MW433497   4.179   2.258   5.035
 8295SOL     OW33498   4.134   2.211   4.777
 8295SOL    HW233499   4.164   2.125   4.748
 8295SOL    HW333500   4.039   2.204   4.780
 8295SOL    MW433501   4.126   2.200   4.775
 8296SOL     OW33502   4.963   2.420   5.468
 8296SOL    HW233503   5.015   2.355   5.421
 8296SOL    HW333504   4.921   2.471   5.398
 8296SOL    MW433505   4.964   2.417   5.451
 8297SOL     OW33506   5.062   2.215   5.329
 8297SOL    HW233507   4.969   2.199   5.316
 8297SOL    HW333508   5.088   2.153   5.397
 8297SOL    MW433509   5.052   2.205   5.336
 8298SOL     OW33510   4.277   1.989   4.668
 8298SOL    HW233511   4.287   1.898   4.694
 8298SOL    HW333512   4.233   1.985   4.583
 8298SOL    MW433513   4.273   1.977   4.660
 8299SOL     OW33514   4.371   3.604   5.214
 8299SOL    HW233515   4.288   3.589   5.259
 8299SOL    HW333516   4.430   3.537   5.249
 8299SOL    MW433517   4.369   3.594   5.224
 8300SOL     OW33518   5.428   2.311   4.839
 8300SOL    HW233519   5.361   2.344   4.899
 8300SOL    HW333520   5.471   2.389   4.805
 8300SOL    MW433521   5.426   2.326   4.843
 8301SOL     OW33522   5.606   3.031   4.809
 8301SOL    HW233523   5.599   2.971   4.734
 8301SOL    HW333524   5.532   3.091   4.798
 8301SOL    MW433525   5.596   3.031   4.798
 8302SOL     OW33526   4.988   2.893   4.727
 8302SOL    HW233527   5.002   2.865   4.818
 8302SOL    HW333528   5.074   2.924   4.699
 8302SOL    MW433529   5.001   2.894   4.736
 8303SOL     OW33530   5.071   2.388   5.006
 8303SOL    HW233531   5.092   2.389   4.913
 8303SOL    HW333532   5.116   2.310   5.039
 8303SOL    MW433533   5.078   2.378   4.998
 8304SOL     OW33534   5.564   2.519   5.548
 8304SOL    HW233535   5.601   2.464   5.617
 8304SOL    HW333536   5.589   2.476   5.466
 8304SOL    MW433537   5.571   2.507   5.547
 8305SOL     OW33538   5.111   2.817   5.600
 8305SOL    HW233539   5.177   2.765   5.554
 8305SOL    HW333540   5.131   2.804   5.693
 8305SOL    MW433541   5.122   2.808   5.607
 8306SOL     OW33542   5.062   1.903   3.948
 8306SOL    HW233543   5.136   1.947   3.991
 8306SOL    HW333544   4.986   1.957   3.970
 8306SOL    MW433545   5.062   1.915   3.956
 8307SOL     OW33546   5.122   2.678   4.226
 8307SOL    HW233547   5.037   2.648   4.196
 8307SOL    HW333548   5.114   2.685   4.321
 8307SOL    MW433549   5.110   2.676   4.235
 8308SOL     OW33550   4.198   3.141   4.957
 8308SOL    HW233551   4.210   3.168   5.048
 8308SOL    HW333552   4.179   3.222   4.910
 8308SOL    MW433553   4.197   3.156   4.962
 8309SOL     OW33554   4.482   2.121   4.780
 8309SOL    HW233555   4.455   2.123   4.871
 8309SOL    HW333556   4.412   2.073   4.735
 8309SOL    MW433557   4.470   2.117   4.787
 8310SOL     OW33558   4.336   3.613   4.942
 8310SOL    HW233559   4.388   3.690   4.919
 8310SOL    HW333560   4.345   3.605   5.037
 8310SOL    MW433561   4.345   3.620   4.953
 8311SOL     OW33562   5.238   3.198   5.174
 8311SOL    HW233563   5.223   3.127   5.237
 8311SOL    HW333564   5.284   3.156   5.102
 8311SOL    MW433565   5.244   3.182   5.174
 8312SOL     OW33566   4.312   2.929   5.291
 8312SOL    HW233567   4.349   2.934   5.203
 8312SOL    HW333568   4.351   3.002   5.338
 8312SOL    MW433569   4.322   2.939   5.286
 8313SOL     OW33570   4.492   2.972   5.103
 8313SOL    HW233571   4.551   2.918   5.156
 8313SOL    HW333572   4.507   2.944   5.013
 8313SOL    MW433573   4.502   2.961   5.099
 8314SOL     OW33574   4.495   2.344   3.952
 8314SOL    HW233575   4.568   2.393   3.915
 8314SOL    HW333576   4.511   2.253   3.926
 8314SOL    MW433577   4.507   2.339   3.945
 8315SOL     OW33578   5.303   3.461   5.275
 8315SOL    HW233579   5.345   3.446   5.360
 8315SOL    HW333580   5.294   3.374   5.237
 8315SOL    MW433581   5.307   3.449   5.282
 8316SOL     OW33582   4.963   1.940   4.866
 8316SOL    HW233583   5.018   1.949   4.788
 8316SOL    HW333584   5.018   1.974   4.937
 8316SOL    MW433585   4.977   1.945   4.865
 8317SOL     OW33586   3.970   2.853   4.050
 8317SOL    HW233587   3.907   2.869   3.979
 8317SOL    HW333588   3.917   2.816   4.121
 8317SOL    MW433589   3.955   2.850   4.050
 8318SOL     OW33590   4.326   3.207   3.909
 8318SOL    HW233591   4.341   3.183   4.001
 8318SOL    HW333592   4.234   3.185   3.893
 8318SOL    MW433593   4.316   3.200   3.919
 8319SOL     OW33594   4.865   3.438   4.061
 8319SOL    HW233595   4.873   3.356   4.012
 8319SOL    HW333596   4.784   3.477   4.028
 8319SOL    MW433597   4.855   3.433   4.051
 8320SOL     OW33598   4.124   3.596   4.630
 8320SOL    HW233599   4.128   3.507   4.665
 8320SOL    HW333600   4.150   3.587   4.539
 8320SOL    MW433601   4.127   3.584   4.622
 8321SOL     OW33602   4.741   3.074   4.873
 8321SOL    HW233603   4.673   3.008   4.889
 8321SOL    HW333604   4.759   3.068   4.780
 8321SOL    MW433605   4.734   3.065   4.864
 8322SOL     OW33606   3.830   3.349   5.124
 8322SOL    HW233607   3.820   3.307   5.210
 8322SOL    HW333608   3.751   3.402   5.114
 8322SOL    MW433609   3.819   3.350   5.135
 8323SOL     OW33610   4.734   2.213   4.694
 8323SOL    HW233611   4.664   2.165   4.739
 8323SOL    HW333612   4.766   2.276   4.758
 8323SOL    MW433613   4.729   2.215   4.708
 8324SOL     OW33614   4.385   2.649   5.314
 8324SOL    HW233615   4.378   2.744   5.302
 8324SOL    HW333616   4.394   2.638   5.409
 8324SOL    MW433617   4.386   2.661   5.324
 8325SOL     OW33618   4.106   3.164   5.572
 8325SOL    HW233619   4.178   3.166   5.509
 8325SOL    HW333620   4.076   3.073   5.571
 8325SOL    MW433621   4.111   3.153   5.564
 8326SOL     OW33622   5.190   1.927   5.039
 8326SOL    HW233623   5.261   1.873   5.003
 8326SOL    HW333624   5.189   1.906   5.132
 8326SOL    MW433625   5.199   1.918   5.047
 8327SOL     OW33626   5.390   3.457   5.523
 8327SOL    HW233627   5.363   3.454   5.614
 8327SOL    HW333628   5.486   3.461   5.526
 8327SOL    MW433629   5.400   3.457   5.535
 8328SOL     OW33630   4.201   2.319   4.507
 8328SOL    HW233631   4.272   2.267   4.470
 8328SOL    HW333632   4.187   2.284   4.594
 8328SOL    MW433633   4.209   2.308   4.514
 8329SOL     OW33634   3.756   3.654   5.579
 8329SOL    HW233635   3.806   3.632   5.501
 8329SOL    HW333636   3.764   3.749   5.587
 8329SOL    MW433637   3.764   3.663   5.570
 8330SOL     OW33638   4.517   3.412   4.583
 8330SOL    HW233639   4.445   3.349   4.596
 8330SOL    HW333640   4.478   3.497   4.601
 8330SOL    MW433641   4.501   3.415   4.586
 8331SOL     OW33642   4.837   2.260   4.231
 8331SOL    HW233643   4.859   2.197   4.163
 8331SOL    HW333644   4.742   2.252   4.242
 8331SOL    MW433645   4.827   2.251   4.223
 8332SOL     OW33646   3.922   1.950   4.163
 8332SOL    HW233647   3.993   1.971   4.102
 8332SOL    HW333648   3.876   1.878   4.121
 8332SOL    MW433649   3.926   1.944   4.149
 8333SOL     OW33650   3.753   2.417   5.306
 8333SOL    HW233651   3.817   2.483   5.281
 8333SOL    HW333652   3.672   2.444   5.263
 8333SOL    MW433653   3.751   2.429   5.298
 8334SOL     OW33654   5.491   3.324   4.263
 8334SOL    HW233655   5.461   3.257   4.324
 8334SOL    HW333656   5.585   3.330   4.277
 8334SOL    MW433657   5.499   3.316   4.273
 8335SOL     OW33658   5.047   3.001   4.193
 8335SOL    HW233659   5.019   3.087   4.226
 8335SOL    HW333660   5.075   3.017   4.103
 8335SOL    MW433661   5.047   3.015   4.185
 8336SOL     OW33662   4.709   1.921   4.246
 8336SOL    HW233663   4.746   1.980   4.311
 8336SOL    HW333664   4.686   1.977   4.172
 8336SOL    MW433665   4.710   1.936   4.245
 8337SOL     OW33666   5.562   2.803   4.668
 8337SOL    HW233667   5.553   2.835   4.579
 8337SOL    HW333668   5.515   2.719   4.668
 8337SOL    MW433669   5.555   2.796   4.658
 8338SOL     OW33670   3.938   2.643   5.247
 8338SOL    HW233671   3.959   2.712   5.185
 8338SOL    HW333672   4.018   2.590   5.252
 8338SOL    MW433673   3.951   2.644   5.241
 8339SOL     OW33674   5.474   2.734   4.369
 8339SOL    HW233675   5.568   2.723   4.357
 8339SOL    HW333676   5.450   2.806   4.310
 8339SOL    MW433677   5.484   2.742   4.360
 8340SOL     OW33678   3.923   2.658   5.514
 8340SOL    HW233679   3.849   2.602   5.540
 8340SOL    HW333680   3.918   2.661   5.419
 8340SOL    MW433681   3.912   2.651   5.504
 8341SOL     OW33682   4.089   1.945   4.964
 8341SOL    HW233683   4.132   2.029   4.984
 8341SOL    HW333684   4.162   1.883   4.957
 8341SOL    MW433685   4.104   1.948   4.965
 8342SOL     OW33686   4.130   2.612   4.142
 8342SOL    HW233687   4.130   2.707   4.127
 8342SOL    HW333688   4.207   2.596   4.196
 8342SOL    MW433689   4.140   2.623   4.147
 8343SOL     OW33690   4.906   2.471   5.206
 8343SOL    HW233691   4.942   2.444   5.122
 8343SOL    HW333692   4.819   2.505   5.185
 8343SOL    MW433693   4.900   2.472   5.193
 8344SOL     OW33694   3.889   2.343   4.431
 8344SOL    HW233695   3.951   2.350   4.504
 8344SOL    HW333696   3.889   2.250   4.408
 8344SOL    MW433697   3.897   2.332   4.438
 8345SOL     OW33698   5.436   3.683   3.963
 8345SOL    HW233699   5.503   3.716   3.903
 8345SOL    HW333700   5.393   3.762   3.997
 8345SOL    MW433701   5.438   3.698   3.959
 8346SOL     OW33702   4.571   2.604   4.915
 8346SOL    HW233703   4.529   2.522   4.891
 8346SOL    HW333704   4.572   2.603   5.011
 8346SOL    MW433705   4.564   2.593   4.924
 8347SOL     OW33706   5.242   3.737   5.314
 8347SOL    HW233707   5.245   3.643   5.297
 8347SOL    HW333708   5.265   3.745   5.406
 8347SOL    MW433709   5.245   3.725   5.324
 8348SOL     OW33710   4.375   2.074   5.020
 8348SOL    HW233711   4.306   2.137   5.041
 8348SOL    HW333712   4.402   2.038   5.105
 8348SOL    MW433713   4.369   2.077   5.033
 8349SOL     OW33714   3.758   2.915   3.889
 8349SOL    HW233715   3.727   2.980   3.952
 8349SOL    HW333716   3.707   2.837   3.908
 8349SOL    MW433717   3.748   2.912   3.899
 8350SOL     OW33718   5.170   1.927   4.637
 8350SOL    HW233719   5.258   1.936   4.674
 8350SOL    HW333720   5.180   1.868   4.563
 8350SOL    MW433721   5.184   1.921   4.631
 8351SOL     OW33722   5.202   2.666   4.481
 8351SOL    HW233723   5.282   2.681   4.430
 8351SOL    HW333724   5.195   2.571   4.487
 8351SOL    MW433725   5.211   2.655   4.476
 8352SOL     OW33726   4.342   3.715   3.831
 8352SOL    HW233727   4.247   3.715   3.823
 8352SOL    HW333728   4.358   3.661   3.909
 8352SOL    MW433729   4.332   3.709   3.840
 8353SOL     OW33730   4.652   2.592   5.178
 8353SOL    HW233731   4.721   2.659   5.175
 8353SOL    HW333732   4.585   2.630   5.234
 8353SOL    MW433733   4.653   2.605   5.185
 8354SOL     OW33734   4.070   2.892   5.426
 8354SOL    HW233735   4.024   2.808   5.428
 8354SOL    HW333736   4.127   2.886   5.350
 8354SOL    MW433737   4.072   2.880   5.418
 8355SOL     OW33738   5.187   2.535   3.747
 8355SOL    HW233739   5.115   2.511   3.689
 8355SOL    HW333740   5.253   2.572   3.689
 8355SOL    MW433741   5.186   2.537   3.732
 8356SOL     OW33742   4.321   3.267   4.427
 8356SOL    HW233743   4.386   3.200   4.448
 8356SOL    HW333744   4.373   3.344   4.404
 8356SOL    MW433745   4.336   3.269   4.426
 8357SOL     OW33746   4.582   2.432   4.557
 8357SOL    HW233747   4.522   2.450   4.629
 8357SOL    HW333748   4.616   2.344   4.576
 8357SOL    MW433749   4.578   2.422   4.570
 8358SOL     OW33750   5.523   1.931   5.226
 8358SOL    HW233751   5.444   1.977   5.254
 8358SOL    HW333752   5.558   1.985   5.155
 8358SOL    MW433753   5.517   1.944   5.220
 8359SOL     OW33754   4.807   3.015   4.576
 8359SOL    HW233755   4.899   2.996   4.594
 8359SOL    HW333756   4.780   2.945   4.516
 8359SOL    MW433757   4.815   3.003   4.570
 8360SOL     OW33758   4.600   2.835   3.931
 8360SOL    HW233759   4.586   2.747   3.896
 8360SOL    HW333760   4.551   2.892   3.872
 8360SOL    MW433761   4.592   2.830   3.919
 8361SOL     OW33762   5.081   3.253   4.672
 8361SOL    HW233763   5.054   3.337   4.637
 8361SOL    HW333764   5.041   3.248   4.759
 8361SOL    MW433765   5.074   3.262   4.678
 8362SOL     OW33766   5.000   3.201   4.940
 8362SOL    HW233767   5.011   3.168   5.029
 8362SOL    HW333768   4.919   3.160   4.909
 8362SOL    MW433769   4.990   3.193   4.946
 8363SOL     OW33770   4.013   2.559   4.710
 8363SOL    HW233771   3.963   2.558   4.791
 8363SOL    HW333772   4.033   2.651   4.694
 8363SOL    MW433773   4.009   2.571   4.718
 8364SOL     OW33774   5.080   3.323   5.472
 8364SOL    HW233775   5.080   3.417   5.488
 8364SOL    HW333776   5.125   3.313   5.388
 8364SOL    MW433777   5.086   3.333   5.463
 8365SOL     OW33778   5.319   2.041   4.033
 8365SOL    HW233779   5.312   2.045   4.128
 8365SOL    HW333780   5.331   2.132   4.006
 8365SOL    MW433781   5.320   2.054   4.041
 8366SOL     OW33782   4.608   2.604   4.147
 8366SOL    HW233783   4.588   2.590   4.054
 8366SOL    HW333784   4.701   2.583   4.154
 8366SOL    MW433785   4.618   2.599   4.136
 8367SOL     OW33786   3.935   2.227   5.451
 8367SOL    HW233787   3.892   2.286   5.388
 8367SOL    HW333788   4.003   2.282   5.491
 8367SOL    MW433789   3.939   2.242   5.448
 8368SOL     OW33790   5.047   2.847   4.996
 8368SOL    HW233791   5.110   2.844   5.069
 8368SOL    HW333792   4.963   2.865   5.038
 8368SOL    MW433793   5.043   2.849   5.011
 8369SOL     OW33794   4.591   3.562   4.185
 8369SOL    HW233795   4.649   3.633   4.212
 8369SOL    HW333796   4.614   3.490   4.243
 8369SOL    MW433797   4.602   3.562   4.196
 8370SOL     OW33798   5.386   2.024   4.775
 8370SOL    HW233799   5.431   1.942   4.794
 8370SOL    HW333800   5.406   2.080   4.851
 8370SOL    MW433801   5.396   2.020   4.787
 8371SOL     OW33802   3.834   1.867   4.874
 8371SOL    HW233803   3.825   1.868   4.779
 8371SOL    HW333804   3.928   1.879   4.889
 8371SOL    MW433805   3.846   1.870   4.865
 8372SOL     OW33806   5.471   3.060   4.494
 8372SOL    HW233807   5.450   3.006   4.417
 8372SOL    HW333808   5.567   3.058   4.498
 8372SOL    MW433809   5.480   3.053   4.483
 8373SOL     OW33810   4.163   3.205   5.237
 8373SOL    HW233811   4.084   3.155   5.260
 8373SOL    HW333812   4.233   3.164   5.287
 8373SOL    MW433813   4.161   3.193   5.247
 8374SOL     OW33814   4.047   1.994   3.920
 8374SOL    HW233815   3.976   2.049   3.888
 8374SOL    HW333816   4.089   1.960   3.841
 8374SOL    MW433817   4.043   1.996   3.906
 8375SOL     OW33818   5.171   2.491   4.756
 8375SOL    HW233819   5.094   2.537   4.722
 8375SOL    HW333820   5.228   2.560   4.790
 8375SOL    MW433821   5.168   2.506   4.756
 8376SOL     OW33822   3.803   2.093   3.769
 8376SOL    HW233823   3.770   2.172   3.813
 8376SOL    HW333824   3.858   2.126   3.698
 8376SOL    MW433825   3.806   2.107   3.766
 8377SOL     OW33826   3.837   3.350   3.958
 8377SOL    HW233827   3.854   3.434   4.000
 8377SOL    HW333828   3.872   3.359   3.870
 8377SOL    MW433829   3.842   3.363   3.952
 8378SOL     OW33830   5.109   3.439   4.175
 8378SOL    HW233831   5.172   3.429   4.104
 8378SOL    HW333832   5.026   3.459   4.130
 8378SOL    MW433833   5.106   3.440   4.160
 8379SOL     OW33834   5.472   2.707   5.862
 8379SOL    HW233835   5.513   2.649   5.927
 8379SOL    HW333836   5.379   2.699   5.879
 8379SOL    MW433837   5.466   2.699   5.872
 8380SOL     OW33838   5.338   2.639   6.857
 8380SOL    HW233839   5.293   2.706   6.908
 8380SOL    HW333840   5.426   2.675   6.843
 8380SOL    MW433841   5.344   2.652   6.861
 8381SOL     OW33842   4.266   2.890   6.091
 8381SOL    HW233843   4.356   2.865   6.075
 8381SOL    HW333844   4.262   2.983   6.068
 8381SOL    MW433845   4.278   2.899   6.086
 8382SOL     OW33846   5.382   3.593   6.233
 8382SOL    HW233847   5.394   3.539   6.311
 8382SOL    HW333848   5.419   3.541   6.162
 8382SOL    MW433849   5.388   3.578   6.234
 8383SOL     OW33850   4.761   3.478   7.234
 8383SOL    HW233851   4.802   3.514   7.155
 8383SOL    HW333852   4.796   3.389   7.241
 8383SOL    MW433853   4.772   3.471   7.225
 8384SOL     OW33854   5.318   3.033   6.838
 8384SOL    HW233855   5.239   2.998   6.796
 8384SOL    HW333856   5.345   3.105   6.782
 8384SOL    MW433857   5.311   3.038   6.825
 8385SOL     OW33858   4.550   2.346   6.104
 8385SOL    HW233859   4.525   2.434   6.132
 8385SOL    HW333860   4.547   2.349   6.008
 8385SOL    MW433861   4.546   2.358   6.096
 8386SOL     OW33862   3.992   2.374   6.032
 8386SOL    HW233863   4.024   2.462   6.014
 8386SOL    HW333864   3.980   2.372   6.127
 8386SOL    MW433865   3.995   2.386   6.044
 8387SOL     OW33866   4.070   2.787   6.933
 8387SOL    HW233867   4.133   2.734   6.884
 8387SOL    HW333868   4.051   2.861   6.876
 8387SOL    MW433869   4.076   2.789   6.920
 8388SOL     OW33870   4.391   2.129   6.119
 8388SOL    HW233871   4.449   2.205   6.121
 8388SOL    HW333872   4.326   2.150   6.052
 8388SOL    MW433873   4.390   2.141   6.110
 8389SOL     OW33874   4.478   3.056   6.294
 8389SOL    HW233875   4.558   3.059   6.346
 8389SOL    HW333876   4.506   3.023   6.208
 8389SOL    MW433877   4.492   3.052   6.289
 8390SOL     OW33878   4.503   3.397   7.197
 8390SOL    HW233879   4.587   3.423   7.236
 8390SOL    HW333880   4.527   3.341   7.123
 8390SOL    MW433881   4.517   3.393   7.192
 8391SOL     OW33882   4.255   2.560   6.285
 8391SOL    HW233883   4.240   2.480   6.336
 8391SOL    HW333884   4.337   2.595   6.319
 8391SOL    MW433885   4.263   2.552   6.297
 8392SOL     OW33886   4.592   3.246   6.970
 8392SOL    HW233887   4.556   3.312   6.910
 8392SOL    HW333888   4.520   3.184   6.983
 8392SOL    MW433889   4.578   3.246   6.964
 8393SOL     OW33890   4.397   2.386   6.662
 8393SOL    HW233891   4.303   2.382   6.680
 8393SOL    HW333892   4.427   2.295   6.671
 8393SOL    MW433893   4.388   2.374   6.665
 8394SOL     OW33894   4.143   2.800   6.566
 8394SOL    HW233895   4.098   2.807   6.482
 8394SOL    HW333896   4.123   2.883   6.610
 8394SOL    MW433897   4.135   2.812   6.560
 8395SOL     OW33898   3.840   3.646   6.441
 8395SOL    HW233899   3.929   3.638   6.476
 8395SOL    HW333900   3.804   3.558   6.446
 8395SOL    MW433901   3.847   3.633   6.446
 8396SOL     OW33902   5.105   3.038   5.810
 8396SOL    HW233903   5.023   3.074   5.776
 8396SOL    HW333904   5.173   3.081   5.759
 8396SOL    MW433905   5.103   3.048   5.798
 8397SOL     OW33906   4.104   3.173   6.476
 8397SOL    HW233907   4.080   3.226   6.552
 8397SOL    HW333908   4.160   3.231   6.424
 8397SOL    MW433909   4.108   3.188   6.479
 8398SOL     OW33910   4.666   2.817   6.286
 8398SOL    HW233911   4.580   2.804   6.326
 8398SOL    HW333912   4.719   2.744   6.318
 8398SOL    MW433913   4.662   2.806   6.295
 8399SOL     OW33914   4.074   3.469   7.071
 8399SOL    HW233915   3.982   3.445   7.056
 8399SOL    HW333916   4.118   3.386   7.088
 8399SOL    MW433917   4.068   3.454   7.070
 8400SOL     OW33918   5.530   2.180   6.459
 8400SOL    HW233919   5.467   2.160   6.528
 8400SOL    HW333920   5.520   2.109   6.396
 8400SOL    MW433921   5.520   2.167   6.460
 8401SOL     OW33922   4.154   2.152   5.971
 8401SOL    HW233923   4.128   2.114   5.887
 8401SOL    HW333924   4.091   2.222   5.987
 8401SOL    MW433925   4.143   2.155   5.962
 8402SOL     OW33926   3.989   3.113   6.008
 8402SOL    HW233927   3.937   3.181   5.964
 8402SOL    HW333928   3.986   3.039   5.948
 8402SOL    MW433929   3.981   3.112   5.995
 8403SOL     OW33930   4.651   3.576   5.786
 8403SOL    HW233931   4.606   3.592   5.869
 8403SOL    HW333932   4.582   3.541   5.728
 8403SOL    MW433933   4.637   3.573   5.788
 8404SOL     OW33934   5.586   2.349   5.761
 8404SOL    HW233935   5.495   2.351   5.789
 8404SOL    HW333936   5.631   2.411   5.819
 8404SOL    MW433937   5.579   2.357   5.771
 8405SOL     OW33938   5.331   2.952   6.111
 8405SOL    HW233939   5.241   2.952   6.146
 8405SOL    HW333940   5.324   2.998   6.028
 8405SOL    MW433941   5.318   2.958   6.105
 8406SOL     OW33942   5.131   2.587   7.183
 8406SOL    HW233943   5.200   2.525   7.160
 8406SOL    HW333944   5.056   2.561   7.130
 8406SOL    MW433945   5.131   2.574   7.174
 8407SOL     OW33946   3.872   3.467   6.735
 8407SOL    HW233947   3.855   3.413   6.812
 8407SOL    HW333948   3.860   3.557   6.765
 8407SOL    MW433949   3.869   3.471   6.749
 8408SOL     OW33950   4.867   2.974   7.175
 8408SOL    HW233951   4.852   3.067   7.160
 8408SOL    HW333952   4.962   2.964   7.175
 8408SOL    MW433953   4.876   2.984   7.172
 8409SOL     OW33954   4.663   2.398   7.376
 8409SOL    HW233955   4.753   2.399   7.343
 8409SOL    HW333956   4.622   2.323   7.334
 8409SOL    MW433957   4.669   2.388   7.367
 8410SOL     OW33958   5.238   2.930   6.503
 8410SOL    HW233959   5.241   2.864   6.434
 8410SOL    HW333960   5.323   2.973   6.499
 8410SOL    MW433961   5.250   2.926   6.494
 8411SOL     OW33962   4.858   2.533   6.072
 8411SOL    HW233963   4.884   2.557   5.983
 8411SOL    HW333964   4.840   2.440   6.068
 8411SOL    MW433965   4.860   2.525   6.059
 8412SOL     OW33966   5.523   3.153   5.923
 8412SOL    HW233967   5.479   3.194   5.998
 8412SOL    HW333968   5.580   3.221   5.888
 8412SOL    MW433969   5.525   3.167   5.928
 8413SOL     OW33970   4.443   2.202   7.326
 8413SOL    HW233971   4.453   2.128   7.266
 8413SOL    HW333972   4.479   2.171   7.409
 8413SOL    MW433973   4.449   2.188   7.328
 8414SOL     OW33974   4.179   3.569   6.241
 8414SOL    HW233975   4.211   3.657   6.219
 8414SOL    HW333976   4.132   3.541   6.163
 8414SOL    MW433977   4.178   3.577   6.228
 8415SOL     OW33978   5.563   1.931   6.290
 8415SOL    HW233979   5.617   1.882   6.352
 8415SOL    HW333980   5.506   1.865   6.251
 8415SOL    MW433981   5.563   1.915   6.292
 8416SOL     OW33982   3.895   3.629   5.818
 8416SOL    HW233983   3.924   3.719   5.810
 8416SOL    HW333984   3.845   3.612   5.739
 8416SOL    MW433985   3.893   3.637   5.807
 8417SOL     OW33986   4.682   1.884   6.703
 8417SOL    HW233987   4.641   1.962   6.665
 8417SOL    HW333988   4.776   1.902   6.698
 8417SOL    MW433989   4.688   1.896   6.698
 8418SOL     OW33990   5.299   3.437   5.789
 8418SOL    HW233991   5.347   3.506   5.835
 8418SOL    HW333992   5.220   3.481   5.758
 8418SOL    MW433993   5.294   3.451   5.792
 8419SOL     OW33994   4.697   2.562   5.733
 8419SOL    HW233995   4.699   2.509   5.654
 8419SOL    HW333996   4.785   2.599   5.739
 8419SOL    MW433997   4.709   2.561   5.722
 8420SOL     OW33998   5.311   2.488   6.069
 8420SOL    HW233999   5.350   2.488   6.156
 8420SOL    HW334000   5.252   2.564   6.069
 8420SOL    MW434001   5.308   2.499   6.080
 8421SOL     OW34002   4.628   2.855   7.198
 8421SOL    HW234003   4.605   2.835   7.288
 8421SOL    HW334004   4.713   2.899   7.203
 8421SOL    MW434005   4.635   2.858   7.210
 8422SOL     OW34006   4.708   1.992   6.958
 8422SOL    HW234007   4.714   1.954   6.871
 8422SOL    HW334008   4.697   2.086   6.943
 8422SOL    MW434009   4.709   2.000   6.946
 8423SOL     OW34010   4.797   2.481   6.792
 8423SOL    HW234011   4.872   2.510   6.739
 8423SOL    HW334012   4.729   2.546   6.776
 8423SOL    MW434013   4.798   2.493   6.782
 8424SOL     OW34014   5.347   2.449   7.069
 8424SOL    HW234015   5.328   2.358   7.048
 8424SOL    HW334016   5.325   2.498   6.990
 8424SOL    MW434017   5.342   2.442   7.056
 8425SOL     OW34018   5.489   3.543   6.973
 8425SOL    HW234019   5.417   3.505   7.024
 8425SOL    HW334020   5.506   3.628   7.014
 8425SOL    MW434021   5.483   3.548   6.985
 8426SOL     OW34022   4.794   2.187   7.175
 8426SOL    HW234023   4.760   2.226   7.094
 8426SOL    HW334024   4.772   2.095   7.168
 8426SOL    MW434025   4.787   2.180   7.165
 8427SOL     OW34026   5.203   3.001   7.251
 8427SOL    HW234027   5.285   3.042   7.281
 8427SOL    HW334028   5.166   2.963   7.331
 8427SOL    MW434029   5.209   3.002   7.266
 8428SOL     OW34030   5.498   2.374   6.235
 8428SOL    HW234031   5.587   2.343   6.252
 8428SOL    HW334032   5.441   2.314   6.283
 8428SOL    MW434033   5.501   2.362   6.244
 8429SOL     OW34034   3.924   2.088   6.264
 8429SOL    HW234035   3.915   2.028   6.190
 8429SOL    HW334036   3.857   2.059   6.327
 8429SOL    MW434037   3.914   2.075   6.262
 8430SOL     OW34038   4.867   3.181   5.825
 8430SOL    HW234039   4.817   3.183   5.907
 8430SOL    HW334040   4.801   3.199   5.757
 8430SOL    MW434041   4.853   3.183   5.827
 8431SOL     OW34042   3.871   2.261   6.627
 8431SOL    HW234043   3.843   2.352   6.636
 8431SOL    HW334044   3.808   2.222   6.566
 8431SOL    MW434045   3.858   2.267   6.621
 8432SOL     OW34046   4.330   3.599   5.933
 8432SOL    HW234047   4.251   3.557   5.966
 8432SOL    HW334048   4.396   3.582   6.000
 8432SOL    MW434049   4.329   3.591   5.946
 8433SOL     OW34050   5.458   3.119   7.330
 8433SOL    HW234051   5.508   3.045   7.362
 8433SOL    HW334052   5.404   3.146   7.405
 8433SOL    MW434053   5.458   3.113   7.343
 8434SOL     OW34054   4.466   3.014   5.640
 8434SOL    HW234055   4.388   2.960   5.627
 8434SOL    HW334056   4.437   3.087   5.693
 8434SOL    MW434057   4.452   3.016   5.645
 8435SOL     OW34058   5.592   2.754   6.832
 8435SOL    HW234059   5.608   2.792   6.745
 8435SOL    HW334060   5.626   2.820   6.893
 8435SOL    MW434061   5.599   2.767   6.828
 8436SOL     OW34062   5.384   3.463   6.501
 8436SOL    HW234063   5.413   3.530   6.562
 8436SOL    HW334064   5.365   3.387   6.556
 8436SOL    MW434065   5.386   3.463   6.516
 8437SOL     OW34066   5.047   3.530   5.708
 8437SOL    HW234067   4.973   3.493   5.758
 8437SOL    HW334068   5.055   3.620   5.741
 8437SOL    MW434069   5.038   3.537   5.720
 8438SOL     OW34070   3.855   2.536   6.797
 8438SOL    HW234071   3.917   2.566   6.863
 8438SOL    HW334072   3.789   2.605   6.791
 8438SOL    MW434073   3.854   2.549   6.804
 8439SOL     OW34074   5.271   3.204   5.650
 8439SOL    HW234075   5.218   3.253   5.586
 8439SOL    HW334076   5.302   3.270   5.711
 8439SOL    MW434077   5.269   3.218   5.648
 8440SOL     OW34078   4.496   2.093   5.705
 8440SOL    HW234079   4.444   2.013   5.693
 8440SOL    HW334080   4.583   2.070   5.673
 8440SOL    MW434081   4.499   2.079   5.699
 8441SOL     OW34082   3.950   3.645   7.249
 8441SOL    HW234083   3.924   3.713   7.187
 8441SOL    HW334084   3.998   3.582   7.197
 8441SOL    MW434085   3.952   3.645   7.235
 8442SOL     OW34086   4.002   2.964   6.756
 8442SOL    HW234087   4.055   3.039   6.781
 8442SOL    HW334088   3.921   3.002   6.722
 8442SOL    MW434089   3.998   2.979   6.756
 8443SOL     OW34090   4.542   2.868   6.744
 8443SOL    HW234091   4.570   2.777   6.756
 8443SOL    HW334092   4.471   2.862   6.680
 8443SOL    MW434093   4.535   2.856   6.739
 8444SOL     OW34094   3.857   2.733   6.162
 8444SOL    HW234095   3.948   2.748   6.189
 8444SOL    HW334096   3.860   2.654   6.108
 8444SOL    MW434097   3.869   2.725   6.160
 8445SOL     OW34098   4.093   2.441   7.416
 8445SOL    HW234099   4.040   2.521   7.423
 8445SOL    HW334100   4.163   2.453   7.481
 8445SOL    MW434101   4.095   2.454   7.424
 8446SOL     OW34102   4.479   1.991   7.123
 8446SOL    HW234103   4.456   1.899   7.125
 8446SOL    HW334104   4.565   1.993   7.080
 8446SOL    MW434105   4.486   1.981   7.119
 8447SOL     OW34106   4.163   2.515   7.162
 8447SOL    HW234107   4.243   2.565   7.148
 8447SOL    HW334108   4.154   2.509   7.257
 8447SOL    MW434109   4.172   2.521   7.172
 8448SOL     OW34110   4.484   3.665   6.536
 8448SOL    HW234111   4.573   3.680   6.566
 8448SOL    HW334112   4.479   3.712   6.452
 8448SOL    MW434113   4.494   3.673   6.529
 8449SOL     OW34114   5.140   2.040   7.433
 8449SOL    HW234115   5.196   1.967   7.459
 8449SOL    HW334116   5.110   2.078   7.515
 8449SOL    MW434117   5.144   2.035   7.446
 8450SOL     OW34118   3.865   3.345   6.201
 8450SOL    HW234119   3.837   3.384   6.283
 8450SOL    HW334120   3.885   3.254   6.223
 8450SOL    MW434121   3.863   3.337   6.214
 8451SOL     OW34122   4.698   3.388   6.236
 8451SOL    HW234123   4.781   3.342   6.220
 8451SOL    HW334124   4.688   3.387   6.332
 8451SOL    MW434125   4.708   3.381   6.246
 8452SOL     OW34126   5.530   2.533   6.550
 8452SOL    HW234127   5.619   2.563   6.532
 8452SOL    HW334128   5.510   2.473   6.479
 8452SOL    MW434129   5.539   2.530   6.539
 8453SOL     OW34130   5.381   2.712   7.430
 8453SOL    HW234131   5.436   2.636   7.411
 8453SOL    HW334132   5.383   2.720   7.525
 8453SOL    MW434133   5.389   2.703   7.438
 8454SOL     OW34134   4.431   3.445   5.641
 8454SOL    HW234135   4.371   3.514   5.611
 8454SOL    HW334136   4.376   3.387   5.694
 8454SOL    MW434137   4.415   3.447   5.643
 8455SOL     OW34138   4.869   2.090   5.864
 8455SOL    HW234139   4.802   2.066   5.801
 8455SOL    HW334140   4.934   2.139   5.813
 8455SOL    MW434141   4.869   2.092   5.849
 8456SOL     OW34142   4.676   2.274   6.949
 8456SOL    HW234143   4.595   2.315   6.977
 8456SOL    HW334144   4.723   2.342   6.901
 8456SOL    MW434145   4.671   2.289   6.947
 8457SOL     OW34146   4.936   2.612   6.572
 8457SOL    HW234147   4.949   2.706   6.582
 8457SOL    HW334148   4.897   2.602   6.486
 8457SOL    MW434149   4.932   2.623   6.562
 8458SOL     OW34150   4.388   2.807   6.376
 8458SOL    HW234151   4.299   2.798   6.409
 8458SOL    HW334152   4.392   2.897   6.344
 8458SOL    MW434153   4.377   2.818   6.376
 8459SOL     OW34154   5.187   2.390   6.371
 8459SOL    HW234155   5.132   2.311   6.370
 8459SOL    HW334156   5.169   2.431   6.455
 8459SOL    MW434157   5.177   2.385   6.380
 8460SOL     OW34158   4.158   2.077   7.188
 8460SOL    HW234159   4.079   2.095   7.240
 8460SOL    HW334160   4.153   2.139   7.115
 8460SOL    MW434161   4.148   2.087   7.185
 8461SOL     OW34162   4.806   2.594   6.328
 8461SOL    HW234163   4.743   2.526   6.352
 8461SOL    HW334164   4.826   2.575   6.236
 8461SOL    MW434165   4.800   2.581   6.320
 8462SOL     OW34166   4.062   3.489   6.030
 8462SOL    HW234167   4.023   3.536   5.956
 8462SOL    HW334168   3.996   3.424   6.055
 8462SOL    MW434169   4.049   3.487   6.024
 8463SOL     OW34170   4.554   2.898   6.054
 8463SOL    HW234171   4.556   2.872   5.961
 8463SOL    HW334172   4.612   2.835   6.097
 8463SOL    MW434173   4.562   2.887   6.048
 8464SOL     OW34174   5.107   3.458   6.826
 8464SOL    HW234175   5.032   3.504   6.864
 8464SOL    HW334176   5.089   3.365   6.843
 8464SOL    MW434177   5.096   3.452   6.834
 8465SOL     OW34178   5.111   3.666   6.256
 8465SOL    HW234179   5.054   3.619   6.195
 8465SOL    HW334180   5.197   3.627   6.243
 8465SOL    MW434181   5.114   3.657   6.246
 8466SOL     OW34182   5.064   2.142   6.387
 8466SOL    HW234183   5.092   2.074   6.448
 8466SOL    HW334184   4.978   2.113   6.357
 8466SOL    MW434185   5.057   2.129   6.391
 8467SOL     OW34186   3.869   3.076   6.321
 8467SOL    HW234187   3.933   3.108   6.384
 8467SOL    HW334188   3.918   3.012   6.269
 8467SOL    MW434189   3.884   3.072   6.322
 8468SOL     OW34190   4.369   3.152   7.303
 8468SOL    HW234191   4.417   3.235   7.290
 8468SOL    HW334192   4.426   3.100   7.359
 8468SOL    MW434193   4.383   3.156   7.309
 8469SOL     OW34194   3.945   3.394   7.443
 8469SOL    HW234195   4.001   3.318   7.458
 8469SOL    HW334196   3.894   3.372   7.365
 8469SOL    MW434197   3.945   3.381   7.434
 8470SOL     OW34198   5.044   2.246   5.722
 8470SOL    HW234199   5.017   2.312   5.658
 8470SOL    HW334200   5.114   2.289   5.772
 8470SOL    MW434201   5.049   2.259   5.719
 8471SOL     OW34202   4.712   1.951   5.659
 8471SOL    HW234203   4.768   1.943   5.581
 8471SOL    HW334204   4.689   1.861   5.681
 8471SOL    MW434205   4.717   1.938   5.652
 8472SOL     OW34206   5.217   2.802   5.864
 8472SOL    HW234207   5.184   2.891   5.854
 8472SOL    HW334208   5.182   2.773   5.949
 8472SOL    MW434209   5.207   2.811   5.875
 8473SOL     OW34210   4.830   3.231   7.052
 8473SOL    HW234211   4.741   3.237   7.020
 8473SOL    HW334212   4.874   3.310   7.020
 8473SOL    MW434213   4.825   3.241   7.044
 8474SOL     OW34214   4.123   1.899   7.394
 8474SOL    HW234215   4.051   1.864   7.342
 8474SOL    HW334216   4.181   1.940   7.329
 8474SOL    MW434217   4.121   1.900   7.379
 8475SOL     OW34218   4.147   3.389   6.693
 8475SOL    HW234219   4.192   3.451   6.750
 8475SOL    HW334220   4.054   3.408   6.706
 8475SOL    MW434221   4.140   3.399   6.700
 8476SOL     OW34222   5.587   2.918   7.047
 8476SOL    HW234223   5.502   2.931   7.006
 8476SOL    HW334224   5.567   2.882   7.134
 8476SOL    MW434225   5.574   2.914   7.052
 8477SOL     OW34226   4.569   3.457   6.801
 8477SOL    HW234227   4.593   3.446   6.710
 8477SOL    HW334228   4.492   3.514   6.799
 8477SOL    MW434229   4.561   3.462   6.790
 8478SOL     OW34230   4.211   2.840   5.656
 8478SOL    HW234231   4.134   2.853   5.712
 8478SOL    HW334232   4.175   2.804   5.575
 8478SOL    MW434233   4.197   2.836   5.653
 8479SOL     OW34234   4.864   2.813   5.899
 8479SOL    HW234235   4.774   2.834   5.874
 8479SOL    HW334236   4.891   2.886   5.955
 8479SOL    MW434237   4.856   2.825   5.902
 8480SOL     OW34238   4.364   3.162   6.591
 8480SOL    HW234239   4.357   3.141   6.685
 8480SOL    HW334240   4.282   3.130   6.554
 8480SOL    MW434241   4.352   3.156   6.598
 8481SOL     OW34242   5.228   2.172   6.993
 8481SOL    HW234243   5.175   2.174   7.073
 8481SOL    HW334244   5.213   2.085   6.956
 8481SOL    MW434245   5.220   2.162   6.998
 8482SOL     OW34246   5.564   2.096   6.866
 8482SOL    HW234247   5.545   2.163   6.801
 8482SOL    HW334248   5.621   2.034   6.821
 8482SOL    MW434249   5.568   2.097   6.852
 8483SOL     OW34250   3.810   3.254   7.254
 8483SOL    HW234251   3.854   3.187   7.200
 8483SOL    HW334252   3.725   3.216   7.274
 8483SOL    MW434253   3.805   3.240   7.250
 8484SOL     OW34254   4.493   1.929   6.306
 8484SOL    HW234255   4.422   1.990   6.288
 8484SOL    HW334256   4.544   1.926   6.225
 8484SOL    MW434257   4.489   1.935   6.293
 8485SOL     OW34258   4.251   3.169   6.055
 8485SOL    HW234259   4.244   3.201   6.145
 8485SOL    HW334260   4.161   3.153   6.027
 8485SOL    MW434261   4.239   3.171   6.062
 8486SOL     OW34262   4.846   3.562   6.964
 8486SOL    HW234263   4.766   3.547   6.914
 8486SOL    HW334264   4.853   3.657   6.971
 8486SOL    MW434265   4.837   3.573   6.958
 8487SOL     OW34266   4.960   3.527   6.454
 8487SOL    HW234267   5.007   3.600   6.413
 8487SOL    HW334268   4.881   3.566   6.490
 8487SOL    MW434269   4.955   3.542   6.453
 8488SOL     OW34270   5.368   3.622   6.729
 8488SOL    HW234271   5.411   3.592   6.809
 8488SOL    HW334272   5.287   3.570   6.726
 8488SOL    MW434273   5.363   3.611   6.739
 8489SOL     OW34274   4.453   2.586   7.436
 8489SOL    HW234275   4.523   2.528   7.408
 8489SOL    HW334276   4.396   2.531   7.491
 8489SOL    MW434277   4.455   2.573   7.440
 8490SOL     OW34278   5.240   2.798   7.069
 8490SOL    HW234279   5.245   2.851   7.149
 8490SOL    HW334280   5.202   2.715   7.097
 8490SOL    MW434281   5.236   2.793   7.084
 8491SOL     OW34282   4.880   1.933   7.315
 8491SOL    HW234283   4.875   1.840   7.296
 8491SOL    HW334284   4.963   1.944   7.361
 8491SOL    MW434285   4.888   1.922   7.319
 8492SOL     OW34286   4.254   2.453   5.769
 8492SOL    HW234287   4.220   2.509   5.839
 8492SOL    HW334288   4.325   2.403   5.809
 8492SOL    MW434289   4.260   2.454   5.783
 8493SOL     OW34290   5.350   3.204   6.591
 8493SOL    HW234291   5.385   3.186   6.504
 8493SOL    HW334292   5.255   3.205   6.578
 8493SOL    MW434293   5.342   3.201   6.578
 8494SOL     OW34294   4.779   2.852   6.960
 8494SOL    HW234295   4.822   2.887   7.038
 8494SOL    HW334296   4.762   2.929   6.906
 8494SOL    MW434297   4.782   2.867   6.963
 8495SOL     OW34298   5.310   2.339   5.833
 8495SOL    HW234299   5.302   2.410   5.770
 8495SOL    HW334300   5.328   2.383   5.916
 8495SOL    MW434301   5.311   2.353   5.835
 8496SOL     OW34302   4.170   1.994   6.262
 8496SOL    HW234303   4.220   2.037   6.193
 8496SOL    HW334304   4.085   2.038   6.262
 8496SOL    MW434305   4.167   2.007   6.253
 8497SOL     OW34306   3.929   3.056   7.122
 8497SOL    HW234307   3.957   3.009   7.200
 8497SOL    HW334308   3.850   3.011   7.093
 8497SOL    MW434309   3.922   3.045   7.128
 8498SOL     OW34310   4.437   2.383   7.089
 8498SOL    HW234311   4.409   2.471   7.113
 8498SOL    HW334312   4.406   2.327   7.160
 8498SOL    MW434313   4.429   2.386   7.101
 8499SOL     OW34314   4.979   2.601   5.808
 8499SOL    HW234315   5.026   2.619   5.727
 8499SOL    HW334316   4.945   2.685   5.836
 8499SOL    MW434317   4.981   2.615   5.801
 8500SOL     OW34318   4.092   2.779   6.302
 8500SOL    HW234319   4.150   2.835   6.250
 8500SOL    HW334320   4.136   2.694   6.304
 8500SOL    MW434321   4.105   2.776   6.295
 8501SOL     OW34322   5.232   2.131   6.139
 8501SOL    HW234323   5.154   2.081   6.164
 8501SOL    HW334324   5.203   2.222   6.139
 8501SOL    MW434325   5.218   2.135   6.142
 8502SOL     OW34326   4.818   2.093   6.298
 8502SOL    HW234327   4.838   2.168   6.242
 8502SOL    HW334328   4.798   2.132   6.383
 8502SOL    MW434329   4.819   2.109   6.302
 8503SOL     OW34330   4.714   3.343   5.630
 8503SOL    HW234331   4.741   3.421   5.582
 8503SOL    HW334332   4.621   3.358   5.649
 8503SOL    MW434333   4.705   3.356   5.626
 8504SOL     OW34334   5.578   2.866   7.317
 8504SOL    HW234335   5.491   2.846   7.353
 8504SOL    HW334336   5.632   2.792   7.342
 8504SOL    MW434337   5.573   2.855   7.325
 8505SOL     OW34338   3.799   3.379   6.474
 8505SOL    HW234339   3.831   3.383   6.565
 8505SOL    HW334340   3.704   3.387   6.482
 8505SOL    MW434341   3.791   3.382   6.487
 8506SOL     OW34342   3.754   2.505   6.021
 8506SOL    HW234343   3.694   2.477   6.091
 8506SOL    HW334344   3.828   2.445   6.027
 8506SOL    MW434345   3.756   2.494   6.030
 8507SOL     OW34346   5.322   3.717   7.455
 8507SOL    HW234347   5.367   3.641   7.420
 8507SOL    HW334348   5.360   3.730   7.542
 8507SOL    MW434349   5.332   3.710   7.461
 8508SOL     OW34350   4.922   3.236   6.181
 8508SOL    HW234351   4.945   3.187   6.259
 8508SOL    HW334352   5.003   3.278   6.153
 8508SOL    MW434353   4.935   3.236   6.188
 8509SOL     OW34354   4.180   2.244   6.910
 8509SOL    HW234355   4.213   2.325   6.950
 8509SOL    HW334356   4.153   2.270   6.822
 8509SOL    MW434357   4.179   2.258   6.904
 8510SOL     OW34358   4.134   2.211   6.646
 8510SOL    HW234359   4.164   2.125   6.617
 8510SOL    HW334360   4.039   2.204   6.649
 8510SOL    MW434361   4.126   2.200   6.644
 8511SOL     OW34362   4.963   2.420   7.337
 8511SOL    HW234363   5.015   2.355   7.290
 8511SOL    HW334364   4.921   2.471   7.267
 8511SOL    MW434365   4.964   2.417   7.320
 8512SOL     OW34366   5.062   2.215   7.198
 8512SOL    HW234367   4.969   2.199   7.185
 8512SOL    HW334368   5.088   2.153   7.266
 8512SOL    MW434369   5.052   2.205   7.205
 8513SOL     OW34370   4.277   1.989   6.537
 8513SOL    HW234371   4.287   1.898   6.563
 8513SOL    HW334372   4.233   1.985   6.452
 8513SOL    MW434373   4.273   1.977   6.529
 8514SOL     OW34374   4.371   3.604   7.083
 8514SOL    HW234375   4.288   3.589   7.128
 8514SOL    HW334376   4.430   3.537   7.118
 8514SOL    MW434377   4.369   3.594   7.093
 8515SOL     OW34378   5.428   2.311   6.708
 8515SOL    HW234379   5.361   2.344   6.768
 8515SOL    HW334380   5.471   2.389   6.674
 8515SOL    MW434381   5.426   2.326   6.712
 8516SOL     OW34382   5.606   3.031   6.678
 8516SOL    HW234383   5.599   2.971   6.603
 8516SOL    HW334384   5.532   3.091   6.667
 8516SOL    MW434385   5.596   3.031   6.667
 8517SOL     OW34386   4.988   2.893   6.596
 8517SOL    HW234387   5.002   2.865   6.687
 8517SOL    HW334388   5.074   2.924   6.568
 8517SOL    MW434389   5.001   2.894   6.605
 8518SOL     OW34390   5.071   2.388   6.875
 8518SOL    HW234391   5.092   2.389   6.782
 8518SOL    HW334392   5.116   2.310   6.908
 8518SOL    MW434393   5.078   2.378   6.867
 8519SOL     OW34394   5.564   2.519   7.417
 8519SOL    HW234395   5.601   2.464   7.486
 8519SOL    HW334396   5.589   2.476   7.335
 8519SOL    MW434397   5.571   2.507   7.416
 8520SOL     OW34398   5.111   2.817   7.468
 8520SOL    HW234399   5.177   2.765   7.422
 8520SOL    HW334400   5.131   2.804   7.561
 8520SOL    MW434401   5.122   2.808   7.475
 8521SOL     OW34402   5.062   1.903   5.817
 8521SOL    HW234403   5.136   1.947   5.860
 8521SOL    HW334404   4.986   1.957   5.839
 8521SOL    MW434405   5.062   1.915   5.825
 8522SOL     OW34406   5.122   2.678   6.095
 8522SOL    HW234407   5.037   2.648   6.065
 8522SOL    HW334408   5.114   2.685   6.190
 8522SOL    MW434409   5.110   2.676   6.104
 8523SOL     OW34410   4.198   3.141   6.826
 8523SOL    HW234411   4.210   3.168   6.917
 8523SOL    HW334412   4.179   3.222   6.779
 8523SOL    MW434413   4.197   3.156   6.831
 8524SOL     OW34414   4.482   2.121   6.649
 8524SOL    HW234415   4.455   2.123   6.740
 8524SOL    HW334416   4.412   2.073   6.604
 8524SOL    MW434417   4.470   2.117   6.656
 8525SOL     OW34418   4.336   3.613   6.811
 8525SOL    HW234419   4.388   3.690   6.788
 8525SOL    HW334420   4.345   3.605   6.906
 8525SOL    MW434421   4.345   3.620   6.822
 8526SOL     OW34422   5.238   3.198   7.043
 8526SOL    HW234423   5.223   3.127   7.106
 8526SOL    HW334424   5.284   3.156   6.971
 8526SOL    MW434425   5.244   3.182   7.043
 8527SOL     OW34426   4.312   2.929   7.160
 8527SOL    HW234427   4.349   2.934   7.072
 8527SOL    HW334428   4.351   3.002   7.207
 8527SOL    MW434429   4.322   2.939   7.155
 8528SOL     OW34430   4.492   2.972   6.972
 8528SOL    HW234431   4.551   2.918   7.025
 8528SOL    HW334432   4.507   2.944   6.882
 8528SOL    MW434433   4.502   2.961   6.968
 8529SOL     OW34434   4.495   2.344   5.821
 8529SOL    HW234435   4.568   2.393   5.784
 8529SOL    HW334436   4.511   2.253   5.795
 8529SOL    MW434437   4.507   2.339   5.814
 8530SOL     OW34438   5.303   3.461   7.144
 8530SOL    HW234439   5.345   3.446   7.229
 8530SOL    HW334440   5.294   3.374   7.106
 8530SOL    MW434441   5.307   3.449   7.151
 8531SOL     OW34442   4.963   1.940   6.735
 8531SOL    HW234443   5.018   1.949   6.657
 8531SOL    HW334444   5.018   1.974   6.806
 8531SOL    MW434445   4.977   1.945   6.734
 8532SOL     OW34446   3.970   2.853   5.919
 8532SOL    HW234447   3.907   2.869   5.848
 8532SOL    HW334448   3.917   2.816   5.990
 8532SOL    MW434449   3.955   2.850   5.919
 8533SOL     OW34450   4.326   3.207   5.778
 8533SOL    HW234451   4.341   3.183   5.870
 8533SOL    HW334452   4.234   3.185   5.762
 8533SOL    MW434453   4.316   3.200   5.788
 8534SOL     OW34454   4.865   3.438   5.930
 8534SOL    HW234455   4.873   3.356   5.881
 8534SOL    HW334456   4.784   3.477   5.897
 8534SOL    MW434457   4.855   3.433   5.920
 8535SOL     OW34458   4.124   3.596   6.499
 8535SOL    HW234459   4.128   3.507   6.534
 8535SOL    HW334460   4.150   3.587   6.408
 8535SOL    MW434461   4.127   3.584   6.491
 8536SOL     OW34462   4.741   3.074   6.742
 8536SOL    HW234463   4.673   3.008   6.758
 8536SOL    HW334464   4.759   3.068   6.649
 8536SOL    MW434465   4.734   3.065   6.733
 8537SOL     OW34466   3.830   3.349   6.993
 8537SOL    HW234467   3.820   3.307   7.079
 8537SOL    HW334468   3.751   3.402   6.983
 8537SOL    MW434469   3.819   3.350   7.004
 8538SOL     OW34470   4.734   2.213   6.563
 8538SOL    HW234471   4.664   2.165   6.608
 8538SOL    HW334472   4.766   2.276   6.627
 8538SOL    MW434473   4.729   2.215   6.577
 8539SOL     OW34474   4.385   2.649   7.183
 8539SOL    HW234475   4.378   2.744   7.171
 8539SOL    HW334476   4.394   2.638   7.278
 8539SOL    MW434477   4.386   2.661   7.193
 8540SOL     OW34478   4.106   3.164   7.441
 8540SOL    HW234479   4.178   3.166   7.378
 8540SOL    HW334480   4.076   3.073   7.440
 8540SOL    MW434481   4.111   3.153   7.433
 8541SOL     OW34482   5.190   1.927   6.908
 8541SOL    HW234483   5.261   1.873   6.872
 8541SOL    HW334484   5.189   1.906   7.001
 8541SOL    MW434485   5.199   1.918   6.916
 8542SOL     OW34486   5.390   3.457   7.392
 8542SOL    HW234487   5.363   3.454   7.483
 8542SOL    HW334488   5.486   3.461   7.395
 8542SOL    MW434489   5.400   3.457   7.404
 8543SOL     OW34490   4.201   2.319   6.376
 8543SOL    HW234491   4.272   2.267   6.339
 8543SOL    HW334492   4.187   2.284   6.463
 8543SOL    MW434493   4.209   2.308   6.383
 8544SOL     OW34494   3.756   3.654   7.448
 8544SOL    HW234495   3.806   3.632   7.370
 8544SOL    HW334496   3.764   3.749   7.456
 8544SOL    MW434497   3.764   3.663   7.439
 8545SOL     OW34498   4.517   3.412   6.452
 8545SOL    HW234499   4.445   3.349   6.465
 8545SOL    HW334500   4.478   3.497   6.470
 8545SOL    MW434501   4.501   3.415   6.455
 8546SOL     OW34502   4.837   2.260   6.100
 8546SOL    HW234503   4.859   2.197   6.032
 8546SOL    HW334504   4.742   2.252   6.111
 8546SOL    MW434505   4.827   2.251   6.092
 8547SOL     OW34506   3.922   1.950   6.032
 8547SOL    HW234507   3.993   1.971   5.971
 8547SOL    HW334508   3.876   1.878   5.990
 8547SOL    MW434509   3.926   1.944   6.018
 8548SOL     OW34510   3.753   2.417   7.175
 8548SOL    HW234511   3.817   2.483   7.150
 8548SOL    HW334512   3.672   2.444   7.132
 8548SOL    MW434513   3.751   2.429   7.167
 8549SOL     OW34514   5.491   3.324   6.132
 8549SOL    HW234515   5.461   3.257   6.193
 8549SOL    HW334516   5.585   3.330   6.146
 8549SOL    MW434517   5.499   3.316   6.142
 8550SOL     OW34518   5.047   3.001   6.062
 8550SOL    HW234519   5.019   3.087   6.095
 8550SOL    HW334520   5.075   3.017   5.972
 8550SOL    MW434521   5.047   3.015   6.054
 8551SOL     OW34522   4.709   1.921   6.115
 8551SOL    HW234523   4.746   1.980   6.180
 8551SOL    HW334524   4.686   1.977   6.041
 8551SOL    MW434525   4.710   1.936   6.114
 8552SOL     OW34526   5.562   2.803   6.537
 8552SOL    HW234527   5.553   2.835   6.448
 8552SOL    HW334528   5.515   2.719   6.537
 8552SOL    MW434529   5.555   2.796   6.527
 8553SOL     OW34530   3.938   2.643   7.116
 8553SOL    HW234531   3.959   2.712   7.054
 8553SOL    HW334532   4.018   2.590   7.121
 8553SOL    MW434533   3.951   2.644   7.110
 8554SOL     OW34534   5.474   2.734   6.238
 8554SOL    HW234535   5.568   2.723   6.226
 8554SOL    HW334536   5.450   2.806   6.179
 8554SOL    MW434537   5.484   2.742   6.229
 8555SOL     OW34538   3.923   2.658   7.383
 8555SOL    HW234539   3.849   2.602   7.409
 8555SOL    HW334540   3.918   2.661   7.288
 8555SOL    MW434541   3.912   2.651   7.373
 8556SOL     OW34542   4.089   1.945   6.833
 8556SOL    HW234543   4.132   2.029   6.853
 8556SOL    HW334544   4.162   1.883   6.826
 8556SOL    MW434545   4.104   1.948   6.834
 8557SOL     OW34546   4.130   2.612   6.011
 8557SOL    HW234547   4.130   2.707   5.996
 8557SOL    HW334548   4.207   2.596   6.065
 8557SOL    MW434549   4.140   2.623   6.016
 8558SOL     OW34550   4.906   2.471   7.075
 8558SOL    HW234551   4.942   2.444   6.991
 8558SOL    HW334552   4.819   2.505   7.054
 8558SOL    MW434553   4.900   2.472   7.062
 8559SOL     OW34554   3.889   2.343   6.300
 8559SOL    HW234555   3.951   2.350   6.373
 8559SOL    HW334556   3.889   2.250   6.277
 8559SOL    MW434557   3.897   2.332   6.307
 8560SOL     OW34558   5.436   3.683   5.832
 8560SOL    HW234559   5.503   3.716   5.772
 8560SOL    HW334560   5.393   3.762   5.866
 8560SOL    MW434561   5.438   3.698   5.828
 8561SOL     OW34562   4.571   2.604   6.784
 8561SOL    HW234563   4.529   2.522   6.760
 8561SOL    HW334564   4.572   2.603   6.880
 8561SOL    MW434565   4.564   2.593   6.793
 8562SOL     OW34566   5.242   3.737   7.183
 8562SOL    HW234567   5.245   3.643   7.166
 8562SOL    HW334568   5.265   3.745   7.275
 8562SOL    MW434569   5.245   3.725   7.193
 8563SOL     OW34570   4.375   2.074   6.889
 8563SOL    HW234571   4.306   2.137   6.910
 8563SOL    HW334572   4.402   2.038   6.974
 8563SOL    MW434573   4.369   2.077   6.902
 8564SOL     OW34574   3.758   2.915   5.758
 8564SOL    HW234575   3.727   2.980   5.821
 8564SOL    HW334576   3.707   2.837   5.777
 8564SOL    MW434577   3.748   2.912   5.768
 8565SOL     OW34578   5.170   1.927   6.506
 8565SOL    HW234579   5.258   1.936   6.543
 8565SOL    HW334580   5.180   1.868   6.432
 8565SOL    MW434581   5.184   1.921   6.500
 8566SOL     OW34582   5.202   2.666   6.350
 8566SOL    HW234583   5.282   2.681   6.299
 8566SOL    HW334584   5.195   2.571   6.356
 8566SOL    MW434585   5.211   2.655   6.345
 8567SOL     OW34586   4.342   3.715   5.700
 8567SOL    HW234587   4.247   3.715   5.692
 8567SOL    HW334588   4.358   3.661   5.778
 8567SOL    MW434589   4.332   3.709   5.709
 8568SOL     OW34590   4.652   2.592   7.047
 8568SOL    HW234591   4.721   2.659   7.044
 8568SOL    HW334592   4.585   2.630   7.103
 8568SOL    MW434593   4.653   2.605   7.054
 8569SOL     OW34594   4.070   2.892   7.295
 8569SOL    HW234595   4.024   2.808   7.297
 8569SOL    HW334596   4.127   2.886   7.219
 8569SOL    MW434597   4.072   2.880   7.287
 8570SOL     OW34598   5.187   2.535   5.615
 8570SOL    HW234599   5.115   2.511   5.557
 8570SOL    HW334600   5.253   2.572   5.557
 8570SOL    MW434601   5.186   2.537   5.600
 8571SOL     OW34602   4.321   3.267   6.296
 8571SOL    HW234603   4.386   3.200   6.317
 8571SOL    HW334604   4.373   3.344   6.273
 8571SOL    MW434605   4.336   3.269   6.295
 8572SOL     OW34606   4.582   2.432   6.426
 8572SOL    HW234607   4.522   2.450   6.498
 8572SOL    HW334608   4.616   2.344   6.445
 8572SOL    MW434609   4.578   2.422   6.439
 8573SOL     OW34610   5.523   1.931   7.095
 8573SOL    HW234611   5.444   1.977   7.123
 8573SOL    HW334612   5.558   1.985   7.024
 8573SOL    MW434613   5.517   1.944   7.089
 8574SOL     OW34614   4.807   3.015   6.445
 8574SOL    HW234615   4.899   2.996   6.463
 8574SOL    HW334616   4.780   2.945   6.385
 8574SOL    MW434617   4.815   3.003   6.439
 8575SOL     OW34618   4.600   2.835   5.800
 8575SOL    HW234619   4.586   2.747   5.765
 8575SOL    HW334620   4.551   2.892   5.741
 8575SOL    MW434621   4.592   2.830   5.788
 8576SOL     OW34622   5.081   3.253   6.541
 8576SOL    HW234623   5.054   3.337   6.506
 8576SOL    HW334624   5.041   3.248   6.628
 8576SOL    MW434625   5.074   3.262   6.547
 8577SOL     OW34626   5.000   3.201   6.809
 8577SOL    HW234627   5.011   3.168   6.898
 8577SOL    HW334628   4.919   3.160   6.778
 8577SOL    MW434629   4.990   3.193   6.815
 8578SOL     OW34630   4.013   2.559   6.579
 8578SOL    HW234631   3.963   2.558   6.660
 8578SOL    HW334632   4.033   2.651   6.563
 8578SOL    MW434633   4.009   2.571   6.587
 8579SOL     OW34634   5.080   3.323   7.341
 8579SOL    HW234635   5.080   3.417   7.357
 8579SOL    HW334636   5.125   3.313   7.257
 8579SOL    MW434637   5.086   3.333   7.332
 8580SOL     OW34638   5.319   2.041   5.902
 8580SOL    HW234639   5.312   2.045   5.997
 8580SOL    HW334640   5.331   2.132   5.875
 8580SOL    MW434641   5.320   2.054   5.910
 8581SOL     OW34642   4.608   2.604   6.016
 8581SOL    HW234643   4.588   2.590   5.923
 8581SOL    HW334644   4.701   2.583   6.023
 8581SOL    MW434645   4.618   2.599   6.005
 8582SOL     OW34646   3.935   2.227   7.320
 8582SOL    HW234647   3.892   2.286   7.257
 8582SOL    HW334648   4.003   2.282   7.360
 8582SOL    MW434649   3.939   2.242   7.317
 8583SOL     OW34650   5.047   2.847   6.865
 8583SOL    HW234651   5.110   2.844   6.938
 8583SOL    HW334652   4.963   2.865   6.907
 8583SOL    MW434653   5.043   2.849   6.880
 8584SOL     OW34654   4.591   3.562   6.054
 8584SOL    HW234655   4.649   3.633   6.081
 8584SOL    HW334656   4.614   3.490   6.112
 8584SOL    MW434657   4.602   3.562   6.065
 8585SOL     OW34658   5.386   2.024   6.644
 8585SOL    HW234659   5.431   1.942   6.663
 8585SOL    HW334660   5.406   2.080   6.720
 8585SOL    MW434661   5.396   2.020   6.656
 8586SOL     OW34662   3.834   1.867   6.743
 8586SOL    HW234663   3.825   1.868   6.648
 8586SOL    HW334664   3.928   1.879   6.758
 8586SOL    MW434665   3.846   1.870   6.734
 8587SOL     OW34666   5.471   3.060   6.363
 8587SOL    HW234667   5.450   3.006   6.286
 8587SOL    HW334668   5.567   3.058   6.367
 8587SOL    MW434669   5.480   3.053   6.352
 8588SOL     OW34670   4.163   3.205   7.106
 8588SOL    HW234671   4.084   3.155   7.129
 8588SOL    HW334672   4.233   3.164   7.156
 8588SOL    MW434673   4.161   3.193   7.116
 8589SOL     OW34674   4.047   1.994   5.789
 8589SOL    HW234675   3.976   2.049   5.757
 8589SOL    HW334676   4.089   1.960   5.710
 8589SOL    MW434677   4.043   1.996   5.775
 8590SOL     OW34678   5.171   2.491   6.625
 8590SOL    HW234679   5.094   2.537   6.591
 8590SOL    HW334680   5.228   2.560   6.659
 8590SOL    MW434681   5.168   2.506   6.625
 8591SOL     OW34682   3.803   2.093   5.638
 8591SOL    HW234683   3.770   2.172   5.682
 8591SOL    HW334684   3.858   2.126   5.567
 8591SOL    MW434685   3.806   2.107   5.635
 8592SOL     OW34686   3.837   3.350   5.827
 8592SOL    HW234687   3.854   3.434   5.869
 8592SOL    HW334688   3.872   3.359   5.739
 8592SOL    MW434689   3.842   3.363   5.821
 8593SOL     OW34690   5.109   3.439   6.044
 8593SOL    HW234691   5.172   3.429   5.973
 8593SOL    HW334692   5.026   3.459   5.999
 8593SOL    MW434693   5.106   3.440   6.029
 8594SOL     OW34694   5.472   4.575   0.257
 8594SOL    HW234695   5.513   4.517   0.322
 8594SOL    HW334696   5.379   4.567   0.274
 8594SOL    MW434697   5.466   4.567   0.267
 8595SOL     OW34698   5.338   4.507   1.252
 8595SOL    HW234699   5.293   4.574   1.303
 8595SOL    HW334700   5.426   4.543   1.238
 8595SOL    MW434701   5.344   4.520   1.256
 8596SOL     OW34702   4.266   4.758   0.486
 8596SOL    HW234703   4.356   4.733   0.470
 8596SOL    HW334704   4.262   4.851   0.463
 8596SOL    MW434705   4.278   4.767   0.481
 8597SOL     OW34706   5.382   5.461   0.628
 8597SOL    HW234707   5.394   5.407   0.706
 8597SOL    HW334708   5.419   5.409   0.557
 8597SOL    MW434709   5.388   5.446   0.629
 8598SOL     OW34710   4.761   5.346   1.629
 8598SOL    HW234711   4.802   5.382   1.550
 8598SOL    HW334712   4.796   5.257   1.636
 8598SOL    MW434713   4.772   5.339   1.620
 8599SOL     OW34714   5.318   4.901   1.233
 8599SOL    HW234715   5.239   4.866   1.191
 8599SOL    HW334716   5.345   4.973   1.177
 8599SOL    MW434717   5.311   4.906   1.220
 8600SOL     OW34718   4.550   4.214   0.499
 8600SOL    HW234719   4.525   4.302   0.527
 8600SOL    HW334720   4.547   4.217   0.403
 8600SOL    MW434721   4.546   4.226   0.491
 8601SOL     OW34722   3.992   4.242   0.427
 8601SOL    HW234723   4.024   4.330   0.409
 8601SOL    HW334724   3.980   4.240   0.522
 8601SOL    MW434725   3.995   4.254   0.439
 8602SOL     OW34726   4.070   4.655   1.328
 8602SOL    HW234727   4.133   4.602   1.279
 8602SOL    HW334728   4.051   4.729   1.271
 8602SOL    MW434729   4.076   4.657   1.315
 8603SOL     OW34730   4.391   3.997   0.514
 8603SOL    HW234731   4.449   4.073   0.516
 8603SOL    HW334732   4.326   4.018   0.447
 8603SOL    MW434733   4.390   4.009   0.505
 8604SOL     OW34734   4.478   4.924   0.689
 8604SOL    HW234735   4.558   4.927   0.741
 8604SOL    HW334736   4.506   4.891   0.603
 8604SOL    MW434737   4.492   4.920   0.684
 8605SOL     OW34738   4.503   5.265   1.592
 8605SOL    HW234739   4.587   5.291   1.631
 8605SOL    HW334740   4.527   5.209   1.518
 8605SOL    MW434741   4.517   5.261   1.587
 8606SOL     OW34742   4.255   4.428   0.680
 8606SOL    HW234743   4.240   4.348   0.731
 8606SOL    HW334744   4.337   4.463   0.714
 8606SOL    MW434745   4.263   4.420   0.692
 8607SOL     OW34746   4.592   5.114   1.365
 8607SOL    HW234747   4.556   5.180   1.305
 8607SOL    HW334748   4.520   5.052   1.378
 8607SOL    MW434749   4.578   5.114   1.359
 8608SOL     OW34750   4.397   4.254   1.057
 8608SOL    HW234751   4.303   4.250   1.075
 8608SOL    HW334752   4.427   4.163   1.066
 8608SOL    MW434753   4.388   4.242   1.060
 8609SOL     OW34754   4.143   4.668   0.961
 8609SOL    HW234755   4.098   4.675   0.877
 8609SOL    HW334756   4.123   4.751   1.005
 8609SOL    MW434757   4.135   4.680   0.955
 8610SOL     OW34758   3.840   5.514   0.836
 8610SOL    HW234759   3.929   5.506   0.871
 8610SOL    HW334760   3.804   5.426   0.841
 8610SOL    MW434761   3.847   5.501   0.841
 8611SOL     OW34762   5.105   4.906   0.205
 8611SOL    HW234763   5.023   4.942   0.171
 8611SOL    HW334764   5.173   4.949   0.154
 8611SOL    MW434765   5.103   4.916   0.193
 8612SOL     OW34766   4.104   5.041   0.871
 8612SOL    HW234767   4.080   5.094   0.947
 8612SOL    HW334768   4.160   5.099   0.819
 8612SOL    MW434769   4.108   5.056   0.874
 8613SOL     OW34770   4.666   4.685   0.681
 8613SOL    HW234771   4.580   4.672   0.721
 8613SOL    HW334772   4.719   4.612   0.713
 8613SOL    MW434773   4.662   4.674   0.690
 8614SOL     OW34774   4.074   5.337   1.466
 8614SOL    HW234775   3.982   5.313   1.451
 8614SOL    HW334776   4.118   5.254   1.483
 8614SOL    MW434777   4.068   5.322   1.465
 8615SOL     OW34778   4.657   5.047   0.398
 8615SOL    HW234779   4.634   5.109   0.466
 8615SOL    HW334780   4.614   4.965   0.424
 8615SOL    MW434781   4.649   5.043   0.409
 8616SOL     OW34782   5.530   4.048   0.854
 8616SOL    HW234783   5.467   4.028   0.923
 8616SOL    HW334784   5.520   3.977   0.791
 8616SOL    MW434785   5.520   4.035   0.855
 8617SOL     OW34786   4.154   4.020   0.366
 8617SOL    HW234787   4.128   3.982   0.282
 8617SOL    HW334788   4.091   4.090   0.382
 8617SOL    MW434789   4.143   4.023   0.357
 8618SOL     OW34790   3.989   4.981   0.403
 8618SOL    HW234791   3.937   5.049   0.359
 8618SOL    HW334792   3.986   4.907   0.343
 8618SOL    MW434793   3.981   4.980   0.390
 8619SOL     OW34794   4.651   5.444   0.181
 8619SOL    HW234795   4.606   5.460   0.264
 8619SOL    HW334796   4.582   5.409   0.123
 8619SOL    MW434797   4.637   5.441   0.183
 8620SOL     OW34798   5.586   4.217   0.156
 8620SOL    HW234799   5.495   4.219   0.184
 8620SOL    HW334800   5.631   4.279   0.214
 8620SOL    MW434801   5.579   4.225   0.166
 8621SOL     OW34802   5.331   4.820   0.506
 8621SOL    HW234803   5.241   4.820   0.541
 8621SOL    HW334804   5.324   4.866   0.423
 8621SOL    MW434805   5.318   4.826   0.500
 8622SOL     OW34806   5.131   4.455   1.578
 8622SOL    HW234807   5.200   4.393   1.555
 8622SOL    HW334808   5.056   4.429   1.525
 8622SOL    MW434809   5.131   4.442   1.569
 8623SOL     OW34810   3.872   5.335   1.130
 8623SOL    HW234811   3.855   5.281   1.207
 8623SOL    HW334812   3.860   5.425   1.160
 8623SOL    MW434813   3.869   5.339   1.144
 8624SOL     OW34814   4.867   4.842   1.570
 8624SOL    HW234815   4.852   4.935   1.555
 8624SOL    HW334816   4.962   4.832   1.570
 8624SOL    MW434817   4.876   4.852   1.567
 8625SOL     OW34818   4.663   4.266   1.771
 8625SOL    HW234819   4.753   4.267   1.738
 8625SOL    HW334820   4.622   4.191   1.729
 8625SOL    MW434821   4.669   4.256   1.762
 8626SOL     OW34822   5.238   4.798   0.898
 8626SOL    HW234823   5.241   4.732   0.829
 8626SOL    HW334824   5.323   4.841   0.894
 8626SOL    MW434825   5.250   4.794   0.889
 8627SOL     OW34826   4.858   4.401   0.467
 8627SOL    HW234827   4.884   4.425   0.378
 8627SOL    HW334828   4.840   4.308   0.463
 8627SOL    MW434829   4.860   4.393   0.454
 8628SOL     OW34830   5.523   5.021   0.318
 8628SOL    HW234831   5.479   5.062   0.393
 8628SOL    HW334832   5.580   5.089   0.283
 8628SOL    MW434833   5.525   5.035   0.323
 8629SOL     OW34834   4.443   4.070   1.721
 8629SOL    HW234835   4.453   3.996   1.661
 8629SOL    HW334836   4.479   4.039   1.804
 8629SOL    MW434837   4.449   4.056   1.723
 8630SOL     OW34838   4.179   5.437   0.636
 8630SOL    HW234839   4.211   5.525   0.614
 8630SOL    HW334840   4.132   5.409   0.558
 8630SOL    MW434841   4.178   5.445   0.623
 8631SOL     OW34842   5.563   3.799   0.685
 8631SOL    HW234843   5.617   3.750   0.747
 8631SOL    HW334844   5.506   3.733   0.646
 8631SOL    MW434845   5.563   3.783   0.687
 8632SOL     OW34846   3.895   5.497   0.213
 8632SOL    HW234847   3.924   5.587   0.205
 8632SOL    HW334848   3.845   5.480   0.134
 8632SOL    MW434849   3.893   5.505   0.202
 8633SOL     OW34850   4.682   3.752   1.098
 8633SOL    HW234851   4.641   3.830   1.060
 8633SOL    HW334852   4.776   3.770   1.093
 8633SOL    MW434853   4.688   3.764   1.093
 8634SOL     OW34854   5.299   5.305   0.184
 8634SOL    HW234855   5.347   5.374   0.230
 8634SOL    HW334856   5.220   5.349   0.153
 8634SOL    MW434857   5.294   5.319   0.187
 8635SOL     OW34858   4.697   4.430   0.128
 8635SOL    HW234859   4.699   4.377   0.049
 8635SOL    HW334860   4.785   4.467   0.134
 8635SOL    MW434861   4.709   4.429   0.117
 8636SOL     OW34862   5.311   4.356   0.464
 8636SOL    HW234863   5.350   4.356   0.551
 8636SOL    HW334864   5.252   4.432   0.464
 8636SOL    MW434865   5.308   4.367   0.475
 8637SOL     OW34866   4.628   4.723   1.593
 8637SOL    HW234867   4.605   4.703   1.683
 8637SOL    HW334868   4.713   4.767   1.598
 8637SOL    MW434869   4.635   4.726   1.605
 8638SOL     OW34870   4.708   3.860   1.353
 8638SOL    HW234871   4.714   3.822   1.266
 8638SOL    HW334872   4.697   3.954   1.338
 8638SOL    MW434873   4.709   3.868   1.341
 8639SOL     OW34874   4.797   4.349   1.187
 8639SOL    HW234875   4.872   4.378   1.134
 8639SOL    HW334876   4.729   4.414   1.171
 8639SOL    MW434877   4.798   4.361   1.177
 8640SOL     OW34878   5.347   4.317   1.464
 8640SOL    HW234879   5.328   4.226   1.443
 8640SOL    HW334880   5.325   4.366   1.385
 8640SOL    MW434881   5.342   4.310   1.451
 8641SOL     OW34882   5.489   5.411   1.368
 8641SOL    HW234883   5.417   5.373   1.419
 8641SOL    HW334884   5.506   5.496   1.409
 8641SOL    MW434885   5.483   5.416   1.380
 8642SOL     OW34886   4.794   4.055   1.570
 8642SOL    HW234887   4.760   4.094   1.489
 8642SOL    HW334888   4.772   3.963   1.563
 8642SOL    MW434889   4.787   4.048   1.560
 8643SOL     OW34890   5.203   4.869   1.646
 8643SOL    HW234891   5.285   4.910   1.676
 8643SOL    HW334892   5.166   4.831   1.726
 8643SOL    MW434893   5.209   4.870   1.661
 8644SOL     OW34894   5.498   4.242   0.630
 8644SOL    HW234895   5.587   4.211   0.647
 8644SOL    HW334896   5.441   4.182   0.678
 8644SOL    MW434897   5.501   4.230   0.639
 8645SOL     OW34898   3.924   3.956   0.659
 8645SOL    HW234899   3.915   3.896   0.585
 8645SOL    HW334900   3.857   3.927   0.722
 8645SOL    MW434901   3.914   3.943   0.657
 8646SOL     OW34902   4.867   5.049   0.220
 8646SOL    HW234903   4.817   5.051   0.302
 8646SOL    HW334904   4.801   5.067   0.152
 8646SOL    MW434905   4.853   5.051   0.222
 8647SOL     OW34906   3.871   4.129   1.022
 8647SOL    HW234907   3.843   4.220   1.031
 8647SOL    HW334908   3.808   4.090   0.961
 8647SOL    MW434909   3.858   4.135   1.016
 8648SOL     OW34910   4.330   5.467   0.328
 8648SOL    HW234911   4.251   5.425   0.361
 8648SOL    HW334912   4.396   5.450   0.395
 8648SOL    MW434913   4.329   5.459   0.341
 8649SOL     OW34914   5.458   4.987   1.725
 8649SOL    HW234915   5.508   4.913   1.757
 8649SOL    HW334916   5.404   5.014   1.800
 8649SOL    MW434917   5.458   4.981   1.738
 8650SOL     OW34918   4.466   4.882   0.035
 8650SOL    HW234919   4.388   4.828   0.022
 8650SOL    HW334920   4.437   4.955   0.088
 8650SOL    MW434921   4.452   4.884   0.040
 8651SOL     OW34922   5.592   4.622   1.227
 8651SOL    HW234923   5.608   4.660   1.140
 8651SOL    HW334924   5.626   4.688   1.288
 8651SOL    MW434925   5.599   4.635   1.223
 8652SOL     OW34926   5.384   5.331   0.896
 8652SOL    HW234927   5.413   5.398   0.957
 8652SOL    HW334928   5.365   5.255   0.951
 8652SOL    MW434929   5.386   5.331   0.911
 8653SOL     OW34930   5.047   5.398   0.103
 8653SOL    HW234931   4.973   5.361   0.153
 8653SOL    HW334932   5.055   5.488   0.136
 8653SOL    MW434933   5.038   5.405   0.115
 8654SOL     OW34934   3.855   4.404   1.192
 8654SOL    HW234935   3.917   4.434   1.258
 8654SOL    HW334936   3.789   4.473   1.186
 8654SOL    MW434937   3.854   4.417   1.199
 8655SOL     OW34938   5.271   5.072   0.045
 8655SOL    HW234939   5.218   5.121  -0.019
 8655SOL    HW334940   5.302   5.138   0.106
 8655SOL    MW434941   5.269   5.086   0.043
 8656SOL     OW34942   4.496   3.961   0.100
 8656SOL    HW234943   4.444   3.881   0.088
 8656SOL    HW334944   4.583   3.938   0.068
 8656SOL    MW434945   4.499   3.947   0.094
 8657SOL     OW34946   3.950   5.513   1.644
 8657SOL    HW234947   3.924   5.581   1.582
 8657SOL    HW334948   3.998   5.450   1.592
 8657SOL    MW434949   3.952   5.513   1.630
 8658SOL     OW34950   4.002   4.832   1.151
 8658SOL    HW234951   4.055   4.907   1.176
 8658SOL    HW334952   3.921   4.870   1.117
 8658SOL    MW434953   3.998   4.847   1.151
 8659SOL     OW34954   4.542   4.736   1.139
 8659SOL    HW234955   4.570   4.645   1.151
 8659SOL    HW334956   4.471   4.730   1.075
 8659SOL    MW434957   4.535   4.724   1.134
 8660SOL     OW34958   3.857   4.601   0.557
 8660SOL    HW234959   3.948   4.616   0.584
 8660SOL    HW334960   3.860   4.522   0.503
 8660SOL    MW434961   3.869   4.593   0.555
 8661SOL     OW34962   4.093   4.309   1.811
 8661SOL    HW234963   4.040   4.389   1.818
 8661SOL    HW334964   4.163   4.321   1.876
 8661SOL    MW434965   4.095   4.322   1.819
 8662SOL     OW34966   4.479   3.859   1.518
 8662SOL    HW234967   4.456   3.767   1.520
 8662SOL    HW334968   4.565   3.861   1.475
 8662SOL    MW434969   4.486   3.849   1.514
 8663SOL     OW34970   4.163   4.383   1.557
 8663SOL    HW234971   4.243   4.433   1.543
 8663SOL    HW334972   4.154   4.377   1.652
 8663SOL    MW434973   4.172   4.389   1.567
 8664SOL     OW34974   4.484   5.533   0.931
 8664SOL    HW234975   4.573   5.548   0.961
 8664SOL    HW334976   4.479   5.580   0.847
 8664SOL    MW434977   4.494   5.541   0.924
 8665SOL     OW34978   5.140   3.908   1.828
 8665SOL    HW234979   5.196   3.835   1.854
 8665SOL    HW334980   5.110   3.946   1.910
 8665SOL    MW434981   5.144   3.903   1.841
 8666SOL     OW34982   3.865   5.213   0.596
 8666SOL    HW234983   3.837   5.252   0.678
 8666SOL    HW334984   3.885   5.122   0.618
 8666SOL    MW434985   3.863   5.205   0.609
 8667SOL     OW34986   4.698   5.256   0.631
 8667SOL    HW234987   4.781   5.210   0.615
 8667SOL    HW334988   4.688   5.255   0.727
 8667SOL    MW434989   4.708   5.249   0.641
 8668SOL     OW34990   5.530   4.401   0.945
 8668SOL    HW234991   5.619   4.431   0.927
 8668SOL    HW334992   5.510   4.341   0.874
 8668SOL    MW434993   5.539   4.398   0.934
 8669SOL     OW34994   5.381   4.580   1.825
 8669SOL    HW234995   5.436   4.504   1.806
 8669SOL    HW334996   5.383   4.588   1.920
 8669SOL    MW434997   5.389   4.571   1.833
 8670SOL     OW34998   4.431   5.313   0.036
 8670SOL    HW234999   4.371   5.382   0.006
 8670SOL    HW335000   4.376   5.255   0.089
 8670SOL    MW435001   4.415   5.315   0.038
 8671SOL     OW35002   4.869   3.958   0.259
 8671SOL    HW235003   4.802   3.934   0.196
 8671SOL    HW335004   4.934   4.007   0.208
 8671SOL    MW435005   4.869   3.960   0.244
 8672SOL     OW35006   4.676   4.142   1.344
 8672SOL    HW235007   4.595   4.183   1.372
 8672SOL    HW335008   4.723   4.210   1.296
 8672SOL    MW435009   4.671   4.157   1.342
 8673SOL     OW35010   4.936   4.480   0.967
 8673SOL    HW235011   4.949   4.574   0.977
 8673SOL    HW335012   4.897   4.470   0.881
 8673SOL    MW435013   4.932   4.491   0.957
 8674SOL     OW35014   4.388   4.675   0.771
 8674SOL    HW235015   4.299   4.666   0.804
 8674SOL    HW335016   4.392   4.765   0.739
 8674SOL    MW435017   4.377   4.686   0.771
 8675SOL     OW35018   5.187   4.258   0.766
 8675SOL    HW235019   5.132   4.179   0.765
 8675SOL    HW335020   5.169   4.299   0.850
 8675SOL    MW435021   5.177   4.253   0.775
 8676SOL     OW35022   4.158   3.945   1.583
 8676SOL    HW235023   4.079   3.963   1.635
 8676SOL    HW335024   4.153   4.007   1.510
 8676SOL    MW435025   4.148   3.955   1.580
 8677SOL     OW35026   4.806   4.462   0.723
 8677SOL    HW235027   4.743   4.394   0.747
 8677SOL    HW335028   4.826   4.443   0.631
 8677SOL    MW435029   4.800   4.449   0.715
 8678SOL     OW35030   4.062   5.357   0.425
 8678SOL    HW235031   4.023   5.404   0.351
 8678SOL    HW335032   3.996   5.292   0.450
 8678SOL    MW435033   4.049   5.355   0.419
 8679SOL     OW35034   4.554   4.766   0.449
 8679SOL    HW235035   4.556   4.740   0.356
 8679SOL    HW335036   4.612   4.703   0.492
 8679SOL    MW435037   4.562   4.755   0.443
 8680SOL     OW35038   5.107   5.326   1.221
 8680SOL    HW235039   5.032   5.372   1.259
 8680SOL    HW335040   5.089   5.233   1.238
 8680SOL    MW435041   5.096   5.320   1.229
 8681SOL     OW35042   5.111   5.534   0.651
 8681SOL    HW235043   5.054   5.487   0.590
 8681SOL    HW335044   5.197   5.495   0.638
 8681SOL    MW435045   5.114   5.525   0.641
 8682SOL     OW35046   5.064   4.010   0.782
 8682SOL    HW235047   5.092   3.942   0.843
 8682SOL    HW335048   4.978   3.981   0.752
 8682SOL    MW435049   5.057   3.997   0.786
 8683SOL     OW35050   3.869   4.944   0.716
 8683SOL    HW235051   3.933   4.976   0.779
 8683SOL    HW335052   3.918   4.880   0.664
 8683SOL    MW435053   3.884   4.940   0.717
 8684SOL     OW35054   4.369   5.020   1.698
 8684SOL    HW235055   4.417   5.103   1.685
 8684SOL    HW335056   4.426   4.968   1.754
 8684SOL    MW435057   4.383   5.024   1.704
 8685SOL     OW35058   3.945   5.262   1.838
 8685SOL    HW235059   4.001   5.186   1.853
 8685SOL    HW335060   3.894   5.240   1.760
 8685SOL    MW435061   3.945   5.249   1.829
 8686SOL     OW35062   5.044   4.114   0.117
 8686SOL    HW235063   5.017   4.180   0.053
 8686SOL    HW335064   5.114   4.157   0.167
 8686SOL    MW435065   5.049   4.127   0.114
 8687SOL     OW35066   4.712   3.819   0.054
 8687SOL    HW235067   4.768   3.811  -0.024
 8687SOL    HW335068   4.689   3.729   0.076
 8687SOL    MW435069   4.717   3.806   0.047
 8688SOL     OW35070   5.217   4.670   0.259
 8688SOL    HW235071   5.184   4.759   0.249
 8688SOL    HW335072   5.182   4.641   0.344
 8688SOL    MW435073   5.207   4.679   0.270
 8689SOL     OW35074   4.830   5.099   1.447
 8689SOL    HW235075   4.741   5.105   1.415
 8689SOL    HW335076   4.874   5.178   1.415
 8689SOL    MW435077   4.825   5.109   1.439
 8690SOL     OW35078   4.123   3.767   1.789
 8690SOL    HW235079   4.051   3.732   1.737
 8690SOL    HW335080   4.181   3.808   1.724
 8690SOL    MW435081   4.121   3.768   1.774
 8691SOL     OW35082   4.147   5.257   1.088
 8691SOL    HW235083   4.192   5.319   1.145
 8691SOL    HW335084   4.054   5.276   1.101
 8691SOL    MW435085   4.140   5.267   1.095
 8692SOL     OW35086   5.587   4.786   1.442
 8692SOL    HW235087   5.502   4.799   1.401
 8692SOL    HW335088   5.567   4.750   1.529
 8692SOL    MW435089   5.574   4.782   1.447
 8693SOL     OW35090   4.569   5.325   1.196
 8693SOL    HW235091   4.593   5.314   1.105
 8693SOL    HW335092   4.492   5.382   1.194
 8693SOL    MW435093   4.561   5.330   1.185
 8694SOL     OW35094   4.211   4.708   0.051
 8694SOL    HW235095   4.134   4.721   0.107
 8694SOL    HW335096   4.175   4.672  -0.030
 8694SOL    MW435097   4.197   4.704   0.048
 8695SOL     OW35098   4.864   4.681   0.294
 8695SOL    HW235099   4.774   4.702   0.269
 8695SOL    HW335100   4.891   4.754   0.350
 8695SOL    MW435101   4.856   4.693   0.297
 8696SOL     OW35102   4.364   5.030   0.986
 8696SOL    HW235103   4.357   5.009   1.080
 8696SOL    HW335104   4.282   4.998   0.949
 8696SOL    MW435105   4.352   5.024   0.993
 8697SOL     OW35106   5.228   4.040   1.388
 8697SOL    HW235107   5.175   4.042   1.468
 8697SOL    HW335108   5.213   3.953   1.351
 8697SOL    MW435109   5.220   4.030   1.393
 8698SOL     OW35110   5.564   3.964   1.261
 8698SOL    HW235111   5.545   4.031   1.196
 8698SOL    HW335112   5.621   3.902   1.216
 8698SOL    MW435113   5.568   3.965   1.247
 8699SOL     OW35114   3.810   5.122   1.649
 8699SOL    HW235115   3.854   5.055   1.595
 8699SOL    HW335116   3.725   5.084   1.669
 8699SOL    MW435117   3.805   5.108   1.645
 8700SOL     OW35118   4.493   3.797   0.701
 8700SOL    HW235119   4.422   3.858   0.683
 8700SOL    HW335120   4.544   3.794   0.620
 8700SOL    MW435121   4.489   3.803   0.688
 8701SOL     OW35122   4.251   5.037   0.450
 8701SOL    HW235123   4.244   5.069   0.540
 8701SOL    HW335124   4.161   5.021   0.422
 8701SOL    MW435125   4.239   5.039   0.457
 8702SOL     OW35126   4.846   5.430   1.359
 8702SOL    HW235127   4.766   5.415   1.309
 8702SOL    HW335128   4.853   5.525   1.366
 8702SOL    MW435129   4.837   5.441   1.353
 8703SOL     OW35130   4.960   5.395   0.849
 8703SOL    HW235131   5.007   5.468   0.808
 8703SOL    HW335132   4.881   5.434   0.885
 8703SOL    MW435133   4.955   5.410   0.848
 8704SOL     OW35134   5.368   5.490   1.124
 8704SOL    HW235135   5.411   5.460   1.204
 8704SOL    HW335136   5.287   5.438   1.121
 8704SOL    MW435137   5.363   5.479   1.134
 8705SOL     OW35138   4.453   4.454   1.831
 8705SOL    HW235139   4.523   4.396   1.803
 8705SOL    HW335140   4.396   4.399   1.886
 8705SOL    MW435141   4.455   4.441   1.835
 8706SOL     OW35142   4.880   3.801   1.710
 8706SOL    HW235143   4.875   3.708   1.691
 8706SOL    HW335144   4.963   3.812   1.756
 8706SOL    MW435145   4.888   3.790   1.714
 8707SOL     OW35146   4.254   4.321   0.164
 8707SOL    HW235147   4.220   4.377   0.234
 8707SOL    HW335148   4.325   4.271   0.204
 8707SOL    MW435149   4.260   4.322   0.178
 8708SOL     OW35150   5.350   5.072   0.986
 8708SOL    HW235151   5.385   5.054   0.899
 8708SOL    HW335152   5.255   5.073   0.973
 8708SOL    MW435153   5.342   5.069   0.973
 8709SOL     OW35154   4.779   4.720   1.355
 8709SOL    HW235155   4.822   4.755   1.433
 8709SOL    HW335156   4.762   4.797   1.301
 8709SOL    MW435157   4.782   4.735   1.358
 8710SOL     OW35158   5.310   4.207   0.228
 8710SOL    HW235159   5.302   4.278   0.165
 8710SOL    HW335160   5.328   4.251   0.311
 8710SOL    MW435161   5.311   4.221   0.230
 8711SOL     OW35162   4.170   3.862   0.657
 8711SOL    HW235163   4.220   3.905   0.588
 8711SOL    HW335164   4.085   3.906   0.657
 8711SOL    MW435165   4.167   3.875   0.648
 8712SOL     OW35166   3.929   4.924   1.517
 8712SOL    HW235167   3.957   4.877   1.595
 8712SOL    HW335168   3.850   4.879   1.488
 8712SOL    MW435169   3.922   4.913   1.523
 8713SOL     OW35170   4.437   4.251   1.484
 8713SOL    HW235171   4.409   4.339   1.508
 8713SOL    HW335172   4.406   4.195   1.555
 8713SOL    MW435173   4.429   4.254   1.496
 8714SOL     OW35174   4.979   4.469   0.203
 8714SOL    HW235175   5.026   4.487   0.122
 8714SOL    HW335176   4.945   4.553   0.231
 8714SOL    MW435177   4.981   4.483   0.196
 8715SOL     OW35178   4.092   4.647   0.697
 8715SOL    HW235179   4.150   4.703   0.645
 8715SOL    HW335180   4.136   4.562   0.699
 8715SOL    MW435181   4.105   4.644   0.690
 8716SOL     OW35182   5.232   3.999   0.534
 8716SOL    HW235183   5.154   3.949   0.559
 8716SOL    HW335184   5.203   4.090   0.534
 8716SOL    MW435185   5.218   4.003   0.537
 8717SOL     OW35186   4.818   3.961   0.693
 8717SOL    HW235187   4.838   4.036   0.637
 8717SOL    HW335188   4.798   4.000   0.778
 8717SOL    MW435189   4.819   3.977   0.697
 8718SOL     OW35190   4.714   5.211   0.025
 8718SOL    HW235191   4.741   5.289  -0.023
 8718SOL    HW335192   4.621   5.226   0.044
 8718SOL    MW435193   4.705   5.224   0.021
 8719SOL     OW35194   5.578   4.734   1.712
 8719SOL    HW235195   5.491   4.714   1.748
 8719SOL    HW335196   5.632   4.660   1.737
 8719SOL    MW435197   5.573   4.723   1.720
 8720SOL     OW35198   3.799   5.247   0.869
 8720SOL    HW235199   3.831   5.251   0.960
 8720SOL    HW335200   3.704   5.255   0.877
 8720SOL    MW435201   3.791   5.250   0.882
 8721SOL     OW35202   3.754   4.373   0.416
 8721SOL    HW235203   3.694   4.345   0.486
 8721SOL    HW335204   3.828   4.313   0.422
 8721SOL    MW435205   3.756   4.362   0.425
 8722SOL     OW35206   5.322   5.585   1.850
 8722SOL    HW235207   5.367   5.509   1.815
 8722SOL    HW335208   5.360   5.598   1.937
 8722SOL    MW435209   5.332   5.578   1.856
 8723SOL     OW35210   4.922   5.104   0.576
 8723SOL    HW235211   4.945   5.055   0.654
 8723SOL    HW335212   5.003   5.146   0.548
 8723SOL    MW435213   4.935   5.104   0.583
 8724SOL     OW35214   4.180   4.112   1.305
 8724SOL    HW235215   4.213   4.193   1.345
 8724SOL    HW335216   4.153   4.138   1.217
 8724SOL    MW435217   4.179   4.126   1.299
 8725SOL     OW35218   4.134   4.079   1.041
 8725SOL    HW235219   4.164   3.993   1.012
 8725SOL    HW335220   4.039   4.072   1.044
 8725SOL    MW435221   4.126   4.068   1.039
 8726SOL     OW35222   4.963   4.288   1.732
 8726SOL    HW235223   5.015   4.223   1.685
 8726SOL    HW335224   4.921   4.339   1.662
 8726SOL    MW435225   4.964   4.285   1.715
 8727SOL     OW35226   5.062   4.083   1.593
 8727SOL    HW235227   4.969   4.067   1.580
 8727SOL    HW335228   5.088   4.021   1.661
 8727SOL    MW435229   5.052   4.073   1.600
 8728SOL     OW35230   4.277   3.857   0.932
 8728SOL    HW235231   4.287   3.766   0.958
 8728SOL    HW335232   4.233   3.853   0.847
 8728SOL    MW435233   4.273   3.845   0.924
 8729SOL     OW35234   4.371   5.472   1.478
 8729SOL    HW235235   4.288   5.457   1.523
 8729SOL    HW335236   4.430   5.405   1.513
 8729SOL    MW435237   4.369   5.462   1.488
 8730SOL     OW35238   5.428   4.179   1.103
 8730SOL    HW235239   5.361   4.212   1.163
 8730SOL    HW335240   5.471   4.257   1.069
 8730SOL    MW435241   5.426   4.194   1.107
 8731SOL     OW35242   5.606   4.899   1.073
 8731SOL    HW235243   5.599   4.839   0.998
 8731SOL    HW335244   5.532   4.959   1.062
 8731SOL    MW435245   5.596   4.899   1.062
 8732SOL     OW35246   4.988   4.761   0.991
 8732SOL    HW235247   5.002   4.733   1.082
 8732SOL    HW335248   5.074   4.792   0.963
 8732SOL    MW435249   5.001   4.762   1.000
 8733SOL     OW35250   5.071   4.256   1.270
 8733SOL    HW235251   5.092   4.257   1.177
 8733SOL    HW335252   5.116   4.178   1.303
 8733SOL    MW435253   5.078   4.246   1.262
 8734SOL     OW35254   5.564   4.387   1.812
 8734SOL    HW235255   5.601   4.332   1.881
 8734SOL    HW335256   5.589   4.344   1.730
 8734SOL    MW435257   5.571   4.375   1.811
 8735SOL     OW35258   5.111   4.685   1.863
 8735SOL    HW235259   5.177   4.633   1.817
 8735SOL    HW335260   5.131   4.672   1.956
 8735SOL    MW435261   5.122   4.676   1.870
 8736SOL     OW35262   5.062   3.771   0.212
 8736SOL    HW235263   5.136   3.815   0.255
 8736SOL    HW335264   4.986   3.825   0.234
 8736SOL    MW435265   5.062   3.783   0.220
 8737SOL     OW35266   5.122   4.546   0.490
 8737SOL    HW235267   5.037   4.516   0.460
 8737SOL    HW335268   5.114   4.553   0.585
 8737SOL    MW435269   5.110   4.544   0.499
 8738SOL     OW35270   4.198   5.009   1.221
 8738SOL    HW235271   4.210   5.036   1.312
 8738SOL    HW335272   4.179   5.090   1.174
 8738SOL    MW435273   4.197   5.024   1.226
 8739SOL     OW35274   4.482   3.989   1.044
 8739SOL    HW235275   4.455   3.991   1.135
 8739SOL    HW335276   4.412   3.941   0.999
 8739SOL    MW435277   4.470   3.985   1.051
 8740SOL     OW35278   4.336   5.481   1.206
 8740SOL    HW235279   4.388   5.558   1.183
 8740SOL    HW335280   4.345   5.473   1.301
 8740SOL    MW435281   4.345   5.488   1.217
 8741SOL     OW35282   5.238   5.066   1.438
 8741SOL    HW235283   5.223   4.995   1.501
 8741SOL    HW335284   5.284   5.024   1.366
 8741SOL    MW435285   5.244   5.050   1.438
 8742SOL     OW35286   4.312   4.797   1.555
 8742SOL    HW235287   4.349   4.802   1.467
 8742SOL    HW335288   4.351   4.870   1.602
 8742SOL    MW435289   4.322   4.807   1.550
 8743SOL     OW35290   4.492   4.840   1.367
 8743SOL    HW235291   4.551   4.786   1.420
 8743SOL    HW335292   4.507   4.812   1.277
 8743SOL    MW435293   4.502   4.829   1.363
 8744SOL     OW35294   4.495   4.212   0.216
 8744SOL    HW235295   4.568   4.261   0.179
 8744SOL    HW335296   4.511   4.121   0.190
 8744SOL    MW435297   4.507   4.207   0.209
 8745SOL     OW35298   5.303   5.329   1.539
 8745SOL    HW235299   5.345   5.314   1.624
 8745SOL    HW335300   5.294   5.242   1.501
 8745SOL    MW435301   5.307   5.317   1.546
 8746SOL     OW35302   4.963   3.808   1.130
 8746SOL    HW235303   5.018   3.817   1.052
 8746SOL    HW335304   5.018   3.842   1.201
 8746SOL    MW435305   4.977   3.813   1.129
 8747SOL     OW35306   3.970   4.721   0.314
 8747SOL    HW235307   3.907   4.737   0.243
 8747SOL    HW335308   3.917   4.684   0.385
 8747SOL    MW435309   3.955   4.718   0.314
 8748SOL     OW35310   4.326   5.075   0.173
 8748SOL    HW235311   4.341   5.051   0.265
 8748SOL    HW335312   4.234   5.053   0.157
 8748SOL    MW435313   4.316   5.068   0.183
 8749SOL     OW35314   4.865   5.306   0.325
 8749SOL    HW235315   4.873   5.224   0.276
 8749SOL    HW335316   4.784   5.345   0.292
 8749SOL    MW435317   4.855   5.301   0.315
 8750SOL     OW35318   4.124   5.464   0.894
 8750SOL    HW235319   4.128   5.375   0.929
 8750SOL    HW335320   4.150   5.455   0.803
 8750SOL    MW435321   4.127   5.452   0.886
 8751SOL     OW35322   4.741   4.942   1.137
 8751SOL    HW235323   4.673   4.876   1.153
 8751SOL    HW335324   4.759   4.936   1.044
 8751SOL    MW435325   4.734   4.933   1.128
 8752SOL     OW35326   3.830   5.217   1.388
 8752SOL    HW235327   3.820   5.175   1.474
 8752SOL    HW335328   3.751   5.270   1.378
 8752SOL    MW435329   3.819   5.218   1.399
 8753SOL     OW35330   4.734   4.081   0.958
 8753SOL    HW235331   4.664   4.033   1.003
 8753SOL    HW335332   4.766   4.144   1.022
 8753SOL    MW435333   4.729   4.083   0.972
 8754SOL     OW35334   4.385   4.517   1.578
 8754SOL    HW235335   4.378   4.612   1.566
 8754SOL    HW335336   4.394   4.506   1.673
 8754SOL    MW435337   4.386   4.529   1.588
 8755SOL     OW35338   4.106   5.032   1.836
 8755SOL    HW235339   4.178   5.034   1.773
 8755SOL    HW335340   4.076   4.941   1.835
 8755SOL    MW435341   4.111   5.021   1.828
 8756SOL     OW35342   5.190   3.795   1.303
 8756SOL    HW235343   5.261   3.741   1.267
 8756SOL    HW335344   5.189   3.774   1.396
 8756SOL    MW435345   5.199   3.786   1.311
 8757SOL     OW35346   5.390   5.325   1.787
 8757SOL    HW235347   5.363   5.322   1.878
 8757SOL    HW335348   5.486   5.329   1.790
 8757SOL    MW435349   5.400   5.325   1.799
 8758SOL     OW35350   4.201   4.187   0.771
 8758SOL    HW235351   4.272   4.135   0.734
 8758SOL    HW335352   4.187   4.152   0.858
 8758SOL    MW435353   4.209   4.176   0.778
 8759SOL     OW35354   3.756   5.522   1.843
 8759SOL    HW235355   3.806   5.500   1.765
 8759SOL    HW335356   3.764   5.617   1.851
 8759SOL    MW435357   3.764   5.531   1.834
 8760SOL     OW35358   4.517   5.280   0.847
 8760SOL    HW235359   4.445   5.217   0.860
 8760SOL    HW335360   4.478   5.365   0.865
 8760SOL    MW435361   4.501   5.283   0.850
 8761SOL     OW35362   4.837   4.128   0.495
 8761SOL    HW235363   4.859   4.065   0.427
 8761SOL    HW335364   4.742   4.120   0.506
 8761SOL    MW435365   4.827   4.119   0.487
 8762SOL     OW35366   3.922   3.818   0.427
 8762SOL    HW235367   3.993   3.839   0.366
 8762SOL    HW335368   3.876   3.746   0.385
 8762SOL    MW435369   3.926   3.812   0.413
 8763SOL     OW35370   3.753   4.285   1.570
 8763SOL    HW235371   3.817   4.351   1.545
 8763SOL    HW335372   3.672   4.312   1.527
 8763SOL    MW435373   3.751   4.297   1.562
 8764SOL     OW35374   5.491   5.192   0.527
 8764SOL    HW235375   5.461   5.125   0.588
 8764SOL    HW335376   5.585   5.198   0.541
 8764SOL    MW435377   5.499   5.184   0.537
 8765SOL     OW35378   5.047   4.869   0.457
 8765SOL    HW235379   5.019   4.955   0.490
 8765SOL    HW335380   5.075   4.885   0.367
 8765SOL    MW435381   5.047   4.883   0.449
 8766SOL     OW35382   4.709   3.789   0.510
 8766SOL    HW235383   4.746   3.848   0.575
 8766SOL    HW335384   4.686   3.845   0.436
 8766SOL    MW435385   4.710   3.804   0.509
 8767SOL     OW35386   5.562   4.671   0.932
 8767SOL    HW235387   5.553   4.703   0.843
 8767SOL    HW335388   5.515   4.587   0.932
 8767SOL    MW435389   5.555   4.664   0.922
 8768SOL     OW35390   3.938   4.511   1.511
 8768SOL    HW235391   3.959   4.580   1.449
 8768SOL    HW335392   4.018   4.458   1.516
 8768SOL    MW435393   3.951   4.512   1.505
 8769SOL     OW35394   5.474   4.602   0.633
 8769SOL    HW235395   5.568   4.591   0.621
 8769SOL    HW335396   5.450   4.674   0.574
 8769SOL    MW435397   5.484   4.610   0.624
 8770SOL     OW35398   3.923   4.526   1.778
 8770SOL    HW235399   3.849   4.470   1.804
 8770SOL    HW335400   3.918   4.529   1.683
 8770SOL    MW435401   3.912   4.519   1.768
 8771SOL     OW35402   4.089   3.813   1.228
 8771SOL    HW235403   4.132   3.897   1.248
 8771SOL    HW335404   4.162   3.751   1.221
 8771SOL    MW435405   4.104   3.816   1.229
 8772SOL     OW35406   4.130   4.480   0.406
 8772SOL    HW235407   4.130   4.575   0.391
 8772SOL    HW335408   4.207   4.464   0.460
 8772SOL    MW435409   4.140   4.491   0.411
 8773SOL     OW35410   4.906   4.339   1.470
 8773SOL    HW235411   4.942   4.312   1.386
 8773SOL    HW335412   4.819   4.373   1.449
 8773SOL    MW435413   4.900   4.340   1.457
 8774SOL     OW35414   3.889   4.211   0.695
 8774SOL    HW235415   3.951   4.218   0.768
 8774SOL    HW335416   3.889   4.118   0.672
 8774SOL    MW435417   3.897   4.200   0.702
 8775SOL     OW35418   5.436   5.551   0.227
 8775SOL    HW235419   5.503   5.584   0.167
 8775SOL    HW335420   5.393   5.630   0.261
 8775SOL    MW435421   5.438   5.566   0.223
 8776SOL     OW35422   4.571   4.472   1.179
 8776SOL    HW235423   4.529   4.390   1.155
 8776SOL    HW335424   4.572   4.471   1.275
 8776SOL    MW435425   4.564   4.461   1.188
 8777SOL     OW35426   5.242   5.605   1.578
 8777SOL    HW235427   5.245   5.511   1.561
 8777SOL    HW335428   5.265   5.613   1.670
 8777SOL    MW435429   5.245   5.593   1.588
 8778SOL     OW35430   4.375   3.942   1.284
 8778SOL    HW235431   4.306   4.005   1.305
 8778SOL    HW335432   4.402   3.906   1.369
 8778SOL    MW435433   4.369   3.945   1.297
 8779SOL     OW35434   3.758   4.783   0.153
 8779SOL    HW235435   3.727   4.848   0.216
 8779SOL    HW335436   3.707   4.705   0.172
 8779SOL    MW435437   3.748   4.780   0.163
 8780SOL     OW35438   5.170   3.795   0.901
 8780SOL    HW235439   5.258   3.804   0.938
 8780SOL    HW335440   5.180   3.736   0.827
 8780SOL    MW435441   5.184   3.789   0.895
 8781SOL     OW35442   5.202   4.534   0.745
 8781SOL    HW235443   5.282   4.549   0.694
 8781SOL    HW335444   5.195   4.439   0.751
 8781SOL    MW435445   5.211   4.523   0.740
 8782SOL     OW35446   4.342   5.583   0.095
 8782SOL    HW235447   4.247   5.583   0.087
 8782SOL    HW335448   4.358   5.529   0.173
 8782SOL    MW435449   4.332   5.577   0.104
 8783SOL     OW35450   4.652   4.460   1.442
 8783SOL    HW235451   4.721   4.527   1.439
 8783SOL    HW335452   4.585   4.498   1.498
 8783SOL    MW435453   4.653   4.473   1.449
 8784SOL     OW35454   4.070   4.760   1.690
 8784SOL    HW235455   4.024   4.676   1.692
 8784SOL    HW335456   4.127   4.754   1.614
 8784SOL    MW435457   4.072   4.748   1.682
 8785SOL     OW35458   5.187   4.403   0.011
 8785SOL    HW235459   5.115   4.379  -0.047
 8785SOL    HW335460   5.253   4.440  -0.047
 8785SOL    MW435461   5.186   4.405  -0.004
 8786SOL     OW35462   4.321   5.135   0.691
 8786SOL    HW235463   4.386   5.068   0.712
 8786SOL    HW335464   4.373   5.212   0.668
 8786SOL    MW435465   4.336   5.137   0.690
 8787SOL     OW35466   4.582   4.300   0.821
 8787SOL    HW235467   4.522   4.318   0.893
 8787SOL    HW335468   4.616   4.212   0.840
 8787SOL    MW435469   4.578   4.290   0.834
 8788SOL     OW35470   5.523   3.799   1.490
 8788SOL    HW235471   5.444   3.845   1.518
 8788SOL    HW335472   5.558   3.853   1.419
 8788SOL    MW435473   5.517   3.812   1.484
 8789SOL     OW35474   4.807   4.883   0.840
 8789SOL    HW235475   4.899   4.864   0.858
 8789SOL    HW335476   4.780   4.813   0.780
 8789SOL    MW435477   4.815   4.871   0.834
 8790SOL     OW35478   4.600   4.703   0.195
 8790SOL    HW235479   4.586   4.615   0.160
 8790SOL    HW335480   4.551   4.760   0.136
 8790SOL    MW435481   4.592   4.698   0.183
 8791SOL     OW35482   5.081   5.121   0.936
 8791SOL    HW235483   5.054   5.205   0.901
 8791SOL    HW335484   5.041   5.116   1.023
 8791SOL    MW435485   5.074   5.130   0.942
 8792SOL     OW35486   5.000   5.069   1.204
 8792SOL    HW235487   5.011   5.036   1.293
 8792SOL    HW335488   4.919   5.028   1.173
 8792SOL    MW435489   4.990   5.061   1.210
 8793SOL     OW35490   4.013   4.427   0.974
 8793SOL    HW235491   3.963   4.426   1.055
 8793SOL    HW335492   4.033   4.519   0.958
 8793SOL    MW435493   4.009   4.439   0.982
 8794SOL     OW35494   5.080   5.191   1.736
 8794SOL    HW235495   5.080   5.285   1.752
 8794SOL    HW335496   5.125   5.181   1.652
 8794SOL    MW435497   5.086   5.201   1.727
 8795SOL     OW35498   5.319   3.909   0.297
 8795SOL    HW235499   5.312   3.913   0.392
 8795SOL    HW335500   5.331   4.000   0.270
 8795SOL    MW435501   5.320   3.922   0.305
 8796SOL     OW35502   4.608   4.472   0.411
 8796SOL    HW235503   4.588   4.458   0.318
 8796SOL    HW335504   4.701   4.451   0.418
 8796SOL    MW435505   4.618   4.467   0.400
 8797SOL     OW35506   3.935   4.095   1.715
 8797SOL    HW235507   3.892   4.154   1.652
 8797SOL    HW335508   4.003   4.150   1.755
 8797SOL    MW435509   3.939   4.110   1.712
 8798SOL     OW35510   5.047   4.715   1.260
 8798SOL    HW235511   5.110   4.712   1.333
 8798SOL    HW335512   4.963   4.733   1.302
 8798SOL    MW435513   5.043   4.717   1.275
 8799SOL     OW35514   4.591   5.430   0.449
 8799SOL    HW235515   4.649   5.501   0.476
 8799SOL    HW335516   4.614   5.358   0.507
 8799SOL    MW435517   4.602   5.430   0.460
 8800SOL     OW35518   5.386   3.892   1.039
 8800SOL    HW235519   5.431   3.810   1.058
 8800SOL    HW335520   5.406   3.948   1.115
 8800SOL    MW435521   5.396   3.888   1.051
 8801SOL     OW35522   3.834   3.735   1.138
 8801SOL    HW235523   3.825   3.736   1.043
 8801SOL    HW335524   3.928   3.747   1.153
 8801SOL    MW435525   3.846   3.738   1.129
 8802SOL     OW35526   5.471   4.928   0.758
 8802SOL    HW235527   5.450   4.874   0.681
 8802SOL    HW335528   5.567   4.926   0.762
 8802SOL    MW435529   5.480   4.921   0.747
 8803SOL     OW35530   4.163   5.073   1.501
 8803SOL    HW235531   4.084   5.023   1.524
 8803SOL    HW335532   4.233   5.032   1.551
 8803SOL    MW435533   4.161   5.061   1.511
 8804SOL     OW35534   4.047   3.862   0.184
 8804SOL    HW235535   3.976   3.917   0.152
 8804SOL    HW335536   4.089   3.828   0.105
 8804SOL    MW435537   4.043   3.864   0.170
 8805SOL     OW35538   5.171   4.359   1.020
 8805SOL    HW235539   5.094   4.405   0.986
 8805SOL    HW335540   5.228   4.428   1.054
 8805SOL    MW435541   5.168   4.374   1.020
 8806SOL     OW35542   3.803   3.961   0.033
 8806SOL    HW235543   3.770   4.040   0.077
 8806SOL    HW335544   3.858   3.994  -0.038
 8806SOL    MW435545   3.806   3.975   0.030
 8807SOL     OW35546   3.837   5.218   0.222
 8807SOL    HW235547   3.854   5.302   0.264
 8807SOL    HW335548   3.872   5.227   0.134
 8807SOL    MW435549   3.842   5.231   0.216
 8808SOL     OW35550   5.109   5.307   0.439
 8808SOL    HW235551   5.172   5.297   0.368
 8808SOL    HW335552   5.026   5.327   0.394
 8808SOL    MW435553   5.106   5.308   0.424
 8809SOL     OW35554   5.472   4.575   2.125
 8809SOL    HW235555   5.513   4.517   2.190
 8809SOL    HW335556   5.379   4.567   2.142
 8809SOL    MW435557   5.466   4.567   2.135
 8810SOL     OW35558   5.338   4.507   3.120
 8810SOL    HW235559   5.293   4.574   3.171
 8810SOL    HW335560   5.426   4.543   3.106
 8810SOL    MW435561   5.344   4.520   3.124
 8811SOL     OW35562   4.266   4.758   2.354
 8811SOL    HW235563   4.356   4.733   2.338
 8811SOL    HW335564   4.262   4.851   2.331
 8811SOL    MW435565   4.278   4.767   2.349
 8812SOL     OW35566   5.382   5.461   2.496
 8812SOL    HW235567   5.394   5.407   2.574
 8812SOL    HW335568   5.419   5.409   2.425
 8812SOL    MW435569   5.388   5.446   2.497
 8813SOL     OW35570   4.761   5.346   3.497
 8813SOL    HW235571   4.802   5.382   3.418
 8813SOL    HW335572   4.796   5.257   3.504
 8813SOL    MW435573   4.772   5.339   3.488
 8814SOL     OW35574   5.318   4.901   3.101
 8814SOL    HW235575   5.239   4.866   3.059
 8814SOL    HW335576   5.345   4.973   3.045
 8814SOL    MW435577   5.311   4.906   3.088
 8815SOL     OW35578   4.550   4.214   2.367
 8815SOL    HW235579   4.525   4.302   2.395
 8815SOL    HW335580   4.547   4.217   2.271
 8815SOL    MW435581   4.546   4.226   2.359
 8816SOL     OW35582   3.992   4.242   2.295
 8816SOL    HW235583   4.024   4.330   2.277
 8816SOL    HW335584   3.980   4.240   2.390
 8816SOL    MW435585   3.995   4.254   2.307
 8817SOL     OW35586   4.070   4.655   3.196
 8817SOL    HW235587   4.133   4.602   3.147
 8817SOL    HW335588   4.051   4.729   3.139
 8817SOL    MW435589   4.076   4.657   3.183
 8818SOL     OW35590   4.391   3.997   2.382
 8818SOL    HW235591   4.449   4.073   2.384
 8818SOL    HW335592   4.326   4.018   2.315
 8818SOL    MW435593   4.390   4.009   2.373
 8819SOL     OW35594   4.478   4.924   2.557
 8819SOL    HW235595   4.558   4.927   2.609
 8819SOL    HW335596   4.506   4.891   2.471
 8819SOL    MW435597   4.492   4.920   2.552
 8820SOL     OW35598   4.503   5.265   3.460
 8820SOL    HW235599   4.587   5.291   3.499
 8820SOL    HW335600   4.527   5.209   3.386
 8820SOL    MW435601   4.517   5.261   3.455
 8821SOL     OW35602   4.255   4.428   2.548
 8821SOL    HW235603   4.240   4.348   2.599
 8821SOL    HW335604   4.337   4.463   2.582
 8821SOL    MW435605   4.263   4.420   2.560
 8822SOL     OW35606   4.592   5.114   3.233
 8822SOL    HW235607   4.556   5.180   3.173
 8822SOL    HW335608   4.520   5.052   3.246
 8822SOL    MW435609   4.578   5.114   3.227
 8823SOL     OW35610   4.397   4.254   2.925
 8823SOL    HW235611   4.303   4.250   2.943
 8823SOL    HW335612   4.427   4.163   2.934
 8823SOL    MW435613   4.388   4.242   2.928
 8824SOL     OW35614   4.143   4.668   2.829
 8824SOL    HW235615   4.098   4.675   2.745
 8824SOL    HW335616   4.123   4.751   2.873
 8824SOL    MW435617   4.135   4.680   2.823
 8825SOL     OW35618   3.840   5.514   2.704
 8825SOL    HW235619   3.929   5.506   2.739
 8825SOL    HW335620   3.804   5.426   2.709
 8825SOL    MW435621   3.847   5.501   2.709
 8826SOL     OW35622   5.105   4.906   2.073
 8826SOL    HW235623   5.023   4.942   2.039
 8826SOL    HW335624   5.173   4.949   2.022
 8826SOL    MW435625   5.103   4.916   2.061
 8827SOL     OW35626   4.104   5.041   2.739
 8827SOL    HW235627   4.080   5.094   2.815
 8827SOL    HW335628   4.160   5.099   2.687
 8827SOL    MW435629   4.108   5.056   2.742
 8828SOL     OW35630   4.666   4.685   2.549
 8828SOL    HW235631   4.580   4.672   2.589
 8828SOL    HW335632   4.719   4.612   2.581
 8828SOL    MW435633   4.662   4.674   2.558
 8829SOL     OW35634   4.074   5.337   3.334
 8829SOL    HW235635   3.982   5.313   3.319
 8829SOL    HW335636   4.118   5.254   3.351
 8829SOL    MW435637   4.068   5.322   3.333
 8830SOL     OW35638   4.657   5.047   2.266
 8830SOL    HW235639   4.634   5.109   2.334
 8830SOL    HW335640   4.614   4.965   2.292
 8830SOL    MW435641   4.649   5.043   2.277
 8831SOL     OW35642   5.530   4.048   2.722
 8831SOL    HW235643   5.467   4.028   2.791
 8831SOL    HW335644   5.520   3.977   2.659
 8831SOL    MW435645   5.520   4.035   2.723
 8832SOL     OW35646   4.154   4.020   2.234
 8832SOL    HW235647   4.128   3.982   2.150
 8832SOL    HW335648   4.091   4.090   2.250
 8832SOL    MW435649   4.143   4.023   2.225
 8833SOL     OW35650   3.989   4.981   2.271
 8833SOL    HW235651   3.937   5.049   2.227
 8833SOL    HW335652   3.986   4.907   2.211
 8833SOL    MW435653   3.981   4.980   2.258
 8834SOL     OW35654   4.651   5.444   2.049
 8834SOL    HW235655   4.606   5.460   2.132
 8834SOL    HW335656   4.582   5.409   1.991
 8834SOL    MW435657   4.637   5.441   2.051
 8835SOL     OW35658   5.586   4.217   2.024
 8835SOL    HW235659   5.495   4.219   2.052
 8835SOL    HW335660   5.631   4.279   2.082
 8835SOL    MW435661   5.579   4.225   2.034
 8836SOL     OW35662   5.331   4.820   2.374
 8836SOL    HW235663   5.241   4.820   2.409
 8836SOL    HW335664   5.324   4.866   2.291
 8836SOL    MW435665   5.318   4.826   2.368
 8837SOL     OW35666   5.131   4.455   3.446
 8837SOL    HW235667   5.200   4.393   3.423
 8837SOL    HW335668   5.056   4.429   3.393
 8837SOL    MW435669   5.131   4.442   3.437
 8838SOL     OW35670   3.872   5.335   2.998
 8838SOL    HW235671   3.855   5.281   3.075
 8838SOL    HW335672   3.860   5.425   3.028
 8838SOL    MW435673   3.869   5.339   3.012
 8839SOL     OW35674   4.867   4.842   3.438
 8839SOL    HW235675   4.852   4.935   3.423
 8839SOL    HW335676   4.962   4.832   3.438
 8839SOL    MW435677   4.876   4.852   3.435
 8840SOL     OW35678   4.663   4.266   3.639
 8840SOL    HW235679   4.753   4.267   3.606
 8840SOL    HW335680   4.622   4.191   3.597
 8840SOL    MW435681   4.669   4.256   3.630
 8841SOL     OW35682   5.238   4.798   2.766
 8841SOL    HW235683   5.241   4.732   2.697
 8841SOL    HW335684   5.323   4.841   2.762
 8841SOL    MW435685   5.250   4.794   2.757
 8842SOL     OW35686   4.858   4.401   2.335
 8842SOL    HW235687   4.884   4.425   2.246
 8842SOL    HW335688   4.840   4.308   2.331
 8842SOL    MW435689   4.860   4.393   2.322
 8843SOL     OW35690   5.523   5.021   2.186
 8843SOL    HW235691   5.479   5.062   2.261
 8843SOL    HW335692   5.580   5.089   2.151
 8843SOL    MW435693   5.525   5.035   2.191
 8844SOL     OW35694   4.443   4.070   3.589
 8844SOL    HW235695   4.453   3.996   3.529
 8844SOL    HW335696   4.479   4.039   3.672
 8844SOL    MW435697   4.449   4.056   3.591
 8845SOL     OW35698   4.179   5.437   2.504
 8845SOL    HW235699   4.211   5.525   2.482
 8845SOL    HW335700   4.132   5.409   2.426
 8845SOL    MW435701   4.178   5.445   2.491
 8846SOL     OW35702   5.563   3.799   2.553
 8846SOL    HW235703   5.617   3.750   2.615
 8846SOL    HW335704   5.506   3.733   2.514
 8846SOL    MW435705   5.563   3.783   2.555
 8847SOL     OW35706   3.895   5.497   2.081
 8847SOL    HW235707   3.924   5.587   2.073
 8847SOL    HW335708   3.845   5.480   2.002
 8847SOL    MW435709   3.893   5.505   2.070
 8848SOL     OW35710   4.682   3.752   2.966
 8848SOL    HW235711   4.641   3.830   2.928
 8848SOL    HW335712   4.776   3.770   2.961
 8848SOL    MW435713   4.688   3.764   2.961
 8849SOL     OW35714   5.299   5.305   2.052
 8849SOL    HW235715   5.347   5.374   2.098
 8849SOL    HW335716   5.220   5.349   2.021
 8849SOL    MW435717   5.294   5.319   2.055
 8850SOL     OW35718   4.697   4.430   1.996
 8850SOL    HW235719   4.699   4.377   1.917
 8850SOL    HW335720   4.785   4.467   2.002
 8850SOL    MW435721   4.709   4.429   1.985
 8851SOL     OW35722   5.311   4.356   2.332
 8851SOL    HW235723   5.350   4.356   2.419
 8851SOL    HW335724   5.252   4.432   2.332
 8851SOL    MW435725   5.308   4.367   2.343
 8852SOL     OW35726   4.628   4.723   3.461
 8852SOL    HW235727   4.605   4.703   3.551
 8852SOL    HW335728   4.713   4.767   3.466
 8852SOL    MW435729   4.635   4.726   3.473
 8853SOL     OW35730   4.708   3.860   3.221
 8853SOL    HW235731   4.714   3.822   3.134
 8853SOL    HW335732   4.697   3.954   3.206
 8853SOL    MW435733   4.709   3.868   3.209
 8854SOL     OW35734   4.797   4.349   3.055
 8854SOL    HW235735   4.872   4.378   3.002
 8854SOL    HW335736   4.729   4.414   3.039
 8854SOL    MW435737   4.798   4.361   3.045
 8855SOL     OW35738   5.347   4.317   3.332
 8855SOL    HW235739   5.328   4.226   3.311
 8855SOL    HW335740   5.325   4.366   3.253
 8855SOL    MW435741   5.342   4.310   3.319
 8856SOL     OW35742   5.489   5.411   3.236
 8856SOL    HW235743   5.417   5.373   3.287
 8856SOL    HW335744   5.506   5.496   3.277
 8856SOL    MW435745   5.483   5.416   3.248
 8857SOL     OW35746   4.794   4.055   3.438
 8857SOL    HW235747   4.760   4.094   3.357
 8857SOL    HW335748   4.772   3.963   3.431
 8857SOL    MW435749   4.787   4.048   3.428
 8858SOL     OW35750   5.203   4.869   3.514
 8858SOL    HW235751   5.285   4.910   3.544
 8858SOL    HW335752   5.166   4.831   3.594
 8858SOL    MW435753   5.209   4.870   3.529
 8859SOL     OW35754   5.498   4.242   2.498
 8859SOL    HW235755   5.587   4.211   2.515
 8859SOL    HW335756   5.441   4.182   2.546
 8859SOL    MW435757   5.501   4.230   2.507
 8860SOL     OW35758   3.924   3.956   2.527
 8860SOL    HW235759   3.915   3.896   2.453
 8860SOL    HW335760   3.857   3.927   2.590
 8860SOL    MW435761   3.914   3.943   2.525
 8861SOL     OW35762   4.867   5.049   2.088
 8861SOL    HW235763   4.817   5.051   2.170
 8861SOL    HW335764   4.801   5.067   2.020
 8861SOL    MW435765   4.853   5.051   2.090
 8862SOL     OW35766   3.871   4.129   2.890
 8862SOL    HW235767   3.843   4.220   2.899
 8862SOL    HW335768   3.808   4.090   2.829
 8862SOL    MW435769   3.858   4.135   2.884
 8863SOL     OW35770   4.330   5.467   2.196
 8863SOL    HW235771   4.251   5.425   2.229
 8863SOL    HW335772   4.396   5.450   2.263
 8863SOL    MW435773   4.329   5.459   2.209
 8864SOL     OW35774   5.458   4.987   3.593
 8864SOL    HW235775   5.508   4.913   3.625
 8864SOL    HW335776   5.404   5.014   3.668
 8864SOL    MW435777   5.458   4.981   3.606
 8865SOL     OW35778   4.466   4.882   1.903
 8865SOL    HW235779   4.388   4.828   1.890
 8865SOL    HW335780   4.437   4.955   1.956
 8865SOL    MW435781   4.452   4.884   1.908
 8866SOL     OW35782   5.592   4.622   3.095
 8866SOL    HW235783   5.608   4.660   3.008
 8866SOL    HW335784   5.626   4.688   3.156
 8866SOL    MW435785   5.599   4.635   3.091
 8867SOL     OW35786   5.384   5.331   2.764
 8867SOL    HW235787   5.413   5.398   2.825
 8867SOL    HW335788   5.365   5.255   2.819
 8867SOL    MW435789   5.386   5.331   2.779
 8868SOL     OW35790   5.047   5.398   1.971
 8868SOL    HW235791   4.973   5.361   2.021
 8868SOL    HW335792   5.055   5.488   2.004
 8868SOL    MW435793   5.038   5.405   1.983
 8869SOL     OW35794   3.855   4.404   3.060
 8869SOL    HW235795   3.917   4.434   3.126
 8869SOL    HW335796   3.789   4.473   3.054
 8869SOL    MW435797   3.854   4.417   3.067
 8870SOL     OW35798   5.271   5.072   1.913
 8870SOL    HW235799   5.218   5.121   1.849
 8870SOL    HW335800   5.302   5.138   1.974
 8870SOL    MW435801   5.269   5.086   1.911
 8871SOL     OW35802   4.496   3.961   1.968
 8871SOL    HW235803   4.444   3.881   1.956
 8871SOL    HW335804   4.583   3.938   1.936
 8871SOL    MW435805   4.499   3.947   1.962
 8872SOL     OW35806   3.950   5.513   3.512
 8872SOL    HW235807   3.924   5.581   3.450
 8872SOL    HW335808   3.998   5.450   3.460
 8872SOL    MW435809   3.952   5.513   3.498
 8873SOL     OW35810   4.002   4.832   3.019
 8873SOL    HW235811   4.055   4.907   3.044
 8873SOL    HW335812   3.921   4.870   2.985
 8873SOL    MW435813   3.998   4.847   3.019
 8874SOL     OW35814   4.542   4.736   3.007
 8874SOL    HW235815   4.570   4.645   3.019
 8874SOL    HW335816   4.471   4.730   2.943
 8874SOL    MW435817   4.535   4.724   3.002
 8875SOL     OW35818   3.857   4.601   2.425
 8875SOL    HW235819   3.948   4.616   2.452
 8875SOL    HW335820   3.860   4.522   2.371
 8875SOL    MW435821   3.869   4.593   2.423
 8876SOL     OW35822   4.093   4.309   3.679
 8876SOL    HW235823   4.040   4.389   3.686
 8876SOL    HW335824   4.163   4.321   3.744
 8876SOL    MW435825   4.095   4.322   3.687
 8877SOL     OW35826   4.479   3.859   3.386
 8877SOL    HW235827   4.456   3.767   3.388
 8877SOL    HW335828   4.565   3.861   3.343
 8877SOL    MW435829   4.486   3.849   3.382
 8878SOL     OW35830   4.163   4.383   3.425
 8878SOL    HW235831   4.243   4.433   3.411
 8878SOL    HW335832   4.154   4.377   3.520
 8878SOL    MW435833   4.172   4.389   3.435
 8879SOL     OW35834   4.484   5.533   2.799
 8879SOL    HW235835   4.573   5.548   2.829
 8879SOL    HW335836   4.479   5.580   2.715
 8879SOL    MW435837   4.494   5.541   2.792
 8880SOL     OW35838   5.140   3.908   3.696
 8880SOL    HW235839   5.196   3.835   3.722
 8880SOL    HW335840   5.110   3.946   3.778
 8880SOL    MW435841   5.144   3.903   3.709
 8881SOL     OW35842   3.865   5.213   2.464
 8881SOL    HW235843   3.837   5.252   2.546
 8881SOL    HW335844   3.885   5.122   2.486
 8881SOL    MW435845   3.863   5.205   2.477
 8882SOL     OW35846   4.698   5.256   2.499
 8882SOL    HW235847   4.781   5.210   2.483
 8882SOL    HW335848   4.688   5.255   2.595
 8882SOL    MW435849   4.708   5.249   2.509
 8883SOL     OW35850   5.530   4.401   2.813
 8883SOL    HW235851   5.619   4.431   2.795
 8883SOL    HW335852   5.510   4.341   2.742
 8883SOL    MW435853   5.539   4.398   2.802
 8884SOL     OW35854   5.381   4.580   3.693
 8884SOL    HW235855   5.436   4.504   3.674
 8884SOL    HW335856   5.383   4.588   3.788
 8884SOL    MW435857   5.389   4.571   3.701
 8885SOL     OW35858   4.431   5.313   1.904
 8885SOL    HW235859   4.371   5.382   1.874
 8885SOL    HW335860   4.376   5.255   1.957
 8885SOL    MW435861   4.415   5.315   1.906
 8886SOL     OW35862   4.869   3.958   2.127
 8886SOL    HW235863   4.802   3.934   2.064
 8886SOL    HW335864   4.934   4.007   2.076
 8886SOL    MW435865   4.869   3.960   2.112
 8887SOL     OW35866   4.676   4.142   3.212
 8887SOL    HW235867   4.595   4.183   3.240
 8887SOL    HW335868   4.723   4.210   3.164
 8887SOL    MW435869   4.671   4.157   3.210
 8888SOL     OW35870   4.936   4.480   2.835
 8888SOL    HW235871   4.949   4.574   2.845
 8888SOL    HW335872   4.897   4.470   2.749
 8888SOL    MW435873   4.932   4.491   2.825
 8889SOL     OW35874   4.388   4.675   2.639
 8889SOL    HW235875   4.299   4.666   2.672
 8889SOL    HW335876   4.392   4.765   2.607
 8889SOL    MW435877   4.377   4.686   2.639
 8890SOL     OW35878   5.187   4.258   2.634
 8890SOL    HW235879   5.132   4.179   2.633
 8890SOL    HW335880   5.169   4.299   2.718
 8890SOL    MW435881   5.177   4.253   2.643
 8891SOL     OW35882   4.158   3.945   3.451
 8891SOL    HW235883   4.079   3.963   3.503
 8891SOL    HW335884   4.153   4.007   3.378
 8891SOL    MW435885   4.148   3.955   3.448
 8892SOL     OW35886   4.806   4.462   2.591
 8892SOL    HW235887   4.743   4.394   2.615
 8892SOL    HW335888   4.826   4.443   2.499
 8892SOL    MW435889   4.800   4.449   2.583
 8893SOL     OW35890   4.062   5.357   2.293
 8893SOL    HW235891   4.023   5.404   2.219
 8893SOL    HW335892   3.996   5.292   2.318
 8893SOL    MW435893   4.049   5.355   2.287
 8894SOL     OW35894   4.554   4.766   2.317
 8894SOL    HW235895   4.556   4.740   2.224
 8894SOL    HW335896   4.612   4.703   2.360
 8894SOL    MW435897   4.562   4.755   2.311
 8895SOL     OW35898   5.107   5.326   3.089
 8895SOL    HW235899   5.032   5.372   3.127
 8895SOL    HW335900   5.089   5.233   3.106
 8895SOL    MW435901   5.096   5.320   3.097
 8896SOL     OW35902   5.111   5.534   2.519
 8896SOL    HW235903   5.054   5.487   2.458
 8896SOL    HW335904   5.197   5.495   2.506
 8896SOL    MW435905   5.114   5.525   2.509
 8897SOL     OW35906   5.064   4.010   2.650
 8897SOL    HW235907   5.092   3.942   2.711
 8897SOL    HW335908   4.978   3.981   2.620
 8897SOL    MW435909   5.057   3.997   2.654
 8898SOL     OW35910   3.869   4.944   2.584
 8898SOL    HW235911   3.933   4.976   2.647
 8898SOL    HW335912   3.918   4.880   2.532
 8898SOL    MW435913   3.884   4.940   2.585
 8899SOL     OW35914   4.369   5.020   3.566
 8899SOL    HW235915   4.417   5.103   3.553
 8899SOL    HW335916   4.426   4.968   3.622
 8899SOL    MW435917   4.383   5.024   3.572
 8900SOL     OW35918   3.945   5.262   3.706
 8900SOL    HW235919   4.001   5.186   3.721
 8900SOL    HW335920   3.894   5.240   3.628
 8900SOL    MW435921   3.945   5.249   3.697
 8901SOL     OW35922   5.044   4.114   1.985
 8901SOL    HW235923   5.017   4.180   1.921
 8901SOL    HW335924   5.114   4.157   2.035
 8901SOL    MW435925   5.049   4.127   1.982
 8902SOL     OW35926   4.712   3.819   1.922
 8902SOL    HW235927   4.768   3.811   1.844
 8902SOL    HW335928   4.689   3.729   1.944
 8902SOL    MW435929   4.717   3.806   1.915
 8903SOL     OW35930   5.217   4.670   2.127
 8903SOL    HW235931   5.184   4.759   2.117
 8903SOL    HW335932   5.182   4.641   2.212
 8903SOL    MW435933   5.207   4.679   2.138
 8904SOL     OW35934   4.830   5.099   3.315
 8904SOL    HW235935   4.741   5.105   3.283
 8904SOL    HW335936   4.874   5.178   3.283
 8904SOL    MW435937   4.825   5.109   3.307
 8905SOL     OW35938   4.123   3.767   3.657
 8905SOL    HW235939   4.051   3.732   3.605
 8905SOL    HW335940   4.181   3.808   3.592
 8905SOL    MW435941   4.121   3.768   3.642
 8906SOL     OW35942   4.147   5.257   2.956
 8906SOL    HW235943   4.192   5.319   3.013
 8906SOL    HW335944   4.054   5.276   2.969
 8906SOL    MW435945   4.140   5.267   2.963
 8907SOL     OW35946   5.587   4.786   3.310
 8907SOL    HW235947   5.502   4.799   3.269
 8907SOL    HW335948   5.567   4.750   3.397
 8907SOL    MW435949   5.574   4.782   3.315
 8908SOL     OW35950   4.569   5.325   3.064
 8908SOL    HW235951   4.593   5.314   2.973
 8908SOL    HW335952   4.492   5.382   3.062
 8908SOL    MW435953   4.561   5.330   3.053
 8909SOL     OW35954   4.211   4.708   1.919
 8909SOL    HW235955   4.134   4.721   1.975
 8909SOL    HW335956   4.175   4.672   1.838
 8909SOL    MW435957   4.197   4.704   1.916
 8910SOL     OW35958   4.864   4.681   2.162
 8910SOL    HW235959   4.774   4.702   2.137
 8910SOL    HW335960   4.891   4.754   2.218
 8910SOL    MW435961   4.856   4.693   2.165
 8911SOL     OW35962   4.364   5.030   2.854
 8911SOL    HW235963   4.357   5.009   2.948
 8911SOL    HW335964   4.282   4.998   2.817
 8911SOL    MW435965   4.352   5.024   2.861
 8912SOL     OW35966   5.228   4.040   3.256
 8912SOL    HW235967   5.175   4.042   3.336
 8912SOL    HW335968   5.213   3.953   3.219
 8912SOL    MW435969   5.220   4.030   3.261
 8913SOL     OW35970   5.564   3.964   3.129
 8913SOL    HW235971   5.545   4.031   3.064
 8913SOL    HW335972   5.621   3.902   3.084
 8913SOL    MW435973   5.568   3.965   3.115
 8914SOL     OW35974   3.810   5.122   3.517
 8914SOL    HW235975   3.854   5.055   3.463
 8914SOL    HW335976   3.725   5.084   3.537
 8914SOL    MW435977   3.805   5.108   3.513
 8915SOL     OW35978   4.493   3.797   2.569
 8915SOL    HW235979   4.422   3.858   2.551
 8915SOL    HW335980   4.544   3.794   2.488
 8915SOL    MW435981   4.489   3.803   2.556
 8916SOL     OW35982   4.251   5.037   2.318
 8916SOL    HW235983   4.244   5.069   2.408
 8916SOL    HW335984   4.161   5.021   2.290
 8916SOL    MW435985   4.239   5.039   2.325
 8917SOL     OW35986   4.846   5.430   3.227
 8917SOL    HW235987   4.766   5.415   3.177
 8917SOL    HW335988   4.853   5.525   3.234
 8917SOL    MW435989   4.837   5.441   3.221
 8918SOL     OW35990   4.960   5.395   2.717
 8918SOL    HW235991   5.007   5.468   2.676
 8918SOL    HW335992   4.881   5.434   2.753
 8918SOL    MW435993   4.955   5.410   2.716
 8919SOL     OW35994   5.368   5.490   2.992
 8919SOL    HW235995   5.411   5.460   3.072
 8919SOL    HW335996   5.287   5.438   2.989
 8919SOL    MW435997   5.363   5.479   3.002
 8920SOL     OW35998   4.453   4.454   3.699
 8920SOL    HW235999   4.523   4.396   3.671
 8920SOL    HW336000   4.396   4.399   3.754
 8920SOL    MW436001   4.455   4.441   3.703
 8921SOL     OW36002   5.240   4.666   3.332
 8921SOL    HW236003   5.245   4.719   3.412
 8921SOL    HW336004   5.202   4.583   3.360
 8921SOL    MW436005   5.236   4.661   3.347
 8922SOL     OW36006   4.880   3.801   3.578
 8922SOL    HW236007   4.875   3.708   3.559
 8922SOL    HW336008   4.963   3.812   3.624
 8922SOL    MW436009   4.888   3.790   3.582
 8923SOL     OW36010   4.254   4.321   2.032
 8923SOL    HW236011   4.220   4.377   2.102
 8923SOL    HW336012   4.325   4.271   2.072
 8923SOL    MW436013   4.260   4.322   2.046
 8924SOL     OW36014   5.350   5.072   2.854
 8924SOL    HW236015   5.385   5.054   2.767
 8924SOL    HW336016   5.255   5.073   2.841
 8924SOL    MW436017   5.342   5.069   2.841
 8925SOL     OW36018   4.779   4.720   3.223
 8925SOL    HW236019   4.822   4.755   3.301
 8925SOL    HW336020   4.762   4.797   3.169
 8925SOL    MW436021   4.782   4.735   3.226
 8926SOL     OW36022   5.310   4.207   2.096
 8926SOL    HW236023   5.302   4.278   2.033
 8926SOL    HW336024   5.328   4.251   2.179
 8926SOL    MW436025   5.311   4.221   2.098
 8927SOL     OW36026   4.170   3.862   2.525
 8927SOL    HW236027   4.220   3.905   2.456
 8927SOL    HW336028   4.085   3.906   2.525
 8927SOL    MW436029   4.167   3.875   2.516
 8928SOL     OW36030   3.929   4.924   3.385
 8928SOL    HW236031   3.957   4.877   3.463
 8928SOL    HW336032   3.850   4.879   3.356
 8928SOL    MW436033   3.922   4.913   3.391
 8929SOL     OW36034   4.437   4.251   3.352
 8929SOL    HW236035   4.409   4.339   3.376
 8929SOL    HW336036   4.406   4.195   3.423
 8929SOL    MW436037   4.429   4.254   3.364
 8930SOL     OW36038   4.979   4.469   2.071
 8930SOL    HW236039   5.026   4.487   1.990
 8930SOL    HW336040   4.945   4.553   2.099
 8930SOL    MW436041   4.981   4.483   2.064
 8931SOL     OW36042   4.092   4.647   2.565
 8931SOL    HW236043   4.150   4.703   2.513
 8931SOL    HW336044   4.136   4.562   2.567
 8931SOL    MW436045   4.105   4.644   2.558
 8932SOL     OW36046   5.232   3.999   2.402
 8932SOL    HW236047   5.154   3.949   2.427
 8932SOL    HW336048   5.203   4.090   2.402
 8932SOL    MW436049   5.218   4.003   2.405
 8933SOL     OW36050   4.818   3.961   2.561
 8933SOL    HW236051   4.838   4.036   2.505
 8933SOL    HW336052   4.798   4.000   2.646
 8933SOL    MW436053   4.819   3.977   2.565
 8934SOL     OW36054   4.714   5.211   1.893
 8934SOL    HW236055   4.741   5.289   1.845
 8934SOL    HW336056   4.621   5.226   1.912
 8934SOL    MW436057   4.705   5.224   1.889
 8935SOL     OW36058   5.578   4.734   3.580
 8935SOL    HW236059   5.491   4.714   3.616
 8935SOL    HW336060   5.632   4.660   3.605
 8935SOL    MW436061   5.573   4.723   3.588
 8936SOL     OW36062   3.799   5.247   2.737
 8936SOL    HW236063   3.831   5.251   2.828
 8936SOL    HW336064   3.704   5.255   2.745
 8936SOL    MW436065   3.791   5.250   2.750
 8937SOL     OW36066   3.754   4.373   2.284
 8937SOL    HW236067   3.694   4.345   2.354
 8937SOL    HW336068   3.828   4.313   2.290
 8937SOL    MW436069   3.756   4.362   2.293
 8938SOL     OW36070   5.322   5.585   3.718
 8938SOL    HW236071   5.367   5.509   3.683
 8938SOL    HW336072   5.360   5.598   3.805
 8938SOL    MW436073   5.332   5.578   3.724
 8939SOL     OW36074   4.922   5.104   2.444
 8939SOL    HW236075   4.945   5.055   2.522
 8939SOL    HW336076   5.003   5.146   2.416
 8939SOL    MW436077   4.935   5.104   2.451
 8940SOL     OW36078   4.180   4.112   3.173
 8940SOL    HW236079   4.213   4.193   3.213
 8940SOL    HW336080   4.153   4.138   3.085
 8940SOL    MW436081   4.179   4.126   3.167
 8941SOL     OW36082   4.134   4.079   2.909
 8941SOL    HW236083   4.164   3.993   2.880
 8941SOL    HW336084   4.039   4.072   2.912
 8941SOL    MW436085   4.126   4.068   2.907
 8942SOL     OW36086   4.963   4.288   3.600
 8942SOL    HW236087   5.015   4.223   3.553
 8942SOL    HW336088   4.921   4.339   3.530
 8942SOL    MW436089   4.964   4.285   3.583
 8943SOL     OW36090   5.062   4.083   3.461
 8943SOL    HW236091   4.969   4.067   3.448
 8943SOL    HW336092   5.088   4.021   3.529
 8943SOL    MW436093   5.052   4.073   3.468
 8944SOL     OW36094   4.277   3.857   2.800
 8944SOL    HW236095   4.287   3.766   2.826
 8944SOL    HW336096   4.233   3.853   2.715
 8944SOL    MW436097   4.273   3.845   2.792
 8945SOL     OW36098   4.371   5.472   3.346
 8945SOL    HW236099   4.288   5.457   3.391
 8945SOL    HW336100   4.430   5.405   3.381
 8945SOL    MW436101   4.369   5.462   3.356
 8946SOL     OW36102   5.428   4.179   2.971
 8946SOL    HW236103   5.361   4.212   3.031
 8946SOL    HW336104   5.471   4.257   2.937
 8946SOL    MW436105   5.426   4.194   2.975
 8947SOL     OW36106   5.606   4.899   2.941
 8947SOL    HW236107   5.599   4.839   2.866
 8947SOL    HW336108   5.532   4.959   2.930
 8947SOL    MW436109   5.596   4.899   2.930
 8948SOL     OW36110   4.988   4.761   2.859
 8948SOL    HW236111   5.002   4.733   2.950
 8948SOL    HW336112   5.074   4.792   2.831
 8948SOL    MW436113   5.001   4.762   2.868
 8949SOL     OW36114   5.071   4.256   3.138
 8949SOL    HW236115   5.092   4.257   3.045
 8949SOL    HW336116   5.116   4.178   3.171
 8949SOL    MW436117   5.078   4.246   3.130
 8950SOL     OW36118   5.564   4.387   3.680
 8950SOL    HW236119   5.601   4.332   3.749
 8950SOL    HW336120   5.589   4.344   3.598
 8950SOL    MW436121   5.571   4.375   3.679
 8951SOL     OW36122   5.111   4.685   3.731
 8951SOL    HW236123   5.177   4.633   3.685
 8951SOL    HW336124   5.131   4.672   3.824
 8951SOL    MW436125   5.122   4.676   3.738
 8952SOL     OW36126   5.062   3.771   2.080
 8952SOL    HW236127   5.136   3.815   2.123
 8952SOL    HW336128   4.986   3.825   2.102
 8952SOL    MW436129   5.062   3.783   2.088
 8953SOL     OW36130   5.122   4.546   2.358
 8953SOL    HW236131   5.037   4.516   2.328
 8953SOL    HW336132   5.114   4.553   2.453
 8953SOL    MW436133   5.110   4.544   2.367
 8954SOL     OW36134   4.198   5.009   3.089
 8954SOL    HW236135   4.210   5.036   3.180
 8954SOL    HW336136   4.179   5.090   3.042
 8954SOL    MW436137   4.197   5.024   3.094
 8955SOL     OW36138   4.482   3.989   2.912
 8955SOL    HW236139   4.455   3.991   3.003
 8955SOL    HW336140   4.412   3.941   2.867
 8955SOL    MW436141   4.470   3.985   2.919
 8956SOL     OW36142   4.336   5.481   3.074
 8956SOL    HW236143   4.388   5.558   3.051
 8956SOL    HW336144   4.345   5.473   3.169
 8956SOL    MW436145   4.345   5.488   3.085
 8957SOL     OW36146   5.238   5.066   3.306
 8957SOL    HW236147   5.223   4.995   3.369
 8957SOL    HW336148   5.284   5.024   3.234
 8957SOL    MW436149   5.244   5.050   3.306
 8958SOL     OW36150   4.312   4.797   3.423
 8958SOL    HW236151   4.349   4.802   3.335
 8958SOL    HW336152   4.351   4.870   3.470
 8958SOL    MW436153   4.322   4.807   3.418
 8959SOL     OW36154   4.492   4.840   3.235
 8959SOL    HW236155   4.551   4.786   3.288
 8959SOL    HW336156   4.507   4.812   3.145
 8959SOL    MW436157   4.502   4.829   3.231
 8960SOL     OW36158   4.495   4.212   2.084
 8960SOL    HW236159   4.568   4.261   2.047
 8960SOL    HW336160   4.511   4.121   2.058
 8960SOL    MW436161   4.507   4.207   2.077
 8961SOL     OW36162   5.303   5.329   3.407
 8961SOL    HW236163   5.345   5.314   3.492
 8961SOL    HW336164   5.294   5.242   3.369
 8961SOL    MW436165   5.307   5.317   3.414
 8962SOL     OW36166   4.963   3.808   2.998
 8962SOL    HW236167   5.018   3.817   2.920
 8962SOL    HW336168   5.018   3.842   3.069
 8962SOL    MW436169   4.977   3.813   2.997
 8963SOL     OW36170   3.970   4.721   2.182
 8963SOL    HW236171   3.907   4.737   2.111
 8963SOL    HW336172   3.917   4.684   2.253
 8963SOL    MW436173   3.955   4.718   2.182
 8964SOL     OW36174   4.326   5.075   2.041
 8964SOL    HW236175   4.341   5.051   2.133
 8964SOL    HW336176   4.234   5.053   2.025
 8964SOL    MW436177   4.316   5.068   2.051
 8965SOL     OW36178   4.865   5.306   2.193
 8965SOL    HW236179   4.873   5.224   2.144
 8965SOL    HW336180   4.784   5.345   2.160
 8965SOL    MW436181   4.855   5.301   2.183
 8966SOL     OW36182   4.124   5.464   2.762
 8966SOL    HW236183   4.128   5.375   2.797
 8966SOL    HW336184   4.150   5.455   2.671
 8966SOL    MW436185   4.127   5.452   2.754
 8967SOL     OW36186   4.741   4.942   3.005
 8967SOL    HW236187   4.673   4.876   3.021
 8967SOL    HW336188   4.759   4.936   2.912
 8967SOL    MW436189   4.734   4.933   2.996
 8968SOL     OW36190   3.830   5.217   3.256
 8968SOL    HW236191   3.820   5.175   3.342
 8968SOL    HW336192   3.751   5.270   3.246
 8968SOL    MW436193   3.819   5.218   3.267
 8969SOL     OW36194   4.734   4.081   2.826
 8969SOL    HW236195   4.664   4.033   2.871
 8969SOL    HW336196   4.766   4.144   2.890
 8969SOL    MW436197   4.729   4.083   2.840
 8970SOL     OW36198   4.385   4.517   3.446
 8970SOL    HW236199   4.378   4.612   3.434
 8970SOL    HW336200   4.394   4.506   3.541
 8970SOL    MW436201   4.386   4.529   3.456
 8971SOL     OW36202   4.106   5.032   3.704
 8971SOL    HW236203   4.178   5.034   3.641
 8971SOL    HW336204   4.076   4.941   3.703
 8971SOL    MW436205   4.111   5.021   3.696
 8972SOL     OW36206   5.190   3.795   3.171
 8972SOL    HW236207   5.261   3.741   3.135
 8972SOL    HW336208   5.189   3.774   3.264
 8972SOL    MW436209   5.199   3.786   3.179
 8973SOL     OW36210   5.390   5.325   3.655
 8973SOL    HW236211   5.363   5.322   3.746
 8973SOL    HW336212   5.486   5.329   3.658
 8973SOL    MW436213   5.400   5.325   3.667
 8974SOL     OW36214   4.201   4.187   2.639
 8974SOL    HW236215   4.272   4.135   2.602
 8974SOL    HW336216   4.187   4.152   2.726
 8974SOL    MW436217   4.209   4.176   2.646
 8975SOL     OW36218   3.756   5.522   3.711
 8975SOL    HW236219   3.806   5.500   3.633
 8975SOL    HW336220   3.764   5.617   3.719
 8975SOL    MW436221   3.764   5.531   3.702
 8976SOL     OW36222   4.517   5.280   2.715
 8976SOL    HW236223   4.445   5.217   2.728
 8976SOL    HW336224   4.478   5.365   2.733
 8976SOL    MW436225   4.501   5.283   2.718
 8977SOL     OW36226   4.837   4.128   2.363
 8977SOL    HW236227   4.859   4.065   2.295
 8977SOL    HW336228   4.742   4.120   2.374
 8977SOL    MW436229   4.827   4.119   2.355
 8978SOL     OW36230   3.922   3.818   2.295
 8978SOL    HW236231   3.993   3.839   2.234
 8978SOL    HW336232   3.876   3.746   2.253
 8978SOL    MW436233   3.926   3.812   2.281
 8979SOL     OW36234   3.753   4.285   3.438
 8979SOL    HW236235   3.817   4.351   3.413
 8979SOL    HW336236   3.672   4.312   3.395
 8979SOL    MW436237   3.751   4.297   3.430
 8980SOL     OW36238   5.491   5.192   2.395
 8980SOL    HW236239   5.461   5.125   2.456
 8980SOL    HW336240   5.585   5.198   2.409
 8980SOL    MW436241   5.499   5.184   2.405
 8981SOL     OW36242   5.047   4.869   2.325
 8981SOL    HW236243   5.019   4.955   2.358
 8981SOL    HW336244   5.075   4.885   2.235
 8981SOL    MW436245   5.047   4.883   2.317
 8982SOL     OW36246   4.709   3.789   2.378
 8982SOL    HW236247   4.746   3.848   2.443
 8982SOL    HW336248   4.686   3.845   2.304
 8982SOL    MW436249   4.710   3.804   2.377
 8983SOL     OW36250   5.562   4.671   2.800
 8983SOL    HW236251   5.553   4.703   2.711
 8983SOL    HW336252   5.515   4.587   2.800
 8983SOL    MW436253   5.555   4.664   2.790
 8984SOL     OW36254   3.938   4.511   3.379
 8984SOL    HW236255   3.959   4.580   3.317
 8984SOL    HW336256   4.018   4.458   3.384
 8984SOL    MW436257   3.951   4.512   3.373
 8985SOL     OW36258   5.474   4.602   2.501
 8985SOL    HW236259   5.568   4.591   2.489
 8985SOL    HW336260   5.450   4.674   2.442
 8985SOL    MW436261   5.484   4.610   2.492
 8986SOL     OW36262   3.923   4.526   3.646
 8986SOL    HW236263   3.849   4.470   3.672
 8986SOL    HW336264   3.918   4.529   3.551
 8986SOL    MW436265   3.912   4.519   3.636
 8987SOL     OW36266   4.089   3.813   3.096
 8987SOL    HW236267   4.132   3.897   3.116
 8987SOL    HW336268   4.162   3.751   3.089
 8987SOL    MW436269   4.104   3.816   3.097
 8988SOL     OW36270   4.130   4.480   2.274
 8988SOL    HW236271   4.130   4.575   2.259
 8988SOL    HW336272   4.207   4.464   2.328
 8988SOL    MW436273   4.140   4.491   2.279
 8989SOL     OW36274   4.906   4.339   3.338
 8989SOL    HW236275   4.942   4.312   3.254
 8989SOL    HW336276   4.819   4.373   3.317
 8989SOL    MW436277   4.900   4.340   3.325
 8990SOL     OW36278   3.889   4.211   2.563
 8990SOL    HW236279   3.951   4.218   2.636
 8990SOL    HW336280   3.889   4.118   2.540
 8990SOL    MW436281   3.897   4.200   2.570
 8991SOL     OW36282   5.436   5.551   2.095
 8991SOL    HW236283   5.503   5.584   2.035
 8991SOL    HW336284   5.393   5.630   2.129
 8991SOL    MW436285   5.438   5.566   2.091
 8992SOL     OW36286   4.571   4.472   3.047
 8992SOL    HW236287   4.529   4.390   3.023
 8992SOL    HW336288   4.572   4.471   3.143
 8992SOL    MW436289   4.564   4.461   3.056
 8993SOL     OW36290   4.375   3.942   3.152
 8993SOL    HW236291   4.306   4.005   3.173
 8993SOL    HW336292   4.402   3.906   3.237
 8993SOL    MW436293   4.369   3.945   3.165
 8994SOL     OW36294   3.758   4.783   2.021
 8994SOL    HW236295   3.727   4.848   2.084
 8994SOL    HW336296   3.707   4.705   2.040
 8994SOL    MW436297   3.748   4.780   2.031
 8995SOL     OW36298   5.170   3.795   2.769
 8995SOL    HW236299   5.258   3.804   2.806
 8995SOL    HW336300   5.180   3.736   2.695
 8995SOL    MW436301   5.184   3.789   2.763
 8996SOL     OW36302   5.202   4.534   2.613
 8996SOL    HW236303   5.282   4.549   2.562
 8996SOL    HW336304   5.195   4.439   2.619
 8996SOL    MW436305   5.211   4.523   2.608
 8997SOL     OW36306   4.342   5.583   1.963
 8997SOL    HW236307   4.247   5.583   1.955
 8997SOL    HW336308   4.358   5.529   2.041
 8997SOL    MW436309   4.332   5.577   1.972
 8998SOL     OW36310   4.652   4.460   3.310
 8998SOL    HW236311   4.721   4.527   3.307
 8998SOL    HW336312   4.585   4.498   3.366
 8998SOL    MW436313   4.653   4.473   3.317
 8999SOL     OW36314   4.070   4.760   3.558
 8999SOL    HW236315   4.024   4.676   3.560
 8999SOL    HW336316   4.127   4.754   3.482
 8999SOL    MW436317   4.072   4.748   3.550
 9000SOL     OW36318   5.187   4.403   1.879
 9000SOL    HW236319   5.115   4.379   1.821
 9000SOL    HW336320   5.253   4.440   1.821
 9000SOL    MW436321   5.186   4.405   1.864
 9001SOL     OW36322   4.321   5.135   2.559
 9001SOL    HW236323   4.386   5.068   2.580
 9001SOL    HW336324   4.373   5.212   2.536
 9001SOL    MW436325   4.336   5.137   2.558
 9002SOL     OW36326   4.582   4.300   2.689
 9002SOL    HW236327   4.522   4.318   2.761
 9002SOL    HW336328   4.616   4.212   2.708
 9002SOL    MW436329   4.578   4.290   2.702
 9003SOL     OW36330   5.523   3.799   3.358
 9003SOL    HW236331   5.444   3.845   3.386
 9003SOL    HW336332   5.558   3.853   3.287
 9003SOL    MW436333   5.517   3.812   3.352
 9004SOL     OW36334   4.807   4.883   2.708
 9004SOL    HW236335   4.899   4.864   2.726
 9004SOL    HW336336   4.780   4.813   2.648
 9004SOL    MW436337   4.815   4.871   2.702
 9005SOL     OW36338   4.600   4.703   2.063
 9005SOL    HW236339   4.586   4.615   2.028
 9005SOL    HW336340   4.551   4.760   2.004
 9005SOL    MW436341   4.592   4.698   2.051
 9006SOL     OW36342   5.081   5.121   2.804
 9006SOL    HW236343   5.054   5.205   2.769
 9006SOL    HW336344   5.041   5.116   2.891
 9006SOL    MW436345   5.074   5.130   2.810
 9007SOL     OW36346   5.000   5.069   3.072
 9007SOL    HW236347   5.011   5.036   3.161
 9007SOL    HW336348   4.919   5.028   3.041
 9007SOL    MW436349   4.990   5.061   3.078
 9008SOL     OW36350   4.013   4.427   2.842
 9008SOL    HW236351   3.963   4.426   2.923
 9008SOL    HW336352   4.033   4.519   2.826
 9008SOL    MW436353   4.009   4.439   2.850
 9009SOL     OW36354   5.080   5.191   3.604
 9009SOL    HW236355   5.080   5.285   3.620
 9009SOL    HW336356   5.125   5.181   3.520
 9009SOL    MW436357   5.086   5.201   3.595
 9010SOL     OW36358   5.319   3.909   2.165
 9010SOL    HW236359   5.312   3.913   2.260
 9010SOL    HW336360   5.331   4.000   2.138
 9010SOL    MW436361   5.320   3.922   2.173
 9011SOL     OW36362   4.608   4.472   2.279
 9011SOL    HW236363   4.588   4.458   2.186
 9011SOL    HW336364   4.701   4.451   2.286
 9011SOL    MW436365   4.618   4.467   2.268
 9012SOL     OW36366   3.935   4.095   3.583
 9012SOL    HW236367   3.892   4.154   3.520
 9012SOL    HW336368   4.003   4.150   3.623
 9012SOL    MW436369   3.939   4.110   3.580
 9013SOL     OW36370   5.047   4.715   3.128
 9013SOL    HW236371   5.110   4.712   3.201
 9013SOL    HW336372   4.963   4.733   3.170
 9013SOL    MW436373   5.043   4.717   3.143
 9014SOL     OW36374   4.591   5.430   2.317
 9014SOL    HW236375   4.649   5.501   2.344
 9014SOL    HW336376   4.614   5.358   2.375
 9014SOL    MW436377   4.602   5.430   2.328
 9015SOL     OW36378   5.386   3.892   2.907
 9015SOL    HW236379   5.431   3.810   2.926
 9015SOL    HW336380   5.406   3.948   2.983
 9015SOL    MW436381   5.396   3.888   2.919
 9016SOL     OW36382   3.834   3.735   3.006
 9016SOL    HW236383   3.825   3.736   2.911
 9016SOL    HW336384   3.928   3.747   3.021
 9016SOL    MW436385   3.846   3.738   2.997
 9017SOL     OW36386   5.471   4.928   2.626
 9017SOL    HW236387   5.450   4.874   2.549
 9017SOL    HW336388   5.567   4.926   2.630
 9017SOL    MW436389   5.480   4.921   2.615
 9018SOL     OW36390   4.163   5.073   3.369
 9018SOL    HW236391   4.084   5.023   3.392
 9018SOL    HW336392   4.233   5.032   3.419
 9018SOL    MW436393   4.161   5.061   3.379
 9019SOL     OW36394   4.047   3.862   2.052
 9019SOL    HW236395   3.976   3.917   2.020
 9019SOL    HW336396   4.089   3.828   1.973
 9019SOL    MW436397   4.043   3.864   2.038
 9020SOL     OW36398   5.171   4.359   2.888
 9020SOL    HW236399   5.094   4.405   2.854
 9020SOL    HW336400   5.228   4.428   2.922
 9020SOL    MW436401   5.168   4.374   2.888
 9021SOL     OW36402   3.803   3.961   1.901
 9021SOL    HW236403   3.770   4.040   1.945
 9021SOL    HW336404   3.858   3.994   1.830
 9021SOL    MW436405   3.806   3.975   1.898
 9022SOL     OW36406   3.837   5.218   2.090
 9022SOL    HW236407   3.854   5.302   2.132
 9022SOL    HW336408   3.872   5.227   2.002
 9022SOL    MW436409   3.842   5.231   2.084
 9023SOL     OW36410   5.109   5.307   2.307
 9023SOL    HW236411   5.172   5.297   2.236
 9023SOL    HW336412   5.026   5.327   2.262
 9023SOL    MW436413   5.106   5.308   2.292
 9024SOL     OW36414   5.472   4.575   3.993
 9024SOL    HW236415   5.513   4.517   4.058
 9024SOL    HW336416   5.379   4.567   4.010
 9024SOL    MW436417   5.466   4.567   4.003
 9025SOL     OW36418   5.338   4.507   4.988
 9025SOL    HW236419   5.293   4.574   5.039
 9025SOL    HW336420   5.426   4.543   4.974
 9025SOL    MW436421   5.344   4.520   4.992
 9026SOL     OW36422   4.266   4.758   4.222
 9026SOL    HW236423   4.356   4.733   4.206
 9026SOL    HW336424   4.262   4.851   4.199
 9026SOL    MW436425   4.278   4.767   4.217
 9027SOL     OW36426   5.382   5.461   4.364
 9027SOL    HW236427   5.394   5.407   4.442
 9027SOL    HW336428   5.419   5.409   4.293
 9027SOL    MW436429   5.388   5.446   4.365
 9028SOL     OW36430   4.761   5.346   5.365
 9028SOL    HW236431   4.802   5.382   5.286
 9028SOL    HW336432   4.796   5.257   5.372
 9028SOL    MW436433   4.772   5.339   5.356
 9029SOL     OW36434   5.318   4.901   4.969
 9029SOL    HW236435   5.239   4.866   4.927
 9029SOL    HW336436   5.345   4.973   4.913
 9029SOL    MW436437   5.311   4.906   4.956
 9030SOL     OW36438   4.550   4.214   4.235
 9030SOL    HW236439   4.525   4.302   4.263
 9030SOL    HW336440   4.547   4.217   4.139
 9030SOL    MW436441   4.546   4.226   4.227
 9031SOL     OW36442   3.992   4.242   4.163
 9031SOL    HW236443   4.024   4.330   4.145
 9031SOL    HW336444   3.980   4.240   4.258
 9031SOL    MW436445   3.995   4.254   4.175
 9032SOL     OW36446   4.070   4.655   5.064
 9032SOL    HW236447   4.133   4.602   5.015
 9032SOL    HW336448   4.051   4.729   5.007
 9032SOL    MW436449   4.076   4.657   5.051
 9033SOL     OW36450   4.391   3.997   4.250
 9033SOL    HW236451   4.449   4.073   4.252
 9033SOL    HW336452   4.326   4.018   4.183
 9033SOL    MW436453   4.390   4.009   4.241
 9034SOL     OW36454   4.478   4.924   4.425
 9034SOL    HW236455   4.558   4.927   4.477
 9034SOL    HW336456   4.506   4.891   4.339
 9034SOL    MW436457   4.492   4.920   4.420
 9035SOL     OW36458   4.503   5.265   5.328
 9035SOL    HW236459   4.587   5.291   5.367
 9035SOL    HW336460   4.527   5.209   5.254
 9035SOL    MW436461   4.517   5.261   5.323
 9036SOL     OW36462   4.255   4.428   4.416
 9036SOL    HW236463   4.240   4.348   4.467
 9036SOL    HW336464   4.337   4.463   4.450
 9036SOL    MW436465   4.263   4.420   4.428
 9037SOL     OW36466   4.592   5.114   5.101
 9037SOL    HW236467   4.556   5.180   5.041
 9037SOL    HW336468   4.520   5.052   5.114
 9037SOL    MW436469   4.578   5.114   5.095
 9038SOL     OW36470   4.397   4.254   4.793
 9038SOL    HW236471   4.303   4.250   4.811
 9038SOL    HW336472   4.427   4.163   4.802
 9038SOL    MW436473   4.388   4.242   4.796
 9039SOL     OW36474   4.143   4.668   4.697
 9039SOL    HW236475   4.098   4.675   4.613
 9039SOL    HW336476   4.123   4.751   4.741
 9039SOL    MW436477   4.135   4.680   4.691
 9040SOL     OW36478   5.105   4.906   3.941
 9040SOL    HW236479   5.023   4.942   3.907
 9040SOL    HW336480   5.173   4.949   3.890
 9040SOL    MW436481   5.103   4.916   3.929
 9041SOL     OW36482   4.104   5.041   4.607
 9041SOL    HW236483   4.080   5.094   4.683
 9041SOL    HW336484   4.160   5.099   4.555
 9041SOL    MW436485   4.108   5.056   4.610
 9042SOL     OW36486   4.666   4.685   4.417
 9042SOL    HW236487   4.580   4.672   4.457
 9042SOL    HW336488   4.719   4.612   4.449
 9042SOL    MW436489   4.662   4.674   4.426
 9043SOL     OW36490   4.074   5.337   5.202
 9043SOL    HW236491   3.982   5.313   5.187
 9043SOL    HW336492   4.118   5.254   5.219
 9043SOL    MW436493   4.068   5.322   5.201
 9044SOL     OW36494   4.657   5.047   4.134
 9044SOL    HW236495   4.634   5.109   4.202
 9044SOL    HW336496   4.614   4.965   4.160
 9044SOL    MW436497   4.649   5.043   4.145
 9045SOL     OW36498   5.530   4.048   4.590
 9045SOL    HW236499   5.467   4.028   4.659
 9045SOL    HW336500   5.520   3.977   4.527
 9045SOL    MW436501   5.520   4.035   4.591
 9046SOL     OW36502   4.154   4.020   4.102
 9046SOL    HW236503   4.128   3.982   4.018
 9046SOL    HW336504   4.091   4.090   4.118
 9046SOL    MW436505   4.143   4.023   4.093
 9047SOL     OW36506   3.989   4.981   4.139
 9047SOL    HW236507   3.937   5.049   4.095
 9047SOL    HW336508   3.986   4.907   4.079
 9047SOL    MW436509   3.981   4.980   4.126
 9048SOL     OW36510   4.651   5.444   3.917
 9048SOL    HW236511   4.606   5.460   4.000
 9048SOL    HW336512   4.582   5.409   3.859
 9048SOL    MW436513   4.637   5.441   3.919
 9049SOL     OW36514   5.586   4.217   3.892
 9049SOL    HW236515   5.495   4.219   3.920
 9049SOL    HW336516   5.631   4.279   3.950
 9049SOL    MW436517   5.579   4.225   3.902
 9050SOL     OW36518   5.331   4.820   4.242
 9050SOL    HW236519   5.241   4.820   4.277
 9050SOL    HW336520   5.324   4.866   4.159
 9050SOL    MW436521   5.318   4.826   4.236
 9051SOL     OW36522   5.131   4.455   5.314
 9051SOL    HW236523   5.200   4.393   5.291
 9051SOL    HW336524   5.056   4.429   5.261
 9051SOL    MW436525   5.131   4.442   5.305
 9052SOL     OW36526   3.872   5.335   4.866
 9052SOL    HW236527   3.855   5.281   4.943
 9052SOL    HW336528   3.860   5.425   4.896
 9052SOL    MW436529   3.869   5.339   4.880
 9053SOL     OW36530   4.867   4.842   5.306
 9053SOL    HW236531   4.852   4.935   5.291
 9053SOL    HW336532   4.962   4.832   5.306
 9053SOL    MW436533   4.876   4.852   5.303
 9054SOL     OW36534   4.663   4.266   5.507
 9054SOL    HW236535   4.753   4.267   5.474
 9054SOL    HW336536   4.622   4.191   5.465
 9054SOL    MW436537   4.669   4.256   5.498
 9055SOL     OW36538   5.238   4.798   4.634
 9055SOL    HW236539   5.241   4.732   4.565
 9055SOL    HW336540   5.323   4.841   4.630
 9055SOL    MW436541   5.250   4.794   4.625
 9056SOL     OW36542   4.858   4.401   4.203
 9056SOL    HW236543   4.884   4.425   4.114
 9056SOL    HW336544   4.840   4.308   4.199
 9056SOL    MW436545   4.860   4.393   4.190
 9057SOL     OW36546   5.523   5.021   4.054
 9057SOL    HW236547   5.479   5.062   4.129
 9057SOL    HW336548   5.580   5.089   4.019
 9057SOL    MW436549   5.525   5.035   4.059
 9058SOL     OW36550   4.443   4.070   5.457
 9058SOL    HW236551   4.453   3.996   5.397
 9058SOL    HW336552   4.479   4.039   5.540
 9058SOL    MW436553   4.449   4.056   5.459
 9059SOL     OW36554   4.179   5.437   4.372
 9059SOL    HW236555   4.211   5.525   4.350
 9059SOL    HW336556   4.132   5.409   4.294
 9059SOL    MW436557   4.178   5.445   4.359
 9060SOL     OW36558   5.563   3.799   4.421
 9060SOL    HW236559   5.617   3.750   4.483
 9060SOL    HW336560   5.506   3.733   4.382
 9060SOL    MW436561   5.563   3.783   4.423
 9061SOL     OW36562   3.895   5.497   3.949
 9061SOL    HW236563   3.924   5.587   3.941
 9061SOL    HW336564   3.845   5.480   3.870
 9061SOL    MW436565   3.893   5.505   3.938
 9062SOL     OW36566   4.682   3.752   4.834
 9062SOL    HW236567   4.641   3.830   4.796
 9062SOL    HW336568   4.776   3.770   4.829
 9062SOL    MW436569   4.688   3.764   4.829
 9063SOL     OW36570   5.299   5.305   3.920
 9063SOL    HW236571   5.347   5.374   3.966
 9063SOL    HW336572   5.220   5.349   3.889
 9063SOL    MW436573   5.294   5.319   3.923
 9064SOL     OW36574   4.697   4.430   3.864
 9064SOL    HW236575   4.699   4.377   3.785
 9064SOL    HW336576   4.785   4.467   3.870
 9064SOL    MW436577   4.709   4.429   3.853
 9065SOL     OW36578   5.311   4.356   4.200
 9065SOL    HW236579   5.350   4.356   4.287
 9065SOL    HW336580   5.252   4.432   4.200
 9065SOL    MW436581   5.308   4.367   4.211
 9066SOL     OW36582   4.628   4.723   5.329
 9066SOL    HW236583   4.605   4.703   5.419
 9066SOL    HW336584   4.713   4.767   5.334
 9066SOL    MW436585   4.635   4.726   5.341
 9067SOL     OW36586   4.708   3.860   5.089
 9067SOL    HW236587   4.714   3.822   5.002
 9067SOL    HW336588   4.697   3.954   5.074
 9067SOL    MW436589   4.709   3.868   5.077
 9068SOL     OW36590   4.797   4.349   4.923
 9068SOL    HW236591   4.872   4.378   4.870
 9068SOL    HW336592   4.729   4.414   4.907
 9068SOL    MW436593   4.798   4.361   4.913
 9069SOL     OW36594   5.347   4.317   5.200
 9069SOL    HW236595   5.328   4.226   5.179
 9069SOL    HW336596   5.325   4.366   5.121
 9069SOL    MW436597   5.342   4.310   5.187
 9070SOL     OW36598   5.489   5.411   5.104
 9070SOL    HW236599   5.417   5.373   5.155
 9070SOL    HW336600   5.506   5.496   5.145
 9070SOL    MW436601   5.483   5.416   5.116
 9071SOL     OW36602   4.794   4.055   5.306
 9071SOL    HW236603   4.760   4.094   5.225
 9071SOL    HW336604   4.772   3.963   5.299
 9071SOL    MW436605   4.787   4.048   5.296
 9072SOL     OW36606   5.203   4.869   5.382
 9072SOL    HW236607   5.285   4.910   5.412
 9072SOL    HW336608   5.166   4.831   5.462
 9072SOL    MW436609   5.209   4.870   5.397
 9073SOL     OW36610   5.498   4.242   4.366
 9073SOL    HW236611   5.587   4.211   4.383
 9073SOL    HW336612   5.441   4.182   4.414
 9073SOL    MW436613   5.501   4.230   4.375
 9074SOL     OW36614   3.924   3.956   4.395
 9074SOL    HW236615   3.915   3.896   4.321
 9074SOL    HW336616   3.857   3.927   4.458
 9074SOL    MW436617   3.914   3.943   4.393
 9075SOL     OW36618   4.867   5.049   3.956
 9075SOL    HW236619   4.817   5.051   4.038
 9075SOL    HW336620   4.801   5.067   3.888
 9075SOL    MW436621   4.853   5.051   3.958
 9076SOL     OW36622   3.871   4.129   4.758
 9076SOL    HW236623   3.843   4.220   4.767
 9076SOL    HW336624   3.808   4.090   4.697
 9076SOL    MW436625   3.858   4.135   4.752
 9077SOL     OW36626   4.330   5.467   4.064
 9077SOL    HW236627   4.251   5.425   4.097
 9077SOL    HW336628   4.396   5.450   4.131
 9077SOL    MW436629   4.329   5.459   4.077
 9078SOL     OW36630   5.458   4.987   5.461
 9078SOL    HW236631   5.508   4.913   5.493
 9078SOL    HW336632   5.404   5.014   5.536
 9078SOL    MW436633   5.458   4.981   5.474
 9079SOL     OW36634   4.466   4.882   3.771
 9079SOL    HW236635   4.388   4.828   3.758
 9079SOL    HW336636   4.437   4.955   3.824
 9079SOL    MW436637   4.452   4.884   3.776
 9080SOL     OW36638   5.592   4.622   4.963
 9080SOL    HW236639   5.608   4.660   4.876
 9080SOL    HW336640   5.626   4.688   5.024
 9080SOL    MW436641   5.599   4.635   4.959
 9081SOL     OW36642   5.384   5.331   4.632
 9081SOL    HW236643   5.413   5.398   4.693
 9081SOL    HW336644   5.365   5.255   4.687
 9081SOL    MW436645   5.386   5.331   4.647
 9082SOL     OW36646   5.047   5.398   3.839
 9082SOL    HW236647   4.973   5.361   3.889
 9082SOL    HW336648   5.055   5.488   3.872
 9082SOL    MW436649   5.038   5.405   3.851
 9083SOL     OW36650   3.855   4.404   4.928
 9083SOL    HW236651   3.917   4.434   4.994
 9083SOL    HW336652   3.789   4.473   4.922
 9083SOL    MW436653   3.854   4.417   4.935
 9084SOL     OW36654   5.271   5.072   3.781
 9084SOL    HW236655   5.218   5.121   3.717
 9084SOL    HW336656   5.302   5.138   3.842
 9084SOL    MW436657   5.269   5.086   3.779
 9085SOL     OW36658   4.496   3.961   3.836
 9085SOL    HW236659   4.444   3.881   3.824
 9085SOL    HW336660   4.583   3.938   3.804
 9085SOL    MW436661   4.499   3.947   3.830
 9086SOL     OW36662   3.950   5.513   5.380
 9086SOL    HW236663   3.924   5.581   5.318
 9086SOL    HW336664   3.998   5.450   5.328
 9086SOL    MW436665   3.952   5.513   5.366
 9087SOL     OW36666   4.002   4.832   4.887
 9087SOL    HW236667   4.055   4.907   4.912
 9087SOL    HW336668   3.921   4.870   4.853
 9087SOL    MW436669   3.998   4.847   4.887
 9088SOL     OW36670   4.542   4.736   4.875
 9088SOL    HW236671   4.570   4.645   4.887
 9088SOL    HW336672   4.471   4.730   4.811
 9088SOL    MW436673   4.535   4.724   4.870
 9089SOL     OW36674   3.857   4.601   4.293
 9089SOL    HW236675   3.948   4.616   4.320
 9089SOL    HW336676   3.860   4.522   4.239
 9089SOL    MW436677   3.869   4.593   4.291
 9090SOL     OW36678   4.093   4.309   5.547
 9090SOL    HW236679   4.040   4.389   5.554
 9090SOL    HW336680   4.163   4.321   5.612
 9090SOL    MW436681   4.095   4.322   5.555
 9091SOL     OW36682   4.479   3.859   5.254
 9091SOL    HW236683   4.456   3.767   5.256
 9091SOL    HW336684   4.565   3.861   5.211
 9091SOL    MW436685   4.486   3.849   5.250
 9092SOL     OW36686   4.163   4.383   5.293
 9092SOL    HW236687   4.243   4.433   5.279
 9092SOL    HW336688   4.154   4.377   5.388
 9092SOL    MW436689   4.172   4.389   5.303
 9093SOL     OW36690   4.484   5.533   4.667
 9093SOL    HW236691   4.573   5.548   4.697
 9093SOL    HW336692   4.479   5.580   4.583
 9093SOL    MW436693   4.494   5.541   4.660
 9094SOL     OW36694   5.140   3.908   5.564
 9094SOL    HW236695   5.196   3.835   5.590
 9094SOL    HW336696   5.110   3.946   5.646
 9094SOL    MW436697   5.144   3.903   5.577
 9095SOL     OW36698   3.865   5.213   4.332
 9095SOL    HW236699   3.837   5.252   4.414
 9095SOL    HW336700   3.885   5.122   4.354
 9095SOL    MW436701   3.863   5.205   4.345
 9096SOL     OW36702   4.698   5.256   4.367
 9096SOL    HW236703   4.781   5.210   4.351
 9096SOL    HW336704   4.688   5.255   4.463
 9096SOL    MW436705   4.708   5.249   4.377
 9097SOL     OW36706   5.530   4.401   4.681
 9097SOL    HW236707   5.619   4.431   4.663
 9097SOL    HW336708   5.510   4.341   4.610
 9097SOL    MW436709   5.539   4.398   4.670
 9098SOL     OW36710   5.381   4.580   5.561
 9098SOL    HW236711   5.436   4.504   5.542
 9098SOL    HW336712   5.383   4.588   5.656
 9098SOL    MW436713   5.389   4.571   5.569
 9099SOL     OW36714   4.431   5.313   3.772
 9099SOL    HW236715   4.371   5.382   3.742
 9099SOL    HW336716   4.376   5.255   3.825
 9099SOL    MW436717   4.415   5.315   3.774
 9100SOL     OW36718   4.869   3.958   3.995
 9100SOL    HW236719   4.802   3.934   3.932
 9100SOL    HW336720   4.934   4.007   3.944
 9100SOL    MW436721   4.869   3.960   3.980
 9101SOL     OW36722   4.936   4.480   4.703
 9101SOL    HW236723   4.949   4.574   4.713
 9101SOL    HW336724   4.897   4.470   4.617
 9101SOL    MW436725   4.932   4.491   4.693
 9102SOL     OW36726   4.388   4.675   4.507
 9102SOL    HW236727   4.299   4.666   4.540
 9102SOL    HW336728   4.392   4.765   4.475
 9102SOL    MW436729   4.377   4.686   4.507
 9103SOL     OW36730   5.187   4.258   4.502
 9103SOL    HW236731   5.132   4.179   4.501
 9103SOL    HW336732   5.169   4.299   4.586
 9103SOL    MW436733   5.177   4.253   4.511
 9104SOL     OW36734   4.158   3.945   5.319
 9104SOL    HW236735   4.079   3.963   5.371
 9104SOL    HW336736   4.153   4.007   5.246
 9104SOL    MW436737   4.148   3.955   5.316
 9105SOL     OW36738   4.806   4.462   4.459
 9105SOL    HW236739   4.743   4.394   4.483
 9105SOL    HW336740   4.826   4.443   4.367
 9105SOL    MW436741   4.800   4.449   4.451
 9106SOL     OW36742   4.062   5.357   4.161
 9106SOL    HW236743   4.023   5.404   4.087
 9106SOL    HW336744   3.996   5.292   4.186
 9106SOL    MW436745   4.049   5.355   4.155
 9107SOL     OW36746   4.554   4.766   4.185
 9107SOL    HW236747   4.556   4.740   4.092
 9107SOL    HW336748   4.612   4.703   4.228
 9107SOL    MW436749   4.562   4.755   4.179
 9108SOL     OW36750   5.107   5.326   4.957
 9108SOL    HW236751   5.032   5.372   4.995
 9108SOL    HW336752   5.089   5.233   4.974
 9108SOL    MW436753   5.096   5.320   4.965
 9109SOL     OW36754   5.111   5.534   4.387
 9109SOL    HW236755   5.054   5.487   4.326
 9109SOL    HW336756   5.197   5.495   4.374
 9109SOL    MW436757   5.114   5.525   4.377
 9110SOL     OW36758   5.064   4.010   4.518
 9110SOL    HW236759   5.092   3.942   4.579
 9110SOL    HW336760   4.978   3.981   4.488
 9110SOL    MW436761   5.057   3.997   4.522
 9111SOL     OW36762   3.869   4.944   4.452
 9111SOL    HW236763   3.933   4.976   4.515
 9111SOL    HW336764   3.918   4.880   4.400
 9111SOL    MW436765   3.884   4.940   4.453
 9112SOL     OW36766   4.369   5.020   5.434
 9112SOL    HW236767   4.417   5.103   5.421
 9112SOL    HW336768   4.426   4.968   5.490
 9112SOL    MW436769   4.383   5.024   5.440
 9113SOL     OW36770   3.945   5.262   5.574
 9113SOL    HW236771   4.001   5.186   5.589
 9113SOL    HW336772   3.894   5.240   5.496
 9113SOL    MW436773   3.945   5.249   5.565
 9114SOL     OW36774   4.712   3.819   3.790
 9114SOL    HW236775   4.768   3.811   3.712
 9114SOL    HW336776   4.689   3.729   3.812
 9114SOL    MW436777   4.717   3.806   3.783
 9115SOL     OW36778   5.217   4.670   3.995
 9115SOL    HW236779   5.184   4.759   3.985
 9115SOL    HW336780   5.182   4.641   4.080
 9115SOL    MW436781   5.207   4.679   4.006
 9116SOL     OW36782   4.830   5.099   5.183
 9116SOL    HW236783   4.741   5.105   5.151
 9116SOL    HW336784   4.874   5.178   5.151
 9116SOL    MW436785   4.825   5.109   5.175
 9117SOL     OW36786   4.123   3.767   5.525
 9117SOL    HW236787   4.051   3.732   5.473
 9117SOL    HW336788   4.181   3.808   5.460
 9117SOL    MW436789   4.121   3.768   5.510
 9118SOL     OW36790   4.147   5.257   4.824
 9118SOL    HW236791   4.192   5.319   4.881
 9118SOL    HW336792   4.054   5.276   4.837
 9118SOL    MW436793   4.140   5.267   4.831
 9119SOL     OW36794   5.587   4.786   5.178
 9119SOL    HW236795   5.502   4.799   5.137
 9119SOL    HW336796   5.567   4.750   5.265
 9119SOL    MW436797   5.574   4.782   5.183
 9120SOL     OW36798   4.569   5.325   4.932
 9120SOL    HW236799   4.593   5.314   4.841
 9120SOL    HW336800   4.492   5.382   4.930
 9120SOL    MW436801   4.561   5.330   4.921
 9121SOL     OW36802   4.211   4.708   3.787
 9121SOL    HW236803   4.134   4.721   3.843
 9121SOL    HW336804   4.175   4.672   3.706
 9121SOL    MW436805   4.197   4.704   3.784
 9122SOL     OW36806   4.864   4.681   4.030
 9122SOL    HW236807   4.774   4.702   4.005
 9122SOL    HW336808   4.891   4.754   4.086
 9122SOL    MW436809   4.856   4.693   4.033
 9123SOL     OW36810   4.364   5.030   4.722
 9123SOL    HW236811   4.357   5.009   4.816
 9123SOL    HW336812   4.282   4.998   4.685
 9123SOL    MW436813   4.352   5.024   4.729
 9124SOL     OW36814   5.228   4.040   5.124
 9124SOL    HW236815   5.175   4.042   5.204
 9124SOL    HW336816   5.213   3.953   5.087
 9124SOL    MW436817   5.220   4.030   5.129
 9125SOL     OW36818   5.564   3.964   4.997
 9125SOL    HW236819   5.545   4.031   4.932
 9125SOL    HW336820   5.621   3.902   4.952
 9125SOL    MW436821   5.568   3.965   4.983
 9126SOL     OW36822   3.810   5.122   5.385
 9126SOL    HW236823   3.854   5.055   5.331
 9126SOL    HW336824   3.725   5.084   5.405
 9126SOL    MW436825   3.805   5.108   5.381
 9127SOL     OW36826   4.493   3.797   4.437
 9127SOL    HW236827   4.422   3.858   4.419
 9127SOL    HW336828   4.544   3.794   4.356
 9127SOL    MW436829   4.489   3.803   4.424
 9128SOL     OW36830   4.251   5.037   4.186
 9128SOL    HW236831   4.244   5.069   4.276
 9128SOL    HW336832   4.161   5.021   4.158
 9128SOL    MW436833   4.239   5.039   4.193
 9129SOL     OW36834   4.846   5.430   5.095
 9129SOL    HW236835   4.766   5.415   5.045
 9129SOL    HW336836   4.853   5.525   5.102
 9129SOL    MW436837   4.837   5.441   5.089
 9130SOL     OW36838   4.960   5.395   4.585
 9130SOL    HW236839   5.007   5.468   4.544
 9130SOL    HW336840   4.881   5.434   4.621
 9130SOL    MW436841   4.955   5.410   4.584
 9131SOL     OW36842   5.368   5.490   4.860
 9131SOL    HW236843   5.411   5.460   4.940
 9131SOL    HW336844   5.287   5.438   4.857
 9131SOL    MW436845   5.363   5.479   4.870
 9132SOL     OW36846   4.453   4.454   5.567
 9132SOL    HW236847   4.523   4.396   5.539
 9132SOL    HW336848   4.396   4.399   5.622
 9132SOL    MW436849   4.455   4.441   5.571
 9133SOL     OW36850   5.240   4.666   5.200
 9133SOL    HW236851   5.245   4.719   5.280
 9133SOL    HW336852   5.202   4.583   5.228
 9133SOL    MW436853   5.236   4.661   5.215
 9134SOL     OW36854   4.880   3.801   5.446
 9134SOL    HW236855   4.875   3.708   5.427
 9134SOL    HW336856   4.963   3.812   5.492
 9134SOL    MW436857   4.888   3.790   5.450
 9135SOL     OW36858   4.254   4.321   3.900
 9135SOL    HW236859   4.220   4.377   3.970
 9135SOL    HW336860   4.325   4.271   3.940
 9135SOL    MW436861   4.260   4.322   3.914
 9136SOL     OW36862   5.350   5.072   4.722
 9136SOL    HW236863   5.385   5.054   4.635
 9136SOL    HW336864   5.255   5.073   4.709
 9136SOL    MW436865   5.342   5.069   4.709
 9137SOL     OW36866   4.779   4.720   5.091
 9137SOL    HW236867   4.822   4.755   5.169
 9137SOL    HW336868   4.762   4.797   5.037
 9137SOL    MW436869   4.782   4.735   5.094
 9138SOL     OW36870   5.310   4.207   3.964
 9138SOL    HW236871   5.302   4.278   3.901
 9138SOL    HW336872   5.328   4.251   4.047
 9138SOL    MW436873   5.311   4.221   3.966
 9139SOL     OW36874   4.170   3.862   4.393
 9139SOL    HW236875   4.220   3.905   4.324
 9139SOL    HW336876   4.085   3.906   4.393
 9139SOL    MW436877   4.167   3.875   4.384
 9140SOL     OW36878   3.929   4.924   5.253
 9140SOL    HW236879   3.957   4.877   5.331
 9140SOL    HW336880   3.850   4.879   5.224
 9140SOL    MW436881   3.922   4.913   5.259
 9141SOL     OW36882   4.437   4.251   5.220
 9141SOL    HW236883   4.409   4.339   5.244
 9141SOL    HW336884   4.406   4.195   5.291
 9141SOL    MW436885   4.429   4.254   5.232
 9142SOL     OW36886   4.979   4.469   3.939
 9142SOL    HW236887   5.026   4.487   3.858
 9142SOL    HW336888   4.945   4.553   3.967
 9142SOL    MW436889   4.981   4.483   3.932
 9143SOL     OW36890   4.092   4.647   4.433
 9143SOL    HW236891   4.150   4.703   4.381
 9143SOL    HW336892   4.136   4.562   4.435
 9143SOL    MW436893   4.105   4.644   4.426
 9144SOL     OW36894   5.232   3.999   4.270
 9144SOL    HW236895   5.154   3.949   4.295
 9144SOL    HW336896   5.203   4.090   4.270
 9144SOL    MW436897   5.218   4.003   4.273
 9145SOL     OW36898   4.818   3.961   4.429
 9145SOL    HW236899   4.838   4.036   4.373
 9145SOL    HW336900   4.798   4.000   4.514
 9145SOL    MW436901   4.819   3.977   4.433
 9146SOL     OW36902   4.714   5.211   3.761
 9146SOL    HW236903   4.741   5.289   3.713
 9146SOL    HW336904   4.621   5.226   3.780
 9146SOL    MW436905   4.705   5.224   3.757
 9147SOL     OW36906   5.578   4.734   5.448
 9147SOL    HW236907   5.491   4.714   5.484
 9147SOL    HW336908   5.632   4.660   5.473
 9147SOL    MW436909   5.573   4.723   5.456
 9148SOL     OW36910   3.799   5.247   4.605
 9148SOL    HW236911   3.831   5.251   4.696
 9148SOL    HW336912   3.704   5.255   4.613
 9148SOL    MW436913   3.791   5.250   4.618
 9149SOL     OW36914   3.754   4.373   4.152
 9149SOL    HW236915   3.694   4.345   4.222
 9149SOL    HW336916   3.828   4.313   4.158
 9149SOL    MW436917   3.756   4.362   4.161
 9150SOL     OW36918   5.322   5.585   5.586
 9150SOL    HW236919   5.367   5.509   5.551
 9150SOL    HW336920   5.360   5.598   5.673
 9150SOL    MW436921   5.332   5.578   5.592
 9151SOL     OW36922   4.922   5.104   4.312
 9151SOL    HW236923   4.945   5.055   4.390
 9151SOL    HW336924   5.003   5.146   4.284
 9151SOL    MW436925   4.935   5.104   4.319
 9152SOL     OW36926   4.180   4.112   5.041
 9152SOL    HW236927   4.213   4.193   5.081
 9152SOL    HW336928   4.153   4.138   4.953
 9152SOL    MW436929   4.179   4.126   5.035
 9153SOL     OW36930   4.134   4.079   4.777
 9153SOL    HW236931   4.164   3.993   4.748
 9153SOL    HW336932   4.039   4.072   4.780
 9153SOL    MW436933   4.126   4.068   4.775
 9154SOL     OW36934   4.963   4.288   5.468
 9154SOL    HW236935   5.015   4.223   5.421
 9154SOL    HW336936   4.921   4.339   5.398
 9154SOL    MW436937   4.964   4.285   5.451
 9155SOL     OW36938   5.062   4.083   5.329
 9155SOL    HW236939   4.969   4.067   5.316
 9155SOL    HW336940   5.088   4.021   5.397
 9155SOL    MW436941   5.052   4.073   5.336
 9156SOL     OW36942   4.277   3.857   4.668
 9156SOL    HW236943   4.287   3.766   4.694
 9156SOL    HW336944   4.233   3.853   4.583
 9156SOL    MW436945   4.273   3.845   4.660
 9157SOL     OW36946   4.371   5.472   5.214
 9157SOL    HW236947   4.288   5.457   5.259
 9157SOL    HW336948   4.430   5.405   5.249
 9157SOL    MW436949   4.369   5.462   5.224
 9158SOL     OW36950   5.428   4.179   4.839
 9158SOL    HW236951   5.361   4.212   4.899
 9158SOL    HW336952   5.471   4.257   4.805
 9158SOL    MW436953   5.426   4.194   4.843
 9159SOL     OW36954   5.606   4.899   4.809
 9159SOL    HW236955   5.599   4.839   4.734
 9159SOL    HW336956   5.532   4.959   4.798
 9159SOL    MW436957   5.596   4.899   4.798
 9160SOL     OW36958   4.988   4.761   4.727
 9160SOL    HW236959   5.002   4.733   4.818
 9160SOL    HW336960   5.074   4.792   4.699
 9160SOL    MW436961   5.001   4.762   4.736
 9161SOL     OW36962   5.071   4.256   5.006
 9161SOL    HW236963   5.092   4.257   4.913
 9161SOL    HW336964   5.116   4.178   5.039
 9161SOL    MW436965   5.078   4.246   4.998
 9162SOL     OW36966   5.564   4.387   5.548
 9162SOL    HW236967   5.601   4.332   5.617
 9162SOL    HW336968   5.589   4.344   5.466
 9162SOL    MW436969   5.571   4.375   5.547
 9163SOL     OW36970   5.111   4.685   5.600
 9163SOL    HW236971   5.177   4.633   5.554
 9163SOL    HW336972   5.131   4.672   5.693
 9163SOL    MW436973   5.122   4.676   5.607
 9164SOL     OW36974   5.062   3.771   3.948
 9164SOL    HW236975   5.136   3.815   3.991
 9164SOL    HW336976   4.986   3.825   3.970
 9164SOL    MW436977   5.062   3.783   3.956
 9165SOL     OW36978   5.122   4.546   4.226
 9165SOL    HW236979   5.037   4.516   4.196
 9165SOL    HW336980   5.114   4.553   4.321
 9165SOL    MW436981   5.110   4.544   4.235
 9166SOL     OW36982   4.198   5.009   4.957
 9166SOL    HW236983   4.210   5.036   5.048
 9166SOL    HW336984   4.179   5.090   4.910
 9166SOL    MW436985   4.197   5.024   4.962
 9167SOL     OW36986   4.482   3.989   4.780
 9167SOL    HW236987   4.455   3.991   4.871
 9167SOL    HW336988   4.412   3.941   4.735
 9167SOL    MW436989   4.470   3.985   4.787
 9168SOL     OW36990   4.336   5.481   4.942
 9168SOL    HW236991   4.388   5.558   4.919
 9168SOL    HW336992   4.345   5.473   5.037
 9168SOL    MW436993   4.345   5.488   4.953
 9169SOL     OW36994   5.238   5.066   5.174
 9169SOL    HW236995   5.223   4.995   5.237
 9169SOL    HW336996   5.284   5.024   5.102
 9169SOL    MW436997   5.244   5.050   5.174
 9170SOL     OW36998   4.312   4.797   5.291
 9170SOL    HW236999   4.349   4.802   5.203
 9170SOL    HW337000   4.351   4.870   5.338
 9170SOL    MW437001   4.322   4.807   5.286
 9171SOL     OW37002   4.492   4.840   5.103
 9171SOL    HW237003   4.551   4.786   5.156
 9171SOL    HW337004   4.507   4.812   5.013
 9171SOL    MW437005   4.502   4.829   5.099
 9172SOL     OW37006   4.495   4.212   3.952
 9172SOL    HW237007   4.568   4.261   3.915
 9172SOL    HW337008   4.511   4.121   3.926
 9172SOL    MW437009   4.507   4.207   3.945
 9173SOL     OW37010   5.303   5.329   5.275
 9173SOL    HW237011   5.345   5.314   5.360
 9173SOL    HW337012   5.294   5.242   5.237
 9173SOL    MW437013   5.307   5.317   5.282
 9174SOL     OW37014   4.963   3.808   4.866
 9174SOL    HW237015   5.018   3.817   4.788
 9174SOL    HW337016   5.018   3.842   4.937
 9174SOL    MW437017   4.977   3.813   4.865
 9175SOL     OW37018   3.970   4.721   4.050
 9175SOL    HW237019   3.907   4.737   3.979
 9175SOL    HW337020   3.917   4.684   4.121
 9175SOL    MW437021   3.955   4.718   4.050
 9176SOL     OW37022   4.326   5.075   3.909
 9176SOL    HW237023   4.341   5.051   4.001
 9176SOL    HW337024   4.234   5.053   3.893
 9176SOL    MW437025   4.316   5.068   3.919
 9177SOL     OW37026   4.865   5.306   4.061
 9177SOL    HW237027   4.873   5.224   4.012
 9177SOL    HW337028   4.784   5.345   4.028
 9177SOL    MW437029   4.855   5.301   4.051
 9178SOL     OW37030   4.124   5.464   4.630
 9178SOL    HW237031   4.128   5.375   4.665
 9178SOL    HW337032   4.150   5.455   4.539
 9178SOL    MW437033   4.127   5.452   4.622
 9179SOL     OW37034   4.741   4.942   4.873
 9179SOL    HW237035   4.673   4.876   4.889
 9179SOL    HW337036   4.759   4.936   4.780
 9179SOL    MW437037   4.734   4.933   4.864
 9180SOL     OW37038   3.830   5.217   5.124
 9180SOL    HW237039   3.820   5.175   5.210
 9180SOL    HW337040   3.751   5.270   5.114
 9180SOL    MW437041   3.819   5.218   5.135
 9181SOL     OW37042   4.734   4.081   4.694
 9181SOL    HW237043   4.664   4.033   4.739
 9181SOL    HW337044   4.766   4.144   4.758
 9181SOL    MW437045   4.729   4.083   4.708
 9182SOL     OW37046   4.385   4.517   5.314
 9182SOL    HW237047   4.378   4.612   5.302
 9182SOL    HW337048   4.394   4.506   5.409
 9182SOL    MW437049   4.386   4.529   5.324
 9183SOL     OW37050   4.106   5.032   5.572
 9183SOL    HW237051   4.178   5.034   5.509
 9183SOL    HW337052   4.076   4.941   5.571
 9183SOL    MW437053   4.111   5.021   5.564
 9184SOL     OW37054   5.190   3.795   5.039
 9184SOL    HW237055   5.261   3.741   5.003
 9184SOL    HW337056   5.189   3.774   5.132
 9184SOL    MW437057   5.199   3.786   5.047
 9185SOL     OW37058   5.390   5.325   5.523
 9185SOL    HW237059   5.363   5.322   5.614
 9185SOL    HW337060   5.486   5.329   5.526
 9185SOL    MW437061   5.400   5.325   5.535
 9186SOL     OW37062   4.201   4.187   4.507
 9186SOL    HW237063   4.272   4.135   4.470
 9186SOL    HW337064   4.187   4.152   4.594
 9186SOL    MW437065   4.209   4.176   4.514
 9187SOL     OW37066   3.756   5.522   5.579
 9187SOL    HW237067   3.806   5.500   5.501
 9187SOL    HW337068   3.764   5.617   5.587
 9187SOL    MW437069   3.764   5.531   5.570
 9188SOL     OW37070   4.517   5.280   4.583
 9188SOL    HW237071   4.445   5.217   4.596
 9188SOL    HW337072   4.478   5.365   4.601
 9188SOL    MW437073   4.501   5.283   4.586
 9189SOL     OW37074   4.837   4.128   4.231
 9189SOL    HW237075   4.859   4.065   4.163
 9189SOL    HW337076   4.742   4.120   4.242
 9189SOL    MW437077   4.827   4.119   4.223
 9190SOL     OW37078   3.922   3.818   4.163
 9190SOL    HW237079   3.993   3.839   4.102
 9190SOL    HW337080   3.876   3.746   4.121
 9190SOL    MW437081   3.926   3.812   4.149
 9191SOL     OW37082   3.753   4.285   5.306
 9191SOL    HW237083   3.817   4.351   5.281
 9191SOL    HW337084   3.672   4.312   5.263
 9191SOL    MW437085   3.751   4.297   5.298
 9192SOL     OW37086   5.491   5.192   4.263
 9192SOL    HW237087   5.461   5.125   4.324
 9192SOL    HW337088   5.585   5.198   4.277
 9192SOL    MW437089   5.499   5.184   4.273
 9193SOL     OW37090   5.047   4.869   4.193
 9193SOL    HW237091   5.019   4.955   4.226
 9193SOL    HW337092   5.075   4.885   4.103
 9193SOL    MW437093   5.047   4.883   4.185
 9194SOL     OW37094   4.709   3.789   4.246
 9194SOL    HW237095   4.746   3.848   4.311
 9194SOL    HW337096   4.686   3.845   4.172
 9194SOL    MW437097   4.710   3.804   4.245
 9195SOL     OW37098   5.562   4.671   4.668
 9195SOL    HW237099   5.553   4.703   4.579
 9195SOL    HW337100   5.515   4.587   4.668
 9195SOL    MW437101   5.555   4.664   4.658
 9196SOL     OW37102   3.938   4.511   5.247
 9196SOL    HW237103   3.959   4.580   5.185
 9196SOL    HW337104   4.018   4.458   5.252
 9196SOL    MW437105   3.951   4.512   5.241
 9197SOL     OW37106   5.474   4.602   4.369
 9197SOL    HW237107   5.568   4.591   4.357
 9197SOL    HW337108   5.450   4.674   4.310
 9197SOL    MW437109   5.484   4.610   4.360
 9198SOL     OW37110   3.923   4.526   5.514
 9198SOL    HW237111   3.849   4.470   5.540
 9198SOL    HW337112   3.918   4.529   5.419
 9198SOL    MW437113   3.912   4.519   5.504
 9199SOL     OW37114   4.089   3.813   4.964
 9199SOL    HW237115   4.132   3.897   4.984
 9199SOL    HW337116   4.162   3.751   4.957
 9199SOL    MW437117   4.104   3.816   4.965
 9200SOL     OW37118   4.130   4.480   4.142
 9200SOL    HW237119   4.130   4.575   4.127
 9200SOL    HW337120   4.207   4.464   4.196
 9200SOL    MW437121   4.140   4.491   4.147
 9201SOL     OW37122   4.906   4.339   5.206
 9201SOL    HW237123   4.942   4.312   5.122
 9201SOL    HW337124   4.819   4.373   5.185
 9201SOL    MW437125   4.900   4.340   5.193
 9202SOL     OW37126   3.889   4.211   4.431
 9202SOL    HW237127   3.951   4.218   4.504
 9202SOL    HW337128   3.889   4.118   4.408
 9202SOL    MW437129   3.897   4.200   4.438
 9203SOL     OW37130   5.436   5.551   3.963
 9203SOL    HW237131   5.503   5.584   3.903
 9203SOL    HW337132   5.393   5.630   3.997
 9203SOL    MW437133   5.438   5.566   3.959
 9204SOL     OW37134   4.571   4.472   4.915
 9204SOL    HW237135   4.529   4.390   4.891
 9204SOL    HW337136   4.572   4.471   5.011
 9204SOL    MW437137   4.564   4.461   4.924
 9205SOL     OW37138   5.242   5.605   5.314
 9205SOL    HW237139   5.245   5.511   5.297
 9205SOL    HW337140   5.265   5.613   5.406
 9205SOL    MW437141   5.245   5.593   5.324
 9206SOL     OW37142   4.375   3.942   5.020
 9206SOL    HW237143   4.306   4.005   5.041
 9206SOL    HW337144   4.402   3.906   5.105
 9206SOL    MW437145   4.369   3.945   5.033
 9207SOL     OW37146   3.758   4.783   3.889
 9207SOL    HW237147   3.727   4.848   3.952
 9207SOL    HW337148   3.707   4.705   3.908
 9207SOL    MW437149   3.748   4.780   3.899
 9208SOL     OW37150   5.170   3.795   4.637
 9208SOL    HW237151   5.258   3.804   4.674
 9208SOL    HW337152   5.180   3.736   4.563
 9208SOL    MW437153   5.184   3.789   4.631
 9209SOL     OW37154   5.202   4.534   4.481
 9209SOL    HW237155   5.282   4.549   4.430
 9209SOL    HW337156   5.195   4.439   4.487
 9209SOL    MW437157   5.211   4.523   4.476
 9210SOL     OW37158   4.342   5.583   3.831
 9210SOL    HW237159   4.247   5.583   3.823
 9210SOL    HW337160   4.358   5.529   3.909
 9210SOL    MW437161   4.332   5.577   3.840
 9211SOL     OW37162   4.652   4.460   5.178
 9211SOL    HW237163   4.721   4.527   5.175
 9211SOL    HW337164   4.585   4.498   5.234
 9211SOL    MW437165   4.653   4.473   5.185
 9212SOL     OW37166   4.070   4.760   5.426
 9212SOL    HW237167   4.024   4.676   5.428
 9212SOL    HW337168   4.127   4.754   5.350
 9212SOL    MW437169   4.072   4.748   5.418
 9213SOL     OW37170   5.187   4.403   3.747
 9213SOL    HW237171   5.115   4.379   3.689
 9213SOL    HW337172   5.253   4.440   3.689
 9213SOL    MW437173   5.186   4.405   3.732
 9214SOL     OW37174   4.321   5.135   4.427
 9214SOL    HW237175   4.386   5.068   4.448
 9214SOL    HW337176   4.373   5.212   4.404
 9214SOL    MW437177   4.336   5.137   4.426
 9215SOL     OW37178   4.582   4.300   4.557
 9215SOL    HW237179   4.522   4.318   4.629
 9215SOL    HW337180   4.616   4.212   4.576
 9215SOL    MW437181   4.578   4.290   4.570
 9216SOL     OW37182   5.523   3.799   5.226
 9216SOL    HW237183   5.444   3.845   5.254
 9216SOL    HW337184   5.558   3.853   5.155
 9216SOL    MW437185   5.517   3.812   5.220
 9217SOL     OW37186   4.807   4.883   4.576
 9217SOL    HW237187   4.899   4.864   4.594
 9217SOL    HW337188   4.780   4.813   4.516
 9217SOL    MW437189   4.815   4.871   4.570
 9218SOL     OW37190   4.600   4.703   3.931
 9218SOL    HW237191   4.586   4.615   3.896
 9218SOL    HW337192   4.551   4.760   3.872
 9218SOL    MW437193   4.592   4.698   3.919
 9219SOL     OW37194   5.081   5.121   4.672
 9219SOL    HW237195   5.054   5.205   4.637
 9219SOL    HW337196   5.041   5.116   4.759
 9219SOL    MW437197   5.074   5.130   4.678
 9220SOL     OW37198   5.000   5.069   4.940
 9220SOL    HW237199   5.011   5.036   5.029
 9220SOL    HW337200   4.919   5.028   4.909
 9220SOL    MW437201   4.990   5.061   4.946
 9221SOL     OW37202   4.013   4.427   4.710
 9221SOL    HW237203   3.963   4.426   4.791
 9221SOL    HW337204   4.033   4.519   4.694
 9221SOL    MW437205   4.009   4.439   4.718
 9222SOL     OW37206   5.080   5.191   5.472
 9222SOL    HW237207   5.080   5.285   5.488
 9222SOL    HW337208   5.125   5.181   5.388
 9222SOL    MW437209   5.086   5.201   5.463
 9223SOL     OW37210   5.319   3.909   4.033
 9223SOL    HW237211   5.312   3.913   4.128
 9223SOL    HW337212   5.331   4.000   4.006
 9223SOL    MW437213   5.320   3.922   4.041
 9224SOL     OW37214   4.608   4.472   4.147
 9224SOL    HW237215   4.588   4.458   4.054
 9224SOL    HW337216   4.701   4.451   4.154
 9224SOL    MW437217   4.618   4.467   4.136
 9225SOL     OW37218   3.935   4.095   5.451
 9225SOL    HW237219   3.892   4.154   5.388
 9225SOL    HW337220   4.003   4.150   5.491
 9225SOL    MW437221   3.939   4.110   5.448
 9226SOL     OW37222   5.047   4.715   4.996
 9226SOL    HW237223   5.110   4.712   5.069
 9226SOL    HW337224   4.963   4.733   5.038
 9226SOL    MW437225   5.043   4.717   5.011
 9227SOL     OW37226   4.591   5.430   4.185
 9227SOL    HW237227   4.649   5.501   4.212
 9227SOL    HW337228   4.614   5.358   4.243
 9227SOL    MW437229   4.602   5.430   4.196
 9228SOL     OW37230   5.386   3.892   4.775
 9228SOL    HW237231   5.431   3.810   4.794
 9228SOL    HW337232   5.406   3.948   4.851
 9228SOL    MW437233   5.396   3.888   4.787
 9229SOL     OW37234   3.834   3.735   4.874
 9229SOL    HW237235   3.825   3.736   4.779
 9229SOL    HW337236   3.928   3.747   4.889
 9229SOL    MW437237   3.846   3.738   4.865
 9230SOL     OW37238   5.471   4.928   4.494
 9230SOL    HW237239   5.450   4.874   4.417
 9230SOL    HW337240   5.567   4.926   4.498
 9230SOL    MW437241   5.480   4.921   4.483
 9231SOL     OW37242   4.163   5.073   5.237
 9231SOL    HW237243   4.084   5.023   5.260
 9231SOL    HW337244   4.233   5.032   5.287
 9231SOL    MW437245   4.161   5.061   5.247
 9232SOL     OW37246   4.047   3.862   3.920
 9232SOL    HW237247   3.976   3.917   3.888
 9232SOL    HW337248   4.089   3.828   3.841
 9232SOL    MW437249   4.043   3.864   3.906
 9233SOL     OW37250   5.171   4.359   4.756
 9233SOL    HW237251   5.094   4.405   4.722
 9233SOL    HW337252   5.228   4.428   4.790
 9233SOL    MW437253   5.168   4.374   4.756
 9234SOL     OW37254   3.803   3.961   3.769
 9234SOL    HW237255   3.770   4.040   3.813
 9234SOL    HW337256   3.858   3.994   3.698
 9234SOL    MW437257   3.806   3.975   3.766
 9235SOL     OW37258   3.837   5.218   3.958
 9235SOL    HW237259   3.854   5.302   4.000
 9235SOL    HW337260   3.872   5.227   3.870
 9235SOL    MW437261   3.842   5.231   3.952
 9236SOL     OW37262   5.109   5.307   4.175
 9236SOL    HW237263   5.172   5.297   4.104
 9236SOL    HW337264   5.026   5.327   4.130
 9236SOL    MW437265   5.106   5.308   4.160
 9237SOL     OW37266   5.472   4.575   5.862
 9237SOL    HW237267   5.513   4.517   5.927
 9237SOL    HW337268   5.379   4.567   5.879
 9237SOL    MW437269   5.466   4.567   5.872
 9238SOL     OW37270   5.338   4.507   6.857
 9238SOL    HW237271   5.293   4.574   6.908
 9238SOL    HW337272   5.426   4.543   6.843
 9238SOL    MW437273   5.344   4.520   6.861
 9239SOL     OW37274   4.266   4.758   6.091
 9239SOL    HW237275   4.356   4.733   6.075
 9239SOL    HW337276   4.262   4.851   6.068
 9239SOL    MW437277   4.278   4.767   6.086
 9240SOL     OW37278   5.382   5.461   6.233
 9240SOL    HW237279   5.394   5.407   6.311
 9240SOL    HW337280   5.419   5.409   6.162
 9240SOL    MW437281   5.388   5.446   6.234
 9241SOL     OW37282   4.761   5.346   7.234
 9241SOL    HW237283   4.802   5.382   7.155
 9241SOL    HW337284   4.796   5.257   7.241
 9241SOL    MW437285   4.772   5.339   7.225
 9242SOL     OW37286   5.318   4.901   6.838
 9242SOL    HW237287   5.239   4.866   6.796
 9242SOL    HW337288   5.345   4.973   6.782
 9242SOL    MW437289   5.311   4.906   6.825
 9243SOL     OW37290   4.550   4.214   6.104
 9243SOL    HW237291   4.525   4.302   6.132
 9243SOL    HW337292   4.547   4.217   6.008
 9243SOL    MW437293   4.546   4.226   6.096
 9244SOL     OW37294   3.992   4.242   6.032
 9244SOL    HW237295   4.024   4.330   6.014
 9244SOL    HW337296   3.980   4.240   6.127
 9244SOL    MW437297   3.995   4.254   6.044
 9245SOL     OW37298   4.070   4.655   6.933
 9245SOL    HW237299   4.133   4.602   6.884
 9245SOL    HW337300   4.051   4.729   6.876
 9245SOL    MW437301   4.076   4.657   6.920
 9246SOL     OW37302   4.391   3.997   6.119
 9246SOL    HW237303   4.449   4.073   6.121
 9246SOL    HW337304   4.326   4.018   6.052
 9246SOL    MW437305   4.390   4.009   6.110
 9247SOL     OW37306   4.478   4.924   6.294
 9247SOL    HW237307   4.558   4.927   6.346
 9247SOL    HW337308   4.506   4.891   6.208
 9247SOL    MW437309   4.492   4.920   6.289
 9248SOL     OW37310   4.503   5.265   7.197
 9248SOL    HW237311   4.587   5.291   7.236
 9248SOL    HW337312   4.527   5.209   7.123
 9248SOL    MW437313   4.517   5.261   7.192
 9249SOL     OW37314   4.255   4.428   6.285
 9249SOL    HW237315   4.240   4.348   6.336
 9249SOL    HW337316   4.337   4.463   6.319
 9249SOL    MW437317   4.263   4.420   6.297
 9250SOL     OW37318   4.592   5.114   6.970
 9250SOL    HW237319   4.556   5.180   6.910
 9250SOL    HW337320   4.520   5.052   6.983
 9250SOL    MW437321   4.578   5.114   6.964
 9251SOL     OW37322   4.397   4.254   6.662
 9251SOL    HW237323   4.303   4.250   6.680
 9251SOL    HW337324   4.427   4.163   6.671
 9251SOL    MW437325   4.388   4.242   6.665
 9252SOL     OW37326   4.143   4.668   6.566
 9252SOL    HW237327   4.098   4.675   6.482
 9252SOL    HW337328   4.123   4.751   6.610
 9252SOL    MW437329   4.135   4.680   6.560
 9253SOL     OW37330   3.840   5.514   6.441
 9253SOL    HW237331   3.929   5.506   6.476
 9253SOL    HW337332   3.804   5.426   6.446
 9253SOL    MW437333   3.847   5.501   6.446
 9254SOL     OW37334   5.105   4.906   5.810
 9254SOL    HW237335   5.023   4.942   5.776
 9254SOL    HW337336   5.173   4.949   5.759
 9254SOL    MW437337   5.103   4.916   5.798
 9255SOL     OW37338   4.104   5.041   6.476
 9255SOL    HW237339   4.080   5.094   6.552
 9255SOL    HW337340   4.160   5.099   6.424
 9255SOL    MW437341   4.108   5.056   6.479
 9256SOL     OW37342   4.666   4.685   6.286
 9256SOL    HW237343   4.580   4.672   6.326
 9256SOL    HW337344   4.719   4.612   6.318
 9256SOL    MW437345   4.662   4.674   6.295
 9257SOL     OW37346   4.074   5.337   7.071
 9257SOL    HW237347   3.982   5.313   7.056
 9257SOL    HW337348   4.118   5.254   7.088
 9257SOL    MW437349   4.068   5.322   7.070
 9258SOL     OW37350   4.657   5.047   6.003
 9258SOL    HW237351   4.634   5.109   6.071
 9258SOL    HW337352   4.614   4.965   6.029
 9258SOL    MW437353   4.649   5.043   6.014
 9259SOL     OW37354   5.530   4.048   6.459
 9259SOL    HW237355   5.467   4.028   6.528
 9259SOL    HW337356   5.520   3.977   6.396
 9259SOL    MW437357   5.520   4.035   6.460
 9260SOL     OW37358   4.154   4.020   5.971
 9260SOL    HW237359   4.128   3.982   5.887
 9260SOL    HW337360   4.091   4.090   5.987
 9260SOL    MW437361   4.143   4.023   5.962
 9261SOL     OW37362   3.989   4.981   6.008
 9261SOL    HW237363   3.937   5.049   5.964
 9261SOL    HW337364   3.986   4.907   5.948
 9261SOL    MW437365   3.981   4.980   5.995
 9262SOL     OW37366   4.651   5.444   5.786
 9262SOL    HW237367   4.606   5.460   5.869
 9262SOL    HW337368   4.582   5.409   5.728
 9262SOL    MW437369   4.637   5.441   5.788
 9263SOL     OW37370   5.586   4.217   5.761
 9263SOL    HW237371   5.495   4.219   5.789
 9263SOL    HW337372   5.631   4.279   5.819
 9263SOL    MW437373   5.579   4.225   5.771
 9264SOL     OW37374   5.331   4.820   6.111
 9264SOL    HW237375   5.241   4.820   6.146
 9264SOL    HW337376   5.324   4.866   6.028
 9264SOL    MW437377   5.318   4.826   6.105
 9265SOL     OW37378   5.131   4.455   7.183
 9265SOL    HW237379   5.200   4.393   7.160
 9265SOL    HW337380   5.056   4.429   7.130
 9265SOL    MW437381   5.131   4.442   7.174
 9266SOL     OW37382   3.872   5.335   6.735
 9266SOL    HW237383   3.855   5.281   6.812
 9266SOL    HW337384   3.860   5.425   6.765
 9266SOL    MW437385   3.869   5.339   6.749
 9267SOL     OW37386   4.867   4.842   7.175
 9267SOL    HW237387   4.852   4.935   7.160
 9267SOL    HW337388   4.962   4.832   7.175
 9267SOL    MW437389   4.876   4.852   7.172
 9268SOL     OW37390   4.663   4.266   7.376
 9268SOL    HW237391   4.753   4.267   7.343
 9268SOL    HW337392   4.622   4.191   7.334
 9268SOL    MW437393   4.669   4.256   7.367
 9269SOL     OW37394   5.238   4.798   6.503
 9269SOL    HW237395   5.241   4.732   6.434
 9269SOL    HW337396   5.323   4.841   6.499
 9269SOL    MW437397   5.250   4.794   6.494
 9270SOL     OW37398   4.858   4.401   6.072
 9270SOL    HW237399   4.884   4.425   5.983
 9270SOL    HW337400   4.840   4.308   6.068
 9270SOL    MW437401   4.860   4.393   6.059
 9271SOL     OW37402   5.523   5.021   5.923
 9271SOL    HW237403   5.479   5.062   5.998
 9271SOL    HW337404   5.580   5.089   5.888
 9271SOL    MW437405   5.525   5.035   5.928
 9272SOL     OW37406   4.443   4.070   7.326
 9272SOL    HW237407   4.453   3.996   7.266
 9272SOL    HW337408   4.479   4.039   7.409
 9272SOL    MW437409   4.449   4.056   7.328
 9273SOL     OW37410   4.179   5.437   6.241
 9273SOL    HW237411   4.211   5.525   6.219
 9273SOL    HW337412   4.132   5.409   6.163
 9273SOL    MW437413   4.178   5.445   6.228
 9274SOL     OW37414   5.563   3.799   6.290
 9274SOL    HW237415   5.617   3.750   6.352
 9274SOL    HW337416   5.506   3.733   6.251
 9274SOL    MW437417   5.563   3.783   6.292
 9275SOL     OW37418   3.895   5.497   5.818
 9275SOL    HW237419   3.924   5.587   5.810
 9275SOL    HW337420   3.845   5.480   5.739
 9275SOL    MW437421   3.893   5.505   5.807
 9276SOL     OW37422   4.682   3.752   6.703
 9276SOL    HW237423   4.641   3.830   6.665
 9276SOL    HW337424   4.776   3.770   6.698
 9276SOL    MW437425   4.688   3.764   6.698
 9277SOL     OW37426   5.299   5.305   5.789
 9277SOL    HW237427   5.347   5.374   5.835
 9277SOL    HW337428   5.220   5.349   5.758
 9277SOL    MW437429   5.294   5.319   5.792
 9278SOL     OW37430   4.697   4.430   5.733
 9278SOL    HW237431   4.699   4.377   5.654
 9278SOL    HW337432   4.785   4.467   5.739
 9278SOL    MW437433   4.709   4.429   5.722
 9279SOL     OW37434   5.311   4.356   6.069
 9279SOL    HW237435   5.350   4.356   6.156
 9279SOL    HW337436   5.252   4.432   6.069
 9279SOL    MW437437   5.308   4.367   6.080
 9280SOL     OW37438   4.628   4.723   7.198
 9280SOL    HW237439   4.605   4.703   7.288
 9280SOL    HW337440   4.713   4.767   7.203
 9280SOL    MW437441   4.635   4.726   7.210
 9281SOL     OW37442   4.708   3.860   6.958
 9281SOL    HW237443   4.714   3.822   6.871
 9281SOL    HW337444   4.697   3.954   6.943
 9281SOL    MW437445   4.709   3.868   6.946
 9282SOL     OW37446   4.797   4.349   6.792
 9282SOL    HW237447   4.872   4.378   6.739
 9282SOL    HW337448   4.729   4.414   6.776
 9282SOL    MW437449   4.798   4.361   6.782
 9283SOL     OW37450   5.347   4.317   7.069
 9283SOL    HW237451   5.328   4.226   7.048
 9283SOL    HW337452   5.325   4.366   6.990
 9283SOL    MW437453   5.342   4.310   7.056
 9284SOL     OW37454   5.489   5.411   6.973
 9284SOL    HW237455   5.417   5.373   7.024
 9284SOL    HW337456   5.506   5.496   7.014
 9284SOL    MW437457   5.483   5.416   6.985
 9285SOL     OW37458   4.794   4.055   7.175
 9285SOL    HW237459   4.760   4.094   7.094
 9285SOL    HW337460   4.772   3.963   7.168
 9285SOL    MW437461   4.787   4.048   7.165
 9286SOL     OW37462   5.203   4.869   7.251
 9286SOL    HW237463   5.285   4.910   7.281
 9286SOL    HW337464   5.166   4.831   7.331
 9286SOL    MW437465   5.209   4.870   7.266
 9287SOL     OW37466   5.498   4.242   6.235
 9287SOL    HW237467   5.587   4.211   6.252
 9287SOL    HW337468   5.441   4.182   6.283
 9287SOL    MW437469   5.501   4.230   6.244
 9288SOL     OW37470   3.924   3.956   6.264
 9288SOL    HW237471   3.915   3.896   6.190
 9288SOL    HW337472   3.857   3.927   6.327
 9288SOL    MW437473   3.914   3.943   6.262
 9289SOL     OW37474   4.867   5.049   5.825
 9289SOL    HW237475   4.817   5.051   5.907
 9289SOL    HW337476   4.801   5.067   5.757
 9289SOL    MW437477   4.853   5.051   5.827
 9290SOL     OW37478   3.871   4.129   6.627
 9290SOL    HW237479   3.843   4.220   6.636
 9290SOL    HW337480   3.808   4.090   6.566
 9290SOL    MW437481   3.858   4.135   6.621
 9291SOL     OW37482   4.330   5.467   5.933
 9291SOL    HW237483   4.251   5.425   5.966
 9291SOL    HW337484   4.396   5.450   6.000
 9291SOL    MW437485   4.329   5.459   5.946
 9292SOL     OW37486   5.458   4.987   7.330
 9292SOL    HW237487   5.508   4.913   7.362
 9292SOL    HW337488   5.404   5.014   7.405
 9292SOL    MW437489   5.458   4.981   7.343
 9293SOL     OW37490   4.466   4.882   5.640
 9293SOL    HW237491   4.388   4.828   5.627
 9293SOL    HW337492   4.437   4.955   5.693
 9293SOL    MW437493   4.452   4.884   5.645
 9294SOL     OW37494   5.592   4.622   6.832
 9294SOL    HW237495   5.608   4.660   6.745
 9294SOL    HW337496   5.626   4.688   6.893
 9294SOL    MW437497   5.599   4.635   6.828
 9295SOL     OW37498   5.384   5.331   6.501
 9295SOL    HW237499   5.413   5.398   6.562
 9295SOL    HW337500   5.365   5.255   6.556
 9295SOL    MW437501   5.386   5.331   6.516
 9296SOL     OW37502   5.047   5.398   5.708
 9296SOL    HW237503   4.973   5.361   5.758
 9296SOL    HW337504   5.055   5.488   5.741
 9296SOL    MW437505   5.038   5.405   5.720
 9297SOL     OW37506   3.855   4.404   6.797
 9297SOL    HW237507   3.917   4.434   6.863
 9297SOL    HW337508   3.789   4.473   6.791
 9297SOL    MW437509   3.854   4.417   6.804
 9298SOL     OW37510   5.271   5.072   5.650
 9298SOL    HW237511   5.218   5.121   5.586
 9298SOL    HW337512   5.302   5.138   5.711
 9298SOL    MW437513   5.269   5.086   5.648
 9299SOL     OW37514   4.496   3.961   5.705
 9299SOL    HW237515   4.444   3.881   5.693
 9299SOL    HW337516   4.583   3.938   5.673
 9299SOL    MW437517   4.499   3.947   5.699
 9300SOL     OW37518   3.950   5.513   7.249
 9300SOL    HW237519   3.924   5.581   7.187
 9300SOL    HW337520   3.998   5.450   7.197
 9300SOL    MW437521   3.952   5.513   7.235
 9301SOL     OW37522   4.002   4.832   6.756
 9301SOL    HW237523   4.055   4.907   6.781
 9301SOL    HW337524   3.921   4.870   6.722
 9301SOL    MW437525   3.998   4.847   6.756
 9302SOL     OW37526   4.542   4.736   6.744
 9302SOL    HW237527   4.570   4.645   6.756
 9302SOL    HW337528   4.471   4.730   6.680
 9302SOL    MW437529   4.535   4.724   6.739
 9303SOL     OW37530   3.857   4.601   6.162
 9303SOL    HW237531   3.948   4.616   6.189
 9303SOL    HW337532   3.860   4.522   6.108
 9303SOL    MW437533   3.869   4.593   6.160
 9304SOL     OW37534   4.093   4.309   7.416
 9304SOL    HW237535   4.040   4.389   7.423
 9304SOL    HW337536   4.163   4.321   7.481
 9304SOL    MW437537   4.095   4.322   7.424
 9305SOL     OW37538   4.479   3.859   7.123
 9305SOL    HW237539   4.456   3.767   7.125
 9305SOL    HW337540   4.565   3.861   7.080
 9305SOL    MW437541   4.486   3.849   7.119
 9306SOL     OW37542   4.163   4.383   7.162
 9306SOL    HW237543   4.243   4.433   7.148
 9306SOL    HW337544   4.154   4.377   7.257
 9306SOL    MW437545   4.172   4.389   7.172
 9307SOL     OW37546   4.484   5.533   6.536
 9307SOL    HW237547   4.573   5.548   6.566
 9307SOL    HW337548   4.479   5.580   6.452
 9307SOL    MW437549   4.494   5.541   6.529
 9308SOL     OW37550   5.140   3.908   7.433
 9308SOL    HW237551   5.196   3.835   7.459
 9308SOL    HW337552   5.110   3.946   7.515
 9308SOL    MW437553   5.144   3.903   7.446
 9309SOL     OW37554   3.865   5.213   6.201
 9309SOL    HW237555   3.837   5.252   6.283
 9309SOL    HW337556   3.885   5.122   6.223
 9309SOL    MW437557   3.863   5.205   6.214
 9310SOL     OW37558   4.698   5.256   6.236
 9310SOL    HW237559   4.781   5.210   6.220
 9310SOL    HW337560   4.688   5.255   6.332
 9310SOL    MW437561   4.708   5.249   6.246
 9311SOL     OW37562   5.530   4.401   6.550
 9311SOL    HW237563   5.619   4.431   6.532
 9311SOL    HW337564   5.510   4.341   6.479
 9311SOL    MW437565   5.539   4.398   6.539
 9312SOL     OW37566   5.381   4.580   7.430
 9312SOL    HW237567   5.436   4.504   7.411
 9312SOL    HW337568   5.383   4.588   7.525
 9312SOL    MW437569   5.389   4.571   7.438
 9313SOL     OW37570   4.431   5.313   5.641
 9313SOL    HW237571   4.371   5.382   5.611
 9313SOL    HW337572   4.376   5.255   5.694
 9313SOL    MW437573   4.415   5.315   5.643
 9314SOL     OW37574   4.869   3.958   5.864
 9314SOL    HW237575   4.802   3.934   5.801
 9314SOL    HW337576   4.934   4.007   5.813
 9314SOL    MW437577   4.869   3.960   5.849
 9315SOL     OW37578   4.676   4.142   6.949
 9315SOL    HW237579   4.595   4.183   6.977
 9315SOL    HW337580   4.723   4.210   6.901
 9315SOL    MW437581   4.671   4.157   6.947
 9316SOL     OW37582   4.936   4.480   6.572
 9316SOL    HW237583   4.949   4.574   6.582
 9316SOL    HW337584   4.897   4.470   6.486
 9316SOL    MW437585   4.932   4.491   6.562
 9317SOL     OW37586   4.388   4.675   6.376
 9317SOL    HW237587   4.299   4.666   6.409
 9317SOL    HW337588   4.392   4.765   6.344
 9317SOL    MW437589   4.377   4.686   6.376
 9318SOL     OW37590   5.187   4.258   6.371
 9318SOL    HW237591   5.132   4.179   6.370
 9318SOL    HW337592   5.169   4.299   6.455
 9318SOL    MW437593   5.177   4.253   6.380
 9319SOL     OW37594   4.806   4.462   6.328
 9319SOL    HW237595   4.743   4.394   6.352
 9319SOL    HW337596   4.826   4.443   6.236
 9319SOL    MW437597   4.800   4.449   6.320
 9320SOL     OW37598   4.062   5.357   6.030
 9320SOL    HW237599   4.023   5.404   5.956
 9320SOL    HW337600   3.996   5.292   6.055
 9320SOL    MW437601   4.049   5.355   6.024
 9321SOL     OW37602   4.554   4.766   6.054
 9321SOL    HW237603   4.556   4.740   5.961
 9321SOL    HW337604   4.612   4.703   6.097
 9321SOL    MW437605   4.562   4.755   6.048
 9322SOL     OW37606   5.107   5.326   6.826
 9322SOL    HW237607   5.032   5.372   6.864
 9322SOL    HW337608   5.089   5.233   6.843
 9322SOL    MW437609   5.096   5.320   6.834
 9323SOL     OW37610   5.111   5.534   6.256
 9323SOL    HW237611   5.054   5.487   6.195
 9323SOL    HW337612   5.197   5.495   6.243
 9323SOL    MW437613   5.114   5.525   6.246
 9324SOL     OW37614   5.064   4.010   6.387
 9324SOL    HW237615   5.092   3.942   6.448
 9324SOL    HW337616   4.978   3.981   6.357
 9324SOL    MW437617   5.057   3.997   6.391
 9325SOL     OW37618   3.869   4.944   6.321
 9325SOL    HW237619   3.933   4.976   6.384
 9325SOL    HW337620   3.918   4.880   6.269
 9325SOL    MW437621   3.884   4.940   6.322
 9326SOL     OW37622   4.369   5.020   7.303
 9326SOL    HW237623   4.417   5.103   7.290
 9326SOL    HW337624   4.426   4.968   7.359
 9326SOL    MW437625   4.383   5.024   7.309
 9327SOL     OW37626   3.945   5.262   7.443
 9327SOL    HW237627   4.001   5.186   7.458
 9327SOL    HW337628   3.894   5.240   7.365
 9327SOL    MW437629   3.945   5.249   7.434
 9328SOL     OW37630   5.044   4.114   5.722
 9328SOL    HW237631   5.017   4.180   5.658
 9328SOL    HW337632   5.114   4.157   5.772
 9328SOL    MW437633   5.049   4.127   5.719
 9329SOL     OW37634   4.712   3.819   5.659
 9329SOL    HW237635   4.768   3.811   5.581
 9329SOL    HW337636   4.689   3.729   5.681
 9329SOL    MW437637   4.717   3.806   5.652
 9330SOL     OW37638   5.217   4.670   5.864
 9330SOL    HW237639   5.184   4.759   5.854
 9330SOL    HW337640   5.182   4.641   5.949
 9330SOL    MW437641   5.207   4.679   5.875
 9331SOL     OW37642   4.830   5.099   7.052
 9331SOL    HW237643   4.741   5.105   7.020
 9331SOL    HW337644   4.874   5.178   7.020
 9331SOL    MW437645   4.825   5.109   7.044
 9332SOL     OW37646   4.123   3.767   7.394
 9332SOL    HW237647   4.051   3.732   7.342
 9332SOL    HW337648   4.181   3.808   7.329
 9332SOL    MW437649   4.121   3.768   7.379
 9333SOL     OW37650   4.147   5.257   6.693
 9333SOL    HW237651   4.192   5.319   6.750
 9333SOL    HW337652   4.054   5.276   6.706
 9333SOL    MW437653   4.140   5.267   6.700
 9334SOL     OW37654   5.587   4.786   7.047
 9334SOL    HW237655   5.502   4.799   7.006
 9334SOL    HW337656   5.567   4.750   7.134
 9334SOL    MW437657   5.574   4.782   7.052
 9335SOL     OW37658   4.569   5.325   6.801
 9335SOL    HW237659   4.593   5.314   6.710
 9335SOL    HW337660   4.492   5.382   6.799
 9335SOL    MW437661   4.561   5.330   6.790
 9336SOL     OW37662   4.211   4.708   5.656
 9336SOL    HW237663   4.134   4.721   5.712
 9336SOL    HW337664   4.175   4.672   5.575
 9336SOL    MW437665   4.197   4.704   5.653
 9337SOL     OW37666   4.864   4.681   5.899
 9337SOL    HW237667   4.774   4.702   5.874
 9337SOL    HW337668   4.891   4.754   5.955
 9337SOL    MW437669   4.856   4.693   5.902
 9338SOL     OW37670   4.364   5.030   6.591
 9338SOL    HW237671   4.357   5.009   6.685
 9338SOL    HW337672   4.282   4.998   6.554
 9338SOL    MW437673   4.352   5.024   6.598
 9339SOL     OW37674   5.228   4.040   6.993
 9339SOL    HW237675   5.175   4.042   7.073
 9339SOL    HW337676   5.213   3.953   6.956
 9339SOL    MW437677   5.220   4.030   6.998
 9340SOL     OW37678   5.564   3.964   6.866
 9340SOL    HW237679   5.545   4.031   6.801
 9340SOL    HW337680   5.621   3.902   6.821
 9340SOL    MW437681   5.568   3.965   6.852
 9341SOL     OW37682   3.810   5.122   7.254
 9341SOL    HW237683   3.854   5.055   7.200
 9341SOL    HW337684   3.725   5.084   7.274
 9341SOL    MW437685   3.805   5.108   7.250
 9342SOL     OW37686   4.493   3.797   6.306
 9342SOL    HW237687   4.422   3.858   6.288
 9342SOL    HW337688   4.544   3.794   6.225
 9342SOL    MW437689   4.489   3.803   6.293
 9343SOL     OW37690   4.251   5.037   6.055
 9343SOL    HW237691   4.244   5.069   6.145
 9343SOL    HW337692   4.161   5.021   6.027
 9343SOL    MW437693   4.239   5.039   6.062
 9344SOL     OW37694   4.846   5.430   6.964
 9344SOL    HW237695   4.766   5.415   6.914
 9344SOL    HW337696   4.853   5.525   6.971
 9344SOL    MW437697   4.837   5.441   6.958
 9345SOL     OW37698   4.960   5.395   6.454
 9345SOL    HW237699   5.007   5.468   6.413
 9345SOL    HW337700   4.881   5.434   6.490
 9345SOL    MW437701   4.955   5.410   6.453
 9346SOL     OW37702   5.368   5.490   6.729
 9346SOL    HW237703   5.411   5.460   6.809
 9346SOL    HW337704   5.287   5.438   6.726
 9346SOL    MW437705   5.363   5.479   6.739
 9347SOL     OW37706   4.453   4.454   7.436
 9347SOL    HW237707   4.523   4.396   7.408
 9347SOL    HW337708   4.396   4.399   7.491
 9347SOL    MW437709   4.455   4.441   7.440
 9348SOL     OW37710   5.240   4.666   7.069
 9348SOL    HW237711   5.245   4.719   7.149
 9348SOL    HW337712   5.202   4.583   7.097
 9348SOL    MW437713   5.236   4.661   7.084
 9349SOL     OW37714   4.880   3.801   7.315
 9349SOL    HW237715   4.875   3.708   7.296
 9349SOL    HW337716   4.963   3.812   7.361
 9349SOL    MW437717   4.888   3.790   7.319
 9350SOL     OW37718   4.254   4.321   5.769
 9350SOL    HW237719   4.220   4.377   5.839
 9350SOL    HW337720   4.325   4.271   5.809
 9350SOL    MW437721   4.260   4.322   5.783
 9351SOL     OW37722   5.350   5.072   6.591
 9351SOL    HW237723   5.385   5.054   6.504
 9351SOL    HW337724   5.255   5.073   6.578
 9351SOL    MW437725   5.342   5.069   6.578
 9352SOL     OW37726   4.779   4.720   6.960
 9352SOL    HW237727   4.822   4.755   7.038
 9352SOL    HW337728   4.762   4.797   6.906
 9352SOL    MW437729   4.782   4.735   6.963
 9353SOL     OW37730   5.310   4.207   5.833
 9353SOL    HW237731   5.302   4.278   5.770
 9353SOL    HW337732   5.328   4.251   5.916
 9353SOL    MW437733   5.311   4.221   5.835
 9354SOL     OW37734   4.170   3.862   6.262
 9354SOL    HW237735   4.220   3.905   6.193
 9354SOL    HW337736   4.085   3.906   6.262
 9354SOL    MW437737   4.167   3.875   6.253
 9355SOL     OW37738   3.929   4.924   7.122
 9355SOL    HW237739   3.957   4.877   7.200
 9355SOL    HW337740   3.850   4.879   7.093
 9355SOL    MW437741   3.922   4.913   7.128
 9356SOL     OW37742   4.437   4.251   7.089
 9356SOL    HW237743   4.409   4.339   7.113
 9356SOL    HW337744   4.406   4.195   7.160
 9356SOL    MW437745   4.429   4.254   7.101
 9357SOL     OW37746   4.979   4.469   5.808
 9357SOL    HW237747   5.026   4.487   5.727
 9357SOL    HW337748   4.945   4.553   5.836
 9357SOL    MW437749   4.981   4.483   5.801
 9358SOL     OW37750   4.092   4.647   6.302
 9358SOL    HW237751   4.150   4.703   6.250
 9358SOL    HW337752   4.136   4.562   6.304
 9358SOL    MW437753   4.105   4.644   6.295
 9359SOL     OW37754   5.232   3.999   6.139
 9359SOL    HW237755   5.154   3.949   6.164
 9359SOL    HW337756   5.203   4.090   6.139
 9359SOL    MW437757   5.218   4.003   6.142
 9360SOL     OW37758   4.818   3.961   6.298
 9360SOL    HW237759   4.838   4.036   6.242
 9360SOL    HW337760   4.798   4.000   6.383
 9360SOL    MW437761   4.819   3.977   6.302
 9361SOL     OW37762   4.714   5.211   5.630
 9361SOL    HW237763   4.741   5.289   5.582
 9361SOL    HW337764   4.621   5.226   5.649
 9361SOL    MW437765   4.705   5.224   5.626
 9362SOL     OW37766   5.578   4.734   7.317
 9362SOL    HW237767   5.491   4.714   7.353
 9362SOL    HW337768   5.632   4.660   7.342
 9362SOL    MW437769   5.573   4.723   7.325
 9363SOL     OW37770   3.799   5.247   6.474
 9363SOL    HW237771   3.831   5.251   6.565
 9363SOL    HW337772   3.704   5.255   6.482
 9363SOL    MW437773   3.791   5.250   6.487
 9364SOL     OW37774   3.754   4.373   6.021
 9364SOL    HW237775   3.694   4.345   6.091
 9364SOL    HW337776   3.828   4.313   6.027
 9364SOL    MW437777   3.756   4.362   6.030
 9365SOL     OW37778   5.322   5.585   7.455
 9365SOL    HW237779   5.367   5.509   7.420
 9365SOL    HW337780   5.360   5.598   7.542
 9365SOL    MW437781   5.332   5.578   7.461
 9366SOL     OW37782   4.922   5.104   6.181
 9366SOL    HW237783   4.945   5.055   6.259
 9366SOL    HW337784   5.003   5.146   6.153
 9366SOL    MW437785   4.935   5.104   6.188
 9367SOL     OW37786   4.180   4.112   6.910
 9367SOL    HW237787   4.213   4.193   6.950
 9367SOL    HW337788   4.153   4.138   6.822
 9367SOL    MW437789   4.179   4.126   6.904
 9368SOL     OW37790   4.134   4.079   6.646
 9368SOL    HW237791   4.164   3.993   6.617
 9368SOL    HW337792   4.039   4.072   6.649
 9368SOL    MW437793   4.126   4.068   6.644
 9369SOL     OW37794   4.963   4.288   7.337
 9369SOL    HW237795   5.015   4.223   7.290
 9369SOL    HW337796   4.921   4.339   7.267
 9369SOL    MW437797   4.964   4.285   7.320
 9370SOL     OW37798   5.062   4.083   7.198
 9370SOL    HW237799   4.969   4.067   7.185
 9370SOL    HW337800   5.088   4.021   7.266
 9370SOL    MW437801   5.052   4.073   7.205
 9371SOL     OW37802   4.277   3.857   6.537
 9371SOL    HW237803   4.287   3.766   6.563
 9371SOL    HW337804   4.233   3.853   6.452
 9371SOL    MW437805   4.273   3.845   6.529
 9372SOL     OW37806   4.371   5.472   7.083
 9372SOL    HW237807   4.288   5.457   7.128
 9372SOL    HW337808   4.430   5.405   7.118
 9372SOL    MW437809   4.369   5.462   7.093
 9373SOL     OW37810   5.428   4.179   6.708
 9373SOL    HW237811   5.361   4.212   6.768
 9373SOL    HW337812   5.471   4.257   6.674
 9373SOL    MW437813   5.426   4.194   6.712
 9374SOL     OW37814   5.606   4.899   6.678
 9374SOL    HW237815   5.599   4.839   6.603
 9374SOL    HW337816   5.532   4.959   6.667
 9374SOL    MW437817   5.596   4.899   6.667
 9375SOL     OW37818   4.988   4.761   6.596
 9375SOL    HW237819   5.002   4.733   6.687
 9375SOL    HW337820   5.074   4.792   6.568
 9375SOL    MW437821   5.001   4.762   6.605
 9376SOL     OW37822   5.071   4.256   6.875
 9376SOL    HW237823   5.092   4.257   6.782
 9376SOL    HW337824   5.116   4.178   6.908
 9376SOL    MW437825   5.078   4.246   6.867
 9377SOL     OW37826   5.564   4.387   7.417
 9377SOL    HW237827   5.601   4.332   7.486
 9377SOL    HW337828   5.589   4.344   7.335
 9377SOL    MW437829   5.571   4.375   7.416
 9378SOL     OW37830   5.111   4.685   7.468
 9378SOL    HW237831   5.177   4.633   7.422
 9378SOL    HW337832   5.131   4.672   7.561
 9378SOL    MW437833   5.122   4.676   7.475
 9379SOL     OW37834   5.062   3.771   5.817
 9379SOL    HW237835   5.136   3.815   5.860
 9379SOL    HW337836   4.986   3.825   5.839
 9379SOL    MW437837   5.062   3.783   5.825
 9380SOL     OW37838   5.122   4.546   6.095
 9380SOL    HW237839   5.037   4.516   6.065
 9380SOL    HW337840   5.114   4.553   6.190
 9380SOL    MW437841   5.110   4.544   6.104
 9381SOL     OW37842   4.198   5.009   6.826
 9381SOL    HW237843   4.210   5.036   6.917
 9381SOL    HW337844   4.179   5.090   6.779
 9381SOL    MW437845   4.197   5.024   6.831
 9382SOL     OW37846   4.482   3.989   6.649
 9382SOL    HW237847   4.455   3.991   6.740
 9382SOL    HW337848   4.412   3.941   6.604
 9382SOL    MW437849   4.470   3.985   6.656
 9383SOL     OW37850   4.336   5.481   6.811
 9383SOL    HW237851   4.388   5.558   6.788
 9383SOL    HW337852   4.345   5.473   6.906
 9383SOL    MW437853   4.345   5.488   6.822
 9384SOL     OW37854   5.238   5.066   7.043
 9384SOL    HW237855   5.223   4.995   7.106
 9384SOL    HW337856   5.284   5.024   6.971
 9384SOL    MW437857   5.244   5.050   7.043
 9385SOL     OW37858   4.312   4.797   7.160
 9385SOL    HW237859   4.349   4.802   7.072
 9385SOL    HW337860   4.351   4.870   7.207
 9385SOL    MW437861   4.322   4.807   7.155
 9386SOL     OW37862   4.492   4.840   6.972
 9386SOL    HW237863   4.551   4.786   7.025
 9386SOL    HW337864   4.507   4.812   6.882
 9386SOL    MW437865   4.502   4.829   6.968
 9387SOL     OW37866   4.495   4.212   5.821
 9387SOL    HW237867   4.568   4.261   5.784
 9387SOL    HW337868   4.511   4.121   5.795
 9387SOL    MW437869   4.507   4.207   5.814
 9388SOL     OW37870   5.303   5.329   7.144
 9388SOL    HW237871   5.345   5.314   7.229
 9388SOL    HW337872   5.294   5.242   7.106
 9388SOL    MW437873   5.307   5.317   7.151
 9389SOL     OW37874   4.963   3.808   6.735
 9389SOL    HW237875   5.018   3.817   6.657
 9389SOL    HW337876   5.018   3.842   6.806
 9389SOL    MW437877   4.977   3.813   6.734
 9390SOL     OW37878   3.970   4.721   5.919
 9390SOL    HW237879   3.907   4.737   5.848
 9390SOL    HW337880   3.917   4.684   5.990
 9390SOL    MW437881   3.955   4.718   5.919
 9391SOL     OW37882   4.326   5.075   5.778
 9391SOL    HW237883   4.341   5.051   5.870
 9391SOL    HW337884   4.234   5.053   5.762
 9391SOL    MW437885   4.316   5.068   5.788
 9392SOL     OW37886   4.865   5.306   5.930
 9392SOL    HW237887   4.873   5.224   5.881
 9392SOL    HW337888   4.784   5.345   5.897
 9392SOL    MW437889   4.855   5.301   5.920
 9393SOL     OW37890   4.124   5.464   6.499
 9393SOL    HW237891   4.128   5.375   6.534
 9393SOL    HW337892   4.150   5.455   6.408
 9393SOL    MW437893   4.127   5.452   6.491
 9394SOL     OW37894   4.741   4.942   6.742
 9394SOL    HW237895   4.673   4.876   6.758
 9394SOL    HW337896   4.759   4.936   6.649
 9394SOL    MW437897   4.734   4.933   6.733
 9395SOL     OW37898   3.830   5.217   6.993
 9395SOL    HW237899   3.820   5.175   7.079
 9395SOL    HW337900   3.751   5.270   6.983
 9395SOL    MW437901   3.819   5.218   7.004
 9396SOL     OW37902   4.734   4.081   6.563
 9396SOL    HW237903   4.664   4.033   6.608
 9396SOL    HW337904   4.766   4.144   6.627
 9396SOL    MW437905   4.729   4.083   6.577
 9397SOL     OW37906   4.385   4.517   7.183
 9397SOL    HW237907   4.378   4.612   7.171
 9397SOL    HW337908   4.394   4.506   7.278
 9397SOL    MW437909   4.386   4.529   7.193
 9398SOL     OW37910   4.106   5.032   7.441
 9398SOL    HW237911   4.178   5.034   7.378
 9398SOL    HW337912   4.076   4.941   7.440
 9398SOL    MW437913   4.111   5.021   7.433
 9399SOL     OW37914   5.190   3.795   6.908
 9399SOL    HW237915   5.261   3.741   6.872
 9399SOL    HW337916   5.189   3.774   7.001
 9399SOL    MW437917   5.199   3.786   6.916
 9400SOL     OW37918   5.390   5.325   7.392
 9400SOL    HW237919   5.363   5.322   7.483
 9400SOL    HW337920   5.486   5.329   7.395
 9400SOL    MW437921   5.400   5.325   7.404
 9401SOL     OW37922   4.201   4.187   6.376
 9401SOL    HW237923   4.272   4.135   6.339
 9401SOL    HW337924   4.187   4.152   6.463
 9401SOL    MW437925   4.209   4.176   6.383
 9402SOL     OW37926   3.756   5.522   7.448
 9402SOL    HW237927   3.806   5.500   7.370
 9402SOL    HW337928   3.764   5.617   7.456
 9402SOL    MW437929   3.764   5.531   7.439
 9403SOL     OW37930   4.517   5.280   6.452
 9403SOL    HW237931   4.445   5.217   6.465
 9403SOL    HW337932   4.478   5.365   6.470
 9403SOL    MW437933   4.501   5.283   6.455
 9404SOL     OW37934   4.837   4.128   6.100
 9404SOL    HW237935   4.859   4.065   6.032
 9404SOL    HW337936   4.742   4.120   6.111
 9404SOL    MW437937   4.827   4.119   6.092
 9405SOL     OW37938   3.922   3.818   6.032
 9405SOL    HW237939   3.993   3.839   5.971
 9405SOL    HW337940   3.876   3.746   5.990
 9405SOL    MW437941   3.926   3.812   6.018
 9406SOL     OW37942   3.753   4.285   7.175
 9406SOL    HW237943   3.817   4.351   7.150
 9406SOL    HW337944   3.672   4.312   7.132
 9406SOL    MW437945   3.751   4.297   7.167
 9407SOL     OW37946   5.491   5.192   6.132
 9407SOL    HW237947   5.461   5.125   6.193
 9407SOL    HW337948   5.585   5.198   6.146
 9407SOL    MW437949   5.499   5.184   6.142
 9408SOL     OW37950   5.047   4.869   6.062
 9408SOL    HW237951   5.019   4.955   6.095
 9408SOL    HW337952   5.075   4.885   5.972
 9408SOL    MW437953   5.047   4.883   6.054
 9409SOL     OW37954   4.709   3.789   6.115
 9409SOL    HW237955   4.746   3.848   6.180
 9409SOL    HW337956   4.686   3.845   6.041
 9409SOL    MW437957   4.710   3.804   6.114
 9410SOL     OW37958   5.562   4.671   6.537
 9410SOL    HW237959   5.553   4.703   6.448
 9410SOL    HW337960   5.515   4.587   6.537
 9410SOL    MW437961   5.555   4.664   6.527
 9411SOL     OW37962   3.938   4.511   7.116
 9411SOL    HW237963   3.959   4.580   7.054
 9411SOL    HW337964   4.018   4.458   7.121
 9411SOL    MW437965   3.951   4.512   7.110
 9412SOL     OW37966   5.474   4.602   6.238
 9412SOL    HW237967   5.568   4.591   6.226
 9412SOL    HW337968   5.450   4.674   6.179
 9412SOL    MW437969   5.484   4.610   6.229
 9413SOL     OW37970   3.923   4.526   7.383
 9413SOL    HW237971   3.849   4.470   7.409
 9413SOL    HW337972   3.918   4.529   7.288
 9413SOL    MW437973   3.912   4.519   7.373
 9414SOL     OW37974   4.089   3.813   6.833
 9414SOL    HW237975   4.132   3.897   6.853
 9414SOL    HW337976   4.162   3.751   6.826
 9414SOL    MW437977   4.104   3.816   6.834
 9415SOL     OW37978   4.130   4.480   6.011
 9415SOL    HW237979   4.130   4.575   5.996
 9415SOL    HW337980   4.207   4.464   6.065
 9415SOL    MW437981   4.140   4.491   6.016
 9416SOL     OW37982   4.906   4.339   7.075
 9416SOL    HW237983   4.942   4.312   6.991
 9416SOL    HW337984   4.819   4.373   7.054
 9416SOL    MW437985   4.900   4.340   7.062
 9417SOL     OW37986   3.889   4.211   6.300
 9417SOL    HW237987   3.951   4.218   6.373
 9417SOL    HW337988   3.889   4.118   6.277
 9417SOL    MW437989   3.897   4.200   6.307
 9418SOL     OW37990   5.436   5.551   5.832
 9418SOL    HW237991   5.503   5.584   5.772
 9418SOL    HW337992   5.393   5.630   5.866
 9418SOL    MW437993   5.438   5.566   5.828
 9419SOL     OW37994   4.571   4.472   6.784
 9419SOL    HW237995   4.529   4.390   6.760
 9419SOL    HW337996   4.572   4.471   6.880
 9419SOL    MW437997   4.564   4.461   6.793
 9420SOL     OW37998   5.242   5.605   7.183
 9420SOL    HW237999   5.245   5.511   7.166
 9420SOL    HW338000   5.265   5.613   7.275
 9420SOL    MW438001   5.245   5.593   7.193
 9421SOL     OW38002   4.375   3.942   6.889
 9421SOL    HW238003   4.306   4.005   6.910
 9421SOL    HW338004   4.402   3.906   6.974
 9421SOL    MW438005   4.369   3.945   6.902
 9422SOL     OW38006   3.758   4.783   5.758
 9422SOL    HW238007   3.727   4.848   5.821
 9422SOL    HW338008   3.707   4.705   5.777
 9422SOL    MW438009   3.748   4.780   5.768
 9423SOL     OW38010   5.170   3.795   6.506
 9423SOL    HW238011   5.258   3.804   6.543
 9423SOL    HW338012   5.180   3.736   6.432
 9423SOL    MW438013   5.184   3.789   6.500
 9424SOL     OW38014   5.202   4.534   6.350
 9424SOL    HW238015   5.282   4.549   6.299
 9424SOL    HW338016   5.195   4.439   6.356
 9424SOL    MW438017   5.211   4.523   6.345
 9425SOL     OW38018   4.342   5.583   5.700
 9425SOL    HW238019   4.247   5.583   5.692
 9425SOL    HW338020   4.358   5.529   5.778
 9425SOL    MW438021   4.332   5.577   5.709
 9426SOL     OW38022   4.652   4.460   7.047
 9426SOL    HW238023   4.721   4.527   7.044
 9426SOL    HW338024   4.585   4.498   7.103
 9426SOL    MW438025   4.653   4.473   7.054
 9427SOL     OW38026   4.070   4.760   7.295
 9427SOL    HW238027   4.024   4.676   7.297
 9427SOL    HW338028   4.127   4.754   7.219
 9427SOL    MW438029   4.072   4.748   7.287
 9428SOL     OW38030   5.187   4.403   5.615
 9428SOL    HW238031   5.115   4.379   5.557
 9428SOL    HW338032   5.253   4.440   5.557
 9428SOL    MW438033   5.186   4.405   5.600
 9429SOL     OW38034   4.321   5.135   6.296
 9429SOL    HW238035   4.386   5.068   6.317
 9429SOL    HW338036   4.373   5.212   6.273
 9429SOL    MW438037   4.336   5.137   6.295
 9430SOL     OW38038   4.582   4.300   6.426
 9430SOL    HW238039   4.522   4.318   6.498
 9430SOL    HW338040   4.616   4.212   6.445
 9430SOL    MW438041   4.578   4.290   6.439
 9431SOL     OW38042   5.523   3.799   7.095
 9431SOL    HW238043   5.444   3.845   7.123
 9431SOL    HW338044   5.558   3.853   7.024
 9431SOL    MW438045   5.517   3.812   7.089
 9432SOL     OW38046   4.807   4.883   6.445
 9432SOL    HW238047   4.899   4.864   6.463
 9432SOL    HW338048   4.780   4.813   6.385
 9432SOL    MW438049   4.815   4.871   6.439
 9433SOL     OW38050   4.600   4.703   5.800
 9433SOL    HW238051   4.586   4.615   5.765
 9433SOL    HW338052   4.551   4.760   5.741
 9433SOL    MW438053   4.592   4.698   5.788
 9434SOL     OW38054   5.081   5.121   6.541
 9434SOL    HW238055   5.054   5.205   6.506
 9434SOL    HW338056   5.041   5.116   6.628
 9434SOL    MW438057   5.074   5.130   6.547
 9435SOL     OW38058   5.000   5.069   6.809
 9435SOL    HW238059   5.011   5.036   6.898
 9435SOL    HW338060   4.919   5.028   6.778
 9435SOL    MW438061   4.990   5.061   6.815
 9436SOL     OW38062   4.013   4.427   6.579
 9436SOL    HW238063   3.963   4.426   6.660
 9436SOL    HW338064   4.033   4.519   6.563
 9436SOL    MW438065   4.009   4.439   6.587
 9437SOL     OW38066   5.080   5.191   7.341
 9437SOL    HW238067   5.080   5.285   7.357
 9437SOL    HW338068   5.125   5.181   7.257
 9437SOL    MW438069   5.086   5.201   7.332
 9438SOL     OW38070   5.319   3.909   5.902
 9438SOL    HW238071   5.312   3.913   5.997
 9438SOL    HW338072   5.331   4.000   5.875
 9438SOL    MW438073   5.320   3.922   5.910
 9439SOL     OW38074   4.608   4.472   6.016
 9439SOL    HW238075   4.588   4.458   5.923
 9439SOL    HW338076   4.701   4.451   6.023
 9439SOL    MW438077   4.618   4.467   6.005
 9440SOL     OW38078   3.935   4.095   7.320
 9440SOL    HW238079   3.892   4.154   7.257
 9440SOL    HW338080   4.003   4.150   7.360
 9440SOL    MW438081   3.939   4.110   7.317
 9441SOL     OW38082   5.047   4.715   6.865
 9441SOL    HW238083   5.110   4.712   6.938
 9441SOL    HW338084   4.963   4.733   6.907
 9441SOL    MW438085   5.043   4.717   6.880
 9442SOL     OW38086   4.591   5.430   6.054
 9442SOL    HW238087   4.649   5.501   6.081
 9442SOL    HW338088   4.614   5.358   6.112
 9442SOL    MW438089   4.602   5.430   6.065
 9443SOL     OW38090   5.386   3.892   6.644
 9443SOL    HW238091   5.431   3.810   6.663
 9443SOL    HW338092   5.406   3.948   6.720
 9443SOL    MW438093   5.396   3.888   6.656
 9444SOL     OW38094   3.834   3.735   6.743
 9444SOL    HW238095   3.825   3.736   6.648
 9444SOL    HW338096   3.928   3.747   6.758
 9444SOL    MW438097   3.846   3.738   6.734
 9445SOL     OW38098   5.471   4.928   6.363
 9445SOL    HW238099   5.450   4.874   6.286
 9445SOL    HW338100   5.567   4.926   6.367
 9445SOL    MW438101   5.480   4.921   6.352
 9446SOL     OW38102   4.163   5.073   7.106
 9446SOL    HW238103   4.084   5.023   7.129
 9446SOL    HW338104   4.233   5.032   7.156
 9446SOL    MW438105   4.161   5.061   7.116
 9447SOL     OW38106   4.047   3.862   5.789
 9447SOL    HW238107   3.976   3.917   5.757
 9447SOL    HW338108   4.089   3.828   5.710
 9447SOL    MW438109   4.043   3.864   5.775
 9448SOL     OW38110   5.171   4.359   6.625
 9448SOL    HW238111   5.094   4.405   6.591
 9448SOL    HW338112   5.228   4.428   6.659
 9448SOL    MW438113   5.168   4.374   6.625
 9449SOL     OW38114   3.803   3.961   5.638
 9449SOL    HW238115   3.770   4.040   5.682
 9449SOL    HW338116   3.858   3.994   5.567
 9449SOL    MW438117   3.806   3.975   5.635
 9450SOL     OW38118   3.837   5.218   5.827
 9450SOL    HW238119   3.854   5.302   5.869
 9450SOL    HW338120   3.872   5.227   5.739
 9450SOL    MW438121   3.842   5.231   5.821
 9451SOL     OW38122   5.109   5.307   6.044
 9451SOL    HW238123   5.172   5.297   5.973
 9451SOL    HW338124   5.026   5.327   5.999
 9451SOL    MW438125   5.106   5.308   6.029
 9452SOL     OW38126   5.472   6.444   0.257
 9452SOL    HW238127   5.513   6.386   0.322
 9452SOL    HW338128   5.379   6.436   0.274
 9452SOL    MW438129   5.466   6.436   0.267
 9453SOL     OW38130   5.338   6.376   1.252
 9453SOL    HW238131   5.293   6.443   1.303
 9453SOL    HW338132   5.426   6.412   1.238
 9453SOL    MW438133   5.344   6.389   1.256
 9454SOL     OW38134   4.266   6.627   0.486
 9454SOL    HW238135   4.356   6.602   0.470
 9454SOL    HW338136   4.262   6.720   0.463
 9454SOL    MW438137   4.278   6.636   0.481
 9455SOL     OW38138   5.382   7.330   0.628
 9455SOL    HW238139   5.394   7.276   0.706
 9455SOL    HW338140   5.419   7.278   0.557
 9455SOL    MW438141   5.388   7.315   0.629
 9456SOL     OW38142   4.761   7.215   1.629
 9456SOL    HW238143   4.802   7.251   1.550
 9456SOL    HW338144   4.796   7.126   1.636
 9456SOL    MW438145   4.772   7.208   1.620
 9457SOL     OW38146   5.318   6.770   1.233
 9457SOL    HW238147   5.239   6.735   1.191
 9457SOL    HW338148   5.345   6.842   1.177
 9457SOL    MW438149   5.311   6.775   1.220
 9458SOL     OW38150   4.550   6.083   0.499
 9458SOL    HW238151   4.525   6.171   0.527
 9458SOL    HW338152   4.547   6.086   0.403
 9458SOL    MW438153   4.546   6.095   0.491
 9459SOL     OW38154   3.992   6.111   0.427
 9459SOL    HW238155   4.024   6.199   0.409
 9459SOL    HW338156   3.980   6.109   0.522
 9459SOL    MW438157   3.995   6.123   0.439
 9460SOL     OW38158   4.070   6.524   1.328
 9460SOL    HW238159   4.133   6.471   1.279
 9460SOL    HW338160   4.051   6.598   1.271
 9460SOL    MW438161   4.076   6.526   1.315
 9461SOL     OW38162   4.391   5.866   0.514
 9461SOL    HW238163   4.449   5.942   0.516
 9461SOL    HW338164   4.326   5.887   0.447
 9461SOL    MW438165   4.390   5.878   0.505
 9462SOL     OW38166   4.478   6.793   0.689
 9462SOL    HW238167   4.558   6.796   0.741
 9462SOL    HW338168   4.506   6.760   0.603
 9462SOL    MW438169   4.492   6.789   0.684
 9463SOL     OW38170   4.503   7.134   1.592
 9463SOL    HW238171   4.587   7.160   1.631
 9463SOL    HW338172   4.527   7.078   1.518
 9463SOL    MW438173   4.517   7.130   1.587
 9464SOL     OW38174   4.255   6.297   0.680
 9464SOL    HW238175   4.240   6.217   0.731
 9464SOL    HW338176   4.337   6.332   0.714
 9464SOL    MW438177   4.263   6.289   0.692
 9465SOL     OW38178   4.592   6.983   1.365
 9465SOL    HW238179   4.556   7.049   1.305
 9465SOL    HW338180   4.520   6.921   1.378
 9465SOL    MW438181   4.578   6.983   1.359
 9466SOL     OW38182   4.397   6.123   1.057
 9466SOL    HW238183   4.303   6.119   1.075
 9466SOL    HW338184   4.427   6.032   1.066
 9466SOL    MW438185   4.388   6.111   1.060
 9467SOL     OW38186   4.143   6.537   0.961
 9467SOL    HW238187   4.098   6.544   0.877
 9467SOL    HW338188   4.123   6.620   1.005
 9467SOL    MW438189   4.135   6.549   0.955
 9468SOL     OW38190   3.840   7.383   0.836
 9468SOL    HW238191   3.929   7.375   0.871
 9468SOL    HW338192   3.804   7.295   0.841
 9468SOL    MW438193   3.847   7.370   0.841
 9469SOL     OW38194   5.105   6.775   0.205
 9469SOL    HW238195   5.023   6.811   0.171
 9469SOL    HW338196   5.173   6.818   0.154
 9469SOL    MW438197   5.103   6.785   0.193
 9470SOL     OW38198   4.104   6.910   0.871
 9470SOL    HW238199   4.080   6.963   0.947
 9470SOL    HW338200   4.160   6.968   0.819
 9470SOL    MW438201   4.108   6.925   0.874
 9471SOL     OW38202   4.666   6.554   0.681
 9471SOL    HW238203   4.580   6.541   0.721
 9471SOL    HW338204   4.719   6.481   0.713
 9471SOL    MW438205   4.662   6.543   0.690
 9472SOL     OW38206   4.074   7.206   1.466
 9472SOL    HW238207   3.982   7.182   1.451
 9472SOL    HW338208   4.118   7.123   1.483
 9472SOL    MW438209   4.068   7.191   1.465
 9473SOL     OW38210   4.657   6.916   0.398
 9473SOL    HW238211   4.634   6.978   0.466
 9473SOL    HW338212   4.614   6.834   0.424
 9473SOL    MW438213   4.649   6.912   0.409
 9474SOL     OW38214   5.530   5.917   0.854
 9474SOL    HW238215   5.467   5.897   0.923
 9474SOL    HW338216   5.520   5.846   0.791
 9474SOL    MW438217   5.520   5.904   0.855
 9475SOL     OW38218   4.154   5.889   0.366
 9475SOL    HW238219   4.128   5.851   0.282
 9475SOL    HW338220   4.091   5.959   0.382
 9475SOL    MW438221   4.143   5.892   0.357
 9476SOL     OW38222   3.989   6.850   0.403
 9476SOL    HW238223   3.937   6.918   0.359
 9476SOL    HW338224   3.986   6.776   0.343
 9476SOL    MW438225   3.981   6.849   0.390
 9477SOL     OW38226   4.651   7.313   0.181
 9477SOL    HW238227   4.606   7.329   0.264
 9477SOL    HW338228   4.582   7.278   0.123
 9477SOL    MW438229   4.637   7.310   0.183
 9478SOL     OW38230   5.586   6.086   0.156
 9478SOL    HW238231   5.495   6.088   0.184
 9478SOL    HW338232   5.631   6.148   0.214
 9478SOL    MW438233   5.579   6.094   0.166
 9479SOL     OW38234   5.331   6.689   0.506
 9479SOL    HW238235   5.241   6.689   0.541
 9479SOL    HW338236   5.324   6.735   0.423
 9479SOL    MW438237   5.318   6.695   0.500
 9480SOL     OW38238   5.131   6.324   1.578
 9480SOL    HW238239   5.200   6.262   1.555
 9480SOL    HW338240   5.056   6.298   1.525
 9480SOL    MW438241   5.131   6.311   1.569
 9481SOL     OW38242   3.872   7.204   1.130
 9481SOL    HW238243   3.855   7.150   1.207
 9481SOL    HW338244   3.860   7.294   1.160
 9481SOL    MW438245   3.869   7.208   1.144
 9482SOL     OW38246   4.867   6.711   1.570
 9482SOL    HW238247   4.852   6.804   1.555
 9482SOL    HW338248   4.962   6.701   1.570
 9482SOL    MW438249   4.876   6.721   1.567
 9483SOL     OW38250   4.663   6.135   1.771
 9483SOL    HW238251   4.753   6.136   1.738
 9483SOL    HW338252   4.622   6.060   1.729
 9483SOL    MW438253   4.669   6.125   1.762
 9484SOL     OW38254   5.238   6.667   0.898
 9484SOL    HW238255   5.241   6.601   0.829
 9484SOL    HW338256   5.323   6.710   0.894
 9484SOL    MW438257   5.250   6.663   0.889
 9485SOL     OW38258   4.858   6.270   0.467
 9485SOL    HW238259   4.884   6.294   0.378
 9485SOL    HW338260   4.840   6.177   0.463
 9485SOL    MW438261   4.860   6.262   0.454
 9486SOL     OW38262   5.523   6.890   0.318
 9486SOL    HW238263   5.479   6.931   0.393
 9486SOL    HW338264   5.580   6.958   0.283
 9486SOL    MW438265   5.525   6.904   0.323
 9487SOL     OW38266   4.443   5.939   1.721
 9487SOL    HW238267   4.453   5.865   1.661
 9487SOL    HW338268   4.479   5.908   1.804
 9487SOL    MW438269   4.449   5.925   1.723
 9488SOL     OW38270   4.179   7.306   0.636
 9488SOL    HW238271   4.211   7.394   0.614
 9488SOL    HW338272   4.132   7.278   0.558
 9488SOL    MW438273   4.178   7.314   0.623
 9489SOL     OW38274   5.563   5.668   0.685
 9489SOL    HW238275   5.617   5.619   0.747
 9489SOL    HW338276   5.506   5.602   0.646
 9489SOL    MW438277   5.563   5.652   0.687
 9490SOL     OW38278   3.895   7.366   0.213
 9490SOL    HW238279   3.924   7.456   0.205
 9490SOL    HW338280   3.845   7.349   0.134
 9490SOL    MW438281   3.893   7.374   0.202
 9491SOL     OW38282   4.682   5.621   1.098
 9491SOL    HW238283   4.641   5.699   1.060
 9491SOL    HW338284   4.776   5.639   1.093
 9491SOL    MW438285   4.688   5.633   1.093
 9492SOL     OW38286   5.299   7.174   0.184
 9492SOL    HW238287   5.347   7.243   0.230
 9492SOL    HW338288   5.220   7.218   0.153
 9492SOL    MW438289   5.294   7.188   0.187
 9493SOL     OW38290   4.697   6.299   0.128
 9493SOL    HW238291   4.699   6.246   0.049
 9493SOL    HW338292   4.785   6.336   0.134
 9493SOL    MW438293   4.709   6.298   0.117
 9494SOL     OW38294   5.311   6.225   0.464
 9494SOL    HW238295   5.350   6.225   0.551
 9494SOL    HW338296   5.252   6.301   0.464
 9494SOL    MW438297   5.308   6.236   0.475
 9495SOL     OW38298   4.628   6.592   1.593
 9495SOL    HW238299   4.605   6.572   1.683
 9495SOL    HW338300   4.713   6.636   1.598
 9495SOL    MW438301   4.635   6.595   1.605
 9496SOL     OW38302   4.708   5.729   1.353
 9496SOL    HW238303   4.714   5.691   1.266
 9496SOL    HW338304   4.697   5.823   1.338
 9496SOL    MW438305   4.709   5.737   1.341
 9497SOL     OW38306   4.797   6.218   1.187
 9497SOL    HW238307   4.872   6.247   1.134
 9497SOL    HW338308   4.729   6.283   1.171
 9497SOL    MW438309   4.798   6.230   1.177
 9498SOL     OW38310   5.347   6.186   1.464
 9498SOL    HW238311   5.328   6.095   1.443
 9498SOL    HW338312   5.325   6.235   1.385
 9498SOL    MW438313   5.342   6.179   1.451
 9499SOL     OW38314   5.489   7.280   1.368
 9499SOL    HW238315   5.417   7.242   1.419
 9499SOL    HW338316   5.506   7.365   1.409
 9499SOL    MW438317   5.483   7.285   1.380
 9500SOL     OW38318   4.794   5.924   1.570
 9500SOL    HW238319   4.760   5.963   1.489
 9500SOL    HW338320   4.772   5.832   1.563
 9500SOL    MW438321   4.787   5.917   1.560
 9501SOL     OW38322   5.203   6.738   1.646
 9501SOL    HW238323   5.285   6.779   1.676
 9501SOL    HW338324   5.166   6.700   1.726
 9501SOL    MW438325   5.209   6.739   1.661
 9502SOL     OW38326   5.498   6.111   0.630
 9502SOL    HW238327   5.587   6.080   0.647
 9502SOL    HW338328   5.441   6.051   0.678
 9502SOL    MW438329   5.501   6.099   0.639
 9503SOL     OW38330   3.924   5.825   0.659
 9503SOL    HW238331   3.915   5.765   0.585
 9503SOL    HW338332   3.857   5.796   0.722
 9503SOL    MW438333   3.914   5.812   0.657
 9504SOL     OW38334   4.867   6.918   0.220
 9504SOL    HW238335   4.817   6.920   0.302
 9504SOL    HW338336   4.801   6.936   0.152
 9504SOL    MW438337   4.853   6.920   0.222
 9505SOL     OW38338   3.871   5.998   1.022
 9505SOL    HW238339   3.843   6.089   1.031
 9505SOL    HW338340   3.808   5.959   0.961
 9505SOL    MW438341   3.858   6.004   1.016
 9506SOL     OW38342   4.330   7.336   0.328
 9506SOL    HW238343   4.251   7.294   0.361
 9506SOL    HW338344   4.396   7.319   0.395
 9506SOL    MW438345   4.329   7.328   0.341
 9507SOL     OW38346   5.458   6.856   1.725
 9507SOL    HW238347   5.508   6.782   1.757
 9507SOL    HW338348   5.404   6.883   1.800
 9507SOL    MW438349   5.458   6.850   1.738
 9508SOL     OW38350   4.466   6.751   0.035
 9508SOL    HW238351   4.388   6.697   0.022
 9508SOL    HW338352   4.437   6.824   0.088
 9508SOL    MW438353   4.452   6.753   0.040
 9509SOL     OW38354   5.592   6.491   1.227
 9509SOL    HW238355   5.608   6.529   1.140
 9509SOL    HW338356   5.626   6.557   1.288
 9509SOL    MW438357   5.599   6.504   1.223
 9510SOL     OW38358   5.384   7.200   0.896
 9510SOL    HW238359   5.413   7.267   0.957
 9510SOL    HW338360   5.365   7.124   0.951
 9510SOL    MW438361   5.386   7.200   0.911
 9511SOL     OW38362   5.047   7.267   0.103
 9511SOL    HW238363   4.973   7.230   0.153
 9511SOL    HW338364   5.055   7.357   0.136
 9511SOL    MW438365   5.038   7.274   0.115
 9512SOL     OW38366   3.855   6.273   1.192
 9512SOL    HW238367   3.917   6.303   1.258
 9512SOL    HW338368   3.789   6.342   1.186
 9512SOL    MW438369   3.854   6.286   1.199
 9513SOL     OW38370   5.271   6.941   0.045
 9513SOL    HW238371   5.218   6.990  -0.019
 9513SOL    HW338372   5.302   7.007   0.106
 9513SOL    MW438373   5.269   6.955   0.043
 9514SOL     OW38374   4.496   5.830   0.100
 9514SOL    HW238375   4.444   5.750   0.088
 9514SOL    HW338376   4.583   5.807   0.068
 9514SOL    MW438377   4.499   5.816   0.094
 9515SOL     OW38378   3.950   7.382   1.644
 9515SOL    HW238379   3.924   7.450   1.582
 9515SOL    HW338380   3.998   7.319   1.592
 9515SOL    MW438381   3.952   7.382   1.630
 9516SOL     OW38382   4.002   6.701   1.151
 9516SOL    HW238383   4.055   6.776   1.176
 9516SOL    HW338384   3.921   6.739   1.117
 9516SOL    MW438385   3.998   6.716   1.151
 9517SOL     OW38386   4.542   6.605   1.139
 9517SOL    HW238387   4.570   6.514   1.151
 9517SOL    HW338388   4.471   6.599   1.075
 9517SOL    MW438389   4.535   6.593   1.134
 9518SOL     OW38390   3.857   6.470   0.557
 9518SOL    HW238391   3.948   6.485   0.584
 9518SOL    HW338392   3.860   6.391   0.503
 9518SOL    MW438393   3.869   6.462   0.555
 9519SOL     OW38394   4.093   6.178   1.811
 9519SOL    HW238395   4.040   6.258   1.818
 9519SOL    HW338396   4.163   6.190   1.876
 9519SOL    MW438397   4.095   6.191   1.819
 9520SOL     OW38398   4.479   5.728   1.518
 9520SOL    HW238399   4.456   5.636   1.520
 9520SOL    HW338400   4.565   5.730   1.475
 9520SOL    MW438401   4.486   5.718   1.514
 9521SOL     OW38402   4.163   6.252   1.557
 9521SOL    HW238403   4.243   6.302   1.543
 9521SOL    HW338404   4.154   6.246   1.652
 9521SOL    MW438405   4.172   6.258   1.567
 9522SOL     OW38406   4.484   7.402   0.931
 9522SOL    HW238407   4.573   7.417   0.961
 9522SOL    HW338408   4.479   7.449   0.847
 9522SOL    MW438409   4.494   7.410   0.924
 9523SOL     OW38410   5.140   5.777   1.828
 9523SOL    HW238411   5.196   5.704   1.854
 9523SOL    HW338412   5.110   5.815   1.910
 9523SOL    MW438413   5.144   5.772   1.841
 9524SOL     OW38414   3.865   7.082   0.596
 9524SOL    HW238415   3.837   7.121   0.678
 9524SOL    HW338416   3.885   6.991   0.618
 9524SOL    MW438417   3.863   7.074   0.609
 9525SOL     OW38418   4.698   7.125   0.631
 9525SOL    HW238419   4.781   7.079   0.615
 9525SOL    HW338420   4.688   7.124   0.727
 9525SOL    MW438421   4.708   7.118   0.641
 9526SOL     OW38422   5.530   6.270   0.945
 9526SOL    HW238423   5.619   6.300   0.927
 9526SOL    HW338424   5.510   6.210   0.874
 9526SOL    MW438425   5.539   6.267   0.934
 9527SOL     OW38426   5.381   6.449   1.825
 9527SOL    HW238427   5.436   6.373   1.806
 9527SOL    HW338428   5.383   6.457   1.920
 9527SOL    MW438429   5.389   6.440   1.833
 9528SOL     OW38430   4.431   7.182   0.036
 9528SOL    HW238431   4.371   7.251   0.006
 9528SOL    HW338432   4.376   7.124   0.089
 9528SOL    MW438433   4.415   7.184   0.038
 9529SOL     OW38434   4.869   5.827   0.259
 9529SOL    HW238435   4.802   5.803   0.196
 9529SOL    HW338436   4.934   5.876   0.208
 9529SOL    MW438437   4.869   5.829   0.244
 9530SOL     OW38438   4.676   6.011   1.344
 9530SOL    HW238439   4.595   6.052   1.372
 9530SOL    HW338440   4.723   6.079   1.296
 9530SOL    MW438441   4.671   6.026   1.342
 9531SOL     OW38442   4.936   6.349   0.967
 9531SOL    HW238443   4.949   6.443   0.977
 9531SOL    HW338444   4.897   6.339   0.881
 9531SOL    MW438445   4.932   6.360   0.957
 9532SOL     OW38446   4.388   6.544   0.771
 9532SOL    HW238447   4.299   6.535   0.804
 9532SOL    HW338448   4.392   6.634   0.739
 9532SOL    MW438449   4.377   6.555   0.771
 9533SOL     OW38450   5.187   6.127   0.766
 9533SOL    HW238451   5.132   6.048   0.765
 9533SOL    HW338452   5.169   6.168   0.850
 9533SOL    MW438453   5.177   6.122   0.775
 9534SOL     OW38454   4.158   5.814   1.583
 9534SOL    HW238455   4.079   5.832   1.635
 9534SOL    HW338456   4.153   5.876   1.510
 9534SOL    MW438457   4.148   5.824   1.580
 9535SOL     OW38458   4.806   6.331   0.723
 9535SOL    HW238459   4.743   6.263   0.747
 9535SOL    HW338460   4.826   6.312   0.631
 9535SOL    MW438461   4.800   6.318   0.715
 9536SOL     OW38462   4.062   7.226   0.425
 9536SOL    HW238463   4.023   7.273   0.351
 9536SOL    HW338464   3.996   7.161   0.450
 9536SOL    MW438465   4.049   7.224   0.419
 9537SOL     OW38466   4.554   6.635   0.449
 9537SOL    HW238467   4.556   6.609   0.356
 9537SOL    HW338468   4.612   6.572   0.492
 9537SOL    MW438469   4.562   6.624   0.443
 9538SOL     OW38470   5.107   7.195   1.221
 9538SOL    HW238471   5.032   7.241   1.259
 9538SOL    HW338472   5.089   7.102   1.238
 9538SOL    MW438473   5.096   7.189   1.229
 9539SOL     OW38474   5.111   7.403   0.651
 9539SOL    HW238475   5.054   7.356   0.590
 9539SOL    HW338476   5.197   7.364   0.638
 9539SOL    MW438477   5.114   7.394   0.641
 9540SOL     OW38478   5.064   5.879   0.782
 9540SOL    HW238479   5.092   5.811   0.843
 9540SOL    HW338480   4.978   5.850   0.752
 9540SOL    MW438481   5.057   5.866   0.786
 9541SOL     OW38482   3.869   6.813   0.716
 9541SOL    HW238483   3.933   6.845   0.779
 9541SOL    HW338484   3.918   6.749   0.664
 9541SOL    MW438485   3.884   6.809   0.717
 9542SOL     OW38486   4.369   6.889   1.698
 9542SOL    HW238487   4.417   6.972   1.685
 9542SOL    HW338488   4.426   6.837   1.754
 9542SOL    MW438489   4.383   6.893   1.704
 9543SOL     OW38490   3.945   7.131   1.838
 9543SOL    HW238491   4.001   7.055   1.853
 9543SOL    HW338492   3.894   7.109   1.760
 9543SOL    MW438493   3.945   7.118   1.829
 9544SOL     OW38494   5.044   5.983   0.117
 9544SOL    HW238495   5.017   6.049   0.053
 9544SOL    HW338496   5.114   6.026   0.167
 9544SOL    MW438497   5.049   5.996   0.114
 9545SOL     OW38498   4.712   5.688   0.054
 9545SOL    HW238499   4.768   5.680  -0.024
 9545SOL    HW338500   4.689   5.598   0.076
 9545SOL    MW438501   4.717   5.675   0.047
 9546SOL     OW38502   5.217   6.539   0.259
 9546SOL    HW238503   5.184   6.628   0.249
 9546SOL    HW338504   5.182   6.510   0.344
 9546SOL    MW438505   5.207   6.548   0.270
 9547SOL     OW38506   4.830   6.968   1.447
 9547SOL    HW238507   4.741   6.974   1.415
 9547SOL    HW338508   4.874   7.047   1.415
 9547SOL    MW438509   4.825   6.978   1.439
 9548SOL     OW38510   4.123   5.636   1.789
 9548SOL    HW238511   4.051   5.601   1.737
 9548SOL    HW338512   4.181   5.677   1.724
 9548SOL    MW438513   4.121   5.637   1.774
 9549SOL     OW38514   4.147   7.126   1.088
 9549SOL    HW238515   4.192   7.188   1.145
 9549SOL    HW338516   4.054   7.145   1.101
 9549SOL    MW438517   4.140   7.136   1.095
 9550SOL     OW38518   4.569   7.194   1.196
 9550SOL    HW238519   4.593   7.183   1.105
 9550SOL    HW338520   4.492   7.251   1.194
 9550SOL    MW438521   4.561   7.199   1.185
 9551SOL     OW38522   4.211   6.577   0.051
 9551SOL    HW238523   4.134   6.590   0.107
 9551SOL    HW338524   4.175   6.541  -0.030
 9551SOL    MW438525   4.197   6.573   0.048
 9552SOL     OW38526   4.864   6.550   0.294
 9552SOL    HW238527   4.774   6.571   0.269
 9552SOL    HW338528   4.891   6.623   0.350
 9552SOL    MW438529   4.856   6.562   0.297
 9553SOL     OW38530   4.364   6.899   0.986
 9553SOL    HW238531   4.357   6.878   1.080
 9553SOL    HW338532   4.282   6.867   0.949
 9553SOL    MW438533   4.352   6.893   0.993
 9554SOL     OW38534   5.228   5.909   1.388
 9554SOL    HW238535   5.175   5.911   1.468
 9554SOL    HW338536   5.213   5.822   1.351
 9554SOL    MW438537   5.220   5.899   1.393
 9555SOL     OW38538   5.564   5.833   1.261
 9555SOL    HW238539   5.545   5.900   1.196
 9555SOL    HW338540   5.621   5.771   1.216
 9555SOL    MW438541   5.568   5.834   1.247
 9556SOL     OW38542   3.810   6.991   1.649
 9556SOL    HW238543   3.854   6.924   1.595
 9556SOL    HW338544   3.725   6.953   1.669
 9556SOL    MW438545   3.805   6.977   1.645
 9557SOL     OW38546   4.493   5.666   0.701
 9557SOL    HW238547   4.422   5.727   0.683
 9557SOL    HW338548   4.544   5.663   0.620
 9557SOL    MW438549   4.489   5.672   0.688
 9558SOL     OW38550   4.251   6.906   0.450
 9558SOL    HW238551   4.244   6.938   0.540
 9558SOL    HW338552   4.161   6.890   0.422
 9558SOL    MW438553   4.239   6.908   0.457
 9559SOL     OW38554   4.846   7.299   1.359
 9559SOL    HW238555   4.766   7.284   1.309
 9559SOL    HW338556   4.853   7.394   1.366
 9559SOL    MW438557   4.837   7.310   1.353
 9560SOL     OW38558   4.960   7.264   0.849
 9560SOL    HW238559   5.007   7.337   0.808
 9560SOL    HW338560   4.881   7.303   0.885
 9560SOL    MW438561   4.955   7.279   0.848
 9561SOL     OW38562   5.368   7.359   1.124
 9561SOL    HW238563   5.411   7.329   1.204
 9561SOL    HW338564   5.287   7.307   1.121
 9561SOL    MW438565   5.363   7.348   1.134
 9562SOL     OW38566   4.453   6.323   1.831
 9562SOL    HW238567   4.523   6.265   1.803
 9562SOL    HW338568   4.396   6.268   1.886
 9562SOL    MW438569   4.455   6.310   1.835
 9563SOL     OW38570   5.240   6.535   1.464
 9563SOL    HW238571   5.245   6.588   1.544
 9563SOL    HW338572   5.202   6.452   1.492
 9563SOL    MW438573   5.236   6.530   1.479
 9564SOL     OW38574   4.880   5.670   1.710
 9564SOL    HW238575   4.875   5.577   1.691
 9564SOL    HW338576   4.963   5.681   1.756
 9564SOL    MW438577   4.888   5.659   1.714
 9565SOL     OW38578   4.254   6.190   0.164
 9565SOL    HW238579   4.220   6.246   0.234
 9565SOL    HW338580   4.325   6.140   0.204
 9565SOL    MW438581   4.260   6.191   0.178
 9566SOL     OW38582   5.350   6.941   0.986
 9566SOL    HW238583   5.385   6.923   0.899
 9566SOL    HW338584   5.255   6.942   0.973
 9566SOL    MW438585   5.342   6.938   0.973
 9567SOL     OW38586   4.779   6.589   1.355
 9567SOL    HW238587   4.822   6.624   1.433
 9567SOL    HW338588   4.762   6.666   1.301
 9567SOL    MW438589   4.782   6.604   1.358
 9568SOL     OW38590   5.310   6.076   0.228
 9568SOL    HW238591   5.302   6.147   0.165
 9568SOL    HW338592   5.328   6.120   0.311
 9568SOL    MW438593   5.311   6.090   0.230
 9569SOL     OW38594   4.170   5.731   0.657
 9569SOL    HW238595   4.220   5.774   0.588
 9569SOL    HW338596   4.085   5.775   0.657
 9569SOL    MW438597   4.167   5.744   0.648
 9570SOL     OW38598   3.929   6.793   1.517
 9570SOL    HW238599   3.957   6.746   1.595
 9570SOL    HW338600   3.850   6.748   1.488
 9570SOL    MW438601   3.922   6.782   1.523
 9571SOL     OW38602   4.437   6.120   1.484
 9571SOL    HW238603   4.409   6.208   1.508
 9571SOL    HW338604   4.406   6.064   1.555
 9571SOL    MW438605   4.429   6.123   1.496
 9572SOL     OW38606   4.979   6.338   0.203
 9572SOL    HW238607   5.026   6.356   0.122
 9572SOL    HW338608   4.945   6.422   0.231
 9572SOL    MW438609   4.981   6.352   0.196
 9573SOL     OW38610   4.092   6.516   0.697
 9573SOL    HW238611   4.150   6.572   0.645
 9573SOL    HW338612   4.136   6.431   0.699
 9573SOL    MW438613   4.105   6.513   0.690
 9574SOL     OW38614   5.232   5.868   0.534
 9574SOL    HW238615   5.154   5.818   0.559
 9574SOL    HW338616   5.203   5.959   0.534
 9574SOL    MW438617   5.218   5.872   0.537
 9575SOL     OW38618   4.818   5.830   0.693
 9575SOL    HW238619   4.838   5.905   0.637
 9575SOL    HW338620   4.798   5.869   0.778
 9575SOL    MW438621   4.819   5.846   0.697
 9576SOL     OW38622   4.714   7.080   0.025
 9576SOL    HW238623   4.741   7.158  -0.023
 9576SOL    HW338624   4.621   7.095   0.044
 9576SOL    MW438625   4.705   7.093   0.021
 9577SOL     OW38626   3.799   7.116   0.869
 9577SOL    HW238627   3.831   7.120   0.960
 9577SOL    HW338628   3.704   7.124   0.877
 9577SOL    MW438629   3.791   7.119   0.882
 9578SOL     OW38630   3.754   6.242   0.416
 9578SOL    HW238631   3.694   6.214   0.486
 9578SOL    HW338632   3.828   6.182   0.422
 9578SOL    MW438633   3.756   6.231   0.425
 9579SOL     OW38634   5.322   7.454   1.850
 9579SOL    HW238635   5.367   7.378   1.815
 9579SOL    HW338636   5.360   7.467   1.937
 9579SOL    MW438637   5.332   7.447   1.856
 9580SOL     OW38638   4.922   6.973   0.576
 9580SOL    HW238639   4.945   6.924   0.654
 9580SOL    HW338640   5.003   7.015   0.548
 9580SOL    MW438641   4.935   6.973   0.583
 9581SOL     OW38642   4.180   5.981   1.305
 9581SOL    HW238643   4.213   6.062   1.345
 9581SOL    HW338644   4.153   6.007   1.217
 9581SOL    MW438645   4.179   5.995   1.299
 9582SOL     OW38646   4.134   5.948   1.041
 9582SOL    HW238647   4.164   5.862   1.012
 9582SOL    HW338648   4.039   5.941   1.044
 9582SOL    MW438649   4.126   5.937   1.039
 9583SOL     OW38650   4.963   6.157   1.732
 9583SOL    HW238651   5.015   6.092   1.685
 9583SOL    HW338652   4.921   6.208   1.662
 9583SOL    MW438653   4.964   6.154   1.715
 9584SOL     OW38654   5.062   5.952   1.593
 9584SOL    HW238655   4.969   5.936   1.580
 9584SOL    HW338656   5.088   5.890   1.661
 9584SOL    MW438657   5.052   5.942   1.600
 9585SOL     OW38658   4.277   5.726   0.932
 9585SOL    HW238659   4.287   5.635   0.958
 9585SOL    HW338660   4.233   5.722   0.847
 9585SOL    MW438661   4.273   5.714   0.924
 9586SOL     OW38662   4.371   7.341   1.478
 9586SOL    HW238663   4.288   7.326   1.523
 9586SOL    HW338664   4.430   7.274   1.513
 9586SOL    MW438665   4.369   7.331   1.488
 9587SOL     OW38666   5.428   6.048   1.103
 9587SOL    HW238667   5.361   6.081   1.163
 9587SOL    HW338668   5.471   6.126   1.069
 9587SOL    MW438669   5.426   6.063   1.107
 9588SOL     OW38670   5.606   6.768   1.073
 9588SOL    HW238671   5.599   6.708   0.998
 9588SOL    HW338672   5.532   6.828   1.062
 9588SOL    MW438673   5.596   6.768   1.062
 9589SOL     OW38674   4.988   6.630   0.991
 9589SOL    HW238675   5.002   6.602   1.082
 9589SOL    HW338676   5.074   6.661   0.963
 9589SOL    MW438677   5.001   6.631   1.000
 9590SOL     OW38678   5.071   6.125   1.270
 9590SOL    HW238679   5.092   6.126   1.177
 9590SOL    HW338680   5.116   6.047   1.303
 9590SOL    MW438681   5.078   6.115   1.262
 9591SOL     OW38682   5.111   6.554   1.863
 9591SOL    HW238683   5.177   6.502   1.817
 9591SOL    HW338684   5.131   6.541   1.956
 9591SOL    MW438685   5.122   6.545   1.870
 9592SOL     OW38686   5.062   5.640   0.212
 9592SOL    HW238687   5.136   5.684   0.255
 9592SOL    HW338688   4.986   5.694   0.234
 9592SOL    MW438689   5.062   5.652   0.220
 9593SOL     OW38690   5.122   6.415   0.490
 9593SOL    HW238691   5.037   6.385   0.460
 9593SOL    HW338692   5.114   6.422   0.585
 9593SOL    MW438693   5.110   6.413   0.499
 9594SOL     OW38694   4.198   6.878   1.221
 9594SOL    HW238695   4.210   6.905   1.312
 9594SOL    HW338696   4.179   6.959   1.174
 9594SOL    MW438697   4.197   6.893   1.226
 9595SOL     OW38698   4.482   5.858   1.044
 9595SOL    HW238699   4.455   5.860   1.135
 9595SOL    HW338700   4.412   5.810   0.999
 9595SOL    MW438701   4.470   5.854   1.051
 9596SOL     OW38702   4.336   7.350   1.206
 9596SOL    HW238703   4.388   7.427   1.183
 9596SOL    HW338704   4.345   7.342   1.301
 9596SOL    MW438705   4.345   7.357   1.217
 9597SOL     OW38706   5.238   6.935   1.438
 9597SOL    HW238707   5.223   6.864   1.501
 9597SOL    HW338708   5.284   6.893   1.366
 9597SOL    MW438709   5.244   6.919   1.438
 9598SOL     OW38710   4.312   6.666   1.555
 9598SOL    HW238711   4.349   6.671   1.467
 9598SOL    HW338712   4.351   6.739   1.602
 9598SOL    MW438713   4.322   6.676   1.550
 9599SOL     OW38714   4.492   6.709   1.367
 9599SOL    HW238715   4.551   6.655   1.420
 9599SOL    HW338716   4.507   6.681   1.277
 9599SOL    MW438717   4.502   6.698   1.363
 9600SOL     OW38718   4.495   6.081   0.216
 9600SOL    HW238719   4.568   6.130   0.179
 9600SOL    HW338720   4.511   5.990   0.190
 9600SOL    MW438721   4.507   6.076   0.209
 9601SOL     OW38722   5.303   7.198   1.539
 9601SOL    HW238723   5.345   7.183   1.624
 9601SOL    HW338724   5.294   7.111   1.501
 9601SOL    MW438725   5.307   7.186   1.546
 9602SOL     OW38726   4.963   5.677   1.130
 9602SOL    HW238727   5.018   5.686   1.052
 9602SOL    HW338728   5.018   5.711   1.201
 9602SOL    MW438729   4.977   5.682   1.129
 9603SOL     OW38730   3.970   6.590   0.314
 9603SOL    HW238731   3.907   6.606   0.243
 9603SOL    HW338732   3.917   6.553   0.385
 9603SOL    MW438733   3.955   6.587   0.314
 9604SOL     OW38734   4.326   6.944   0.173
 9604SOL    HW238735   4.341   6.920   0.265
 9604SOL    HW338736   4.234   6.922   0.157
 9604SOL    MW438737   4.316   6.937   0.183
 9605SOL     OW38738   4.865   7.175   0.325
 9605SOL    HW238739   4.873   7.093   0.276
 9605SOL    HW338740   4.784   7.214   0.292
 9605SOL    MW438741   4.855   7.170   0.315
 9606SOL     OW38742   4.124   7.333   0.894
 9606SOL    HW238743   4.128   7.244   0.929
 9606SOL    HW338744   4.150   7.324   0.803
 9606SOL    MW438745   4.127   7.321   0.886
 9607SOL     OW38746   4.741   6.811   1.137
 9607SOL    HW238747   4.673   6.745   1.153
 9607SOL    HW338748   4.759   6.805   1.044
 9607SOL    MW438749   4.734   6.802   1.128
 9608SOL     OW38750   3.830   7.086   1.388
 9608SOL    HW238751   3.820   7.044   1.474
 9608SOL    HW338752   3.751   7.139   1.378
 9608SOL    MW438753   3.819   7.087   1.399
 9609SOL     OW38754   4.734   5.950   0.958
 9609SOL    HW238755   4.664   5.902   1.003
 9609SOL    HW338756   4.766   6.013   1.022
 9609SOL    MW438757   4.729   5.952   0.972
 9610SOL     OW38758   4.385   6.386   1.578
 9610SOL    HW238759   4.378   6.481   1.566
 9610SOL    HW338760   4.394   6.375   1.673
 9610SOL    MW438761   4.386   6.398   1.588
 9611SOL     OW38762   4.106   6.901   1.836
 9611SOL    HW238763   4.178   6.903   1.773
 9611SOL    HW338764   4.076   6.810   1.835
 9611SOL    MW438765   4.111   6.890   1.828
 9612SOL     OW38766   5.190   5.664   1.303
 9612SOL    HW238767   5.261   5.610   1.267
 9612SOL    HW338768   5.189   5.643   1.396
 9612SOL    MW438769   5.199   5.655   1.311
 9613SOL     OW38770   5.390   7.194   1.787
 9613SOL    HW238771   5.363   7.191   1.878
 9613SOL    HW338772   5.486   7.198   1.790
 9613SOL    MW438773   5.400   7.194   1.799
 9614SOL     OW38774   4.201   6.056   0.771
 9614SOL    HW238775   4.272   6.004   0.734
 9614SOL    HW338776   4.187   6.021   0.858
 9614SOL    MW438777   4.209   6.045   0.778
 9615SOL     OW38778   3.756   7.391   1.843
 9615SOL    HW238779   3.806   7.369   1.765
 9615SOL    HW338780   3.764   7.486   1.851
 9615SOL    MW438781   3.764   7.400   1.834
 9616SOL     OW38782   4.517   7.149   0.847
 9616SOL    HW238783   4.445   7.086   0.860
 9616SOL    HW338784   4.478   7.234   0.865
 9616SOL    MW438785   4.501   7.152   0.850
 9617SOL     OW38786   4.837   5.997   0.495
 9617SOL    HW238787   4.859   5.934   0.427
 9617SOL    HW338788   4.742   5.989   0.506
 9617SOL    MW438789   4.827   5.988   0.487
 9618SOL     OW38790   3.922   5.687   0.427
 9618SOL    HW238791   3.993   5.708   0.366
 9618SOL    HW338792   3.876   5.615   0.385
 9618SOL    MW438793   3.926   5.681   0.413
 9619SOL     OW38794   3.753   6.154   1.570
 9619SOL    HW238795   3.817   6.220   1.545
 9619SOL    HW338796   3.672   6.181   1.527
 9619SOL    MW438797   3.751   6.166   1.562
 9620SOL     OW38798   5.491   7.061   0.527
 9620SOL    HW238799   5.461   6.994   0.588
 9620SOL    HW338800   5.585   7.067   0.541
 9620SOL    MW438801   5.499   7.053   0.537
 9621SOL     OW38802   5.047   6.738   0.457
 9621SOL    HW238803   5.019   6.824   0.490
 9621SOL    HW338804   5.075   6.754   0.367
 9621SOL    MW438805   5.047   6.752   0.449
 9622SOL     OW38806   4.709   5.658   0.510
 9622SOL    HW238807   4.746   5.717   0.575
 9622SOL    HW338808   4.686   5.714   0.436
 9622SOL    MW438809   4.710   5.673   0.509
 9623SOL     OW38810   5.562   6.540   0.932
 9623SOL    HW238811   5.553   6.572   0.843
 9623SOL    HW338812   5.515   6.456   0.932
 9623SOL    MW438813   5.555   6.533   0.922
 9624SOL     OW38814   3.938   6.380   1.511
 9624SOL    HW238815   3.959   6.449   1.449
 9624SOL    HW338816   4.018   6.327   1.516
 9624SOL    MW438817   3.951   6.381   1.505
 9625SOL     OW38818   5.474   6.471   0.633
 9625SOL    HW238819   5.568   6.460   0.621
 9625SOL    HW338820   5.450   6.543   0.574
 9625SOL    MW438821   5.484   6.479   0.624
 9626SOL     OW38822   3.923   6.395   1.778
 9626SOL    HW238823   3.849   6.339   1.804
 9626SOL    HW338824   3.918   6.398   1.683
 9626SOL    MW438825   3.912   6.388   1.768
 9627SOL     OW38826   4.089   5.682   1.228
 9627SOL    HW238827   4.132   5.766   1.248
 9627SOL    HW338828   4.162   5.620   1.221
 9627SOL    MW438829   4.104   5.685   1.229
 9628SOL     OW38830   4.130   6.349   0.406
 9628SOL    HW238831   4.130   6.444   0.391
 9628SOL    HW338832   4.207   6.333   0.460
 9628SOL    MW438833   4.140   6.360   0.411
 9629SOL     OW38834   4.906   6.208   1.470
 9629SOL    HW238835   4.942   6.181   1.386
 9629SOL    HW338836   4.819   6.242   1.449
 9629SOL    MW438837   4.900   6.209   1.457
 9630SOL     OW38838   3.889   6.080   0.695
 9630SOL    HW238839   3.951   6.087   0.768
 9630SOL    HW338840   3.889   5.987   0.672
 9630SOL    MW438841   3.897   6.069   0.702
 9631SOL     OW38842   5.436   7.420   0.227
 9631SOL    HW238843   5.503   7.453   0.167
 9631SOL    HW338844   5.393   7.499   0.261
 9631SOL    MW438845   5.438   7.435   0.223
 9632SOL     OW38846   4.571   6.341   1.179
 9632SOL    HW238847   4.529   6.259   1.155
 9632SOL    HW338848   4.572   6.340   1.275
 9632SOL    MW438849   4.564   6.330   1.188
 9633SOL     OW38850   5.242   7.474   1.578
 9633SOL    HW238851   5.245   7.380   1.561
 9633SOL    HW338852   5.265   7.482   1.670
 9633SOL    MW438853   5.245   7.462   1.588
 9634SOL     OW38854   4.375   5.811   1.284
 9634SOL    HW238855   4.306   5.874   1.305
 9634SOL    HW338856   4.402   5.775   1.369
 9634SOL    MW438857   4.369   5.814   1.297
 9635SOL     OW38858   3.758   6.652   0.153
 9635SOL    HW238859   3.727   6.717   0.216
 9635SOL    HW338860   3.707   6.574   0.172
 9635SOL    MW438861   3.748   6.649   0.163
 9636SOL     OW38862   5.170   5.664   0.901
 9636SOL    HW238863   5.258   5.673   0.938
 9636SOL    HW338864   5.180   5.605   0.827
 9636SOL    MW438865   5.184   5.658   0.895
 9637SOL     OW38866   5.202   6.403   0.745
 9637SOL    HW238867   5.282   6.418   0.694
 9637SOL    HW338868   5.195   6.308   0.751
 9637SOL    MW438869   5.211   6.392   0.740
 9638SOL     OW38870   4.342   7.452   0.095
 9638SOL    HW238871   4.247   7.452   0.087
 9638SOL    HW338872   4.358   7.398   0.173
 9638SOL    MW438873   4.332   7.446   0.104
 9639SOL     OW38874   4.652   6.329   1.442
 9639SOL    HW238875   4.721   6.396   1.439
 9639SOL    HW338876   4.585   6.367   1.498
 9639SOL    MW438877   4.653   6.342   1.449
 9640SOL     OW38878   4.070   6.629   1.690
 9640SOL    HW238879   4.024   6.545   1.692
 9640SOL    HW338880   4.127   6.623   1.614
 9640SOL    MW438881   4.072   6.617   1.682
 9641SOL     OW38882   5.187   6.272   0.011
 9641SOL    HW238883   5.115   6.248  -0.047
 9641SOL    HW338884   5.253   6.309  -0.047
 9641SOL    MW438885   5.186   6.274  -0.004
 9642SOL     OW38886   4.321   7.004   0.691
 9642SOL    HW238887   4.386   6.937   0.712
 9642SOL    HW338888   4.373   7.081   0.668
 9642SOL    MW438889   4.336   7.006   0.690
 9643SOL     OW38890   4.582   6.169   0.821
 9643SOL    HW238891   4.522   6.187   0.893
 9643SOL    HW338892   4.616   6.081   0.840
 9643SOL    MW438893   4.578   6.159   0.834
 9644SOL     OW38894   5.523   5.668   1.490
 9644SOL    HW238895   5.444   5.714   1.518
 9644SOL    HW338896   5.558   5.722   1.419
 9644SOL    MW438897   5.517   5.681   1.484
 9645SOL     OW38898   4.807   6.752   0.840
 9645SOL    HW238899   4.899   6.733   0.858
 9645SOL    HW338900   4.780   6.682   0.780
 9645SOL    MW438901   4.815   6.740   0.834
 9646SOL     OW38902   4.600   6.572   0.195
 9646SOL    HW238903   4.586   6.484   0.160
 9646SOL    HW338904   4.551   6.629   0.136
 9646SOL    MW438905   4.592   6.567   0.183
 9647SOL     OW38906   5.081   6.990   0.936
 9647SOL    HW238907   5.054   7.074   0.901
 9647SOL    HW338908   5.041   6.985   1.023
 9647SOL    MW438909   5.074   6.999   0.942
 9648SOL     OW38910   5.000   6.938   1.204
 9648SOL    HW238911   5.011   6.905   1.293
 9648SOL    HW338912   4.919   6.897   1.173
 9648SOL    MW438913   4.990   6.930   1.210
 9649SOL     OW38914   4.013   6.296   0.974
 9649SOL    HW238915   3.963   6.295   1.055
 9649SOL    HW338916   4.033   6.388   0.958
 9649SOL    MW438917   4.009   6.308   0.982
 9650SOL     OW38918   5.080   7.060   1.736
 9650SOL    HW238919   5.080   7.154   1.752
 9650SOL    HW338920   5.125   7.050   1.652
 9650SOL    MW438921   5.086   7.070   1.727
 9651SOL     OW38922   4.608   6.341   0.411
 9651SOL    HW238923   4.588   6.327   0.318
 9651SOL    HW338924   4.701   6.320   0.418
 9651SOL    MW438925   4.618   6.336   0.400
 9652SOL     OW38926   3.935   5.964   1.715
 9652SOL    HW238927   3.892   6.023   1.652
 9652SOL    HW338928   4.003   6.019   1.755
 9652SOL    MW438929   3.939   5.979   1.712
 9653SOL     OW38930   5.047   6.584   1.260
 9653SOL    HW238931   5.110   6.581   1.333
 9653SOL    HW338932   4.963   6.602   1.302
 9653SOL    MW438933   5.043   6.586   1.275
 9654SOL     OW38934   4.591   7.299   0.449
 9654SOL    HW238935   4.649   7.370   0.476
 9654SOL    HW338936   4.614   7.227   0.507
 9654SOL    MW438937   4.602   7.299   0.460
 9655SOL     OW38938   5.386   5.761   1.039
 9655SOL    HW238939   5.431   5.679   1.058
 9655SOL    HW338940   5.406   5.817   1.115
 9655SOL    MW438941   5.396   5.757   1.051
 9656SOL     OW38942   3.834   5.604   1.138
 9656SOL    HW238943   3.825   5.605   1.043
 9656SOL    HW338944   3.928   5.616   1.153
 9656SOL    MW438945   3.846   5.607   1.129
 9657SOL     OW38946   5.471   6.797   0.758
 9657SOL    HW238947   5.450   6.743   0.681
 9657SOL    HW338948   5.567   6.795   0.762
 9657SOL    MW438949   5.480   6.790   0.747
 9658SOL     OW38950   4.163   6.942   1.501
 9658SOL    HW238951   4.084   6.892   1.524
 9658SOL    HW338952   4.233   6.901   1.551
 9658SOL    MW438953   4.161   6.930   1.511
 9659SOL     OW38954   4.047   5.731   0.184
 9659SOL    HW238955   3.976   5.786   0.152
 9659SOL    HW338956   4.089   5.697   0.105
 9659SOL    MW438957   4.043   5.733   0.170
 9660SOL     OW38958   5.171   6.228   1.020
 9660SOL    HW238959   5.094   6.274   0.986
 9660SOL    HW338960   5.228   6.297   1.054
 9660SOL    MW438961   5.168   6.243   1.020
 9661SOL     OW38962   3.803   5.830   0.033
 9661SOL    HW238963   3.770   5.909   0.077
 9661SOL    HW338964   3.858   5.863  -0.038
 9661SOL    MW438965   3.806   5.844   0.030
 9662SOL     OW38966   3.837   7.087   0.222
 9662SOL    HW238967   3.854   7.171   0.264
 9662SOL    HW338968   3.872   7.096   0.134
 9662SOL    MW438969   3.842   7.100   0.216
 9663SOL     OW38970   5.109   7.176   0.439
 9663SOL    HW238971   5.172   7.166   0.368
 9663SOL    HW338972   5.026   7.196   0.394
 9663SOL    MW438973   5.106   7.177   0.424
 9664SOL     OW38974   4.266   6.627   2.354
 9664SOL    HW238975   4.356   6.602   2.338
 9664SOL    HW338976   4.262   6.720   2.331
 9664SOL    MW438977   4.278   6.636   2.349
 9665SOL     OW38978   5.382   7.330   2.496
 9665SOL    HW238979   5.394   7.276   2.574
 9665SOL    HW338980   5.419   7.278   2.425
 9665SOL    MW438981   5.388   7.315   2.497
 9666SOL     OW38982   4.761   7.215   3.497
 9666SOL    HW238983   4.802   7.251   3.418
 9666SOL    HW338984   4.796   7.126   3.504
 9666SOL    MW438985   4.772   7.208   3.488
 9667SOL     OW38986   5.318   6.770   3.101
 9667SOL    HW238987   5.239   6.735   3.059
 9667SOL    HW338988   5.345   6.842   3.045
 9667SOL    MW438989   5.311   6.775   3.088
 9668SOL     OW38990   4.550   6.083   2.367
 9668SOL    HW238991   4.525   6.171   2.395
 9668SOL    HW338992   4.547   6.086   2.271
 9668SOL    MW438993   4.546   6.095   2.359
 9669SOL     OW38994   3.992   6.111   2.295
 9669SOL    HW238995   4.024   6.199   2.277
 9669SOL    HW338996   3.980   6.109   2.390
 9669SOL    MW438997   3.995   6.123   2.307
 9670SOL     OW38998   4.070   6.524   3.196
 9670SOL    HW238999   4.133   6.471   3.147
 9670SOL    HW339000   4.051   6.598   3.139
 9670SOL    MW439001   4.076   6.526   3.183
 9671SOL     OW39002   4.391   5.866   2.382
 9671SOL    HW239003   4.449   5.942   2.384
 9671SOL    HW339004   4.326   5.887   2.315
 9671SOL    MW439005   4.390   5.878   2.373
 9672SOL     OW39006   4.478   6.793   2.557
 9672SOL    HW239007   4.558   6.796   2.609
 9672SOL    HW339008   4.506   6.760   2.471
 9672SOL    MW439009   4.492   6.789   2.552
 9673SOL     OW39010   4.503   7.134   3.460
 9673SOL    HW239011   4.587   7.160   3.499
 9673SOL    HW339012   4.527   7.078   3.386
 9673SOL    MW439013   4.517   7.130   3.455
 9674SOL     OW39014   4.255   6.297   2.548
 9674SOL    HW239015   4.240   6.217   2.599
 9674SOL    HW339016   4.337   6.332   2.582
 9674SOL    MW439017   4.263   6.289   2.560
 9675SOL     OW39018   4.592   6.983   3.233
 9675SOL    HW239019   4.556   7.049   3.173
 9675SOL    HW339020   4.520   6.921   3.246
 9675SOL    MW439021   4.578   6.983   3.227
 9676SOL     OW39022   4.397   6.123   2.925
 9676SOL    HW239023   4.303   6.119   2.943
 9676SOL    HW339024   4.427   6.032   2.934
 9676SOL    MW439025   4.388   6.111   2.928
 9677SOL     OW39026   4.143   6.537   2.829
 9677SOL    HW239027   4.098   6.544   2.745
 9677SOL    HW339028   4.123   6.620   2.873
 9677SOL    MW439029   4.135   6.549   2.823
 9678SOL     OW39030   3.840   7.383   2.704
 9678SOL    HW239031   3.929   7.375   2.739
 9678SOL    HW339032   3.804   7.295   2.709
 9678SOL    MW439033   3.847   7.370   2.709
 9679SOL     OW39034   5.105   6.775   2.073
 9679SOL    HW239035   5.023   6.811   2.039
 9679SOL    HW339036   5.173   6.818   2.022
 9679SOL    MW439037   5.103   6.785   2.061
 9680SOL     OW39038   4.104   6.910   2.739
 9680SOL    HW239039   4.080   6.963   2.815
 9680SOL    HW339040   4.160   6.968   2.687
 9680SOL    MW439041   4.108   6.925   2.742
 9681SOL     OW39042   4.666   6.554   2.549
 9681SOL    HW239043   4.580   6.541   2.589
 9681SOL    HW339044   4.719   6.481   2.581
 9681SOL    MW439045   4.662   6.543   2.558
 9682SOL     OW39046   4.074   7.206   3.334
 9682SOL    HW239047   3.982   7.182   3.319
 9682SOL    HW339048   4.118   7.123   3.351
 9682SOL    MW439049   4.068   7.191   3.333
 9683SOL     OW39050   4.657   6.916   2.266
 9683SOL    HW239051   4.634   6.978   2.334
 9683SOL    HW339052   4.614   6.834   2.292
 9683SOL    MW439053   4.649   6.912   2.277
 9684SOL     OW39054   5.530   5.917   2.722
 9684SOL    HW239055   5.467   5.897   2.791
 9684SOL    HW339056   5.520   5.846   2.659
 9684SOL    MW439057   5.520   5.904   2.723
 9685SOL     OW39058   4.154   5.889   2.234
 9685SOL    HW239059   4.128   5.851   2.150
 9685SOL    HW339060   4.091   5.959   2.250
 9685SOL    MW439061   4.143   5.892   2.225
 9686SOL     OW39062   3.989   6.850   2.271
 9686SOL    HW239063   3.937   6.918   2.227
 9686SOL    HW339064   3.986   6.776   2.211
 9686SOL    MW439065   3.981   6.849   2.258
 9687SOL     OW39066   4.651   7.313   2.049
 9687SOL    HW239067   4.606   7.329   2.132
 9687SOL    HW339068   4.582   7.278   1.991
 9687SOL    MW439069   4.637   7.310   2.051
 9688SOL     OW39070   5.331   6.689   2.374
 9688SOL    HW239071   5.241   6.689   2.409
 9688SOL    HW339072   5.324   6.735   2.291
 9688SOL    MW439073   5.318   6.695   2.368
 9689SOL     OW39074   3.872   7.204   2.998
 9689SOL    HW239075   3.855   7.150   3.075
 9689SOL    HW339076   3.860   7.294   3.028
 9689SOL    MW439077   3.869   7.208   3.012
 9690SOL     OW39078   4.663   6.135   3.639
 9690SOL    HW239079   4.753   6.136   3.606
 9690SOL    HW339080   4.622   6.060   3.597
 9690SOL    MW439081   4.669   6.125   3.630
 9691SOL     OW39082   5.238   6.667   2.766
 9691SOL    HW239083   5.241   6.601   2.697
 9691SOL    HW339084   5.323   6.710   2.762
 9691SOL    MW439085   5.250   6.663   2.757
 9692SOL     OW39086   4.858   6.270   2.335
 9692SOL    HW239087   4.884   6.294   2.246
 9692SOL    HW339088   4.840   6.177   2.331
 9692SOL    MW439089   4.860   6.262   2.322
 9693SOL     OW39090   5.523   6.890   2.186
 9693SOL    HW239091   5.479   6.931   2.261
 9693SOL    HW339092   5.580   6.958   2.151
 9693SOL    MW439093   5.525   6.904   2.191
 9694SOL     OW39094   4.443   5.939   3.589
 9694SOL    HW239095   4.453   5.865   3.529
 9694SOL    HW339096   4.479   5.908   3.672
 9694SOL    MW439097   4.449   5.925   3.591
 9695SOL     OW39098   4.179   7.306   2.504
 9695SOL    HW239099   4.211   7.394   2.482
 9695SOL    HW339100   4.132   7.278   2.426
 9695SOL    MW439101   4.178   7.314   2.491
 9696SOL     OW39102   5.563   5.668   2.553
 9696SOL    HW239103   5.617   5.619   2.615
 9696SOL    HW339104   5.506   5.602   2.514
 9696SOL    MW439105   5.563   5.652   2.555
 9697SOL     OW39106   3.895   7.366   2.081
 9697SOL    HW239107   3.924   7.456   2.073
 9697SOL    HW339108   3.845   7.349   2.002
 9697SOL    MW439109   3.893   7.374   2.070
 9698SOL     OW39110   4.682   5.621   2.966
 9698SOL    HW239111   4.641   5.699   2.928
 9698SOL    HW339112   4.776   5.639   2.961
 9698SOL    MW439113   4.688   5.633   2.961
 9699SOL     OW39114   5.299   7.174   2.052
 9699SOL    HW239115   5.347   7.243   2.098
 9699SOL    HW339116   5.220   7.218   2.021
 9699SOL    MW439117   5.294   7.188   2.055
 9700SOL     OW39118   4.697   6.299   1.996
 9700SOL    HW239119   4.699   6.246   1.917
 9700SOL    HW339120   4.785   6.336   2.002
 9700SOL    MW439121   4.709   6.298   1.985
 9701SOL     OW39122   4.628   6.592   3.461
 9701SOL    HW239123   4.605   6.572   3.551
 9701SOL    HW339124   4.713   6.636   3.466
 9701SOL    MW439125   4.635   6.595   3.473
 9702SOL     OW39126   4.708   5.729   3.221
 9702SOL    HW239127   4.714   5.691   3.134
 9702SOL    HW339128   4.697   5.823   3.206
 9702SOL    MW439129   4.709   5.737   3.209
 9703SOL     OW39130   5.347   6.186   3.332
 9703SOL    HW239131   5.328   6.095   3.311
 9703SOL    HW339132   5.325   6.235   3.253
 9703SOL    MW439133   5.342   6.179   3.319
 9704SOL     OW39134   5.489   7.280   3.236
 9704SOL    HW239135   5.417   7.242   3.287
 9704SOL    HW339136   5.506   7.365   3.277
 9704SOL    MW439137   5.483   7.285   3.248
 9705SOL     OW39138   4.794   5.924   3.438
 9705SOL    HW239139   4.760   5.963   3.357
 9705SOL    HW339140   4.772   5.832   3.431
 9705SOL    MW439141   4.787   5.917   3.428
 9706SOL     OW39142   3.924   5.825   2.527
 9706SOL    HW239143   3.915   5.765   2.453
 9706SOL    HW339144   3.857   5.796   2.590
 9706SOL    MW439145   3.914   5.812   2.525
 9707SOL     OW39146   4.867   6.918   2.088
 9707SOL    HW239147   4.817   6.920   2.170
 9707SOL    HW339148   4.801   6.936   2.020
 9707SOL    MW439149   4.853   6.920   2.090
 9708SOL     OW39150   3.871   5.998   2.890
 9708SOL    HW239151   3.843   6.089   2.899
 9708SOL    HW339152   3.808   5.959   2.829
 9708SOL    MW439153   3.858   6.004   2.884
 9709SOL     OW39154   4.330   7.336   2.196
 9709SOL    HW239155   4.251   7.294   2.229
 9709SOL    HW339156   4.396   7.319   2.263
 9709SOL    MW439157   4.329   7.328   2.209
 9710SOL     OW39158   5.458   6.856   3.593
 9710SOL    HW239159   5.508   6.782   3.625
 9710SOL    HW339160   5.404   6.883   3.668
 9710SOL    MW439161   5.458   6.850   3.606
 9711SOL     OW39162   4.466   6.751   1.903
 9711SOL    HW239163   4.388   6.697   1.890
 9711SOL    HW339164   4.437   6.824   1.956
 9711SOL    MW439165   4.452   6.753   1.908
 9712SOL     OW39166   5.384   7.200   2.764
 9712SOL    HW239167   5.413   7.267   2.825
 9712SOL    HW339168   5.365   7.124   2.819
 9712SOL    MW439169   5.386   7.200   2.779
 9713SOL     OW39170   5.047   7.267   1.971
 9713SOL    HW239171   4.973   7.230   2.021
 9713SOL    HW339172   5.055   7.357   2.004
 9713SOL    MW439173   5.038   7.274   1.983
 9714SOL     OW39174   3.855   6.273   3.060
 9714SOL    HW239175   3.917   6.303   3.126
 9714SOL    HW339176   3.789   6.342   3.054
 9714SOL    MW439177   3.854   6.286   3.067
 9715SOL     OW39178   5.271   6.941   1.913
 9715SOL    HW239179   5.218   6.990   1.849
 9715SOL    HW339180   5.302   7.007   1.974
 9715SOL    MW439181   5.269   6.955   1.911
 9716SOL     OW39182   4.496   5.830   1.968
 9716SOL    HW239183   4.444   5.750   1.956
 9716SOL    HW339184   4.583   5.807   1.936
 9716SOL    MW439185   4.499   5.816   1.962
 9717SOL     OW39186   3.950   7.382   3.512
 9717SOL    HW239187   3.924   7.450   3.450
 9717SOL    HW339188   3.998   7.319   3.460
 9717SOL    MW439189   3.952   7.382   3.498
 9718SOL     OW39190   4.002   6.701   3.019
 9718SOL    HW239191   4.055   6.776   3.044
 9718SOL    HW339192   3.921   6.739   2.985
 9718SOL    MW439193   3.998   6.716   3.019
 9719SOL     OW39194   4.542   6.605   3.007
 9719SOL    HW239195   4.570   6.514   3.019
 9719SOL    HW339196   4.471   6.599   2.943
 9719SOL    MW439197   4.535   6.593   3.002
 9720SOL     OW39198   3.857   6.470   2.425
 9720SOL    HW239199   3.948   6.485   2.452
 9720SOL    HW339200   3.860   6.391   2.371
 9720SOL    MW439201   3.869   6.462   2.423
 9721SOL     OW39202   4.093   6.178   3.679
 9721SOL    HW239203   4.040   6.258   3.686
 9721SOL    HW339204   4.163   6.190   3.744
 9721SOL    MW439205   4.095   6.191   3.687
 9722SOL     OW39206   4.479   5.728   3.386
 9722SOL    HW239207   4.456   5.636   3.388
 9722SOL    HW339208   4.565   5.730   3.343
 9722SOL    MW439209   4.486   5.718   3.382
 9723SOL     OW39210   4.163   6.252   3.425
 9723SOL    HW239211   4.243   6.302   3.411
 9723SOL    HW339212   4.154   6.246   3.520
 9723SOL    MW439213   4.172   6.258   3.435
 9724SOL     OW39214   4.484   7.402   2.799
 9724SOL    HW239215   4.573   7.417   2.829
 9724SOL    HW339216   4.479   7.449   2.715
 9724SOL    MW439217   4.494   7.410   2.792
 9725SOL     OW39218   3.865   7.082   2.464
 9725SOL    HW239219   3.837   7.121   2.546
 9725SOL    HW339220   3.885   6.991   2.486
 9725SOL    MW439221   3.863   7.074   2.477
 9726SOL     OW39222   4.698   7.125   2.499
 9726SOL    HW239223   4.781   7.079   2.483
 9726SOL    HW339224   4.688   7.124   2.595
 9726SOL    MW439225   4.708   7.118   2.509
 9727SOL     OW39226   5.381   6.449   3.693
 9727SOL    HW239227   5.436   6.373   3.674
 9727SOL    HW339228   5.383   6.457   3.788
 9727SOL    MW439229   5.389   6.440   3.701
 9728SOL     OW39230   4.431   7.182   1.904
 9728SOL    HW239231   4.371   7.251   1.874
 9728SOL    HW339232   4.376   7.124   1.957
 9728SOL    MW439233   4.415   7.184   1.906
 9729SOL     OW39234   4.869   5.827   2.127
 9729SOL    HW239235   4.802   5.803   2.064
 9729SOL    HW339236   4.934   5.876   2.076
 9729SOL    MW439237   4.869   5.829   2.112
 9730SOL     OW39238   4.676   6.011   3.212
 9730SOL    HW239239   4.595   6.052   3.240
 9730SOL    HW339240   4.723   6.079   3.164
 9730SOL    MW439241   4.671   6.026   3.210
 9731SOL     OW39242   4.936   6.349   2.835
 9731SOL    HW239243   4.949   6.443   2.845
 9731SOL    HW339244   4.897   6.339   2.749
 9731SOL    MW439245   4.932   6.360   2.825
 9732SOL     OW39246   4.388   6.544   2.639
 9732SOL    HW239247   4.299   6.535   2.672
 9732SOL    HW339248   4.392   6.634   2.607
 9732SOL    MW439249   4.377   6.555   2.639
 9733SOL     OW39250   5.187   6.127   2.634
 9733SOL    HW239251   5.132   6.048   2.633
 9733SOL    HW339252   5.169   6.168   2.718
 9733SOL    MW439253   5.177   6.122   2.643
 9734SOL     OW39254   4.158   5.814   3.451
 9734SOL    HW239255   4.079   5.832   3.503
 9734SOL    HW339256   4.153   5.876   3.378
 9734SOL    MW439257   4.148   5.824   3.448
 9735SOL     OW39258   4.806   6.331   2.591
 9735SOL    HW239259   4.743   6.263   2.615
 9735SOL    HW339260   4.826   6.312   2.499
 9735SOL    MW439261   4.800   6.318   2.583
 9736SOL     OW39262   4.062   7.226   2.293
 9736SOL    HW239263   4.023   7.273   2.219
 9736SOL    HW339264   3.996   7.161   2.318
 9736SOL    MW439265   4.049   7.224   2.287
 9737SOL     OW39266   4.554   6.635   2.317
 9737SOL    HW239267   4.556   6.609   2.224
 9737SOL    HW339268   4.612   6.572   2.360
 9737SOL    MW439269   4.562   6.624   2.311
 9738SOL     OW39270   5.107   7.195   3.089
 9738SOL    HW239271   5.032   7.241   3.127
 9738SOL    HW339272   5.089   7.102   3.106
 9738SOL    MW439273   5.096   7.189   3.097
 9739SOL     OW39274   5.111   7.403   2.519
 9739SOL    HW239275   5.054   7.356   2.458
 9739SOL    HW339276   5.197   7.364   2.506
 9739SOL    MW439277   5.114   7.394   2.509
 9740SOL     OW39278   5.064   5.879   2.650
 9740SOL    HW239279   5.092   5.811   2.711
 9740SOL    HW339280   4.978   5.850   2.620
 9740SOL    MW439281   5.057   5.866   2.654
 9741SOL     OW39282   3.869   6.813   2.584
 9741SOL    HW239283   3.933   6.845   2.647
 9741SOL    HW339284   3.918   6.749   2.532
 9741SOL    MW439285   3.884   6.809   2.585
 9742SOL     OW39286   4.369   6.889   3.566
 9742SOL    HW239287   4.417   6.972   3.553
 9742SOL    HW339288   4.426   6.837   3.622
 9742SOL    MW439289   4.383   6.893   3.572
 9743SOL     OW39290   3.945   7.131   3.706
 9743SOL    HW239291   4.001   7.055   3.721
 9743SOL    HW339292   3.894   7.109   3.628
 9743SOL    MW439293   3.945   7.118   3.697
 9744SOL     OW39294   5.044   5.983   1.985
 9744SOL    HW239295   5.017   6.049   1.921
 9744SOL    HW339296   5.114   6.026   2.035
 9744SOL    MW439297   5.049   5.996   1.982
 9745SOL     OW39298   4.712   5.688   1.922
 9745SOL    HW239299   4.768   5.680   1.844
 9745SOL    HW339300   4.689   5.598   1.944
 9745SOL    MW439301   4.717   5.675   1.915
 9746SOL     OW39302   5.217   6.539   2.127
 9746SOL    HW239303   5.184   6.628   2.117
 9746SOL    HW339304   5.182   6.510   2.212
 9746SOL    MW439305   5.207   6.548   2.138
 9747SOL     OW39306   4.830   6.968   3.315
 9747SOL    HW239307   4.741   6.974   3.283
 9747SOL    HW339308   4.874   7.047   3.283
 9747SOL    MW439309   4.825   6.978   3.307
 9748SOL     OW39310   4.123   5.636   3.657
 9748SOL    HW239311   4.051   5.601   3.605
 9748SOL    HW339312   4.181   5.677   3.592
 9748SOL    MW439313   4.121   5.637   3.642
 9749SOL     OW39314   4.147   7.126   2.956
 9749SOL    HW239315   4.192   7.188   3.013
 9749SOL    HW339316   4.054   7.145   2.969
 9749SOL    MW439317   4.140   7.136   2.963
 9750SOL     OW39318   4.569   7.194   3.064
 9750SOL    HW239319   4.593   7.183   2.973
 9750SOL    HW339320   4.492   7.251   3.062
 9750SOL    MW439321   4.561   7.199   3.053
 9751SOL     OW39322   4.211   6.577   1.919
 9751SOL    HW239323   4.134   6.590   1.975
 9751SOL    HW339324   4.175   6.541   1.838
 9751SOL    MW439325   4.197   6.573   1.916
 9752SOL     OW39326   4.864   6.550   2.162
 9752SOL    HW239327   4.774   6.571   2.137
 9752SOL    HW339328   4.891   6.623   2.218
 9752SOL    MW439329   4.856   6.562   2.165
 9753SOL     OW39330   4.364   6.899   2.854
 9753SOL    HW239331   4.357   6.878   2.948
 9753SOL    HW339332   4.282   6.867   2.817
 9753SOL    MW439333   4.352   6.893   2.861
 9754SOL     OW39334   3.810   6.991   3.517
 9754SOL    HW239335   3.854   6.924   3.463
 9754SOL    HW339336   3.725   6.953   3.537
 9754SOL    MW439337   3.805   6.977   3.513
 9755SOL     OW39338   4.493   5.666   2.569
 9755SOL    HW239339   4.422   5.727   2.551
 9755SOL    HW339340   4.544   5.663   2.488
 9755SOL    MW439341   4.489   5.672   2.556
 9756SOL     OW39342   4.251   6.906   2.318
 9756SOL    HW239343   4.244   6.938   2.408
 9756SOL    HW339344   4.161   6.890   2.290
 9756SOL    MW439345   4.239   6.908   2.325
 9757SOL     OW39346   4.846   7.299   3.227
 9757SOL    HW239347   4.766   7.284   3.177
 9757SOL    HW339348   4.853   7.394   3.234
 9757SOL    MW439349   4.837   7.310   3.221
 9758SOL     OW39350   4.960   7.264   2.717
 9758SOL    HW239351   5.007   7.337   2.676
 9758SOL    HW339352   4.881   7.303   2.753
 9758SOL    MW439353   4.955   7.279   2.716
 9759SOL     OW39354   5.368   7.359   2.992
 9759SOL    HW239355   5.411   7.329   3.072
 9759SOL    HW339356   5.287   7.307   2.989
 9759SOL    MW439357   5.363   7.348   3.002
 9760SOL     OW39358   4.453   6.323   3.699
 9760SOL    HW239359   4.523   6.265   3.671
 9760SOL    HW339360   4.396   6.268   3.754
 9760SOL    MW439361   4.455   6.310   3.703
 9761SOL     OW39362   4.880   5.670   3.578
 9761SOL    HW239363   4.875   5.577   3.559
 9761SOL    HW339364   4.963   5.681   3.624
 9761SOL    MW439365   4.888   5.659   3.582
 9762SOL     OW39366   4.254   6.190   2.032
 9762SOL    HW239367   4.220   6.246   2.102
 9762SOL    HW339368   4.325   6.140   2.072
 9762SOL    MW439369   4.260   6.191   2.046
 9763SOL     OW39370   5.350   6.941   2.854
 9763SOL    HW239371   5.385   6.923   2.767
 9763SOL    HW339372   5.255   6.942   2.841
 9763SOL    MW439373   5.342   6.938   2.841
 9764SOL     OW39374   4.779   6.589   3.223
 9764SOL    HW239375   4.822   6.624   3.301
 9764SOL    HW339376   4.762   6.666   3.169
 9764SOL    MW439377   4.782   6.604   3.226
 9765SOL     OW39378   4.170   5.731   2.525
 9765SOL    HW239379   4.220   5.774   2.456
 9765SOL    HW339380   4.085   5.775   2.525
 9765SOL    MW439381   4.167   5.744   2.516
 9766SOL     OW39382   3.929   6.793   3.385
 9766SOL    HW239383   3.957   6.746   3.463
 9766SOL    HW339384   3.850   6.748   3.356
 9766SOL    MW439385   3.922   6.782   3.391
 9767SOL     OW39386   4.437   6.120   3.352
 9767SOL    HW239387   4.409   6.208   3.376
 9767SOL    HW339388   4.406   6.064   3.423
 9767SOL    MW439389   4.429   6.123   3.364
 9768SOL     OW39390   4.979   6.338   2.071
 9768SOL    HW239391   5.026   6.356   1.990
 9768SOL    HW339392   4.945   6.422   2.099
 9768SOL    MW439393   4.981   6.352   2.064
 9769SOL     OW39394   4.092   6.516   2.565
 9769SOL    HW239395   4.150   6.572   2.513
 9769SOL    HW339396   4.136   6.431   2.567
 9769SOL    MW439397   4.105   6.513   2.558
 9770SOL     OW39398   5.232   5.868   2.402
 9770SOL    HW239399   5.154   5.818   2.427
 9770SOL    HW339400   5.203   5.959   2.402
 9770SOL    MW439401   5.218   5.872   2.405
 9771SOL     OW39402   4.818   5.830   2.561
 9771SOL    HW239403   4.838   5.905   2.505
 9771SOL    HW339404   4.798   5.869   2.646
 9771SOL    MW439405   4.819   5.846   2.565
 9772SOL     OW39406   4.714   7.080   1.893
 9772SOL    HW239407   4.741   7.158   1.845
 9772SOL    HW339408   4.621   7.095   1.912
 9772SOL    MW439409   4.705   7.093   1.889
 9773SOL     OW39410   5.578   6.603   3.580
 9773SOL    HW239411   5.491   6.583   3.616
 9773SOL    HW339412   5.632   6.529   3.605
 9773SOL    MW439413   5.573   6.592   3.588
 9774SOL     OW39414   3.799   7.116   2.737
 9774SOL    HW239415   3.831   7.120   2.828
 9774SOL    HW339416   3.704   7.124   2.745
 9774SOL    MW439417   3.791   7.119   2.750
 9775SOL     OW39418   3.754   6.242   2.284
 9775SOL    HW239419   3.694   6.214   2.354
 9775SOL    HW339420   3.828   6.182   2.290
 9775SOL    MW439421   3.756   6.231   2.293
 9776SOL     OW39422   5.322   7.454   3.718
 9776SOL    HW239423   5.367   7.378   3.683
 9776SOL    HW339424   5.360   7.467   3.805
 9776SOL    MW439425   5.332   7.447   3.724
 9777SOL     OW39426   4.922   6.973   2.444
 9777SOL    HW239427   4.945   6.924   2.522
 9777SOL    HW339428   5.003   7.015   2.416
 9777SOL    MW439429   4.935   6.973   2.451
 9778SOL     OW39430   4.180   5.981   3.173
 9778SOL    HW239431   4.213   6.062   3.213
 9778SOL    HW339432   4.153   6.007   3.085
 9778SOL    MW439433   4.179   5.995   3.167
 9779SOL     OW39434   4.134   5.948   2.909
 9779SOL    HW239435   4.164   5.862   2.880
 9779SOL    HW339436   4.039   5.941   2.912
 9779SOL    MW439437   4.126   5.937   2.907
 9780SOL     OW39438   4.277   5.726   2.800
 9780SOL    HW239439   4.287   5.635   2.826
 9780SOL    HW339440   4.233   5.722   2.715
 9780SOL    MW439441   4.273   5.714   2.792
 9781SOL     OW39442   4.371   7.341   3.346
 9781SOL    HW239443   4.288   7.326   3.391
 9781SOL    HW339444   4.430   7.274   3.381
 9781SOL    MW439445   4.369   7.331   3.356
 9782SOL     OW39446   5.606   6.768   2.941
 9782SOL    HW239447   5.599   6.708   2.866
 9782SOL    HW339448   5.532   6.828   2.930
 9782SOL    MW439449   5.596   6.768   2.930
 9783SOL     OW39450   4.988   6.630   2.859
 9783SOL    HW239451   5.002   6.602   2.950
 9783SOL    HW339452   5.074   6.661   2.831
 9783SOL    MW439453   5.001   6.631   2.868
 9784SOL     OW39454   5.564   6.256   3.680
 9784SOL    HW239455   5.601   6.201   3.749
 9784SOL    HW339456   5.589   6.213   3.598
 9784SOL    MW439457   5.571   6.244   3.679
 9785SOL     OW39458   5.062   5.640   2.080
 9785SOL    HW239459   5.136   5.684   2.123
 9785SOL    HW339460   4.986   5.694   2.102
 9785SOL    MW439461   5.062   5.652   2.088
 9786SOL     OW39462   5.122   6.415   2.358
 9786SOL    HW239463   5.037   6.385   2.328
 9786SOL    HW339464   5.114   6.422   2.453
 9786SOL    MW439465   5.110   6.413   2.367
 9787SOL     OW39466   4.198   6.878   3.089
 9787SOL    HW239467   4.210   6.905   3.180
 9787SOL    HW339468   4.179   6.959   3.042
 9787SOL    MW439469   4.197   6.893   3.094
 9788SOL     OW39470   4.482   5.858   2.912
 9788SOL    HW239471   4.455   5.860   3.003
 9788SOL    HW339472   4.412   5.810   2.867
 9788SOL    MW439473   4.470   5.854   2.919
 9789SOL     OW39474   5.238   6.935   3.306
 9789SOL    HW239475   5.223   6.864   3.369
 9789SOL    HW339476   5.284   6.893   3.234
 9789SOL    MW439477   5.244   6.919   3.306
 9790SOL     OW39478   4.312   6.666   3.423
 9790SOL    HW239479   4.349   6.671   3.335
 9790SOL    HW339480   4.351   6.739   3.470
 9790SOL    MW439481   4.322   6.676   3.418
 9791SOL     OW39482   4.492   6.709   3.235
 9791SOL    HW239483   4.551   6.655   3.288
 9791SOL    HW339484   4.507   6.681   3.145
 9791SOL    MW439485   4.502   6.698   3.231
 9792SOL     OW39486   4.495   6.081   2.084
 9792SOL    HW239487   4.568   6.130   2.047
 9792SOL    HW339488   4.511   5.990   2.058
 9792SOL    MW439489   4.507   6.076   2.077
 9793SOL     OW39490   5.303   7.198   3.407
 9793SOL    HW239491   5.345   7.183   3.492
 9793SOL    HW339492   5.294   7.111   3.369
 9793SOL    MW439493   5.307   7.186   3.414
 9794SOL     OW39494   4.963   5.677   2.998
 9794SOL    HW239495   5.018   5.686   2.920
 9794SOL    HW339496   5.018   5.711   3.069
 9794SOL    MW439497   4.977   5.682   2.997
 9795SOL     OW39498   3.970   6.590   2.182
 9795SOL    HW239499   3.907   6.606   2.111
 9795SOL    HW339500   3.917   6.553   2.253
 9795SOL    MW439501   3.955   6.587   2.182
 9796SOL     OW39502   4.326   6.944   2.041
 9796SOL    HW239503   4.341   6.920   2.133
 9796SOL    HW339504   4.234   6.922   2.025
 9796SOL    MW439505   4.316   6.937   2.051
 9797SOL     OW39506   4.865   7.175   2.193
 9797SOL    HW239507   4.873   7.093   2.144
 9797SOL    HW339508   4.784   7.214   2.160
 9797SOL    MW439509   4.855   7.170   2.183
 9798SOL     OW39510   4.124   7.333   2.762
 9798SOL    HW239511   4.128   7.244   2.797
 9798SOL    HW339512   4.150   7.324   2.671
 9798SOL    MW439513   4.127   7.321   2.754
 9799SOL     OW39514   4.741   6.811   3.005
 9799SOL    HW239515   4.673   6.745   3.021
 9799SOL    HW339516   4.759   6.805   2.912
 9799SOL    MW439517   4.734   6.802   2.996
 9800SOL     OW39518   3.830   7.086   3.256
 9800SOL    HW239519   3.820   7.044   3.342
 9800SOL    HW339520   3.751   7.139   3.246
 9800SOL    MW439521   3.819   7.087   3.267
 9801SOL     OW39522   4.734   5.950   2.826
 9801SOL    HW239523   4.664   5.902   2.871
 9801SOL    HW339524   4.766   6.013   2.890
 9801SOL    MW439525   4.729   5.952   2.840
 9802SOL     OW39526   4.385   6.386   3.446
 9802SOL    HW239527   4.378   6.481   3.434
 9802SOL    HW339528   4.394   6.375   3.541
 9802SOL    MW439529   4.386   6.398   3.456
 9803SOL     OW39530   4.106   6.901   3.704
 9803SOL    HW239531   4.178   6.903   3.641
 9803SOL    HW339532   4.076   6.810   3.703
 9803SOL    MW439533   4.111   6.890   3.696
 9804SOL     OW39534   5.190   5.664   3.171
 9804SOL    HW239535   5.261   5.610   3.135
 9804SOL    HW339536   5.189   5.643   3.264
 9804SOL    MW439537   5.199   5.655   3.179
 9805SOL     OW39538   5.390   7.194   3.655
 9805SOL    HW239539   5.363   7.191   3.746
 9805SOL    HW339540   5.486   7.198   3.658
 9805SOL    MW439541   5.400   7.194   3.667
 9806SOL     OW39542   4.201   6.056   2.639
 9806SOL    HW239543   4.272   6.004   2.602
 9806SOL    HW339544   4.187   6.021   2.726
 9806SOL    MW439545   4.209   6.045   2.646
 9807SOL     OW39546   3.756   7.391   3.711
 9807SOL    HW239547   3.806   7.369   3.633
 9807SOL    HW339548   3.764   7.486   3.719
 9807SOL    MW439549   3.764   7.400   3.702
 9808SOL     OW39550   4.517   7.149   2.715
 9808SOL    HW239551   4.445   7.086   2.728
 9808SOL    HW339552   4.478   7.234   2.733
 9808SOL    MW439553   4.501   7.152   2.718
 9809SOL     OW39554   4.837   5.997   2.363
 9809SOL    HW239555   4.859   5.934   2.295
 9809SOL    HW339556   4.742   5.989   2.374
 9809SOL    MW439557   4.827   5.988   2.355
 9810SOL     OW39558   3.922   5.687   2.295
 9810SOL    HW239559   3.993   5.708   2.234
 9810SOL    HW339560   3.876   5.615   2.253
 9810SOL    MW439561   3.926   5.681   2.281
 9811SOL     OW39562   3.753   6.154   3.438
 9811SOL    HW239563   3.817   6.220   3.413
 9811SOL    HW339564   3.672   6.181   3.395
 9811SOL    MW439565   3.751   6.166   3.430
 9812SOL     OW39566   5.491   7.061   2.395
 9812SOL    HW239567   5.461   6.994   2.456
 9812SOL    HW339568   5.585   7.067   2.409
 9812SOL    MW439569   5.499   7.053   2.405
 9813SOL     OW39570   5.047   6.738   2.325
 9813SOL    HW239571   5.019   6.824   2.358
 9813SOL    HW339572   5.075   6.754   2.235
 9813SOL    MW439573   5.047   6.752   2.317
 9814SOL     OW39574   4.709   5.658   2.378
 9814SOL    HW239575   4.746   5.717   2.443
 9814SOL    HW339576   4.686   5.714   2.304
 9814SOL    MW439577   4.710   5.673   2.377
 9815SOL     OW39578   5.562   6.540   2.800
 9815SOL    HW239579   5.553   6.572   2.711
 9815SOL    HW339580   5.515   6.456   2.800
 9815SOL    MW439581   5.555   6.533   2.790
 9816SOL     OW39582   3.938   6.380   3.379
 9816SOL    HW239583   3.959   6.449   3.317
 9816SOL    HW339584   4.018   6.327   3.384
 9816SOL    MW439585   3.951   6.381   3.373
 9817SOL     OW39586   3.923   6.395   3.646
 9817SOL    HW239587   3.849   6.339   3.672
 9817SOL    HW339588   3.918   6.398   3.551
 9817SOL    MW439589   3.912   6.388   3.636
 9818SOL     OW39590   4.089   5.682   3.096
 9818SOL    HW239591   4.132   5.766   3.116
 9818SOL    HW339592   4.162   5.620   3.089
 9818SOL    MW439593   4.104   5.685   3.097
 9819SOL     OW39594   4.130   6.349   2.274
 9819SOL    HW239595   4.130   6.444   2.259
 9819SOL    HW339596   4.207   6.333   2.328
 9819SOL    MW439597   4.140   6.360   2.279
 9820SOL     OW39598   3.889   6.080   2.563
 9820SOL    HW239599   3.951   6.087   2.636
 9820SOL    HW339600   3.889   5.987   2.540
 9820SOL    MW439601   3.897   6.069   2.570
 9821SOL     OW39602   5.436   7.420   2.095
 9821SOL    HW239603   5.503   7.453   2.035
 9821SOL    HW339604   5.393   7.499   2.129
 9821SOL    MW439605   5.438   7.435   2.091
 9822SOL     OW39606   4.571   6.341   3.047
 9822SOL    HW239607   4.529   6.259   3.023
 9822SOL    HW339608   4.572   6.340   3.143
 9822SOL    MW439609   4.564   6.330   3.056
 9823SOL     OW39610   5.242   7.474   3.446
 9823SOL    HW239611   5.245   7.380   3.429
 9823SOL    HW339612   5.265   7.482   3.538
 9823SOL    MW439613   5.245   7.462   3.456
 9824SOL     OW39614   4.375   5.811   3.152
 9824SOL    HW239615   4.306   5.874   3.173
 9824SOL    HW339616   4.402   5.775   3.237
 9824SOL    MW439617   4.369   5.814   3.165
 9825SOL     OW39618   3.758   6.652   2.021
 9825SOL    HW239619   3.727   6.717   2.084
 9825SOL    HW339620   3.707   6.574   2.040
 9825SOL    MW439621   3.748   6.649   2.031
 9826SOL     OW39622   5.170   5.664   2.769
 9826SOL    HW239623   5.258   5.673   2.806
 9826SOL    HW339624   5.180   5.605   2.695
 9826SOL    MW439625   5.184   5.658   2.763
 9827SOL     OW39626   5.202   6.403   2.613
 9827SOL    HW239627   5.282   6.418   2.562
 9827SOL    HW339628   5.195   6.308   2.619
 9827SOL    MW439629   5.211   6.392   2.608
 9828SOL     OW39630   4.652   6.329   3.310
 9828SOL    HW239631   4.721   6.396   3.307
 9828SOL    HW339632   4.585   6.367   3.366
 9828SOL    MW439633   4.653   6.342   3.317
 9829SOL     OW39634   4.070   6.629   3.558
 9829SOL    HW239635   4.024   6.545   3.560
 9829SOL    HW339636   4.127   6.623   3.482
 9829SOL    MW439637   4.072   6.617   3.550
 9830SOL     OW39638   4.321   7.004   2.559
 9830SOL    HW239639   4.386   6.937   2.580
 9830SOL    HW339640   4.373   7.081   2.536
 9830SOL    MW439641   4.336   7.006   2.558
 9831SOL     OW39642   4.582   6.169   2.689
 9831SOL    HW239643   4.522   6.187   2.761
 9831SOL    HW339644   4.616   6.081   2.708
 9831SOL    MW439645   4.578   6.159   2.702
 9832SOL     OW39646   5.523   5.668   3.358
 9832SOL    HW239647   5.444   5.714   3.386
 9832SOL    HW339648   5.558   5.722   3.287
 9832SOL    MW439649   5.517   5.681   3.352
 9833SOL     OW39650   4.807   6.752   2.708
 9833SOL    HW239651   4.899   6.733   2.726
 9833SOL    HW339652   4.780   6.682   2.648
 9833SOL    MW439653   4.815   6.740   2.702
 9834SOL     OW39654   4.600   6.572   2.063
 9834SOL    HW239655   4.586   6.484   2.028
 9834SOL    HW339656   4.551   6.629   2.004
 9834SOL    MW439657   4.592   6.567   2.051
 9835SOL     OW39658   5.081   6.990   2.804
 9835SOL    HW239659   5.054   7.074   2.769
 9835SOL    HW339660   5.041   6.985   2.891
 9835SOL    MW439661   5.074   6.999   2.810
 9836SOL     OW39662   5.000   6.938   3.072
 9836SOL    HW239663   5.011   6.905   3.161
 9836SOL    HW339664   4.919   6.897   3.041
 9836SOL    MW439665   4.990   6.930   3.078
 9837SOL     OW39666   4.013   6.296   2.842
 9837SOL    HW239667   3.963   6.295   2.923
 9837SOL    HW339668   4.033   6.388   2.826
 9837SOL    MW439669   4.009   6.308   2.850
 9838SOL     OW39670   5.319   5.778   2.165
 9838SOL    HW239671   5.312   5.782   2.260
 9838SOL    HW339672   5.331   5.869   2.138
 9838SOL    MW439673   5.320   5.791   2.173
 9839SOL     OW39674   4.608   6.341   2.279
 9839SOL    HW239675   4.588   6.327   2.186
 9839SOL    HW339676   4.701   6.320   2.286
 9839SOL    MW439677   4.618   6.336   2.268
 9840SOL     OW39678   3.935   5.964   3.583
 9840SOL    HW239679   3.892   6.023   3.520
 9840SOL    HW339680   4.003   6.019   3.623
 9840SOL    MW439681   3.939   5.979   3.580
 9841SOL     OW39682   4.591   7.299   2.317
 9841SOL    HW239683   4.649   7.370   2.344
 9841SOL    HW339684   4.614   7.227   2.375
 9841SOL    MW439685   4.602   7.299   2.328
 9842SOL     OW39686   3.834   5.604   3.006
 9842SOL    HW239687   3.825   5.605   2.911
 9842SOL    HW339688   3.928   5.616   3.021
 9842SOL    MW439689   3.846   5.607   2.997
 9843SOL     OW39690   5.471   6.797   2.626
 9843SOL    HW239691   5.450   6.743   2.549
 9843SOL    HW339692   5.567   6.795   2.630
 9843SOL    MW439693   5.480   6.790   2.615
 9844SOL     OW39694   4.163   6.942   3.369
 9844SOL    HW239695   4.084   6.892   3.392
 9844SOL    HW339696   4.233   6.901   3.419
 9844SOL    MW439697   4.161   6.930   3.379
 9845SOL     OW39698   4.047   5.731   2.052
 9845SOL    HW239699   3.976   5.786   2.020
 9845SOL    HW339700   4.089   5.697   1.973
 9845SOL    MW439701   4.043   5.733   2.038
 9846SOL     OW39702   3.803   5.830   1.901
 9846SOL    HW239703   3.770   5.909   1.945
 9846SOL    HW339704   3.858   5.863   1.830
 9846SOL    MW439705   3.806   5.844   1.898
 9847SOL     OW39706   3.837   7.087   2.090
 9847SOL    HW239707   3.854   7.171   2.132
 9847SOL    HW339708   3.872   7.096   2.002
 9847SOL    MW439709   3.842   7.100   2.084
 9848SOL     OW39710   5.109   7.176   2.307
 9848SOL    HW239711   5.172   7.166   2.236
 9848SOL    HW339712   5.026   7.196   2.262
 9848SOL    MW439713   5.106   7.177   2.292
 9849SOL     OW39714   5.472   6.444   3.993
 9849SOL    HW239715   5.513   6.386   4.058
 9849SOL    HW339716   5.379   6.436   4.010
 9849SOL    MW439717   5.466   6.436   4.003
 9850SOL     OW39718   5.338   6.376   4.988
 9850SOL    HW239719   5.293   6.443   5.039
 9850SOL    HW339720   5.426   6.412   4.974
 9850SOL    MW439721   5.344   6.389   4.992
 9851SOL     OW39722   5.382   7.330   4.364
 9851SOL    HW239723   5.394   7.276   4.442
 9851SOL    HW339724   5.419   7.278   4.293
 9851SOL    MW439725   5.388   7.315   4.365
 9852SOL     OW39726   4.761   7.215   5.365
 9852SOL    HW239727   4.802   7.251   5.286
 9852SOL    HW339728   4.796   7.126   5.372
 9852SOL    MW439729   4.772   7.208   5.356
 9853SOL     OW39730   5.318   6.770   4.969
 9853SOL    HW239731   5.239   6.735   4.927
 9853SOL    HW339732   5.345   6.842   4.913
 9853SOL    MW439733   5.311   6.775   4.956
 9854SOL     OW39734   4.550   6.083   4.235
 9854SOL    HW239735   4.525   6.171   4.263
 9854SOL    HW339736   4.547   6.086   4.139
 9854SOL    MW439737   4.546   6.095   4.227
 9855SOL     OW39738   3.992   6.111   4.163
 9855SOL    HW239739   4.024   6.199   4.145
 9855SOL    HW339740   3.980   6.109   4.258
 9855SOL    MW439741   3.995   6.123   4.175
 9856SOL     OW39742   4.070   6.524   5.064
 9856SOL    HW239743   4.133   6.471   5.015
 9856SOL    HW339744   4.051   6.598   5.007
 9856SOL    MW439745   4.076   6.526   5.051
 9857SOL     OW39746   4.391   5.866   4.250
 9857SOL    HW239747   4.449   5.942   4.252
 9857SOL    HW339748   4.326   5.887   4.183
 9857SOL    MW439749   4.390   5.878   4.241
 9858SOL     OW39750   4.503   7.134   5.328
 9858SOL    HW239751   4.587   7.160   5.367
 9858SOL    HW339752   4.527   7.078   5.254
 9858SOL    MW439753   4.517   7.130   5.323
 9859SOL     OW39754   4.592   6.983   5.101
 9859SOL    HW239755   4.556   7.049   5.041
 9859SOL    HW339756   4.520   6.921   5.114
 9859SOL    MW439757   4.578   6.983   5.095
 9860SOL     OW39758   4.397   6.123   4.793
 9860SOL    HW239759   4.303   6.119   4.811
 9860SOL    HW339760   4.427   6.032   4.802
 9860SOL    MW439761   4.388   6.111   4.796
 9861SOL     OW39762   5.530   5.917   4.590
 9861SOL    HW239763   5.467   5.897   4.659
 9861SOL    HW339764   5.520   5.846   4.527
 9861SOL    MW439765   5.520   5.904   4.591
 9862SOL     OW39766   4.154   5.889   4.102
 9862SOL    HW239767   4.128   5.851   4.018
 9862SOL    HW339768   4.091   5.959   4.118
 9862SOL    MW439769   4.143   5.892   4.093
 9863SOL     OW39770   3.989   6.850   4.139
 9863SOL    HW239771   3.937   6.918   4.095
 9863SOL    HW339772   3.986   6.776   4.079
 9863SOL    MW439773   3.981   6.849   4.126
 9864SOL     OW39774   5.586   6.086   3.892
 9864SOL    HW239775   5.495   6.088   3.920
 9864SOL    HW339776   5.631   6.148   3.950
 9864SOL    MW439777   5.579   6.094   3.902
 9865SOL     OW39778   5.331   6.689   4.242
 9865SOL    HW239779   5.241   6.689   4.277
 9865SOL    HW339780   5.324   6.735   4.159
 9865SOL    MW439781   5.318   6.695   4.236
 9866SOL     OW39782   5.131   6.324   5.314
 9866SOL    HW239783   5.200   6.262   5.291
 9866SOL    HW339784   5.056   6.298   5.261
 9866SOL    MW439785   5.131   6.311   5.305
 9867SOL     OW39786   4.867   6.711   5.306
 9867SOL    HW239787   4.852   6.804   5.291
 9867SOL    HW339788   4.962   6.701   5.306
 9867SOL    MW439789   4.876   6.721   5.303
 9868SOL     OW39790   4.663   6.135   5.507
 9868SOL    HW239791   4.753   6.136   5.474
 9868SOL    HW339792   4.622   6.060   5.465
 9868SOL    MW439793   4.669   6.125   5.498
 9869SOL     OW39794   5.238   6.667   4.634
 9869SOL    HW239795   5.241   6.601   4.565
 9869SOL    HW339796   5.323   6.710   4.630
 9869SOL    MW439797   5.250   6.663   4.625
 9870SOL     OW39798   5.523   6.890   4.054
 9870SOL    HW239799   5.479   6.931   4.129
 9870SOL    HW339800   5.580   6.958   4.019
 9870SOL    MW439801   5.525   6.904   4.059
 9871SOL     OW39802   4.443   5.939   5.457
 9871SOL    HW239803   4.453   5.865   5.397
 9871SOL    HW339804   4.479   5.908   5.540
 9871SOL    MW439805   4.449   5.925   5.459
 9872SOL     OW39806   4.179   7.306   4.372
 9872SOL    HW239807   4.211   7.394   4.350
 9872SOL    HW339808   4.132   7.278   4.294
 9872SOL    MW439809   4.178   7.314   4.359
 9873SOL     OW39810   5.563   5.668   4.421
 9873SOL    HW239811   5.617   5.619   4.483
 9873SOL    HW339812   5.506   5.602   4.382
 9873SOL    MW439813   5.563   5.652   4.423
 9874SOL     OW39814   3.895   7.366   3.949
 9874SOL    HW239815   3.924   7.456   3.941
 9874SOL    HW339816   3.845   7.349   3.870
 9874SOL    MW439817   3.893   7.374   3.938
 9875SOL     OW39818   4.682   5.621   4.834
 9875SOL    HW239819   4.641   5.699   4.796
 9875SOL    HW339820   4.776   5.639   4.829
 9875SOL    MW439821   4.688   5.633   4.829
 9876SOL     OW39822   5.299   7.174   3.920
 9876SOL    HW239823   5.347   7.243   3.966
 9876SOL    HW339824   5.220   7.218   3.889
 9876SOL    MW439825   5.294   7.188   3.923
 9877SOL     OW39826   4.697   6.299   3.864
 9877SOL    HW239827   4.699   6.246   3.785
 9877SOL    HW339828   4.785   6.336   3.870
 9877SOL    MW439829   4.709   6.298   3.853
 9878SOL     OW39830   5.311   6.225   4.200
 9878SOL    HW239831   5.350   6.225   4.287
 9878SOL    HW339832   5.252   6.301   4.200
 9878SOL    MW439833   5.308   6.236   4.211
 9879SOL     OW39834   4.628   6.592   5.329
 9879SOL    HW239835   4.605   6.572   5.419
 9879SOL    HW339836   4.713   6.636   5.334
 9879SOL    MW439837   4.635   6.595   5.341
 9880SOL     OW39838   4.708   5.729   5.089
 9880SOL    HW239839   4.714   5.691   5.002
 9880SOL    HW339840   4.697   5.823   5.074
 9880SOL    MW439841   4.709   5.737   5.077
 9881SOL     OW39842   4.797   6.218   4.923
 9881SOL    HW239843   4.872   6.247   4.870
 9881SOL    HW339844   4.729   6.283   4.907
 9881SOL    MW439845   4.798   6.230   4.913
 9882SOL     OW39846   5.347   6.186   5.200
 9882SOL    HW239847   5.328   6.095   5.179
 9882SOL    HW339848   5.325   6.235   5.121
 9882SOL    MW439849   5.342   6.179   5.187
 9883SOL     OW39850   5.489   7.280   5.104
 9883SOL    HW239851   5.417   7.242   5.155
 9883SOL    HW339852   5.506   7.365   5.145
 9883SOL    MW439853   5.483   7.285   5.116
 9884SOL     OW39854   4.794   5.924   5.306
 9884SOL    HW239855   4.760   5.963   5.225
 9884SOL    HW339856   4.772   5.832   5.299
 9884SOL    MW439857   4.787   5.917   5.296
 9885SOL     OW39858   5.203   6.738   5.382
 9885SOL    HW239859   5.285   6.779   5.412
 9885SOL    HW339860   5.166   6.700   5.462
 9885SOL    MW439861   5.209   6.739   5.397
 9886SOL     OW39862   5.498   6.111   4.366
 9886SOL    HW239863   5.587   6.080   4.383
 9886SOL    HW339864   5.441   6.051   4.414
 9886SOL    MW439865   5.501   6.099   4.375
 9887SOL     OW39866   3.924   5.825   4.395
 9887SOL    HW239867   3.915   5.765   4.321
 9887SOL    HW339868   3.857   5.796   4.458
 9887SOL    MW439869   3.914   5.812   4.393
 9888SOL     OW39870   3.871   5.998   4.758
 9888SOL    HW239871   3.843   6.089   4.767
 9888SOL    HW339872   3.808   5.959   4.697
 9888SOL    MW439873   3.858   6.004   4.752
 9889SOL     OW39874   4.330   7.336   4.064
 9889SOL    HW239875   4.251   7.294   4.097
 9889SOL    HW339876   4.396   7.319   4.131
 9889SOL    MW439877   4.329   7.328   4.077
 9890SOL     OW39878   5.458   6.856   5.461
 9890SOL    HW239879   5.508   6.782   5.493
 9890SOL    HW339880   5.404   6.883   5.536
 9890SOL    MW439881   5.458   6.850   5.474
 9891SOL     OW39882   4.466   6.751   3.771
 9891SOL    HW239883   4.388   6.697   3.758
 9891SOL    HW339884   4.437   6.824   3.824
 9891SOL    MW439885   4.452   6.753   3.776
 9892SOL     OW39886   5.592   6.491   4.963
 9892SOL    HW239887   5.608   6.529   4.876
 9892SOL    HW339888   5.626   6.557   5.024
 9892SOL    MW439889   5.599   6.504   4.959
 9893SOL     OW39890   5.384   7.200   4.632
 9893SOL    HW239891   5.413   7.267   4.693
 9893SOL    HW339892   5.365   7.124   4.687
 9893SOL    MW439893   5.386   7.200   4.647
 9894SOL     OW39894   3.855   6.273   4.928
 9894SOL    HW239895   3.917   6.303   4.994
 9894SOL    HW339896   3.789   6.342   4.922
 9894SOL    MW439897   3.854   6.286   4.935
 9895SOL     OW39898   4.496   5.830   3.836
 9895SOL    HW239899   4.444   5.750   3.824
 9895SOL    HW339900   4.583   5.807   3.804
 9895SOL    MW439901   4.499   5.816   3.830
 9896SOL     OW39902   3.950   7.382   5.380
 9896SOL    HW239903   3.924   7.450   5.318
 9896SOL    HW339904   3.998   7.319   5.328
 9896SOL    MW439905   3.952   7.382   5.366
 9897SOL     OW39906   4.542   6.605   4.875
 9897SOL    HW239907   4.570   6.514   4.887
 9897SOL    HW339908   4.471   6.599   4.811
 9897SOL    MW439909   4.535   6.593   4.870
 9898SOL     OW39910   3.857   6.470   4.293
 9898SOL    HW239911   3.948   6.485   4.320
 9898SOL    HW339912   3.860   6.391   4.239
 9898SOL    MW439913   3.869   6.462   4.291
 9899SOL     OW39914   4.093   6.178   5.547
 9899SOL    HW239915   4.040   6.258   5.554
 9899SOL    HW339916   4.163   6.190   5.612
 9899SOL    MW439917   4.095   6.191   5.555
 9900SOL     OW39918   4.479   5.728   5.254
 9900SOL    HW239919   4.456   5.636   5.256
 9900SOL    HW339920   4.565   5.730   5.211
 9900SOL    MW439921   4.486   5.718   5.250
 9901SOL     OW39922   4.163   6.252   5.293
 9901SOL    HW239923   4.243   6.302   5.279
 9901SOL    HW339924   4.154   6.246   5.388
 9901SOL    MW439925   4.172   6.258   5.303
 9902SOL     OW39926   4.484   7.402   4.667
 9902SOL    HW239927   4.573   7.417   4.697
 9902SOL    HW339928   4.479   7.449   4.583
 9902SOL    MW439929   4.494   7.410   4.660
 9903SOL     OW39930   5.140   5.777   5.564
 9903SOL    HW239931   5.196   5.704   5.590
 9903SOL    HW339932   5.110   5.815   5.646
 9903SOL    MW439933   5.144   5.772   5.577
 9904SOL     OW39934   3.865   7.082   4.332
 9904SOL    HW239935   3.837   7.121   4.414
 9904SOL    HW339936   3.885   6.991   4.354
 9904SOL    MW439937   3.863   7.074   4.345
 9905SOL     OW39938   5.530   6.270   4.681
 9905SOL    HW239939   5.619   6.300   4.663
 9905SOL    HW339940   5.510   6.210   4.610
 9905SOL    MW439941   5.539   6.267   4.670
 9906SOL     OW39942   5.381   6.449   5.561
 9906SOL    HW239943   5.436   6.373   5.542
 9906SOL    HW339944   5.383   6.457   5.656
 9906SOL    MW439945   5.389   6.440   5.569
 9907SOL     OW39946   4.431   7.182   3.772
 9907SOL    HW239947   4.371   7.251   3.742
 9907SOL    HW339948   4.376   7.124   3.825
 9907SOL    MW439949   4.415   7.184   3.774
 9908SOL     OW39950   4.869   5.827   3.995
 9908SOL    HW239951   4.802   5.803   3.932
 9908SOL    HW339952   4.934   5.876   3.944
 9908SOL    MW439953   4.869   5.829   3.980
 9909SOL     OW39954   4.676   6.011   5.080
 9909SOL    HW239955   4.595   6.052   5.108
 9909SOL    HW339956   4.723   6.079   5.032
 9909SOL    MW439957   4.671   6.026   5.078
 9910SOL     OW39958   4.936   6.349   4.703
 9910SOL    HW239959   4.949   6.443   4.713
 9910SOL    HW339960   4.897   6.339   4.617
 9910SOL    MW439961   4.932   6.360   4.693
 9911SOL     OW39962   5.187   6.127   4.502
 9911SOL    HW239963   5.132   6.048   4.501
 9911SOL    HW339964   5.169   6.168   4.586
 9911SOL    MW439965   5.177   6.122   4.511
 9912SOL     OW39966   4.158   5.814   5.319
 9912SOL    HW239967   4.079   5.832   5.371
 9912SOL    HW339968   4.153   5.876   5.246
 9912SOL    MW439969   4.148   5.824   5.316
 9913SOL     OW39970   4.806   6.331   4.459
 9913SOL    HW239971   4.743   6.263   4.483
 9913SOL    HW339972   4.826   6.312   4.367
 9913SOL    MW439973   4.800   6.318   4.451
 9914SOL     OW39974   4.062   7.226   4.161
 9914SOL    HW239975   4.023   7.273   4.087
 9914SOL    HW339976   3.996   7.161   4.186
 9914SOL    MW439977   4.049   7.224   4.155
 9915SOL     OW39978   5.107   7.195   4.957
 9915SOL    HW239979   5.032   7.241   4.995
 9915SOL    HW339980   5.089   7.102   4.974
 9915SOL    MW439981   5.096   7.189   4.965
 9916SOL     OW39982   5.064   5.879   4.518
 9916SOL    HW239983   5.092   5.811   4.579
 9916SOL    HW339984   4.978   5.850   4.488
 9916SOL    MW439985   5.057   5.866   4.522
 9917SOL     OW39986   3.869   6.813   4.452
 9917SOL    HW239987   3.933   6.845   4.515
 9917SOL    HW339988   3.918   6.749   4.400
 9917SOL    MW439989   3.884   6.809   4.453
 9918SOL     OW39990   4.369   6.889   5.434
 9918SOL    HW239991   4.417   6.972   5.421
 9918SOL    HW339992   4.426   6.837   5.490
 9918SOL    MW439993   4.383   6.893   5.440
 9919SOL     OW39994   5.044   5.983   3.853
 9919SOL    HW239995   5.017   6.049   3.789
 9919SOL    HW339996   5.114   6.026   3.903
 9919SOL    MW439997   5.049   5.996   3.850
 9920SOL     OW39998   4.712   5.688   3.790
 9920SOL    HW239999   4.768   5.680   3.712
 9920SOL    HW340000   4.689   5.598   3.812
 9920SOL    MW440001   4.717   5.675   3.783
 9921SOL     OW40002   4.830   6.968   5.183
 9921SOL    HW240003   4.741   6.974   5.151
 9921SOL    HW340004   4.874   7.047   5.151
 9921SOL    MW440005   4.825   6.978   5.175
 9922SOL     OW40006   4.123   5.636   5.525
 9922SOL    HW240007   4.051   5.601   5.473
 9922SOL    HW340008   4.181   5.677   5.460
 9922SOL    MW440009   4.121   5.637   5.510
 9923SOL     OW40010   5.587   6.655   5.178
 9923SOL    HW240011   5.502   6.668   5.137
 9923SOL    HW340012   5.567   6.619   5.265
 9923SOL    MW440013   5.574   6.651   5.183
 9924SOL     OW40014   4.211   6.577   3.787
 9924SOL    HW240015   4.134   6.590   3.843
 9924SOL    HW340016   4.175   6.541   3.706
 9924SOL    MW440017   4.197   6.573   3.784
 9925SOL     OW40018   5.228   5.909   5.124
 9925SOL    HW240019   5.175   5.911   5.204
 9925SOL    HW340020   5.213   5.822   5.087
 9925SOL    MW440021   5.220   5.899   5.129
 9926SOL     OW40022   5.564   5.833   4.997
 9926SOL    HW240023   5.545   5.900   4.932
 9926SOL    HW340024   5.621   5.771   4.952
 9926SOL    MW440025   5.568   5.834   4.983
 9927SOL     OW40026   4.493   5.666   4.437
 9927SOL    HW240027   4.422   5.727   4.419
 9927SOL    HW340028   4.544   5.663   4.356
 9927SOL    MW440029   4.489   5.672   4.424
 9928SOL     OW40030   4.251   6.906   4.186
 9928SOL    HW240031   4.244   6.938   4.276
 9928SOL    HW340032   4.161   6.890   4.158
 9928SOL    MW440033   4.239   6.908   4.193
 9929SOL     OW40034   4.846   7.299   5.095
 9929SOL    HW240035   4.766   7.284   5.045
 9929SOL    HW340036   4.853   7.394   5.102
 9929SOL    MW440037   4.837   7.310   5.089
 9930SOL     OW40038   5.368   7.359   4.860
 9930SOL    HW240039   5.411   7.329   4.940
 9930SOL    HW340040   5.287   7.307   4.857
 9930SOL    MW440041   5.363   7.348   4.870
 9931SOL     OW40042   4.453   6.323   5.567
 9931SOL    HW240043   4.523   6.265   5.539
 9931SOL    HW340044   4.396   6.268   5.622
 9931SOL    MW440045   4.455   6.310   5.571
 9932SOL     OW40046   5.240   6.535   5.200
 9932SOL    HW240047   5.245   6.588   5.280
 9932SOL    HW340048   5.202   6.452   5.228
 9932SOL    MW440049   5.236   6.530   5.215
 9933SOL     OW40050   4.880   5.670   5.446
 9933SOL    HW240051   4.875   5.577   5.427
 9933SOL    HW340052   4.963   5.681   5.492
 9933SOL    MW440053   4.888   5.659   5.450
 9934SOL     OW40054   5.350   6.941   4.722
 9934SOL    HW240055   5.385   6.923   4.635
 9934SOL    HW340056   5.255   6.942   4.709
 9934SOL    MW440057   5.342   6.938   4.709
 9935SOL     OW40058   4.779   6.589   5.091
 9935SOL    HW240059   4.822   6.624   5.169
 9935SOL    HW340060   4.762   6.666   5.037
 9935SOL    MW440061   4.782   6.604   5.094
 9936SOL     OW40062   5.310   6.076   3.964
 9936SOL    HW240063   5.302   6.147   3.901
 9936SOL    HW340064   5.328   6.120   4.047
 9936SOL    MW440065   5.311   6.090   3.966
 9937SOL     OW40066   4.170   5.731   4.393
 9937SOL    HW240067   4.220   5.774   4.324
 9937SOL    HW340068   4.085   5.775   4.393
 9937SOL    MW440069   4.167   5.744   4.384
 9938SOL     OW40070   4.437   6.120   5.220
 9938SOL    HW240071   4.409   6.208   5.244
 9938SOL    HW340072   4.406   6.064   5.291
 9938SOL    MW440073   4.429   6.123   5.232
 9939SOL     OW40074   4.092   6.516   4.433
 9939SOL    HW240075   4.150   6.572   4.381
 9939SOL    HW340076   4.136   6.431   4.435
 9939SOL    MW440077   4.105   6.513   4.426
 9940SOL     OW40078   5.232   5.868   4.270
 9940SOL    HW240079   5.154   5.818   4.295
 9940SOL    HW340080   5.203   5.959   4.270
 9940SOL    MW440081   5.218   5.872   4.273
 9941SOL     OW40082   5.578   6.603   5.448
 9941SOL    HW240083   5.491   6.583   5.484
 9941SOL    HW340084   5.632   6.529   5.473
 9941SOL    MW440085   5.573   6.592   5.456
 9942SOL     OW40086   3.754   6.242   4.152
 9942SOL    HW240087   3.694   6.214   4.222
 9942SOL    HW340088   3.828   6.182   4.158
 9942SOL    MW440089   3.756   6.231   4.161
 9943SOL     OW40090   5.322   7.454   5.586
 9943SOL    HW240091   5.367   7.378   5.551
 9943SOL    HW340092   5.360   7.467   5.673
 9943SOL    MW440093   5.332   7.447   5.592
 9944SOL     OW40094   4.180   5.981   5.041
 9944SOL    HW240095   4.213   6.062   5.081
 9944SOL    HW340096   4.153   6.007   4.953
 9944SOL    MW440097   4.179   5.995   5.035
 9945SOL     OW40098   4.134   5.948   4.777
 9945SOL    HW240099   4.164   5.862   4.748
 9945SOL    HW340100   4.039   5.941   4.780
 9945SOL    MW440101   4.126   5.937   4.775
 9946SOL     OW40102   4.963   6.157   5.468
 9946SOL    HW240103   5.015   6.092   5.421
 9946SOL    HW340104   4.921   6.208   5.398
 9946SOL    MW440105   4.964   6.154   5.451
 9947SOL     OW40106   5.062   5.952   5.329
 9947SOL    HW240107   4.969   5.936   5.316
 9947SOL    HW340108   5.088   5.890   5.397
 9947SOL    MW440109   5.052   5.942   5.336
 9948SOL     OW40110   4.277   5.726   4.668
 9948SOL    HW240111   4.287   5.635   4.694
 9948SOL    HW340112   4.233   5.722   4.583
 9948SOL    MW440113   4.273   5.714   4.660
 9949SOL     OW40114   4.371   7.341   5.214
 9949SOL    HW240115   4.288   7.326   5.259
 9949SOL    HW340116   4.430   7.274   5.249
 9949SOL    MW440117   4.369   7.331   5.224
 9950SOL     OW40118   5.428   6.048   4.839
 9950SOL    HW240119   5.361   6.081   4.899
 9950SOL    HW340120   5.471   6.126   4.805
 9950SOL    MW440121   5.426   6.063   4.843
 9951SOL     OW40122   5.606   6.768   4.809
 9951SOL    HW240123   5.599   6.708   4.734
 9951SOL    HW340124   5.532   6.828   4.798
 9951SOL    MW440125   5.596   6.768   4.798
 9952SOL     OW40126   4.988   6.630   4.727
 9952SOL    HW240127   5.002   6.602   4.818
 9952SOL    HW340128   5.074   6.661   4.699
 9952SOL    MW440129   5.001   6.631   4.736
 9953SOL     OW40130   5.071   6.125   5.006
 9953SOL    HW240131   5.092   6.126   4.913
 9953SOL    HW340132   5.116   6.047   5.039
 9953SOL    MW440133   5.078   6.115   4.998
 9954SOL     OW40134   5.564   6.256   5.548
 9954SOL    HW240135   5.601   6.201   5.617
 9954SOL    HW340136   5.589   6.213   5.466
 9954SOL    MW440137   5.571   6.244   5.547
 9955SOL     OW40138   5.111   6.554   5.600
 9955SOL    HW240139   5.177   6.502   5.554
 9955SOL    HW340140   5.131   6.541   5.693
 9955SOL    MW440141   5.122   6.545   5.607
 9956SOL     OW40142   5.062   5.640   3.948
 9956SOL    HW240143   5.136   5.684   3.991
 9956SOL    HW340144   4.986   5.694   3.970
 9956SOL    MW440145   5.062   5.652   3.956
 9957SOL     OW40146   4.482   5.858   4.780
 9957SOL    HW240147   4.455   5.860   4.871
 9957SOL    HW340148   4.412   5.810   4.735
 9957SOL    MW440149   4.470   5.854   4.787
 9958SOL     OW40150   4.336   7.350   4.942
 9958SOL    HW240151   4.388   7.427   4.919
 9958SOL    HW340152   4.345   7.342   5.037
 9958SOL    MW440153   4.345   7.357   4.953
 9959SOL     OW40154   5.238   6.935   5.174
 9959SOL    HW240155   5.223   6.864   5.237
 9959SOL    HW340156   5.284   6.893   5.102
 9959SOL    MW440157   5.244   6.919   5.174
 9960SOL     OW40158   4.312   6.666   5.291
 9960SOL    HW240159   4.349   6.671   5.203
 9960SOL    HW340160   4.351   6.739   5.338
 9960SOL    MW440161   4.322   6.676   5.286
 9961SOL     OW40162   4.492   6.709   5.103
 9961SOL    HW240163   4.551   6.655   5.156
 9961SOL    HW340164   4.507   6.681   5.013
 9961SOL    MW440165   4.502   6.698   5.099
 9962SOL     OW40166   4.495   6.081   3.952
 9962SOL    HW240167   4.568   6.130   3.915
 9962SOL    HW340168   4.511   5.990   3.926
 9962SOL    MW440169   4.507   6.076   3.945
 9963SOL     OW40170   5.303   7.198   5.275
 9963SOL    HW240171   5.345   7.183   5.360
 9963SOL    HW340172   5.294   7.111   5.237
 9963SOL    MW440173   5.307   7.186   5.282
 9964SOL     OW40174   4.963   5.677   4.866
 9964SOL    HW240175   5.018   5.686   4.788
 9964SOL    HW340176   5.018   5.711   4.937
 9964SOL    MW440177   4.977   5.682   4.865
 9965SOL     OW40178   3.970   6.590   4.050
 9965SOL    HW240179   3.907   6.606   3.979
 9965SOL    HW340180   3.917   6.553   4.121
 9965SOL    MW440181   3.955   6.587   4.050
 9966SOL     OW40182   4.326   6.944   3.909
 9966SOL    HW240183   4.341   6.920   4.001
 9966SOL    HW340184   4.234   6.922   3.893
 9966SOL    MW440185   4.316   6.937   3.919
 9967SOL     OW40186   4.741   6.811   4.873
 9967SOL    HW240187   4.673   6.745   4.889
 9967SOL    HW340188   4.759   6.805   4.780
 9967SOL    MW440189   4.734   6.802   4.864
 9968SOL     OW40190   4.734   5.950   4.694
 9968SOL    HW240191   4.664   5.902   4.739
 9968SOL    HW340192   4.766   6.013   4.758
 9968SOL    MW440193   4.729   5.952   4.708
 9969SOL     OW40194   4.385   6.386   5.314
 9969SOL    HW240195   4.378   6.481   5.302
 9969SOL    HW340196   4.394   6.375   5.409
 9969SOL    MW440197   4.386   6.398   5.324
 9970SOL     OW40198   4.106   6.901   5.572
 9970SOL    HW240199   4.178   6.903   5.509
 9970SOL    HW340200   4.076   6.810   5.571
 9970SOL    MW440201   4.111   6.890   5.564
 9971SOL     OW40202   5.190   5.664   5.039
 9971SOL    HW240203   5.261   5.610   5.003
 9971SOL    HW340204   5.189   5.643   5.132
 9971SOL    MW440205   5.199   5.655   5.047
 9972SOL     OW40206   5.390   7.194   5.523
 9972SOL    HW240207   5.363   7.191   5.614
 9972SOL    HW340208   5.486   7.198   5.526
 9972SOL    MW440209   5.400   7.194   5.535
 9973SOL     OW40210   4.201   6.056   4.507
 9973SOL    HW240211   4.272   6.004   4.470
 9973SOL    HW340212   4.187   6.021   4.594
 9973SOL    MW440213   4.209   6.045   4.514
 9974SOL     OW40214   3.756   7.391   5.579
 9974SOL    HW240215   3.806   7.369   5.501
 9974SOL    HW340216   3.764   7.486   5.587
 9974SOL    MW440217   3.764   7.400   5.570
 9975SOL     OW40218   3.922   5.687   4.163
 9975SOL    HW240219   3.993   5.708   4.102
 9975SOL    HW340220   3.876   5.615   4.121
 9975SOL    MW440221   3.926   5.681   4.149
 9976SOL     OW40222   3.753   6.154   5.306
 9976SOL    HW240223   3.817   6.220   5.281
 9976SOL    HW340224   3.672   6.181   5.263
 9976SOL    MW440225   3.751   6.166   5.298
 9977SOL     OW40226   5.491   7.061   4.263
 9977SOL    HW240227   5.461   6.994   4.324
 9977SOL    HW340228   5.585   7.067   4.277
 9977SOL    MW440229   5.499   7.053   4.273
 9978SOL     OW40230   5.047   6.738   4.193
 9978SOL    HW240231   5.019   6.824   4.226
 9978SOL    HW340232   5.075   6.754   4.103
 9978SOL    MW440233   5.047   6.752   4.185
 9979SOL     OW40234   4.709   5.658   4.246
 9979SOL    HW240235   4.746   5.717   4.311
 9979SOL    HW340236   4.686   5.714   4.172
 9979SOL    MW440237   4.710   5.673   4.245
 9980SOL     OW40238   5.562   6.540   4.668
 9980SOL    HW240239   5.553   6.572   4.579
 9980SOL    HW340240   5.515   6.456   4.668
 9980SOL    MW440241   5.555   6.533   4.658
 9981SOL     OW40242   3.938   6.380   5.247
 9981SOL    HW240243   3.959   6.449   5.185
 9981SOL    HW340244   4.018   6.327   5.252
 9981SOL    MW440245   3.951   6.381   5.241
 9982SOL     OW40246   5.474   6.471   4.369
 9982SOL    HW240247   5.568   6.460   4.357
 9982SOL    HW340248   5.450   6.543   4.310
 9982SOL    MW440249   5.484   6.479   4.360
 9983SOL     OW40250   3.923   6.395   5.514
 9983SOL    HW240251   3.849   6.339   5.540
 9983SOL    HW340252   3.918   6.398   5.419
 9983SOL    MW440253   3.912   6.388   5.504
 9984SOL     OW40254   4.089   5.682   4.964
 9984SOL    HW240255   4.132   5.766   4.984
 9984SOL    HW340256   4.162   5.620   4.957
 9984SOL    MW440257   4.104   5.685   4.965
 9985SOL     OW40258   4.906   6.208   5.206
 9985SOL    HW240259   4.942   6.181   5.122
 9985SOL    HW340260   4.819   6.242   5.185
 9985SOL    MW440261   4.900   6.209   5.193
 9986SOL     OW40262   3.889   6.080   4.431
 9986SOL    HW240263   3.951   6.087   4.504
 9986SOL    HW340264   3.889   5.987   4.408
 9986SOL    MW440265   3.897   6.069   4.438
 9987SOL     OW40266   5.436   7.420   3.963
 9987SOL    HW240267   5.503   7.453   3.903
 9987SOL    HW340268   5.393   7.499   3.997
 9987SOL    MW440269   5.438   7.435   3.959
 9988SOL     OW40270   4.571   6.341   4.915
 9988SOL    HW240271   4.529   6.259   4.891
 9988SOL    HW340272   4.572   6.340   5.011
 9988SOL    MW440273   4.564   6.330   4.924
 9989SOL     OW40274   5.242   7.474   5.314
 9989SOL    HW240275   5.245   7.380   5.297
 9989SOL    HW340276   5.265   7.482   5.406
 9989SOL    MW440277   5.245   7.462   5.324
 9990SOL     OW40278   4.375   5.811   5.020
 9990SOL    HW240279   4.306   5.874   5.041
 9990SOL    HW340280   4.402   5.775   5.105
 9990SOL    MW440281   4.369   5.814   5.033
 9991SOL     OW40282   3.758   6.652   3.889
 9991SOL    HW240283   3.727   6.717   3.952
 9991SOL    HW340284   3.707   6.574   3.908
 9991SOL    MW440285   3.748   6.649   3.899
 9992SOL     OW40286   5.170   5.664   4.637
 9992SOL    HW240287   5.258   5.673   4.674
 9992SOL    HW340288   5.180   5.605   4.563
 9992SOL    MW440289   5.184   5.658   4.631
 9993SOL     OW40290   5.202   6.403   4.481
 9993SOL    HW240291   5.282   6.418   4.430
 9993SOL    HW340292   5.195   6.308   4.487
 9993SOL    MW440293   5.211   6.392   4.476
 9994SOL     OW40294   4.342   7.452   3.831
 9994SOL    HW240295   4.247   7.452   3.823
 9994SOL    HW340296   4.358   7.398   3.909
 9994SOL    MW440297   4.332   7.446   3.840
 9995SOL     OW40298   4.652   6.329   5.178
 9995SOL    HW240299   4.721   6.396   5.175
 9995SOL    HW340300   4.585   6.367   5.234
 9995SOL    MW440301   4.653   6.342   5.185
 9996SOL     OW40302   4.070   6.629   5.426
 9996SOL    HW240303   4.024   6.545   5.428
 9996SOL    HW340304   4.127   6.623   5.350
 9996SOL    MW440305   4.072   6.617   5.418
 9997SOL     OW40306   4.321   7.004   4.427
 9997SOL    HW240307   4.386   6.937   4.448
 9997SOL    HW340308   4.373   7.081   4.404
 9997SOL    MW440309   4.336   7.006   4.426
 9998SOL     OW40310   4.582   6.169   4.557
 9998SOL    HW240311   4.522   6.187   4.629
 9998SOL    HW340312   4.616   6.081   4.576
 9998SOL    MW440313   4.578   6.159   4.570
 9999SOL     OW40314   5.523   5.668   5.226
 9999SOL    HW240315   5.444   5.714   5.254
 9999SOL    HW340316   5.558   5.722   5.155
 9999SOL    MW440317   5.517   5.681   5.220
10000SOL     OW40318   4.807   6.752   4.576
10000SOL    HW240319   4.899   6.733   4.594
10000SOL    HW340320   4.780   6.682   4.516
10000SOL    MW440321   4.815   6.740   4.570
10001SOL     OW40322   4.600   6.572   3.931
10001SOL    HW240323   4.586   6.484   3.896
10001SOL    HW340324   4.551   6.629   3.872
10001SOL    MW440325   4.592   6.567   3.919
10002SOL     OW40326   5.081   6.990   4.672
10002SOL    HW240327   5.054   7.074   4.637
10002SOL    HW340328   5.041   6.985   4.759
10002SOL    MW440329   5.074   6.999   4.678
10003SOL     OW40330   5.000   6.938   4.940
10003SOL    HW240331   5.011   6.905   5.029
10003SOL    HW340332   4.919   6.897   4.909
10003SOL    MW440333   4.990   6.930   4.946
10004SOL     OW40334   5.080   7.060   5.472
10004SOL    HW240335   5.080   7.154   5.488
10004SOL    HW340336   5.125   7.050   5.388
10004SOL    MW440337   5.086   7.070   5.463
10005SOL     OW40338   5.319   5.778   4.033
10005SOL    HW240339   5.312   5.782   4.128
10005SOL    HW340340   5.331   5.869   4.006
10005SOL    MW440341   5.320   5.791   4.041
10006SOL     OW40342   3.935   5.964   5.451
10006SOL    HW240343   3.892   6.023   5.388
10006SOL    HW340344   4.003   6.019   5.491
10006SOL    MW440345   3.939   5.979   5.448
10007SOL     OW40346   5.047   6.584   4.996
10007SOL    HW240347   5.110   6.581   5.069
10007SOL    HW340348   4.963   6.602   5.038
10007SOL    MW440349   5.043   6.586   5.011
10008SOL     OW40350   4.591   7.299   4.185
10008SOL    HW240351   4.649   7.370   4.212
10008SOL    HW340352   4.614   7.227   4.243
10008SOL    MW440353   4.602   7.299   4.196
10009SOL     OW40354   5.386   5.761   4.775
10009SOL    HW240355   5.431   5.679   4.794
10009SOL    HW340356   5.406   5.817   4.851
10009SOL    MW440357   5.396   5.757   4.787
10010SOL     OW40358   3.834   5.604   4.874
10010SOL    HW240359   3.825   5.605   4.779
10010SOL    HW340360   3.928   5.616   4.889
10010SOL    MW440361   3.846   5.607   4.865
10011SOL     OW40362   5.471   6.797   4.494
10011SOL    HW240363   5.450   6.743   4.417
10011SOL    HW340364   5.567   6.795   4.498
10011SOL    MW440365   5.480   6.790   4.483
10012SOL     OW40366   4.163   6.942   5.237
10012SOL    HW240367   4.084   6.892   5.260
10012SOL    HW340368   4.233   6.901   5.287
10012SOL    MW440369   4.161   6.930   5.247
10013SOL     OW40370   4.047   5.731   3.920
10013SOL    HW240371   3.976   5.786   3.888
10013SOL    HW340372   4.089   5.697   3.841
10013SOL    MW440373   4.043   5.733   3.906
10014SOL     OW40374   5.171   6.228   4.756
10014SOL    HW240375   5.094   6.274   4.722
10014SOL    HW340376   5.228   6.297   4.790
10014SOL    MW440377   5.168   6.243   4.756
10015SOL     OW40378   3.803   5.830   3.769
10015SOL    HW240379   3.770   5.909   3.813
10015SOL    HW340380   3.858   5.863   3.698
10015SOL    MW440381   3.806   5.844   3.766
10016SOL     OW40382   3.837   7.087   3.958
10016SOL    HW240383   3.854   7.171   4.000
10016SOL    HW340384   3.872   7.096   3.870
10016SOL    MW440385   3.842   7.100   3.952
10017SOL     OW40386   5.472   6.444   5.862
10017SOL    HW240387   5.513   6.386   5.927
10017SOL    HW340388   5.379   6.436   5.879
10017SOL    MW440389   5.466   6.436   5.872
10018SOL     OW40390   5.338   6.376   6.857
10018SOL    HW240391   5.293   6.443   6.908
10018SOL    HW340392   5.426   6.412   6.843
10018SOL    MW440393   5.344   6.389   6.861
10019SOL     OW40394   4.266   6.627   6.091
10019SOL    HW240395   4.356   6.602   6.075
10019SOL    HW340396   4.262   6.720   6.068
10019SOL    MW440397   4.278   6.636   6.086
10020SOL     OW40398   5.382   7.330   6.233
10020SOL    HW240399   5.394   7.276   6.311
10020SOL    HW340400   5.419   7.278   6.162
10020SOL    MW440401   5.388   7.315   6.234
10021SOL     OW40402   4.761   7.215   7.234
10021SOL    HW240403   4.802   7.251   7.155
10021SOL    HW340404   4.796   7.126   7.241
10021SOL    MW440405   4.772   7.208   7.225
10022SOL     OW40406   5.318   6.770   6.838
10022SOL    HW240407   5.239   6.735   6.796
10022SOL    HW340408   5.345   6.842   6.782
10022SOL    MW440409   5.311   6.775   6.825
10023SOL     OW40410   4.550   6.083   6.104
10023SOL    HW240411   4.525   6.171   6.132
10023SOL    HW340412   4.547   6.086   6.008
10023SOL    MW440413   4.546   6.095   6.096
10024SOL     OW40414   3.992   6.111   6.032
10024SOL    HW240415   4.024   6.199   6.014
10024SOL    HW340416   3.980   6.109   6.127
10024SOL    MW440417   3.995   6.123   6.044
10025SOL     OW40418   4.070   6.524   6.933
10025SOL    HW240419   4.133   6.471   6.884
10025SOL    HW340420   4.051   6.598   6.876
10025SOL    MW440421   4.076   6.526   6.920
10026SOL     OW40422   4.391   5.866   6.119
10026SOL    HW240423   4.449   5.942   6.121
10026SOL    HW340424   4.326   5.887   6.052
10026SOL    MW440425   4.390   5.878   6.110
10027SOL     OW40426   4.478   6.793   6.294
10027SOL    HW240427   4.558   6.796   6.346
10027SOL    HW340428   4.506   6.760   6.208
10027SOL    MW440429   4.492   6.789   6.289
10028SOL     OW40430   4.503   7.134   7.197
10028SOL    HW240431   4.587   7.160   7.236
10028SOL    HW340432   4.527   7.078   7.123
10028SOL    MW440433   4.517   7.130   7.192
10029SOL     OW40434   4.255   6.297   6.285
10029SOL    HW240435   4.240   6.217   6.336
10029SOL    HW340436   4.337   6.332   6.319
10029SOL    MW440437   4.263   6.289   6.297
10030SOL     OW40438   4.592   6.983   6.970
10030SOL    HW240439   4.556   7.049   6.910
10030SOL    HW340440   4.520   6.921   6.983
10030SOL    MW440441   4.578   6.983   6.964
10031SOL     OW40442   4.397   6.123   6.662
10031SOL    HW240443   4.303   6.119   6.680
10031SOL    HW340444   4.427   6.032   6.671
10031SOL    MW440445   4.388   6.111   6.665
10032SOL     OW40446   4.143   6.537   6.566
10032SOL    HW240447   4.098   6.544   6.482
10032SOL    HW340448   4.123   6.620   6.610
10032SOL    MW440449   4.135   6.549   6.560
10033SOL     OW40450   3.840   7.383   6.441
10033SOL    HW240451   3.929   7.375   6.476
10033SOL    HW340452   3.804   7.295   6.446
10033SOL    MW440453   3.847   7.370   6.446
10034SOL     OW40454   5.105   6.775   5.810
10034SOL    HW240455   5.023   6.811   5.776
10034SOL    HW340456   5.173   6.818   5.759
10034SOL    MW440457   5.103   6.785   5.798
10035SOL     OW40458   4.104   6.910   6.476
10035SOL    HW240459   4.080   6.963   6.552
10035SOL    HW340460   4.160   6.968   6.424
10035SOL    MW440461   4.108   6.925   6.479
10036SOL     OW40462   4.666   6.554   6.286
10036SOL    HW240463   4.580   6.541   6.326
10036SOL    HW340464   4.719   6.481   6.318
10036SOL    MW440465   4.662   6.543   6.295
10037SOL     OW40466   4.074   7.206   7.071
10037SOL    HW240467   3.982   7.182   7.056
10037SOL    HW340468   4.118   7.123   7.088
10037SOL    MW440469   4.068   7.191   7.070
10038SOL     OW40470   4.657   6.916   6.003
10038SOL    HW240471   4.634   6.978   6.071
10038SOL    HW340472   4.614   6.834   6.029
10038SOL    MW440473   4.649   6.912   6.014
10039SOL     OW40474   5.530   5.917   6.459
10039SOL    HW240475   5.467   5.897   6.528
10039SOL    HW340476   5.520   5.846   6.396
10039SOL    MW440477   5.520   5.904   6.460
10040SOL     OW40478   4.154   5.889   5.971
10040SOL    HW240479   4.128   5.851   5.887
10040SOL    HW340480   4.091   5.959   5.987
10040SOL    MW440481   4.143   5.892   5.962
10041SOL     OW40482   3.989   6.850   6.008
10041SOL    HW240483   3.937   6.918   5.964
10041SOL    HW340484   3.986   6.776   5.948
10041SOL    MW440485   3.981   6.849   5.995
10042SOL     OW40486   4.651   7.313   5.786
10042SOL    HW240487   4.606   7.329   5.869
10042SOL    HW340488   4.582   7.278   5.728
10042SOL    MW440489   4.637   7.310   5.788
10043SOL     OW40490   5.586   6.086   5.761
10043SOL    HW240491   5.495   6.088   5.789
10043SOL    HW340492   5.631   6.148   5.819
10043SOL    MW440493   5.579   6.094   5.771
10044SOL     OW40494   5.331   6.689   6.111
10044SOL    HW240495   5.241   6.689   6.146
10044SOL    HW340496   5.324   6.735   6.028
10044SOL    MW440497   5.318   6.695   6.105
10045SOL     OW40498   5.131   6.324   7.183
10045SOL    HW240499   5.200   6.262   7.160
10045SOL    HW340500   5.056   6.298   7.130
10045SOL    MW440501   5.131   6.311   7.174
10046SOL     OW40502   3.872   7.204   6.735
10046SOL    HW240503   3.855   7.150   6.812
10046SOL    HW340504   3.860   7.294   6.765
10046SOL    MW440505   3.869   7.208   6.749
10047SOL     OW40506   4.867   6.711   7.175
10047SOL    HW240507   4.852   6.804   7.160
10047SOL    HW340508   4.962   6.701   7.175
10047SOL    MW440509   4.876   6.721   7.172
10048SOL     OW40510   4.663   6.135   7.376
10048SOL    HW240511   4.753   6.136   7.343
10048SOL    HW340512   4.622   6.060   7.334
10048SOL    MW440513   4.669   6.125   7.367
10049SOL     OW40514   5.238   6.667   6.503
10049SOL    HW240515   5.241   6.601   6.434
10049SOL    HW340516   5.323   6.710   6.499
10049SOL    MW440517   5.250   6.663   6.494
10050SOL     OW40518   4.858   6.270   6.072
10050SOL    HW240519   4.884   6.294   5.983
10050SOL    HW340520   4.840   6.177   6.068
10050SOL    MW440521   4.860   6.262   6.059
10051SOL     OW40522   5.523   6.890   5.923
10051SOL    HW240523   5.479   6.931   5.998
10051SOL    HW340524   5.580   6.958   5.888
10051SOL    MW440525   5.525   6.904   5.928
10052SOL     OW40526   4.443   5.939   7.326
10052SOL    HW240527   4.453   5.865   7.266
10052SOL    HW340528   4.479   5.908   7.409
10052SOL    MW440529   4.449   5.925   7.328
10053SOL     OW40530   4.179   7.306   6.241
10053SOL    HW240531   4.211   7.394   6.219
10053SOL    HW340532   4.132   7.278   6.163
10053SOL    MW440533   4.178   7.314   6.228
10054SOL     OW40534   5.563   5.668   6.290
10054SOL    HW240535   5.617   5.619   6.352
10054SOL    HW340536   5.506   5.602   6.251
10054SOL    MW440537   5.563   5.652   6.292
10055SOL     OW40538   3.895   7.366   5.818
10055SOL    HW240539   3.924   7.456   5.810
10055SOL    HW340540   3.845   7.349   5.739
10055SOL    MW440541   3.893   7.374   5.807
10056SOL     OW40542   4.682   5.621   6.703
10056SOL    HW240543   4.641   5.699   6.665
10056SOL    HW340544   4.776   5.639   6.698
10056SOL    MW440545   4.688   5.633   6.698
10057SOL     OW40546   5.299   7.174   5.789
10057SOL    HW240547   5.347   7.243   5.835
10057SOL    HW340548   5.220   7.218   5.758
10057SOL    MW440549   5.294   7.188   5.792
10058SOL     OW40550   4.697   6.299   5.733
10058SOL    HW240551   4.699   6.246   5.654
10058SOL    HW340552   4.785   6.336   5.739
10058SOL    MW440553   4.709   6.298   5.722
10059SOL     OW40554   5.311   6.225   6.069
10059SOL    HW240555   5.350   6.225   6.156
10059SOL    HW340556   5.252   6.301   6.069
10059SOL    MW440557   5.308   6.236   6.080
10060SOL     OW40558   4.628   6.592   7.198
10060SOL    HW240559   4.605   6.572   7.288
10060SOL    HW340560   4.713   6.636   7.203
10060SOL    MW440561   4.635   6.595   7.210
10061SOL     OW40562   4.708   5.729   6.958
10061SOL    HW240563   4.714   5.691   6.871
10061SOL    HW340564   4.697   5.823   6.943
10061SOL    MW440565   4.709   5.737   6.946
10062SOL     OW40566   4.797   6.218   6.792
10062SOL    HW240567   4.872   6.247   6.739
10062SOL    HW340568   4.729   6.283   6.776
10062SOL    MW440569   4.798   6.230   6.782
10063SOL     OW40570   5.347   6.186   7.069
10063SOL    HW240571   5.328   6.095   7.048
10063SOL    HW340572   5.325   6.235   6.990
10063SOL    MW440573   5.342   6.179   7.056
10064SOL     OW40574   5.489   7.280   6.973
10064SOL    HW240575   5.417   7.242   7.024
10064SOL    HW340576   5.506   7.365   7.014
10064SOL    MW440577   5.483   7.285   6.985
10065SOL     OW40578   4.794   5.924   7.175
10065SOL    HW240579   4.760   5.963   7.094
10065SOL    HW340580   4.772   5.832   7.168
10065SOL    MW440581   4.787   5.917   7.165
10066SOL     OW40582   5.203   6.738   7.251
10066SOL    HW240583   5.285   6.779   7.281
10066SOL    HW340584   5.166   6.700   7.331
10066SOL    MW440585   5.209   6.739   7.266
10067SOL     OW40586   5.498   6.111   6.235
10067SOL    HW240587   5.587   6.080   6.252
10067SOL    HW340588   5.441   6.051   6.283
10067SOL    MW440589   5.501   6.099   6.244
10068SOL     OW40590   3.924   5.825   6.264
10068SOL    HW240591   3.915   5.765   6.190
10068SOL    HW340592   3.857   5.796   6.327
10068SOL    MW440593   3.914   5.812   6.262
10069SOL     OW40594   4.867   6.918   5.825
10069SOL    HW240595   4.817   6.920   5.907
10069SOL    HW340596   4.801   6.936   5.757
10069SOL    MW440597   4.853   6.920   5.827
10070SOL     OW40598   3.871   5.998   6.627
10070SOL    HW240599   3.843   6.089   6.636
10070SOL    HW340600   3.808   5.959   6.566
10070SOL    MW440601   3.858   6.004   6.621
10071SOL     OW40602   4.330   7.336   5.933
10071SOL    HW240603   4.251   7.294   5.966
10071SOL    HW340604   4.396   7.319   6.000
10071SOL    MW440605   4.329   7.328   5.946
10072SOL     OW40606   5.458   6.856   7.330
10072SOL    HW240607   5.508   6.782   7.362
10072SOL    HW340608   5.404   6.883   7.405
10072SOL    MW440609   5.458   6.850   7.343
10073SOL     OW40610   4.466   6.751   5.640
10073SOL    HW240611   4.388   6.697   5.627
10073SOL    HW340612   4.437   6.824   5.693
10073SOL    MW440613   4.452   6.753   5.645
10074SOL     OW40614   5.592   6.491   6.832
10074SOL    HW240615   5.608   6.529   6.745
10074SOL    HW340616   5.626   6.557   6.893
10074SOL    MW440617   5.599   6.504   6.828
10075SOL     OW40618   5.384   7.200   6.501
10075SOL    HW240619   5.413   7.267   6.562
10075SOL    HW340620   5.365   7.124   6.556
10075SOL    MW440621   5.386   7.200   6.516
10076SOL     OW40622   5.047   7.267   5.708
10076SOL    HW240623   4.973   7.230   5.758
10076SOL    HW340624   5.055   7.357   5.741
10076SOL    MW440625   5.038   7.274   5.720
10077SOL     OW40626   3.855   6.273   6.797
10077SOL    HW240627   3.917   6.303   6.863
10077SOL    HW340628   3.789   6.342   6.791
10077SOL    MW440629   3.854   6.286   6.804
10078SOL     OW40630   5.271   6.941   5.650
10078SOL    HW240631   5.218   6.990   5.586
10078SOL    HW340632   5.302   7.007   5.711
10078SOL    MW440633   5.269   6.955   5.648
10079SOL     OW40634   4.496   5.830   5.705
10079SOL    HW240635   4.444   5.750   5.693
10079SOL    HW340636   4.583   5.807   5.673
10079SOL    MW440637   4.499   5.816   5.699
10080SOL     OW40638   3.950   7.382   7.249
10080SOL    HW240639   3.924   7.450   7.187
10080SOL    HW340640   3.998   7.319   7.197
10080SOL    MW440641   3.952   7.382   7.235
10081SOL     OW40642   4.002   6.701   6.756
10081SOL    HW240643   4.055   6.776   6.781
10081SOL    HW340644   3.921   6.739   6.722
10081SOL    MW440645   3.998   6.716   6.756
10082SOL     OW40646   4.542   6.605   6.744
10082SOL    HW240647   4.570   6.514   6.756
10082SOL    HW340648   4.471   6.599   6.680
10082SOL    MW440649   4.535   6.593   6.739
10083SOL     OW40650   3.857   6.470   6.162
10083SOL    HW240651   3.948   6.485   6.189
10083SOL    HW340652   3.860   6.391   6.108
10083SOL    MW440653   3.869   6.462   6.160
10084SOL     OW40654   4.093   6.178   7.416
10084SOL    HW240655   4.040   6.258   7.423
10084SOL    HW340656   4.163   6.190   7.481
10084SOL    MW440657   4.095   6.191   7.424
10085SOL     OW40658   4.479   5.728   7.123
10085SOL    HW240659   4.456   5.636   7.125
10085SOL    HW340660   4.565   5.730   7.080
10085SOL    MW440661   4.486   5.718   7.119
10086SOL     OW40662   4.163   6.252   7.162
10086SOL    HW240663   4.243   6.302   7.148
10086SOL    HW340664   4.154   6.246   7.257
10086SOL    MW440665   4.172   6.258   7.172
10087SOL     OW40666   4.484   7.402   6.536
10087SOL    HW240667   4.573   7.417   6.566
10087SOL    HW340668   4.479   7.449   6.452
10087SOL    MW440669   4.494   7.410   6.529
10088SOL     OW40670   5.140   5.777   7.433
10088SOL    HW240671   5.196   5.704   7.459
10088SOL    HW340672   5.110   5.815   7.515
10088SOL    MW440673   5.144   5.772   7.446
10089SOL     OW40674   3.865   7.082   6.201
10089SOL    HW240675   3.837   7.121   6.283
10089SOL    HW340676   3.885   6.991   6.223
10089SOL    MW440677   3.863   7.074   6.214
10090SOL     OW40678   4.698   7.125   6.236
10090SOL    HW240679   4.781   7.079   6.220
10090SOL    HW340680   4.688   7.124   6.332
10090SOL    MW440681   4.708   7.118   6.246
10091SOL     OW40682   5.530   6.270   6.550
10091SOL    HW240683   5.619   6.300   6.532
10091SOL    HW340684   5.510   6.210   6.479
10091SOL    MW440685   5.539   6.267   6.539
10092SOL     OW40686   5.381   6.449   7.430
10092SOL    HW240687   5.436   6.373   7.411
10092SOL    HW340688   5.383   6.457   7.525
10092SOL    MW440689   5.389   6.440   7.438
10093SOL     OW40690   4.431   7.182   5.641
10093SOL    HW240691   4.371   7.251   5.611
10093SOL    HW340692   4.376   7.124   5.694
10093SOL    MW440693   4.415   7.184   5.643
10094SOL     OW40694   4.869   5.827   5.864
10094SOL    HW240695   4.802   5.803   5.801
10094SOL    HW340696   4.934   5.876   5.813
10094SOL    MW440697   4.869   5.829   5.849
10095SOL     OW40698   4.676   6.011   6.949
10095SOL    HW240699   4.595   6.052   6.977
10095SOL    HW340700   4.723   6.079   6.901
10095SOL    MW440701   4.671   6.026   6.947
10096SOL     OW40702   4.936   6.349   6.572
10096SOL    HW240703   4.949   6.443   6.582
10096SOL    HW340704   4.897   6.339   6.486
10096SOL    MW440705   4.932   6.360   6.562
10097SOL     OW40706   4.388   6.544   6.376
10097SOL    HW240707   4.299   6.535   6.409
10097SOL    HW340708   4.392   6.634   6.344
10097SOL    MW440709   4.377   6.555   6.376
10098SOL     OW40710   5.187   6.127   6.371
10098SOL    HW240711   5.132   6.048   6.370
10098SOL    HW340712   5.169   6.168   6.455
10098SOL    MW440713   5.177   6.122   6.380
10099SOL     OW40714   4.158   5.814   7.188
10099SOL    HW240715   4.079   5.832   7.240
10099SOL    HW340716   4.153   5.876   7.115
10099SOL    MW440717   4.148   5.824   7.185
10100SOL     OW40718   4.806   6.331   6.328
10100SOL    HW240719   4.743   6.263   6.352
10100SOL    HW340720   4.826   6.312   6.236
10100SOL    MW440721   4.800   6.318   6.320
10101SOL     OW40722   4.062   7.226   6.030
10101SOL    HW240723   4.023   7.273   5.956
10101SOL    HW340724   3.996   7.161   6.055
10101SOL    MW440725   4.049   7.224   6.024
10102SOL     OW40726   4.554   6.635   6.054
10102SOL    HW240727   4.556   6.609   5.961
10102SOL    HW340728   4.612   6.572   6.097
10102SOL    MW440729   4.562   6.624   6.048
10103SOL     OW40730   5.107   7.195   6.826
10103SOL    HW240731   5.032   7.241   6.864
10103SOL    HW340732   5.089   7.102   6.843
10103SOL    MW440733   5.096   7.189   6.834
10104SOL     OW40734   5.111   7.403   6.256
10104SOL    HW240735   5.054   7.356   6.195
10104SOL    HW340736   5.197   7.364   6.243
10104SOL    MW440737   5.114   7.394   6.246
10105SOL     OW40738   5.064   5.879   6.387
10105SOL    HW240739   5.092   5.811   6.448
10105SOL    HW340740   4.978   5.850   6.357
10105SOL    MW440741   5.057   5.866   6.391
10106SOL     OW40742   3.869   6.813   6.321
10106SOL    HW240743   3.933   6.845   6.384
10106SOL    HW340744   3.918   6.749   6.269
10106SOL    MW440745   3.884   6.809   6.322
10107SOL     OW40746   4.369   6.889   7.303
10107SOL    HW240747   4.417   6.972   7.290
10107SOL    HW340748   4.426   6.837   7.359
10107SOL    MW440749   4.383   6.893   7.309
10108SOL     OW40750   3.945   7.131   7.443
10108SOL    HW240751   4.001   7.055   7.458
10108SOL    HW340752   3.894   7.109   7.365
10108SOL    MW440753   3.945   7.118   7.434
10109SOL     OW40754   5.044   5.983   5.722
10109SOL    HW240755   5.017   6.049   5.658
10109SOL    HW340756   5.114   6.026   5.772
10109SOL    MW440757   5.049   5.996   5.719
10110SOL     OW40758   4.712   5.688   5.659
10110SOL    HW240759   4.768   5.680   5.581
10110SOL    HW340760   4.689   5.598   5.681
10110SOL    MW440761   4.717   5.675   5.652
10111SOL     OW40762   5.217   6.539   5.864
10111SOL    HW240763   5.184   6.628   5.854
10111SOL    HW340764   5.182   6.510   5.949
10111SOL    MW440765   5.207   6.548   5.875
10112SOL     OW40766   4.830   6.968   7.052
10112SOL    HW240767   4.741   6.974   7.020
10112SOL    HW340768   4.874   7.047   7.020
10112SOL    MW440769   4.825   6.978   7.044
10113SOL     OW40770   4.123   5.636   7.394
10113SOL    HW240771   4.051   5.601   7.342
10113SOL    HW340772   4.181   5.677   7.329
10113SOL    MW440773   4.121   5.637   7.379
10114SOL     OW40774   4.147   7.126   6.693
10114SOL    HW240775   4.192   7.188   6.750
10114SOL    HW340776   4.054   7.145   6.706
10114SOL    MW440777   4.140   7.136   6.700
10115SOL     OW40778   5.587   6.655   7.047
10115SOL    HW240779   5.502   6.668   7.006
10115SOL    HW340780   5.567   6.619   7.134
10115SOL    MW440781   5.574   6.651   7.052
10116SOL     OW40782   4.569   7.194   6.801
10116SOL    HW240783   4.593   7.183   6.710
10116SOL    HW340784   4.492   7.251   6.799
10116SOL    MW440785   4.561   7.199   6.790
10117SOL     OW40786   4.211   6.577   5.656
10117SOL    HW240787   4.134   6.590   5.712
10117SOL    HW340788   4.175   6.541   5.575
10117SOL    MW440789   4.197   6.573   5.653
10118SOL     OW40790   4.864   6.550   5.899
10118SOL    HW240791   4.774   6.571   5.874
10118SOL    HW340792   4.891   6.623   5.955
10118SOL    MW440793   4.856   6.562   5.902
10119SOL     OW40794   4.364   6.899   6.591
10119SOL    HW240795   4.357   6.878   6.685
10119SOL    HW340796   4.282   6.867   6.554
10119SOL    MW440797   4.352   6.893   6.598
10120SOL     OW40798   5.228   5.909   6.993
10120SOL    HW240799   5.175   5.911   7.073
10120SOL    HW340800   5.213   5.822   6.956
10120SOL    MW440801   5.220   5.899   6.998
10121SOL     OW40802   5.564   5.833   6.866
10121SOL    HW240803   5.545   5.900   6.801
10121SOL    HW340804   5.621   5.771   6.821
10121SOL    MW440805   5.568   5.834   6.852
10122SOL     OW40806   3.810   6.991   7.254
10122SOL    HW240807   3.854   6.924   7.200
10122SOL    HW340808   3.725   6.953   7.274
10122SOL    MW440809   3.805   6.977   7.250
10123SOL     OW40810   4.493   5.666   6.306
10123SOL    HW240811   4.422   5.727   6.288
10123SOL    HW340812   4.544   5.663   6.225
10123SOL    MW440813   4.489   5.672   6.293
10124SOL     OW40814   4.251   6.906   6.055
10124SOL    HW240815   4.244   6.938   6.145
10124SOL    HW340816   4.161   6.890   6.027
10124SOL    MW440817   4.239   6.908   6.062
10125SOL     OW40818   4.846   7.299   6.964
10125SOL    HW240819   4.766   7.284   6.914
10125SOL    HW340820   4.853   7.394   6.971
10125SOL    MW440821   4.837   7.310   6.958
10126SOL     OW40822   4.960   7.264   6.454
10126SOL    HW240823   5.007   7.337   6.413
10126SOL    HW340824   4.881   7.303   6.490
10126SOL    MW440825   4.955   7.279   6.453
10127SOL     OW40826   5.368   7.359   6.729
10127SOL    HW240827   5.411   7.329   6.809
10127SOL    HW340828   5.287   7.307   6.726
10127SOL    MW440829   5.363   7.348   6.739
10128SOL     OW40830   4.453   6.323   7.436
10128SOL    HW240831   4.523   6.265   7.408
10128SOL    HW340832   4.396   6.268   7.491
10128SOL    MW440833   4.455   6.310   7.440
10129SOL     OW40834   5.240   6.535   7.069
10129SOL    HW240835   5.245   6.588   7.149
10129SOL    HW340836   5.202   6.452   7.097
10129SOL    MW440837   5.236   6.530   7.084
10130SOL     OW40838   4.880   5.670   7.315
10130SOL    HW240839   4.875   5.577   7.296
10130SOL    HW340840   4.963   5.681   7.361
10130SOL    MW440841   4.888   5.659   7.319
10131SOL     OW40842   4.254   6.190   5.769
10131SOL    HW240843   4.220   6.246   5.839
10131SOL    HW340844   4.325   6.140   5.809
10131SOL    MW440845   4.260   6.191   5.783
10132SOL     OW40846   5.350   6.941   6.591
10132SOL    HW240847   5.385   6.923   6.504
10132SOL    HW340848   5.255   6.942   6.578
10132SOL    MW440849   5.342   6.938   6.578
10133SOL     OW40850   4.779   6.589   6.960
10133SOL    HW240851   4.822   6.624   7.038
10133SOL    HW340852   4.762   6.666   6.906
10133SOL    MW440853   4.782   6.604   6.963
10134SOL     OW40854   5.310   6.076   5.833
10134SOL    HW240855   5.302   6.147   5.770
10134SOL    HW340856   5.328   6.120   5.916
10134SOL    MW440857   5.311   6.090   5.835
10135SOL     OW40858   4.170   5.731   6.262
10135SOL    HW240859   4.220   5.774   6.193
10135SOL    HW340860   4.085   5.775   6.262
10135SOL    MW440861   4.167   5.744   6.253
10136SOL     OW40862   3.929   6.793   7.122
10136SOL    HW240863   3.957   6.746   7.200
10136SOL    HW340864   3.850   6.748   7.093
10136SOL    MW440865   3.922   6.782   7.128
10137SOL     OW40866   4.437   6.120   7.089
10137SOL    HW240867   4.409   6.208   7.113
10137SOL    HW340868   4.406   6.064   7.160
10137SOL    MW440869   4.429   6.123   7.101
10138SOL     OW40870   4.979   6.338   5.808
10138SOL    HW240871   5.026   6.356   5.727
10138SOL    HW340872   4.945   6.422   5.836
10138SOL    MW440873   4.981   6.352   5.801
10139SOL     OW40874   4.092   6.516   6.302
10139SOL    HW240875   4.150   6.572   6.250
10139SOL    HW340876   4.136   6.431   6.304
10139SOL    MW440877   4.105   6.513   6.295
10140SOL     OW40878   5.232   5.868   6.139
10140SOL    HW240879   5.154   5.818   6.164
10140SOL    HW340880   5.203   5.959   6.139
10140SOL    MW440881   5.218   5.872   6.142
10141SOL     OW40882   4.818   5.830   6.298
10141SOL    HW240883   4.838   5.905   6.242
10141SOL    HW340884   4.798   5.869   6.383
10141SOL    MW440885   4.819   5.846   6.302
10142SOL     OW40886   4.714   7.080   5.630
10142SOL    HW240887   4.741   7.158   5.582
10142SOL    HW340888   4.621   7.095   5.649
10142SOL    MW440889   4.705   7.093   5.626
10143SOL     OW40890   5.578   6.603   7.317
10143SOL    HW240891   5.491   6.583   7.353
10143SOL    HW340892   5.632   6.529   7.342
10143SOL    MW440893   5.573   6.592   7.325
10144SOL     OW40894   3.799   7.116   6.474
10144SOL    HW240895   3.831   7.120   6.565
10144SOL    HW340896   3.704   7.124   6.482
10144SOL    MW440897   3.791   7.119   6.487
10145SOL     OW40898   3.754   6.242   6.021
10145SOL    HW240899   3.694   6.214   6.091
10145SOL    HW340900   3.828   6.182   6.027
10145SOL    MW440901   3.756   6.231   6.030
10146SOL     OW40902   5.322   7.454   7.455
10146SOL    HW240903   5.367   7.378   7.420
10146SOL    HW340904   5.360   7.467   7.542
10146SOL    MW440905   5.332   7.447   7.461
10147SOL     OW40906   4.922   6.973   6.181
10147SOL    HW240907   4.945   6.924   6.259
10147SOL    HW340908   5.003   7.015   6.153
10147SOL    MW440909   4.935   6.973   6.188
10148SOL     OW40910   4.180   5.981   6.910
10148SOL    HW240911   4.213   6.062   6.950
10148SOL    HW340912   4.153   6.007   6.822
10148SOL    MW440913   4.179   5.995   6.904
10149SOL     OW40914   4.134   5.948   6.646
10149SOL    HW240915   4.164   5.862   6.617
10149SOL    HW340916   4.039   5.941   6.649
10149SOL    MW440917   4.126   5.937   6.644
10150SOL     OW40918   4.963   6.157   7.337
10150SOL    HW240919   5.015   6.092   7.290
10150SOL    HW340920   4.921   6.208   7.267
10150SOL    MW440921   4.964   6.154   7.320
10151SOL     OW40922   5.062   5.952   7.198
10151SOL    HW240923   4.969   5.936   7.185
10151SOL    HW340924   5.088   5.890   7.266
10151SOL    MW440925   5.052   5.942   7.205
10152SOL     OW40926   4.277   5.726   6.537
10152SOL    HW240927   4.287   5.635   6.563
10152SOL    HW340928   4.233   5.722   6.452
10152SOL    MW440929   4.273   5.714   6.529
10153SOL     OW40930   4.371   7.341   7.083
10153SOL    HW240931   4.288   7.326   7.128
10153SOL    HW340932   4.430   7.274   7.118
10153SOL    MW440933   4.369   7.331   7.093
10154SOL     OW40934   5.428   6.048   6.708
10154SOL    HW240935   5.361   6.081   6.768
10154SOL    HW340936   5.471   6.126   6.674
10154SOL    MW440937   5.426   6.063   6.712
10155SOL     OW40938   5.606   6.768   6.678
10155SOL    HW240939   5.599   6.708   6.603
10155SOL    HW340940   5.532   6.828   6.667
10155SOL    MW440941   5.596   6.768   6.667
10156SOL     OW40942   4.988   6.630   6.596
10156SOL    HW240943   5.002   6.602   6.687
10156SOL    HW340944   5.074   6.661   6.568
10156SOL    MW440945   5.001   6.631   6.605
10157SOL     OW40946   5.071   6.125   6.875
10157SOL    HW240947   5.092   6.126   6.782
10157SOL    HW340948   5.116   6.047   6.908
10157SOL    MW440949   5.078   6.115   6.867
10158SOL     OW40950   5.564   6.256   7.417
10158SOL    HW240951   5.601   6.201   7.486
10158SOL    HW340952   5.589   6.213   7.335
10158SOL    MW440953   5.571   6.244   7.416
10159SOL     OW40954   5.111   6.554   7.468
10159SOL    HW240955   5.177   6.502   7.422
10159SOL    HW340956   5.131   6.541   7.561
10159SOL    MW440957   5.122   6.545   7.475
10160SOL     OW40958   5.062   5.640   5.817
10160SOL    HW240959   5.136   5.684   5.860
10160SOL    HW340960   4.986   5.694   5.839
10160SOL    MW440961   5.062   5.652   5.825
10161SOL     OW40962   5.122   6.415   6.095
10161SOL    HW240963   5.037   6.385   6.065
10161SOL    HW340964   5.114   6.422   6.190
10161SOL    MW440965   5.110   6.413   6.104
10162SOL     OW40966   4.198   6.878   6.826
10162SOL    HW240967   4.210   6.905   6.917
10162SOL    HW340968   4.179   6.959   6.779
10162SOL    MW440969   4.197   6.893   6.831
10163SOL     OW40970   4.482   5.858   6.649
10163SOL    HW240971   4.455   5.860   6.740
10163SOL    HW340972   4.412   5.810   6.604
10163SOL    MW440973   4.470   5.854   6.656
10164SOL     OW40974   4.336   7.350   6.811
10164SOL    HW240975   4.388   7.427   6.788
10164SOL    HW340976   4.345   7.342   6.906
10164SOL    MW440977   4.345   7.357   6.822
10165SOL     OW40978   5.238   6.935   7.043
10165SOL    HW240979   5.223   6.864   7.106
10165SOL    HW340980   5.284   6.893   6.971
10165SOL    MW440981   5.244   6.919   7.043
10166SOL     OW40982   4.312   6.666   7.160
10166SOL    HW240983   4.349   6.671   7.072
10166SOL    HW340984   4.351   6.739   7.207
10166SOL    MW440985   4.322   6.676   7.155
10167SOL     OW40986   4.492   6.709   6.972
10167SOL    HW240987   4.551   6.655   7.025
10167SOL    HW340988   4.507   6.681   6.882
10167SOL    MW440989   4.502   6.698   6.968
10168SOL     OW40990   4.495   6.081   5.821
10168SOL    HW240991   4.568   6.130   5.784
10168SOL    HW340992   4.511   5.990   5.795
10168SOL    MW440993   4.507   6.076   5.814
10169SOL     OW40994   5.303   7.198   7.144
10169SOL    HW240995   5.345   7.183   7.229
10169SOL    HW340996   5.294   7.111   7.106
10169SOL    MW440997   5.307   7.186   7.151
10170SOL     OW40998   4.963   5.677   6.735
10170SOL    HW240999   5.018   5.686   6.657
10170SOL    HW341000   5.018   5.711   6.806
10170SOL    MW441001   4.977   5.682   6.734
10171SOL     OW41002   3.970   6.590   5.919
10171SOL    HW241003   3.907   6.606   5.848
10171SOL    HW341004   3.917   6.553   5.990
10171SOL    MW441005   3.955   6.587   5.919
10172SOL     OW41006   4.326   6.944   5.778
10172SOL    HW241007   4.341   6.920   5.870
10172SOL    HW341008   4.234   6.922   5.762
10172SOL    MW441009   4.316   6.937   5.788
10173SOL     OW41010   4.865   7.175   5.930
10173SOL    HW241011   4.873   7.093   5.881
10173SOL    HW341012   4.784   7.214   5.897
10173SOL    MW441013   4.855   7.170   5.920
10174SOL     OW41014   4.124   7.333   6.499
10174SOL    HW241015   4.128   7.244   6.534
10174SOL    HW341016   4.150   7.324   6.408
10174SOL    MW441017   4.127   7.321   6.491
10175SOL     OW41018   4.741   6.811   6.742
10175SOL    HW241019   4.673   6.745   6.758
10175SOL    HW341020   4.759   6.805   6.649
10175SOL    MW441021   4.734   6.802   6.733
10176SOL     OW41022   3.830   7.086   6.993
10176SOL    HW241023   3.820   7.044   7.079
10176SOL    HW341024   3.751   7.139   6.983
10176SOL    MW441025   3.819   7.087   7.004
10177SOL     OW41026   4.734   5.950   6.563
10177SOL    HW241027   4.664   5.902   6.608
10177SOL    HW341028   4.766   6.013   6.627
10177SOL    MW441029   4.729   5.952   6.577
10178SOL     OW41030   4.385   6.386   7.183
10178SOL    HW241031   4.378   6.481   7.171
10178SOL    HW341032   4.394   6.375   7.278
10178SOL    MW441033   4.386   6.398   7.193
10179SOL     OW41034   4.106   6.901   7.441
10179SOL    HW241035   4.178   6.903   7.378
10179SOL    HW341036   4.076   6.810   7.440
10179SOL    MW441037   4.111   6.890   7.433
10180SOL     OW41038   5.190   5.664   6.908
10180SOL    HW241039   5.261   5.610   6.872
10180SOL    HW341040   5.189   5.643   7.001
10180SOL    MW441041   5.199   5.655   6.916
10181SOL     OW41042   5.390   7.194   7.392
10181SOL    HW241043   5.363   7.191   7.483
10181SOL    HW341044   5.486   7.198   7.395
10181SOL    MW441045   5.400   7.194   7.404
10182SOL     OW41046   4.201   6.056   6.376
10182SOL    HW241047   4.272   6.004   6.339
10182SOL    HW341048   4.187   6.021   6.463
10182SOL    MW441049   4.209   6.045   6.383
10183SOL     OW41050   3.756   7.391   7.448
10183SOL    HW241051   3.806   7.369   7.370
10183SOL    HW341052   3.764   7.486   7.456
10183SOL    MW441053   3.764   7.400   7.439
10184SOL     OW41054   4.517   7.149   6.452
10184SOL    HW241055   4.445   7.086   6.465
10184SOL    HW341056   4.478   7.234   6.470
10184SOL    MW441057   4.501   7.152   6.455
10185SOL     OW41058   4.837   5.997   6.100
10185SOL    HW241059   4.859   5.934   6.032
10185SOL    HW341060   4.742   5.989   6.111
10185SOL    MW441061   4.827   5.988   6.092
10186SOL     OW41062   3.922   5.687   6.032
10186SOL    HW241063   3.993   5.708   5.971
10186SOL    HW341064   3.876   5.615   5.990
10186SOL    MW441065   3.926   5.681   6.018
10187SOL     OW41066   3.753   6.154   7.175
10187SOL    HW241067   3.817   6.220   7.150
10187SOL    HW341068   3.672   6.181   7.132
10187SOL    MW441069   3.751   6.166   7.167
10188SOL     OW41070   5.491   7.061   6.132
10188SOL    HW241071   5.461   6.994   6.193
10188SOL    HW341072   5.585   7.067   6.146
10188SOL    MW441073   5.499   7.053   6.142
10189SOL     OW41074   5.047   6.738   6.062
10189SOL    HW241075   5.019   6.824   6.095
10189SOL    HW341076   5.075   6.754   5.972
10189SOL    MW441077   5.047   6.752   6.054
10190SOL     OW41078   4.709   5.658   6.115
10190SOL    HW241079   4.746   5.717   6.180
10190SOL    HW341080   4.686   5.714   6.041
10190SOL    MW441081   4.710   5.673   6.114
10191SOL     OW41082   5.562   6.540   6.537
10191SOL    HW241083   5.553   6.572   6.448
10191SOL    HW341084   5.515   6.456   6.537
10191SOL    MW441085   5.555   6.533   6.527
10192SOL     OW41086   3.938   6.380   7.116
10192SOL    HW241087   3.959   6.449   7.054
10192SOL    HW341088   4.018   6.327   7.121
10192SOL    MW441089   3.951   6.381   7.110
10193SOL     OW41090   5.474   6.471   6.238
10193SOL    HW241091   5.568   6.460   6.226
10193SOL    HW341092   5.450   6.543   6.179
10193SOL    MW441093   5.484   6.479   6.229
10194SOL     OW41094   3.923   6.395   7.383
10194SOL    HW241095   3.849   6.339   7.409
10194SOL    HW341096   3.918   6.398   7.288
10194SOL    MW441097   3.912   6.388   7.373
10195SOL     OW41098   4.089   5.682   6.833
10195SOL    HW241099   4.132   5.766   6.853
10195SOL    HW341100   4.162   5.620   6.826
10195SOL    MW441101   4.104   5.685   6.834
10196SOL     OW41102   4.130   6.349   6.011
10196SOL    HW241103   4.130   6.444   5.996
10196SOL    HW341104   4.207   6.333   6.065
10196SOL    MW441105   4.140   6.360   6.016
10197SOL     OW41106   4.906   6.208   7.075
10197SOL    HW241107   4.942   6.181   6.991
10197SOL    HW341108   4.819   6.242   7.054
10197SOL    MW441109   4.900   6.209   7.062
10198SOL     OW41110   3.889   6.080   6.300
10198SOL    HW241111   3.951   6.087   6.373
10198SOL    HW341112   3.889   5.987   6.277
10198SOL    MW441113   3.897   6.069   6.307
10199SOL     OW41114   5.436   7.420   5.832
10199SOL    HW241115   5.503   7.453   5.772
10199SOL    HW341116   5.393   7.499   5.866
10199SOL    MW441117   5.438   7.435   5.828
10200SOL     OW41118   4.571   6.341   6.784
10200SOL    HW241119   4.529   6.259   6.760
10200SOL    HW341120   4.572   6.340   6.880
10200SOL    MW441121   4.564   6.330   6.793
10201SOL     OW41122   5.242   7.474   7.183
10201SOL    HW241123   5.245   7.380   7.166
10201SOL    HW341124   5.265   7.482   7.275
10201SOL    MW441125   5.245   7.462   7.193
10202SOL     OW41126   4.375   5.811   6.889
10202SOL    HW241127   4.306   5.874   6.910
10202SOL    HW341128   4.402   5.775   6.974
10202SOL    MW441129   4.369   5.814   6.902
10203SOL     OW41130   3.758   6.652   5.758
10203SOL    HW241131   3.727   6.717   5.821
10203SOL    HW341132   3.707   6.574   5.777
10203SOL    MW441133   3.748   6.649   5.768
10204SOL     OW41134   5.170   5.664   6.506
10204SOL    HW241135   5.258   5.673   6.543
10204SOL    HW341136   5.180   5.605   6.432
10204SOL    MW441137   5.184   5.658   6.500
10205SOL     OW41138   5.202   6.403   6.350
10205SOL    HW241139   5.282   6.418   6.299
10205SOL    HW341140   5.195   6.308   6.356
10205SOL    MW441141   5.211   6.392   6.345
10206SOL     OW41142   4.342   7.452   5.700
10206SOL    HW241143   4.247   7.452   5.692
10206SOL    HW341144   4.358   7.398   5.778
10206SOL    MW441145   4.332   7.446   5.709
10207SOL     OW41146   4.652   6.329   7.047
10207SOL    HW241147   4.721   6.396   7.044
10207SOL    HW341148   4.585   6.367   7.103
10207SOL    MW441149   4.653   6.342   7.054
10208SOL     OW41150   4.070   6.629   7.295
10208SOL    HW241151   4.024   6.545   7.297
10208SOL    HW341152   4.127   6.623   7.219
10208SOL    MW441153   4.072   6.617   7.287
10209SOL     OW41154   5.187   6.272   5.615
10209SOL    HW241155   5.115   6.248   5.557
10209SOL    HW341156   5.253   6.309   5.557
10209SOL    MW441157   5.186   6.274   5.600
10210SOL     OW41158   4.321   7.004   6.296
10210SOL    HW241159   4.386   6.937   6.317
10210SOL    HW341160   4.373   7.081   6.273
10210SOL    MW441161   4.336   7.006   6.295
10211SOL     OW41162   4.582   6.169   6.426
10211SOL    HW241163   4.522   6.187   6.498
10211SOL    HW341164   4.616   6.081   6.445
10211SOL    MW441165   4.578   6.159   6.439
10212SOL     OW41166   5.523   5.668   7.095
10212SOL    HW241167   5.444   5.714   7.123
10212SOL    HW341168   5.558   5.722   7.024
10212SOL    MW441169   5.517   5.681   7.089
10213SOL     OW41170   4.807   6.752   6.445
10213SOL    HW241171   4.899   6.733   6.463
10213SOL    HW341172   4.780   6.682   6.385
10213SOL    MW441173   4.815   6.740   6.439
10214SOL     OW41174   4.600   6.572   5.800
10214SOL    HW241175   4.586   6.484   5.765
10214SOL    HW341176   4.551   6.629   5.741
10214SOL    MW441177   4.592   6.567   5.788
10215SOL     OW41178   5.081   6.990   6.541
10215SOL    HW241179   5.054   7.074   6.506
10215SOL    HW341180   5.041   6.985   6.628
10215SOL    MW441181   5.074   6.999   6.547
10216SOL     OW41182   5.000   6.938   6.809
10216SOL    HW241183   5.011   6.905   6.898
10216SOL    HW341184   4.919   6.897   6.778
10216SOL    MW441185   4.990   6.930   6.815
10217SOL     OW41186   4.013   6.296   6.579
10217SOL    HW241187   3.963   6.295   6.660
10217SOL    HW341188   4.033   6.388   6.563
10217SOL    MW441189   4.009   6.308   6.587
10218SOL     OW41190   5.080   7.060   7.341
10218SOL    HW241191   5.080   7.154   7.357
10218SOL    HW341192   5.125   7.050   7.257
10218SOL    MW441193   5.086   7.070   7.332
10219SOL     OW41194   5.319   5.778   5.902
10219SOL    HW241195   5.312   5.782   5.997
10219SOL    HW341196   5.331   5.869   5.875
10219SOL    MW441197   5.320   5.791   5.910
10220SOL     OW41198   4.608   6.341   6.016
10220SOL    HW241199   4.588   6.327   5.923
10220SOL    HW341200   4.701   6.320   6.023
10220SOL    MW441201   4.618   6.336   6.005
10221SOL     OW41202   3.935   5.964   7.320
10221SOL    HW241203   3.892   6.023   7.257
10221SOL    HW341204   4.003   6.019   7.360
10221SOL    MW441205   3.939   5.979   7.317
10222SOL     OW41206   5.047   6.584   6.865
10222SOL    HW241207   5.110   6.581   6.938
10222SOL    HW341208   4.963   6.602   6.907
10222SOL    MW441209   5.043   6.586   6.880
10223SOL     OW41210   4.591   7.299   6.054
10223SOL    HW241211   4.649   7.370   6.081
10223SOL    HW341212   4.614   7.227   6.112
10223SOL    MW441213   4.602   7.299   6.065
10224SOL     OW41214   5.386   5.761   6.644
10224SOL    HW241215   5.431   5.679   6.663
10224SOL    HW341216   5.406   5.817   6.720
10224SOL    MW441217   5.396   5.757   6.656
10225SOL     OW41218   3.834   5.604   6.743
10225SOL    HW241219   3.825   5.605   6.648
10225SOL    HW341220   3.928   5.616   6.758
10225SOL    MW441221   3.846   5.607   6.734
10226SOL     OW41222   5.471   6.797   6.363
10226SOL    HW241223   5.450   6.743   6.286
10226SOL    HW341224   5.567   6.795   6.367
10226SOL    MW441225   5.480   6.790   6.352
10227SOL     OW41226   4.163   6.942   7.106
10227SOL    HW241227   4.084   6.892   7.129
10227SOL    HW341228   4.233   6.901   7.156
10227SOL    MW441229   4.161   6.930   7.116
10228SOL     OW41230   4.047   5.731   5.789
10228SOL    HW241231   3.976   5.786   5.757
10228SOL    HW341232   4.089   5.697   5.710
10228SOL    MW441233   4.043   5.733   5.775
10229SOL     OW41234   5.171   6.228   6.625
10229SOL    HW241235   5.094   6.274   6.591
10229SOL    HW341236   5.228   6.297   6.659
10229SOL    MW441237   5.168   6.243   6.625
10230SOL     OW41238   3.803   5.830   5.638
10230SOL    HW241239   3.770   5.909   5.682
10230SOL    HW341240   3.858   5.863   5.567
10230SOL    MW441241   3.806   5.844   5.635
10231SOL     OW41242   3.837   7.087   5.827
10231SOL    HW241243   3.854   7.171   5.869
10231SOL    HW341244   3.872   7.096   5.739
10231SOL    MW441245   3.842   7.100   5.821
10232SOL     OW41246   5.109   7.176   6.044
10232SOL    HW241247   5.172   7.166   5.973
10232SOL    HW341248   5.026   7.196   5.999
10232SOL    MW441249   5.106   7.177   6.029
10233SOL     OW41250   7.341   0.839   0.257
10233SOL    HW241251   7.382   0.781   0.322
10233SOL    HW341252   7.248   0.831   0.274
10233SOL    MW441253   7.335   0.831   0.267
10234SOL     OW41254   7.207   0.771   1.252
10234SOL    HW241255   7.162   0.838   1.303
10234SOL    HW341256   7.295   0.807   1.238
10234SOL    MW441257   7.213   0.784   1.256
10235SOL     OW41258   6.135   1.022   0.486
10235SOL    HW241259   6.225   0.997   0.470
10235SOL    HW341260   6.131   1.115   0.463
10235SOL    MW441261   6.147   1.031   0.481
10236SOL     OW41262   7.251   1.725   0.628
10236SOL    HW241263   7.263   1.671   0.706
10236SOL    HW341264   7.288   1.673   0.557
10236SOL    MW441265   7.257   1.710   0.629
10237SOL     OW41266   6.630   1.610   1.629
10237SOL    HW241267   6.671   1.646   1.550
10237SOL    HW341268   6.665   1.521   1.636
10237SOL    MW441269   6.641   1.603   1.620
10238SOL     OW41270   7.187   1.165   1.233
10238SOL    HW241271   7.108   1.130   1.191
10238SOL    HW341272   7.214   1.237   1.177
10238SOL    MW441273   7.180   1.170   1.220
10239SOL     OW41274   6.419   0.478   0.499
10239SOL    HW241275   6.394   0.566   0.527
10239SOL    HW341276   6.416   0.481   0.403
10239SOL    MW441277   6.415   0.490   0.491
10240SOL     OW41278   5.861   0.506   0.427
10240SOL    HW241279   5.893   0.594   0.409
10240SOL    HW341280   5.849   0.504   0.522
10240SOL    MW441281   5.864   0.518   0.439
10241SOL     OW41282   5.939   0.919   1.328
10241SOL    HW241283   6.002   0.866   1.279
10241SOL    HW341284   5.920   0.993   1.271
10241SOL    MW441285   5.945   0.921   1.315
10242SOL     OW41286   6.260   0.261   0.514
10242SOL    HW241287   6.318   0.337   0.516
10242SOL    HW341288   6.195   0.282   0.447
10242SOL    MW441289   6.259   0.273   0.505
10243SOL     OW41290   6.347   1.188   0.689
10243SOL    HW241291   6.427   1.191   0.741
10243SOL    HW341292   6.375   1.155   0.603
10243SOL    MW441293   6.361   1.184   0.684
10244SOL     OW41294   6.372   1.529   1.592
10244SOL    HW241295   6.456   1.555   1.631
10244SOL    HW341296   6.396   1.473   1.518
10244SOL    MW441297   6.386   1.525   1.587
10245SOL     OW41298   6.124   0.692   0.680
10245SOL    HW241299   6.109   0.612   0.731
10245SOL    HW341300   6.206   0.727   0.714
10245SOL    MW441301   6.132   0.684   0.692
10246SOL     OW41302   6.461   1.378   1.365
10246SOL    HW241303   6.425   1.444   1.305
10246SOL    HW341304   6.389   1.316   1.378
10246SOL    MW441305   6.447   1.378   1.359
10247SOL     OW41306   6.266   0.518   1.057
10247SOL    HW241307   6.172   0.514   1.075
10247SOL    HW341308   6.296   0.427   1.066
10247SOL    MW441309   6.257   0.506   1.060
10248SOL     OW41310   6.012   0.932   0.961
10248SOL    HW241311   5.967   0.939   0.877
10248SOL    HW341312   5.992   1.015   1.005
10248SOL    MW441313   6.004   0.944   0.955
10249SOL     OW41314   5.709   1.778   0.836
10249SOL    HW241315   5.798   1.770   0.871
10249SOL    HW341316   5.673   1.690   0.841
10249SOL    MW441317   5.716   1.765   0.841
10250SOL     OW41318   6.974   1.170   0.205
10250SOL    HW241319   6.892   1.206   0.171
10250SOL    HW341320   7.042   1.213   0.154
10250SOL    MW441321   6.972   1.180   0.193
10251SOL     OW41322   5.973   1.305   0.871
10251SOL    HW241323   5.949   1.358   0.947
10251SOL    HW341324   6.029   1.363   0.819
10251SOL    MW441325   5.977   1.320   0.874
10252SOL     OW41326   6.535   0.949   0.681
10252SOL    HW241327   6.449   0.936   0.721
10252SOL    HW341328   6.588   0.876   0.713
10252SOL    MW441329   6.531   0.938   0.690
10253SOL     OW41330   5.943   1.601   1.466
10253SOL    HW241331   5.851   1.577   1.451
10253SOL    HW341332   5.987   1.518   1.483
10253SOL    MW441333   5.937   1.586   1.465
10254SOL     OW41334   6.526   1.311   0.398
10254SOL    HW241335   6.503   1.373   0.466
10254SOL    HW341336   6.483   1.229   0.424
10254SOL    MW441337   6.518   1.307   0.409
10255SOL     OW41338   7.399   0.312   0.854
10255SOL    HW241339   7.336   0.292   0.923
10255SOL    HW341340   7.389   0.241   0.791
10255SOL    MW441341   7.389   0.299   0.855
10256SOL     OW41342   6.023   0.284   0.366
10256SOL    HW241343   5.997   0.246   0.282
10256SOL    HW341344   5.960   0.354   0.382
10256SOL    MW441345   6.012   0.287   0.357
10257SOL     OW41346   5.858   1.245   0.403
10257SOL    HW241347   5.806   1.313   0.359
10257SOL    HW341348   5.855   1.171   0.343
10257SOL    MW441349   5.850   1.244   0.390
10258SOL     OW41350   7.455   0.481   0.156
10258SOL    HW241351   7.364   0.483   0.184
10258SOL    HW341352   7.500   0.543   0.214
10258SOL    MW441353   7.448   0.489   0.166
10259SOL     OW41354   7.200   1.084   0.506
10259SOL    HW241355   7.110   1.084   0.541
10259SOL    HW341356   7.193   1.130   0.423
10259SOL    MW441357   7.187   1.090   0.500
10260SOL     OW41358   7.000   0.719   1.578
10260SOL    HW241359   7.069   0.657   1.555
10260SOL    HW341360   6.925   0.693   1.525
10260SOL    MW441361   7.000   0.706   1.569
10261SOL     OW41362   5.741   1.599   1.130
10261SOL    HW241363   5.724   1.545   1.207
10261SOL    HW341364   5.729   1.689   1.160
10261SOL    MW441365   5.738   1.603   1.144
10262SOL     OW41366   6.736   1.106   1.570
10262SOL    HW241367   6.721   1.199   1.555
10262SOL    HW341368   6.831   1.096   1.570
10262SOL    MW441369   6.745   1.116   1.567
10263SOL     OW41370   6.532   0.530   1.771
10263SOL    HW241371   6.622   0.531   1.738
10263SOL    HW341372   6.491   0.455   1.729
10263SOL    MW441373   6.538   0.520   1.762
10264SOL     OW41374   7.107   1.062   0.898
10264SOL    HW241375   7.110   0.996   0.829
10264SOL    HW341376   7.192   1.105   0.894
10264SOL    MW441377   7.119   1.058   0.889
10265SOL     OW41378   6.727   0.665   0.467
10265SOL    HW241379   6.753   0.689   0.378
10265SOL    HW341380   6.709   0.572   0.463
10265SOL    MW441381   6.729   0.657   0.454
10266SOL     OW41382   7.392   1.285   0.318
10266SOL    HW241383   7.348   1.326   0.393
10266SOL    HW341384   7.449   1.353   0.283
10266SOL    MW441385   7.394   1.299   0.323
10267SOL     OW41386   6.312   0.334   1.721
10267SOL    HW241387   6.322   0.260   1.661
10267SOL    HW341388   6.348   0.303   1.804
10267SOL    MW441389   6.318   0.320   1.723
10268SOL     OW41390   6.048   1.701   0.636
10268SOL    HW241391   6.080   1.789   0.614
10268SOL    HW341392   6.001   1.673   0.558
10268SOL    MW441393   6.047   1.709   0.623
10269SOL     OW41394   7.432   0.063   0.685
10269SOL    HW241395   7.486   0.014   0.747
10269SOL    HW341396   7.375  -0.003   0.646
10269SOL    MW441397   7.432   0.047   0.687
10270SOL     OW41398   5.764   1.761   0.213
10270SOL    HW241399   5.793   1.851   0.205
10270SOL    HW341400   5.714   1.744   0.134
10270SOL    MW441401   5.762   1.769   0.202
10271SOL     OW41402   6.551   0.016   1.098
10271SOL    HW241403   6.510   0.094   1.060
10271SOL    HW341404   6.645   0.034   1.093
10271SOL    MW441405   6.557   0.028   1.093
10272SOL     OW41406   7.168   1.569   0.184
10272SOL    HW241407   7.216   1.638   0.230
10272SOL    HW341408   7.089   1.613   0.153
10272SOL    MW441409   7.163   1.583   0.187
10273SOL     OW41410   6.566   0.694   0.128
10273SOL    HW241411   6.568   0.641   0.049
10273SOL    HW341412   6.654   0.731   0.134
10273SOL    MW441413   6.578   0.693   0.117
10274SOL     OW41414   7.180   0.620   0.464
10274SOL    HW241415   7.219   0.620   0.551
10274SOL    HW341416   7.121   0.696   0.464
10274SOL    MW441417   7.177   0.631   0.475
10275SOL     OW41418   6.497   0.987   1.593
10275SOL    HW241419   6.474   0.967   1.683
10275SOL    HW341420   6.582   1.031   1.598
10275SOL    MW441421   6.504   0.990   1.605
10276SOL     OW41422   6.577   0.124   1.353
10276SOL    HW241423   6.583   0.086   1.266
10276SOL    HW341424   6.566   0.218   1.338
10276SOL    MW441425   6.578   0.132   1.341
10277SOL     OW41426   6.666   0.613   1.187
10277SOL    HW241427   6.741   0.642   1.134
10277SOL    HW341428   6.598   0.678   1.171
10277SOL    MW441429   6.667   0.625   1.177
10278SOL     OW41430   7.216   0.581   1.464
10278SOL    HW241431   7.197   0.490   1.443
10278SOL    HW341432   7.194   0.630   1.385
10278SOL    MW441433   7.211   0.574   1.451
10279SOL     OW41434   7.358   1.675   1.368
10279SOL    HW241435   7.286   1.637   1.419
10279SOL    HW341436   7.375   1.760   1.409
10279SOL    MW441437   7.352   1.680   1.380
10280SOL     OW41438   6.663   0.319   1.570
10280SOL    HW241439   6.629   0.358   1.489
10280SOL    HW341440   6.641   0.227   1.563
10280SOL    MW441441   6.656   0.312   1.560
10281SOL     OW41442   7.072   1.133   1.646
10281SOL    HW241443   7.154   1.174   1.676
10281SOL    HW341444   7.035   1.095   1.726
10281SOL    MW441445   7.078   1.134   1.661
10282SOL     OW41446   7.367   0.506   0.630
10282SOL    HW241447   7.456   0.475   0.647
10282SOL    HW341448   7.310   0.446   0.678
10282SOL    MW441449   7.370   0.494   0.639
10283SOL     OW41450   5.793   0.220   0.659
10283SOL    HW241451   5.784   0.160   0.585
10283SOL    HW341452   5.726   0.191   0.722
10283SOL    MW441453   5.783   0.207   0.657
10284SOL     OW41454   6.736   1.313   0.220
10284SOL    HW241455   6.686   1.315   0.302
10284SOL    HW341456   6.670   1.331   0.152
10284SOL    MW441457   6.722   1.315   0.222
10285SOL     OW41458   5.740   0.393   1.022
10285SOL    HW241459   5.712   0.484   1.031
10285SOL    HW341460   5.677   0.354   0.961
10285SOL    MW441461   5.727   0.399   1.016
10286SOL     OW41462   6.199   1.731   0.328
10286SOL    HW241463   6.120   1.689   0.361
10286SOL    HW341464   6.265   1.714   0.395
10286SOL    MW441465   6.198   1.723   0.341
10287SOL     OW41466   7.327   1.251   1.725
10287SOL    HW241467   7.377   1.177   1.757
10287SOL    HW341468   7.273   1.278   1.800
10287SOL    MW441469   7.327   1.245   1.738
10288SOL     OW41470   6.335   1.146   0.035
10288SOL    HW241471   6.257   1.092   0.022
10288SOL    HW341472   6.306   1.219   0.088
10288SOL    MW441473   6.321   1.148   0.040
10289SOL     OW41474   7.461   0.886   1.227
10289SOL    HW241475   7.477   0.924   1.140
10289SOL    HW341476   7.495   0.952   1.288
10289SOL    MW441477   7.468   0.899   1.223
10290SOL     OW41478   7.253   1.595   0.896
10290SOL    HW241479   7.282   1.662   0.957
10290SOL    HW341480   7.234   1.519   0.951
10290SOL    MW441481   7.255   1.595   0.911
10291SOL     OW41482   6.916   1.662   0.103
10291SOL    HW241483   6.842   1.625   0.153
10291SOL    HW341484   6.924   1.752   0.136
10291SOL    MW441485   6.907   1.669   0.115
10292SOL     OW41486   5.724   0.668   1.192
10292SOL    HW241487   5.786   0.698   1.258
10292SOL    HW341488   5.658   0.737   1.186
10292SOL    MW441489   5.723   0.681   1.199
10293SOL     OW41490   7.140   1.336   0.045
10293SOL    HW241491   7.087   1.385  -0.019
10293SOL    HW341492   7.171   1.402   0.106
10293SOL    MW441493   7.138   1.350   0.043
10294SOL     OW41494   6.365   0.225   0.100
10294SOL    HW241495   6.313   0.145   0.088
10294SOL    HW341496   6.452   0.202   0.068
10294SOL    MW441497   6.368   0.211   0.094
10295SOL     OW41498   5.819   1.777   1.644
10295SOL    HW241499   5.793   1.845   1.582
10295SOL    HW341500   5.867   1.714   1.592
10295SOL    MW441501   5.821   1.777   1.630
10296SOL     OW41502   5.871   1.096   1.151
10296SOL    HW241503   5.924   1.171   1.176
10296SOL    HW341504   5.790   1.134   1.117
10296SOL    MW441505   5.867   1.111   1.151
10297SOL     OW41506   6.411   1.000   1.139
10297SOL    HW241507   6.439   0.909   1.151
10297SOL    HW341508   6.340   0.994   1.075
10297SOL    MW441509   6.404   0.988   1.134
10298SOL     OW41510   5.726   0.865   0.557
10298SOL    HW241511   5.817   0.880   0.584
10298SOL    HW341512   5.729   0.786   0.503
10298SOL    MW441513   5.738   0.857   0.555
10299SOL     OW41514   5.962   0.573   1.811
10299SOL    HW241515   5.909   0.653   1.818
10299SOL    HW341516   6.032   0.585   1.876
10299SOL    MW441517   5.964   0.586   1.819
10300SOL     OW41518   6.348   0.123   1.518
10300SOL    HW241519   6.325   0.031   1.520
10300SOL    HW341520   6.434   0.125   1.475
10300SOL    MW441521   6.355   0.113   1.514
10301SOL     OW41522   6.032   0.647   1.557
10301SOL    HW241523   6.112   0.697   1.543
10301SOL    HW341524   6.023   0.641   1.652
10301SOL    MW441525   6.041   0.653   1.567
10302SOL     OW41526   6.353   1.797   0.931
10302SOL    HW241527   6.442   1.812   0.961
10302SOL    HW341528   6.348   1.844   0.847
10302SOL    MW441529   6.363   1.805   0.924
10303SOL     OW41530   7.009   0.172   1.828
10303SOL    HW241531   7.065   0.099   1.854
10303SOL    HW341532   6.979   0.210   1.910
10303SOL    MW441533   7.013   0.167   1.841
10304SOL     OW41534   5.734   1.477   0.596
10304SOL    HW241535   5.706   1.516   0.678
10304SOL    HW341536   5.754   1.386   0.618
10304SOL    MW441537   5.732   1.469   0.609
10305SOL     OW41538   6.567   1.520   0.631
10305SOL    HW241539   6.650   1.474   0.615
10305SOL    HW341540   6.557   1.519   0.727
10305SOL    MW441541   6.577   1.513   0.641
10306SOL     OW41542   7.399   0.665   0.945
10306SOL    HW241543   7.488   0.695   0.927
10306SOL    HW341544   7.379   0.605   0.874
10306SOL    MW441545   7.408   0.662   0.934
10307SOL     OW41546   7.250   0.844   1.825
10307SOL    HW241547   7.305   0.768   1.806
10307SOL    HW341548   7.252   0.852   1.920
10307SOL    MW441549   7.258   0.835   1.833
10308SOL     OW41550   6.300   1.577   0.036
10308SOL    HW241551   6.240   1.646   0.006
10308SOL    HW341552   6.245   1.519   0.089
10308SOL    MW441553   6.284   1.579   0.038
10309SOL     OW41554   6.738   0.222   0.259
10309SOL    HW241555   6.671   0.198   0.196
10309SOL    HW341556   6.803   0.271   0.208
10309SOL    MW441557   6.738   0.224   0.244
10310SOL     OW41558   6.545   0.406   1.344
10310SOL    HW241559   6.464   0.447   1.372
10310SOL    HW341560   6.592   0.474   1.296
10310SOL    MW441561   6.540   0.421   1.342
10311SOL     OW41562   6.805   0.744   0.967
10311SOL    HW241563   6.818   0.838   0.977
10311SOL    HW341564   6.766   0.734   0.881
10311SOL    MW441565   6.801   0.755   0.957
10312SOL     OW41566   6.257   0.939   0.771
10312SOL    HW241567   6.168   0.930   0.804
10312SOL    HW341568   6.261   1.029   0.739
10312SOL    MW441569   6.246   0.950   0.771
10313SOL     OW41570   7.056   0.522   0.766
10313SOL    HW241571   7.001   0.443   0.765
10313SOL    HW341572   7.038   0.563   0.850
10313SOL    MW441573   7.046   0.517   0.775
10314SOL     OW41574   6.027   0.209   1.583
10314SOL    HW241575   5.948   0.227   1.635
10314SOL    HW341576   6.022   0.271   1.510
10314SOL    MW441577   6.017   0.219   1.580
10315SOL     OW41578   6.675   0.726   0.723
10315SOL    HW241579   6.612   0.658   0.747
10315SOL    HW341580   6.695   0.707   0.631
10315SOL    MW441581   6.669   0.713   0.715
10316SOL     OW41582   5.931   1.621   0.425
10316SOL    HW241583   5.892   1.668   0.351
10316SOL    HW341584   5.865   1.556   0.450
10316SOL    MW441585   5.918   1.619   0.419
10317SOL     OW41586   6.423   1.030   0.449
10317SOL    HW241587   6.425   1.004   0.356
10317SOL    HW341588   6.481   0.967   0.492
10317SOL    MW441589   6.431   1.019   0.443
10318SOL     OW41590   6.976   1.590   1.221
10318SOL    HW241591   6.901   1.636   1.259
10318SOL    HW341592   6.958   1.497   1.238
10318SOL    MW441593   6.965   1.584   1.229
10319SOL     OW41594   6.980   1.798   0.651
10319SOL    HW241595   6.923   1.751   0.590
10319SOL    HW341596   7.066   1.759   0.638
10319SOL    MW441597   6.983   1.789   0.641
10320SOL     OW41598   6.933   0.274   0.782
10320SOL    HW241599   6.961   0.206   0.843
10320SOL    HW341600   6.847   0.245   0.752
10320SOL    MW441601   6.926   0.261   0.786
10321SOL     OW41602   5.738   1.208   0.716
10321SOL    HW241603   5.802   1.240   0.779
10321SOL    HW341604   5.787   1.144   0.664
10321SOL    MW441605   5.753   1.204   0.717
10322SOL     OW41606   6.238   1.284   1.698
10322SOL    HW241607   6.286   1.367   1.685
10322SOL    HW341608   6.295   1.232   1.754
10322SOL    MW441609   6.252   1.288   1.704
10323SOL     OW41610   5.814   1.526   1.838
10323SOL    HW241611   5.870   1.450   1.853
10323SOL    HW341612   5.763   1.504   1.760
10323SOL    MW441613   5.814   1.513   1.829
10324SOL     OW41614   6.913   0.378   0.117
10324SOL    HW241615   6.886   0.444   0.053
10324SOL    HW341616   6.983   0.421   0.167
10324SOL    MW441617   6.918   0.391   0.114
10325SOL     OW41618   6.581   0.083   0.054
10325SOL    HW241619   6.637   0.075  -0.024
10325SOL    HW341620   6.558  -0.007   0.076
10325SOL    MW441621   6.586   0.070   0.047
10326SOL     OW41622   7.086   0.934   0.259
10326SOL    HW241623   7.053   1.023   0.249
10326SOL    HW341624   7.051   0.905   0.344
10326SOL    MW441625   7.076   0.943   0.270
10327SOL     OW41626   6.699   1.363   1.447
10327SOL    HW241627   6.610   1.369   1.415
10327SOL    HW341628   6.743   1.442   1.415
10327SOL    MW441629   6.694   1.373   1.439
10328SOL     OW41630   5.992   0.031   1.789
10328SOL    HW241631   5.920  -0.004   1.737
10328SOL    HW341632   6.050   0.072   1.724
10328SOL    MW441633   5.990   0.032   1.774
10329SOL     OW41634   6.016   1.521   1.088
10329SOL    HW241635   6.061   1.583   1.145
10329SOL    HW341636   5.923   1.540   1.101
10329SOL    MW441637   6.009   1.531   1.095
10330SOL     OW41638   7.456   1.050   1.442
10330SOL    HW241639   7.371   1.063   1.401
10330SOL    HW341640   7.436   1.014   1.529
10330SOL    MW441641   7.443   1.046   1.447
10331SOL     OW41642   6.438   1.589   1.196
10331SOL    HW241643   6.462   1.578   1.105
10331SOL    HW341644   6.361   1.646   1.194
10331SOL    MW441645   6.430   1.594   1.185
10332SOL     OW41646   6.080   0.972   0.051
10332SOL    HW241647   6.003   0.985   0.107
10332SOL    HW341648   6.044   0.936  -0.030
10332SOL    MW441649   6.066   0.968   0.048
10333SOL     OW41650   6.733   0.945   0.294
10333SOL    HW241651   6.643   0.966   0.269
10333SOL    HW341652   6.760   1.018   0.350
10333SOL    MW441653   6.725   0.957   0.297
10334SOL     OW41654   6.233   1.294   0.986
10334SOL    HW241655   6.226   1.273   1.080
10334SOL    HW341656   6.151   1.262   0.949
10334SOL    MW441657   6.221   1.288   0.993
10335SOL     OW41658   7.097   0.304   1.388
10335SOL    HW241659   7.044   0.306   1.468
10335SOL    HW341660   7.082   0.217   1.351
10335SOL    MW441661   7.089   0.294   1.393
10336SOL     OW41662   7.433   0.228   1.261
10336SOL    HW241663   7.414   0.295   1.196
10336SOL    HW341664   7.490   0.166   1.216
10336SOL    MW441665   7.437   0.229   1.247
10337SOL     OW41666   5.679   1.386   1.649
10337SOL    HW241667   5.723   1.319   1.595
10337SOL    HW341668   5.594   1.348   1.669
10337SOL    MW441669   5.674   1.372   1.645
10338SOL     OW41670   6.362   0.061   0.701
10338SOL    HW241671   6.291   0.122   0.683
10338SOL    HW341672   6.413   0.058   0.620
10338SOL    MW441673   6.358   0.067   0.688
10339SOL     OW41674   6.120   1.301   0.450
10339SOL    HW241675   6.113   1.333   0.540
10339SOL    HW341676   6.030   1.285   0.422
10339SOL    MW441677   6.108   1.303   0.457
10340SOL     OW41678   6.715   1.694   1.359
10340SOL    HW241679   6.635   1.679   1.309
10340SOL    HW341680   6.722   1.789   1.366
10340SOL    MW441681   6.706   1.705   1.353
10341SOL     OW41682   6.829   1.659   0.849
10341SOL    HW241683   6.876   1.732   0.808
10341SOL    HW341684   6.750   1.698   0.885
10341SOL    MW441685   6.824   1.674   0.848
10342SOL     OW41686   7.237   1.754   1.124
10342SOL    HW241687   7.280   1.724   1.204
10342SOL    HW341688   7.156   1.702   1.121
10342SOL    MW441689   7.232   1.743   1.134
10343SOL     OW41690   6.322   0.718   1.831
10343SOL    HW241691   6.392   0.660   1.803
10343SOL    HW341692   6.265   0.663   1.886
10343SOL    MW441693   6.324   0.705   1.835
10344SOL     OW41694   7.109   0.930   1.464
10344SOL    HW241695   7.114   0.983   1.544
10344SOL    HW341696   7.071   0.847   1.492
10344SOL    MW441697   7.105   0.925   1.479
10345SOL     OW41698   6.749   0.065   1.710
10345SOL    HW241699   6.744  -0.028   1.691
10345SOL    HW341700   6.832   0.076   1.756
10345SOL    MW441701   6.757   0.054   1.714
10346SOL     OW41702   6.123   0.585   0.164
10346SOL    HW241703   6.089   0.641   0.234
10346SOL    HW341704   6.194   0.535   0.204
10346SOL    MW441705   6.129   0.586   0.178
10347SOL     OW41706   7.219   1.336   0.986
10347SOL    HW241707   7.254   1.318   0.899
10347SOL    HW341708   7.124   1.337   0.973
10347SOL    MW441709   7.211   1.333   0.973
10348SOL     OW41710   6.648   0.984   1.355
10348SOL    HW241711   6.691   1.019   1.433
10348SOL    HW341712   6.631   1.061   1.301
10348SOL    MW441713   6.651   0.999   1.358
10349SOL     OW41714   7.179   0.471   0.228
10349SOL    HW241715   7.171   0.542   0.165
10349SOL    HW341716   7.197   0.515   0.311
10349SOL    MW441717   7.180   0.485   0.230
10350SOL     OW41718   6.039   0.126   0.657
10350SOL    HW241719   6.089   0.169   0.588
10350SOL    HW341720   5.954   0.170   0.657
10350SOL    MW441721   6.036   0.139   0.648
10351SOL     OW41722   5.798   1.188   1.517
10351SOL    HW241723   5.826   1.141   1.595
10351SOL    HW341724   5.719   1.143   1.488
10351SOL    MW441725   5.791   1.177   1.523
10352SOL     OW41726   6.306   0.515   1.484
10352SOL    HW241727   6.278   0.603   1.508
10352SOL    HW341728   6.275   0.459   1.555
10352SOL    MW441729   6.298   0.518   1.496
10353SOL     OW41730   6.848   0.733   0.203
10353SOL    HW241731   6.895   0.751   0.122
10353SOL    HW341732   6.814   0.817   0.231
10353SOL    MW441733   6.850   0.747   0.196
10354SOL     OW41734   5.961   0.911   0.697
10354SOL    HW241735   6.019   0.967   0.645
10354SOL    HW341736   6.005   0.826   0.699
10354SOL    MW441737   5.974   0.908   0.690
10355SOL     OW41738   7.101   0.263   0.534
10355SOL    HW241739   7.023   0.213   0.559
10355SOL    HW341740   7.072   0.354   0.534
10355SOL    MW441741   7.087   0.267   0.537
10356SOL     OW41742   6.687   0.225   0.693
10356SOL    HW241743   6.707   0.300   0.637
10356SOL    HW341744   6.667   0.264   0.778
10356SOL    MW441745   6.688   0.241   0.697
10357SOL     OW41746   6.583   1.475   0.025
10357SOL    HW241747   6.610   1.553  -0.023
10357SOL    HW341748   6.490   1.490   0.044
10357SOL    MW441749   6.574   1.488   0.021
10358SOL     OW41750   7.447   0.998   1.712
10358SOL    HW241751   7.360   0.978   1.748
10358SOL    HW341752   7.501   0.924   1.737
10358SOL    MW441753   7.442   0.987   1.720
10359SOL     OW41754   5.668   1.511   0.869
10359SOL    HW241755   5.700   1.515   0.960
10359SOL    HW341756   5.573   1.519   0.877
10359SOL    MW441757   5.660   1.514   0.882
10360SOL     OW41758   5.623   0.637   0.416
10360SOL    HW241759   5.563   0.609   0.486
10360SOL    HW341760   5.697   0.577   0.422
10360SOL    MW441761   5.625   0.626   0.425
10361SOL     OW41762   7.191   1.849   1.850
10361SOL    HW241763   7.236   1.773   1.815
10361SOL    HW341764   7.229   1.862   1.937
10361SOL    MW441765   7.201   1.842   1.856
10362SOL     OW41766   6.791   1.368   0.576
10362SOL    HW241767   6.814   1.319   0.654
10362SOL    HW341768   6.872   1.410   0.548
10362SOL    MW441769   6.804   1.368   0.583
10363SOL     OW41770   6.049   0.376   1.305
10363SOL    HW241771   6.082   0.457   1.345
10363SOL    HW341772   6.022   0.402   1.217
10363SOL    MW441773   6.048   0.390   1.299
10364SOL     OW41774   6.003   0.343   1.041
10364SOL    HW241775   6.033   0.257   1.012
10364SOL    HW341776   5.908   0.336   1.044
10364SOL    MW441777   5.995   0.332   1.039
10365SOL     OW41778   6.832   0.552   1.732
10365SOL    HW241779   6.884   0.487   1.685
10365SOL    HW341780   6.790   0.603   1.662
10365SOL    MW441781   6.833   0.549   1.715
10366SOL     OW41782   6.931   0.347   1.593
10366SOL    HW241783   6.838   0.331   1.580
10366SOL    HW341784   6.957   0.285   1.661
10366SOL    MW441785   6.921   0.337   1.600
10367SOL     OW41786   6.146   0.121   0.932
10367SOL    HW241787   6.156   0.030   0.958
10367SOL    HW341788   6.102   0.117   0.847
10367SOL    MW441789   6.142   0.109   0.924
10368SOL     OW41790   6.240   1.736   1.478
10368SOL    HW241791   6.157   1.721   1.523
10368SOL    HW341792   6.299   1.669   1.513
10368SOL    MW441793   6.238   1.726   1.488
10369SOL     OW41794   7.297   0.443   1.103
10369SOL    HW241795   7.230   0.476   1.163
10369SOL    HW341796   7.340   0.521   1.069
10369SOL    MW441797   7.295   0.458   1.107
10370SOL     OW41798   7.475   1.163   1.073
10370SOL    HW241799   7.468   1.103   0.998
10370SOL    HW341800   7.401   1.223   1.062
10370SOL    MW441801   7.465   1.163   1.062
10371SOL     OW41802   6.857   1.025   0.991
10371SOL    HW241803   6.871   0.997   1.082
10371SOL    HW341804   6.943   1.056   0.963
10371SOL    MW441805   6.870   1.026   1.000
10372SOL     OW41806   6.940   0.520   1.270
10372SOL    HW241807   6.961   0.521   1.177
10372SOL    HW341808   6.985   0.442   1.303
10372SOL    MW441809   6.947   0.510   1.262
10373SOL     OW41810   7.433   0.651   1.812
10373SOL    HW241811   7.470   0.596   1.881
10373SOL    HW341812   7.458   0.608   1.730
10373SOL    MW441813   7.440   0.639   1.811
10374SOL     OW41814   6.980   0.949   1.863
10374SOL    HW241815   7.046   0.897   1.817
10374SOL    HW341816   7.000   0.936   1.956
10374SOL    MW441817   6.991   0.940   1.870
10375SOL     OW41818   6.931   0.035   0.212
10375SOL    HW241819   7.005   0.079   0.255
10375SOL    HW341820   6.855   0.089   0.234
10375SOL    MW441821   6.931   0.047   0.220
10376SOL     OW41822   6.991   0.810   0.490
10376SOL    HW241823   6.906   0.780   0.460
10376SOL    HW341824   6.983   0.817   0.585
10376SOL    MW441825   6.979   0.808   0.499
10377SOL     OW41826   6.067   1.273   1.221
10377SOL    HW241827   6.079   1.300   1.312
10377SOL    HW341828   6.048   1.354   1.174
10377SOL    MW441829   6.066   1.288   1.226
10378SOL     OW41830   6.351   0.253   1.044
10378SOL    HW241831   6.324   0.255   1.135
10378SOL    HW341832   6.281   0.205   0.999
10378SOL    MW441833   6.339   0.249   1.051
10379SOL     OW41834   6.205   1.745   1.206
10379SOL    HW241835   6.257   1.822   1.183
10379SOL    HW341836   6.214   1.737   1.301
10379SOL    MW441837   6.214   1.752   1.217
10380SOL     OW41838   7.107   1.330   1.438
10380SOL    HW241839   7.092   1.259   1.501
10380SOL    HW341840   7.153   1.288   1.366
10380SOL    MW441841   7.113   1.314   1.438
10381SOL     OW41842   6.181   1.061   1.555
10381SOL    HW241843   6.218   1.066   1.467
10381SOL    HW341844   6.220   1.134   1.602
10381SOL    MW441845   6.191   1.071   1.550
10382SOL     OW41846   6.361   1.104   1.367
10382SOL    HW241847   6.420   1.050   1.420
10382SOL    HW341848   6.376   1.076   1.277
10382SOL    MW441849   6.371   1.093   1.363
10383SOL     OW41850   6.364   0.476   0.216
10383SOL    HW241851   6.437   0.525   0.179
10383SOL    HW341852   6.380   0.385   0.190
10383SOL    MW441853   6.376   0.471   0.209
10384SOL     OW41854   7.172   1.593   1.539
10384SOL    HW241855   7.214   1.578   1.624
10384SOL    HW341856   7.163   1.506   1.501
10384SOL    MW441857   7.176   1.581   1.546
10385SOL     OW41858   6.832   0.072   1.130
10385SOL    HW241859   6.887   0.081   1.052
10385SOL    HW341860   6.887   0.106   1.201
10385SOL    MW441861   6.846   0.077   1.129
10386SOL     OW41862   5.839   0.985   0.314
10386SOL    HW241863   5.776   1.001   0.243
10386SOL    HW341864   5.786   0.948   0.385
10386SOL    MW441865   5.824   0.982   0.314
10387SOL     OW41866   6.195   1.339   0.173
10387SOL    HW241867   6.210   1.315   0.265
10387SOL    HW341868   6.103   1.317   0.157
10387SOL    MW441869   6.185   1.332   0.183
10388SOL     OW41870   6.734   1.570   0.325
10388SOL    HW241871   6.742   1.488   0.276
10388SOL    HW341872   6.653   1.609   0.292
10388SOL    MW441873   6.724   1.565   0.315
10389SOL     OW41874   5.993   1.728   0.894
10389SOL    HW241875   5.997   1.639   0.929
10389SOL    HW341876   6.019   1.719   0.803
10389SOL    MW441877   5.996   1.716   0.886
10390SOL     OW41878   6.610   1.206   1.137
10390SOL    HW241879   6.542   1.140   1.153
10390SOL    HW341880   6.628   1.200   1.044
10390SOL    MW441881   6.603   1.197   1.128
10391SOL     OW41882   5.699   1.481   1.388
10391SOL    HW241883   5.689   1.439   1.474
10391SOL    HW341884   5.620   1.534   1.378
10391SOL    MW441885   5.688   1.482   1.399
10392SOL     OW41886   6.603   0.345   0.958
10392SOL    HW241887   6.533   0.297   1.003
10392SOL    HW341888   6.635   0.408   1.022
10392SOL    MW441889   6.598   0.347   0.972
10393SOL     OW41890   6.254   0.781   1.578
10393SOL    HW241891   6.247   0.876   1.566
10393SOL    HW341892   6.263   0.770   1.673
10393SOL    MW441893   6.255   0.793   1.588
10394SOL     OW41894   5.975   1.296   1.836
10394SOL    HW241895   6.047   1.298   1.773
10394SOL    HW341896   5.945   1.205   1.835
10394SOL    MW441897   5.980   1.285   1.828
10395SOL     OW41898   7.059   0.059   1.303
10395SOL    HW241899   7.130   0.005   1.267
10395SOL    HW341900   7.058   0.038   1.396
10395SOL    MW441901   7.068   0.050   1.311
10396SOL     OW41902   7.259   1.589   1.787
10396SOL    HW241903   7.232   1.586   1.878
10396SOL    HW341904   7.355   1.593   1.790
10396SOL    MW441905   7.269   1.589   1.799
10397SOL     OW41906   6.070   0.451   0.771
10397SOL    HW241907   6.141   0.399   0.734
10397SOL    HW341908   6.056   0.416   0.858
10397SOL    MW441909   6.078   0.440   0.778
10398SOL     OW41910   5.625   1.786   1.843
10398SOL    HW241911   5.675   1.764   1.765
10398SOL    HW341912   5.633   1.881   1.851
10398SOL    MW441913   5.633   1.795   1.834
10399SOL     OW41914   6.386   1.544   0.847
10399SOL    HW241915   6.314   1.481   0.860
10399SOL    HW341916   6.347   1.629   0.865
10399SOL    MW441917   6.370   1.547   0.850
10400SOL     OW41918   6.706   0.392   0.495
10400SOL    HW241919   6.728   0.329   0.427
10400SOL    HW341920   6.611   0.384   0.506
10400SOL    MW441921   6.696   0.383   0.487
10401SOL     OW41922   5.791   0.082   0.427
10401SOL    HW241923   5.862   0.103   0.366
10401SOL    HW341924   5.745   0.010   0.385
10401SOL    MW441925   5.795   0.076   0.413
10402SOL     OW41926   5.622   0.549   1.570
10402SOL    HW241927   5.686   0.615   1.545
10402SOL    HW341928   5.541   0.576   1.527
10402SOL    MW441929   5.620   0.561   1.562
10403SOL     OW41930   7.360   1.456   0.527
10403SOL    HW241931   7.330   1.389   0.588
10403SOL    HW341932   7.454   1.462   0.541
10403SOL    MW441933   7.368   1.448   0.537
10404SOL     OW41934   6.916   1.133   0.457
10404SOL    HW241935   6.888   1.219   0.490
10404SOL    HW341936   6.944   1.149   0.367
10404SOL    MW441937   6.916   1.147   0.449
10405SOL     OW41938   6.578   0.053   0.510
10405SOL    HW241939   6.615   0.112   0.575
10405SOL    HW341940   6.555   0.109   0.436
10405SOL    MW441941   6.579   0.068   0.509
10406SOL     OW41942   7.431   0.935   0.932
10406SOL    HW241943   7.422   0.967   0.843
10406SOL    HW341944   7.384   0.851   0.932
10406SOL    MW441945   7.424   0.928   0.922
10407SOL     OW41946   5.807   0.775   1.511
10407SOL    HW241947   5.828   0.844   1.449
10407SOL    HW341948   5.887   0.722   1.516
10407SOL    MW441949   5.820   0.776   1.505
10408SOL     OW41950   7.343   0.866   0.633
10408SOL    HW241951   7.437   0.855   0.621
10408SOL    HW341952   7.319   0.938   0.574
10408SOL    MW441953   7.353   0.874   0.624
10409SOL     OW41954   5.792   0.790   1.778
10409SOL    HW241955   5.718   0.734   1.804
10409SOL    HW341956   5.787   0.793   1.683
10409SOL    MW441957   5.781   0.783   1.768
10410SOL     OW41958   5.958   0.077   1.228
10410SOL    HW241959   6.001   0.161   1.248
10410SOL    HW341960   6.031   0.015   1.221
10410SOL    MW441961   5.973   0.080   1.229
10411SOL     OW41962   5.999   0.744   0.406
10411SOL    HW241963   5.999   0.839   0.391
10411SOL    HW341964   6.076   0.728   0.460
10411SOL    MW441965   6.009   0.755   0.411
10412SOL     OW41966   5.758   0.475   0.695
10412SOL    HW241967   5.820   0.482   0.768
10412SOL    HW341968   5.758   0.382   0.672
10412SOL    MW441969   5.766   0.464   0.702
10413SOL     OW41970   7.305   1.815   0.227
10413SOL    HW241971   7.372   1.848   0.167
10413SOL    HW341972   7.262   1.894   0.261
10413SOL    MW441973   7.307   1.830   0.223
10414SOL     OW41974   6.440   0.736   1.179
10414SOL    HW241975   6.398   0.654   1.155
10414SOL    HW341976   6.441   0.735   1.275
10414SOL    MW441977   6.433   0.725   1.188
10415SOL     OW41978   7.111   1.869   1.578
10415SOL    HW241979   7.114   1.775   1.561
10415SOL    HW341980   7.134   1.877   1.670
10415SOL    MW441981   7.114   1.857   1.588
10416SOL     OW41982   6.244   0.206   1.284
10416SOL    HW241983   6.175   0.269   1.305
10416SOL    HW341984   6.271   0.170   1.369
10416SOL    MW441985   6.238   0.209   1.297
10417SOL     OW41986   5.627   1.047   0.153
10417SOL    HW241987   5.596   1.112   0.216
10417SOL    HW341988   5.576   0.969   0.172
10417SOL    MW441989   5.617   1.044   0.163
10418SOL     OW41990   7.039   0.059   0.901
10418SOL    HW241991   7.127   0.068   0.938
10418SOL    HW341992   7.049   0.000   0.827
10418SOL    MW441993   7.053   0.053   0.895
10419SOL     OW41994   7.071   0.798   0.745
10419SOL    HW241995   7.151   0.813   0.694
10419SOL    HW341996   7.064   0.703   0.751
10419SOL    MW441997   7.080   0.787   0.740
10420SOL     OW41998   6.211   1.847   0.095
10420SOL    HW241999   6.116   1.847   0.087
10420SOL    HW342000   6.227   1.793   0.173
10420SOL    MW442001   6.201   1.841   0.104
10421SOL     OW42002   6.521   0.724   1.442
10421SOL    HW242003   6.590   0.791   1.439
10421SOL    HW342004   6.454   0.762   1.498
10421SOL    MW442005   6.522   0.737   1.449
10422SOL     OW42006   5.939   1.024   1.690
10422SOL    HW242007   5.893   0.940   1.692
10422SOL    HW342008   5.996   1.018   1.614
10422SOL    MW442009   5.941   1.012   1.682
10423SOL     OW42010   7.056   0.667   0.011
10423SOL    HW242011   6.984   0.643  -0.047
10423SOL    HW342012   7.122   0.704  -0.047
10423SOL    MW442013   7.055   0.669  -0.004
10424SOL     OW42014   6.190   1.399   0.691
10424SOL    HW242015   6.255   1.332   0.712
10424SOL    HW342016   6.242   1.476   0.668
10424SOL    MW442017   6.205   1.401   0.690
10425SOL     OW42018   6.451   0.564   0.821
10425SOL    HW242019   6.391   0.582   0.893
10425SOL    HW342020   6.485   0.476   0.840
10425SOL    MW442021   6.447   0.554   0.834
10426SOL     OW42022   7.392   0.063   1.490
10426SOL    HW242023   7.313   0.109   1.518
10426SOL    HW342024   7.427   0.117   1.419
10426SOL    MW442025   7.386   0.076   1.484
10427SOL     OW42026   6.676   1.147   0.840
10427SOL    HW242027   6.768   1.128   0.858
10427SOL    HW342028   6.649   1.077   0.780
10427SOL    MW442029   6.684   1.135   0.834
10428SOL     OW42030   6.469   0.967   0.195
10428SOL    HW242031   6.455   0.879   0.160
10428SOL    HW342032   6.420   1.024   0.136
10428SOL    MW442033   6.461   0.962   0.183
10429SOL     OW42034   6.950   1.385   0.936
10429SOL    HW242035   6.923   1.469   0.901
10429SOL    HW342036   6.910   1.380   1.023
10429SOL    MW442037   6.943   1.394   0.942
10430SOL     OW42038   6.869   1.333   1.204
10430SOL    HW242039   6.880   1.300   1.293
10430SOL    HW342040   6.788   1.292   1.173
10430SOL    MW442041   6.859   1.325   1.210
10431SOL     OW42042   5.882   0.691   0.974
10431SOL    HW242043   5.832   0.690   1.055
10431SOL    HW342044   5.902   0.783   0.958
10431SOL    MW442045   5.878   0.703   0.982
10432SOL     OW42046   6.949   1.455   1.736
10432SOL    HW242047   6.949   1.549   1.752
10432SOL    HW342048   6.994   1.445   1.652
10432SOL    MW442049   6.955   1.465   1.727
10433SOL     OW42050   7.188   0.173   0.297
10433SOL    HW242051   7.181   0.177   0.392
10433SOL    HW342052   7.200   0.264   0.270
10433SOL    MW442053   7.189   0.186   0.305
10434SOL     OW42054   6.477   0.736   0.411
10434SOL    HW242055   6.457   0.722   0.318
10434SOL    HW342056   6.570   0.715   0.418
10434SOL    MW442057   6.487   0.731   0.400
10435SOL     OW42058   5.804   0.359   1.715
10435SOL    HW242059   5.761   0.418   1.652
10435SOL    HW342060   5.872   0.414   1.755
10435SOL    MW442061   5.808   0.374   1.712
10436SOL     OW42062   6.916   0.979   1.260
10436SOL    HW242063   6.979   0.976   1.333
10436SOL    HW342064   6.832   0.997   1.302
10436SOL    MW442065   6.912   0.981   1.275
10437SOL     OW42066   6.460   1.694   0.449
10437SOL    HW242067   6.518   1.765   0.476
10437SOL    HW342068   6.483   1.622   0.507
10437SOL    MW442069   6.471   1.694   0.460
10438SOL     OW42070   7.255   0.156   1.039
10438SOL    HW242071   7.300   0.074   1.058
10438SOL    HW342072   7.275   0.212   1.115
10438SOL    MW442073   7.265   0.152   1.051
10439SOL     OW42074   5.703  -0.001   1.138
10439SOL    HW242075   5.694   0.000   1.043
10439SOL    HW342076   5.797   0.011   1.153
10439SOL    MW442077   5.715   0.002   1.129
10440SOL     OW42078   7.340   1.192   0.758
10440SOL    HW242079   7.319   1.138   0.681
10440SOL    HW342080   7.436   1.190   0.762
10440SOL    MW442081   7.349   1.185   0.747
10441SOL     OW42082   6.032   1.337   1.501
10441SOL    HW242083   5.953   1.287   1.524
10441SOL    HW342084   6.102   1.296   1.551
10441SOL    MW442085   6.030   1.325   1.511
10442SOL     OW42086   5.916   0.126   0.184
10442SOL    HW242087   5.845   0.181   0.152
10442SOL    HW342088   5.958   0.092   0.105
10442SOL    MW442089   5.912   0.128   0.170
10443SOL     OW42090   7.040   0.623   1.020
10443SOL    HW242091   6.963   0.669   0.986
10443SOL    HW342092   7.097   0.692   1.054
10443SOL    MW442093   7.037   0.638   1.020
10444SOL     OW42094   5.672   0.225   0.033
10444SOL    HW242095   5.639   0.304   0.077
10444SOL    HW342096   5.727   0.258  -0.038
10444SOL    MW442097   5.675   0.239   0.030
10445SOL     OW42098   5.706   1.482   0.222
10445SOL    HW242099   5.723   1.566   0.264
10445SOL    HW342100   5.741   1.491   0.134
10445SOL    MW442101   5.711   1.495   0.216
10446SOL     OW42102   6.978   1.571   0.439
10446SOL    HW242103   7.041   1.561   0.368
10446SOL    HW342104   6.895   1.591   0.394
10446SOL    MW442105   6.975   1.572   0.424
10447SOL     OW42106   7.341   0.839   2.125
10447SOL    HW242107   7.382   0.781   2.190
10447SOL    HW342108   7.248   0.831   2.142
10447SOL    MW442109   7.335   0.831   2.135
10448SOL     OW42110   7.207   0.771   3.120
10448SOL    HW242111   7.162   0.838   3.171
10448SOL    HW342112   7.295   0.807   3.106
10448SOL    MW442113   7.213   0.784   3.124
10449SOL     OW42114   6.135   1.022   2.354
10449SOL    HW242115   6.225   0.997   2.338
10449SOL    HW342116   6.131   1.115   2.331
10449SOL    MW442117   6.147   1.031   2.349
10450SOL     OW42118   7.251   1.725   2.496
10450SOL    HW242119   7.263   1.671   2.574
10450SOL    HW342120   7.288   1.673   2.425
10450SOL    MW442121   7.257   1.710   2.497
10451SOL     OW42122   6.630   1.610   3.497
10451SOL    HW242123   6.671   1.646   3.418
10451SOL    HW342124   6.665   1.521   3.504
10451SOL    MW442125   6.641   1.603   3.488
10452SOL     OW42126   7.187   1.165   3.101
10452SOL    HW242127   7.108   1.130   3.059
10452SOL    HW342128   7.214   1.237   3.045
10452SOL    MW442129   7.180   1.170   3.088
10453SOL     OW42130   6.419   0.478   2.367
10453SOL    HW242131   6.394   0.566   2.395
10453SOL    HW342132   6.416   0.481   2.271
10453SOL    MW442133   6.415   0.490   2.359
10454SOL     OW42134   5.861   0.506   2.295
10454SOL    HW242135   5.893   0.594   2.277
10454SOL    HW342136   5.849   0.504   2.390
10454SOL    MW442137   5.864   0.518   2.307
10455SOL     OW42138   5.939   0.919   3.196
10455SOL    HW242139   6.002   0.866   3.147
10455SOL    HW342140   5.920   0.993   3.139
10455SOL    MW442141   5.945   0.921   3.183
10456SOL     OW42142   6.260   0.261   2.382
10456SOL    HW242143   6.318   0.337   2.384
10456SOL    HW342144   6.195   0.282   2.315
10456SOL    MW442145   6.259   0.273   2.373
10457SOL     OW42146   6.347   1.188   2.557
10457SOL    HW242147   6.427   1.191   2.609
10457SOL    HW342148   6.375   1.155   2.471
10457SOL    MW442149   6.361   1.184   2.552
10458SOL     OW42150   6.372   1.529   3.460
10458SOL    HW242151   6.456   1.555   3.499
10458SOL    HW342152   6.396   1.473   3.386
10458SOL    MW442153   6.386   1.525   3.455
10459SOL     OW42154   6.124   0.692   2.548
10459SOL    HW242155   6.109   0.612   2.599
10459SOL    HW342156   6.206   0.727   2.582
10459SOL    MW442157   6.132   0.684   2.560
10460SOL     OW42158   6.461   1.378   3.233
10460SOL    HW242159   6.425   1.444   3.173
10460SOL    HW342160   6.389   1.316   3.246
10460SOL    MW442161   6.447   1.378   3.227
10461SOL     OW42162   6.266   0.518   2.925
10461SOL    HW242163   6.172   0.514   2.943
10461SOL    HW342164   6.296   0.427   2.934
10461SOL    MW442165   6.257   0.506   2.928
10462SOL     OW42166   6.012   0.932   2.829
10462SOL    HW242167   5.967   0.939   2.745
10462SOL    HW342168   5.992   1.015   2.873
10462SOL    MW442169   6.004   0.944   2.823
10463SOL     OW42170   5.709   1.778   2.704
10463SOL    HW242171   5.798   1.770   2.739
10463SOL    HW342172   5.673   1.690   2.709
10463SOL    MW442173   5.716   1.765   2.709
10464SOL     OW42174   6.974   1.170   2.073
10464SOL    HW242175   6.892   1.206   2.039
10464SOL    HW342176   7.042   1.213   2.022
10464SOL    MW442177   6.972   1.180   2.061
10465SOL     OW42178   5.973   1.305   2.739
10465SOL    HW242179   5.949   1.358   2.815
10465SOL    HW342180   6.029   1.363   2.687
10465SOL    MW442181   5.977   1.320   2.742
10466SOL     OW42182   6.535   0.949   2.549
10466SOL    HW242183   6.449   0.936   2.589
10466SOL    HW342184   6.588   0.876   2.581
10466SOL    MW442185   6.531   0.938   2.558
10467SOL     OW42186   5.943   1.601   3.334
10467SOL    HW242187   5.851   1.577   3.319
10467SOL    HW342188   5.987   1.518   3.351
10467SOL    MW442189   5.937   1.586   3.333
10468SOL     OW42190   6.526   1.311   2.266
10468SOL    HW242191   6.503   1.373   2.334
10468SOL    HW342192   6.483   1.229   2.292
10468SOL    MW442193   6.518   1.307   2.277
10469SOL     OW42194   7.399   0.312   2.722
10469SOL    HW242195   7.336   0.292   2.791
10469SOL    HW342196   7.389   0.241   2.659
10469SOL    MW442197   7.389   0.299   2.723
10470SOL     OW42198   6.023   0.284   2.234
10470SOL    HW242199   5.997   0.246   2.150
10470SOL    HW342200   5.960   0.354   2.250
10470SOL    MW442201   6.012   0.287   2.225
10471SOL     OW42202   5.858   1.245   2.271
10471SOL    HW242203   5.806   1.313   2.227
10471SOL    HW342204   5.855   1.171   2.211
10471SOL    MW442205   5.850   1.244   2.258
10472SOL     OW42206   6.520   1.708   2.049
10472SOL    HW242207   6.475   1.724   2.132
10472SOL    HW342208   6.451   1.673   1.991
10472SOL    MW442209   6.506   1.705   2.051
10473SOL     OW42210   7.455   0.481   2.024
10473SOL    HW242211   7.364   0.483   2.052
10473SOL    HW342212   7.500   0.543   2.082
10473SOL    MW442213   7.448   0.489   2.034
10474SOL     OW42214   7.200   1.084   2.374
10474SOL    HW242215   7.110   1.084   2.409
10474SOL    HW342216   7.193   1.130   2.291
10474SOL    MW442217   7.187   1.090   2.368
10475SOL     OW42218   7.000   0.719   3.446
10475SOL    HW242219   7.069   0.657   3.423
10475SOL    HW342220   6.925   0.693   3.393
10475SOL    MW442221   7.000   0.706   3.437
10476SOL     OW42222   5.741   1.599   2.998
10476SOL    HW242223   5.724   1.545   3.075
10476SOL    HW342224   5.729   1.689   3.028
10476SOL    MW442225   5.738   1.603   3.012
10477SOL     OW42226   6.736   1.106   3.438
10477SOL    HW242227   6.721   1.199   3.423
10477SOL    HW342228   6.831   1.096   3.438
10477SOL    MW442229   6.745   1.116   3.435
10478SOL     OW42230   6.532   0.530   3.639
10478SOL    HW242231   6.622   0.531   3.606
10478SOL    HW342232   6.491   0.455   3.597
10478SOL    MW442233   6.538   0.520   3.630
10479SOL     OW42234   7.107   1.062   2.766
10479SOL    HW242235   7.110   0.996   2.697
10479SOL    HW342236   7.192   1.105   2.762
10479SOL    MW442237   7.119   1.058   2.757
10480SOL     OW42238   6.727   0.665   2.335
10480SOL    HW242239   6.753   0.689   2.246
10480SOL    HW342240   6.709   0.572   2.331
10480SOL    MW442241   6.729   0.657   2.322
10481SOL     OW42242   7.392   1.285   2.186
10481SOL    HW242243   7.348   1.326   2.261
10481SOL    HW342244   7.449   1.353   2.151
10481SOL    MW442245   7.394   1.299   2.191
10482SOL     OW42246   6.312   0.334   3.589
10482SOL    HW242247   6.322   0.260   3.529
10482SOL    HW342248   6.348   0.303   3.672
10482SOL    MW442249   6.318   0.320   3.591
10483SOL     OW42250   6.048   1.701   2.504
10483SOL    HW242251   6.080   1.789   2.482
10483SOL    HW342252   6.001   1.673   2.426
10483SOL    MW442253   6.047   1.709   2.491
10484SOL     OW42254   7.432   0.063   2.553
10484SOL    HW242255   7.486   0.014   2.615
10484SOL    HW342256   7.375  -0.003   2.514
10484SOL    MW442257   7.432   0.047   2.555
10485SOL     OW42258   5.764   1.761   2.081
10485SOL    HW242259   5.793   1.851   2.073
10485SOL    HW342260   5.714   1.744   2.002
10485SOL    MW442261   5.762   1.769   2.070
10486SOL     OW42262   6.551   0.016   2.966
10486SOL    HW242263   6.510   0.094   2.928
10486SOL    HW342264   6.645   0.034   2.961
10486SOL    MW442265   6.557   0.028   2.961
10487SOL     OW42266   7.168   1.569   2.052
10487SOL    HW242267   7.216   1.638   2.098
10487SOL    HW342268   7.089   1.613   2.021
10487SOL    MW442269   7.163   1.583   2.055
10488SOL     OW42270   6.566   0.694   1.996
10488SOL    HW242271   6.568   0.641   1.917
10488SOL    HW342272   6.654   0.731   2.002
10488SOL    MW442273   6.578   0.693   1.985
10489SOL     OW42274   7.180   0.620   2.332
10489SOL    HW242275   7.219   0.620   2.419
10489SOL    HW342276   7.121   0.696   2.332
10489SOL    MW442277   7.177   0.631   2.343
10490SOL     OW42278   6.497   0.987   3.461
10490SOL    HW242279   6.474   0.967   3.551
10490SOL    HW342280   6.582   1.031   3.466
10490SOL    MW442281   6.504   0.990   3.473
10491SOL     OW42282   6.577   0.124   3.221
10491SOL    HW242283   6.583   0.086   3.134
10491SOL    HW342284   6.566   0.218   3.206
10491SOL    MW442285   6.578   0.132   3.209
10492SOL     OW42286   6.666   0.613   3.055
10492SOL    HW242287   6.741   0.642   3.002
10492SOL    HW342288   6.598   0.678   3.039
10492SOL    MW442289   6.667   0.625   3.045
10493SOL     OW42290   7.216   0.581   3.332
10493SOL    HW242291   7.197   0.490   3.311
10493SOL    HW342292   7.194   0.630   3.253
10493SOL    MW442293   7.211   0.574   3.319
10494SOL     OW42294   7.358   1.675   3.236
10494SOL    HW242295   7.286   1.637   3.287
10494SOL    HW342296   7.375   1.760   3.277
10494SOL    MW442297   7.352   1.680   3.248
10495SOL     OW42298   6.663   0.319   3.438
10495SOL    HW242299   6.629   0.358   3.357
10495SOL    HW342300   6.641   0.227   3.431
10495SOL    MW442301   6.656   0.312   3.428
10496SOL     OW42302   7.072   1.133   3.514
10496SOL    HW242303   7.154   1.174   3.544
10496SOL    HW342304   7.035   1.095   3.594
10496SOL    MW442305   7.078   1.134   3.529
10497SOL     OW42306   7.367   0.506   2.498
10497SOL    HW242307   7.456   0.475   2.515
10497SOL    HW342308   7.310   0.446   2.546
10497SOL    MW442309   7.370   0.494   2.507
10498SOL     OW42310   5.793   0.220   2.527
10498SOL    HW242311   5.784   0.160   2.453
10498SOL    HW342312   5.726   0.191   2.590
10498SOL    MW442313   5.783   0.207   2.525
10499SOL     OW42314   6.736   1.313   2.088
10499SOL    HW242315   6.686   1.315   2.170
10499SOL    HW342316   6.670   1.331   2.020
10499SOL    MW442317   6.722   1.315   2.090
10500SOL     OW42318   5.740   0.393   2.890
10500SOL    HW242319   5.712   0.484   2.899
10500SOL    HW342320   5.677   0.354   2.829
10500SOL    MW442321   5.727   0.399   2.884
10501SOL     OW42322   6.199   1.731   2.196
10501SOL    HW242323   6.120   1.689   2.229
10501SOL    HW342324   6.265   1.714   2.263
10501SOL    MW442325   6.198   1.723   2.209
10502SOL     OW42326   7.327   1.251   3.593
10502SOL    HW242327   7.377   1.177   3.625
10502SOL    HW342328   7.273   1.278   3.668
10502SOL    MW442329   7.327   1.245   3.606
10503SOL     OW42330   6.335   1.146   1.903
10503SOL    HW242331   6.257   1.092   1.890
10503SOL    HW342332   6.306   1.219   1.956
10503SOL    MW442333   6.321   1.148   1.908
10504SOL     OW42334   7.461   0.886   3.095
10504SOL    HW242335   7.477   0.924   3.008
10504SOL    HW342336   7.495   0.952   3.156
10504SOL    MW442337   7.468   0.899   3.091
10505SOL     OW42338   7.253   1.595   2.764
10505SOL    HW242339   7.282   1.662   2.825
10505SOL    HW342340   7.234   1.519   2.819
10505SOL    MW442341   7.255   1.595   2.779
10506SOL     OW42342   6.916   1.662   1.971
10506SOL    HW242343   6.842   1.625   2.021
10506SOL    HW342344   6.924   1.752   2.004
10506SOL    MW442345   6.907   1.669   1.983
10507SOL     OW42346   5.724   0.668   3.060
10507SOL    HW242347   5.786   0.698   3.126
10507SOL    HW342348   5.658   0.737   3.054
10507SOL    MW442349   5.723   0.681   3.067
10508SOL     OW42350   7.140   1.336   1.913
10508SOL    HW242351   7.087   1.385   1.849
10508SOL    HW342352   7.171   1.402   1.974
10508SOL    MW442353   7.138   1.350   1.911
10509SOL     OW42354   6.365   0.225   1.968
10509SOL    HW242355   6.313   0.145   1.956
10509SOL    HW342356   6.452   0.202   1.936
10509SOL    MW442357   6.368   0.211   1.962
10510SOL     OW42358   5.819   1.777   3.512
10510SOL    HW242359   5.793   1.845   3.450
10510SOL    HW342360   5.867   1.714   3.460
10510SOL    MW442361   5.821   1.777   3.498
10511SOL     OW42362   5.871   1.096   3.019
10511SOL    HW242363   5.924   1.171   3.044
10511SOL    HW342364   5.790   1.134   2.985
10511SOL    MW442365   5.867   1.111   3.019
10512SOL     OW42366   6.411   1.000   3.007
10512SOL    HW242367   6.439   0.909   3.019
10512SOL    HW342368   6.340   0.994   2.943
10512SOL    MW442369   6.404   0.988   3.002
10513SOL     OW42370   5.726   0.865   2.425
10513SOL    HW242371   5.817   0.880   2.452
10513SOL    HW342372   5.729   0.786   2.371
10513SOL    MW442373   5.738   0.857   2.423
10514SOL     OW42374   5.962   0.573   3.679
10514SOL    HW242375   5.909   0.653   3.686
10514SOL    HW342376   6.032   0.585   3.744
10514SOL    MW442377   5.964   0.586   3.687
10515SOL     OW42378   6.348   0.123   3.386
10515SOL    HW242379   6.325   0.031   3.388
10515SOL    HW342380   6.434   0.125   3.343
10515SOL    MW442381   6.355   0.113   3.382
10516SOL     OW42382   6.032   0.647   3.425
10516SOL    HW242383   6.112   0.697   3.411
10516SOL    HW342384   6.023   0.641   3.520
10516SOL    MW442385   6.041   0.653   3.435
10517SOL     OW42386   6.353   1.797   2.799
10517SOL    HW242387   6.442   1.812   2.829
10517SOL    HW342388   6.348   1.844   2.715
10517SOL    MW442389   6.363   1.805   2.792
10518SOL     OW42390   7.009   0.172   3.696
10518SOL    HW242391   7.065   0.099   3.722
10518SOL    HW342392   6.979   0.210   3.778
10518SOL    MW442393   7.013   0.167   3.709
10519SOL     OW42394   5.734   1.477   2.464
10519SOL    HW242395   5.706   1.516   2.546
10519SOL    HW342396   5.754   1.386   2.486
10519SOL    MW442397   5.732   1.469   2.477
10520SOL     OW42398   6.567   1.520   2.499
10520SOL    HW242399   6.650   1.474   2.483
10520SOL    HW342400   6.557   1.519   2.595
10520SOL    MW442401   6.577   1.513   2.509
10521SOL     OW42402   7.399   0.665   2.813
10521SOL    HW242403   7.488   0.695   2.795
10521SOL    HW342404   7.379   0.605   2.742
10521SOL    MW442405   7.408   0.662   2.802
10522SOL     OW42406   7.250   0.844   3.693
10522SOL    HW242407   7.305   0.768   3.674
10522SOL    HW342408   7.252   0.852   3.788
10522SOL    MW442409   7.258   0.835   3.701
10523SOL     OW42410   6.300   1.577   1.904
10523SOL    HW242411   6.240   1.646   1.874
10523SOL    HW342412   6.245   1.519   1.957
10523SOL    MW442413   6.284   1.579   1.906
10524SOL     OW42414   6.738   0.222   2.127
10524SOL    HW242415   6.671   0.198   2.064
10524SOL    HW342416   6.803   0.271   2.076
10524SOL    MW442417   6.738   0.224   2.112
10525SOL     OW42418   6.545   0.406   3.212
10525SOL    HW242419   6.464   0.447   3.240
10525SOL    HW342420   6.592   0.474   3.164
10525SOL    MW442421   6.540   0.421   3.210
10526SOL     OW42422   6.805   0.744   2.835
10526SOL    HW242423   6.818   0.838   2.845
10526SOL    HW342424   6.766   0.734   2.749
10526SOL    MW442425   6.801   0.755   2.825
10527SOL     OW42426   6.257   0.939   2.639
10527SOL    HW242427   6.168   0.930   2.672
10527SOL    HW342428   6.261   1.029   2.607
10527SOL    MW442429   6.246   0.950   2.639
10528SOL     OW42430   7.056   0.522   2.634
10528SOL    HW242431   7.001   0.443   2.633
10528SOL    HW342432   7.038   0.563   2.718
10528SOL    MW442433   7.046   0.517   2.643
10529SOL     OW42434   6.027   0.209   3.451
10529SOL    HW242435   5.948   0.227   3.503
10529SOL    HW342436   6.022   0.271   3.378
10529SOL    MW442437   6.017   0.219   3.448
10530SOL     OW42438   6.675   0.726   2.591
10530SOL    HW242439   6.612   0.658   2.615
10530SOL    HW342440   6.695   0.707   2.499
10530SOL    MW442441   6.669   0.713   2.583
10531SOL     OW42442   5.931   1.621   2.293
10531SOL    HW242443   5.892   1.668   2.219
10531SOL    HW342444   5.865   1.556   2.318
10531SOL    MW442445   5.918   1.619   2.287
10532SOL     OW42446   6.423   1.030   2.317
10532SOL    HW242447   6.425   1.004   2.224
10532SOL    HW342448   6.481   0.967   2.360
10532SOL    MW442449   6.431   1.019   2.311
10533SOL     OW42450   6.976   1.590   3.089
10533SOL    HW242451   6.901   1.636   3.127
10533SOL    HW342452   6.958   1.497   3.106
10533SOL    MW442453   6.965   1.584   3.097
10534SOL     OW42454   6.980   1.798   2.519
10534SOL    HW242455   6.923   1.751   2.458
10534SOL    HW342456   7.066   1.759   2.506
10534SOL    MW442457   6.983   1.789   2.509
10535SOL     OW42458   6.933   0.274   2.650
10535SOL    HW242459   6.961   0.206   2.711
10535SOL    HW342460   6.847   0.245   2.620
10535SOL    MW442461   6.926   0.261   2.654
10536SOL     OW42462   5.738   1.208   2.584
10536SOL    HW242463   5.802   1.240   2.647
10536SOL    HW342464   5.787   1.144   2.532
10536SOL    MW442465   5.753   1.204   2.585
10537SOL     OW42466   6.238   1.284   3.566
10537SOL    HW242467   6.286   1.367   3.553
10537SOL    HW342468   6.295   1.232   3.622
10537SOL    MW442469   6.252   1.288   3.572
10538SOL     OW42470   5.814   1.526   3.706
10538SOL    HW242471   5.870   1.450   3.721
10538SOL    HW342472   5.763   1.504   3.628
10538SOL    MW442473   5.814   1.513   3.697
10539SOL     OW42474   6.913   0.378   1.985
10539SOL    HW242475   6.886   0.444   1.921
10539SOL    HW342476   6.983   0.421   2.035
10539SOL    MW442477   6.918   0.391   1.982
10540SOL     OW42478   6.581   0.083   1.922
10540SOL    HW242479   6.637   0.075   1.844
10540SOL    HW342480   6.558  -0.007   1.944
10540SOL    MW442481   6.586   0.070   1.915
10541SOL     OW42482   7.086   0.934   2.127
10541SOL    HW242483   7.053   1.023   2.117
10541SOL    HW342484   7.051   0.905   2.212
10541SOL    MW442485   7.076   0.943   2.138
10542SOL     OW42486   6.699   1.363   3.315
10542SOL    HW242487   6.610   1.369   3.283
10542SOL    HW342488   6.743   1.442   3.283
10542SOL    MW442489   6.694   1.373   3.307
10543SOL     OW42490   5.992   0.031   3.657
10543SOL    HW242491   5.920  -0.004   3.605
10543SOL    HW342492   6.050   0.072   3.592
10543SOL    MW442493   5.990   0.032   3.642
10544SOL     OW42494   6.016   1.521   2.956
10544SOL    HW242495   6.061   1.583   3.013
10544SOL    HW342496   5.923   1.540   2.969
10544SOL    MW442497   6.009   1.531   2.963
10545SOL     OW42498   7.456   1.050   3.310
10545SOL    HW242499   7.371   1.063   3.269
10545SOL    HW342500   7.436   1.014   3.397
10545SOL    MW442501   7.443   1.046   3.315
10546SOL     OW42502   6.438   1.589   3.064
10546SOL    HW242503   6.462   1.578   2.973
10546SOL    HW342504   6.361   1.646   3.062
10546SOL    MW442505   6.430   1.594   3.053
10547SOL     OW42506   6.080   0.972   1.919
10547SOL    HW242507   6.003   0.985   1.975
10547SOL    HW342508   6.044   0.936   1.838
10547SOL    MW442509   6.066   0.968   1.916
10548SOL     OW42510   6.733   0.945   2.162
10548SOL    HW242511   6.643   0.966   2.137
10548SOL    HW342512   6.760   1.018   2.218
10548SOL    MW442513   6.725   0.957   2.165
10549SOL     OW42514   6.233   1.294   2.854
10549SOL    HW242515   6.226   1.273   2.948
10549SOL    HW342516   6.151   1.262   2.817
10549SOL    MW442517   6.221   1.288   2.861
10550SOL     OW42518   7.097   0.304   3.256
10550SOL    HW242519   7.044   0.306   3.336
10550SOL    HW342520   7.082   0.217   3.219
10550SOL    MW442521   7.089   0.294   3.261
10551SOL     OW42522   7.433   0.228   3.129
10551SOL    HW242523   7.414   0.295   3.064
10551SOL    HW342524   7.490   0.166   3.084
10551SOL    MW442525   7.437   0.229   3.115
10552SOL     OW42526   5.679   1.386   3.517
10552SOL    HW242527   5.723   1.319   3.463
10552SOL    HW342528   5.594   1.348   3.537
10552SOL    MW442529   5.674   1.372   3.513
10553SOL     OW42530   6.362   0.061   2.569
10553SOL    HW242531   6.291   0.122   2.551
10553SOL    HW342532   6.413   0.058   2.488
10553SOL    MW442533   6.358   0.067   2.556
10554SOL     OW42534   6.120   1.301   2.318
10554SOL    HW242535   6.113   1.333   2.408
10554SOL    HW342536   6.030   1.285   2.290
10554SOL    MW442537   6.108   1.303   2.325
10555SOL     OW42538   6.715   1.694   3.227
10555SOL    HW242539   6.635   1.679   3.177
10555SOL    HW342540   6.722   1.789   3.234
10555SOL    MW442541   6.706   1.705   3.221
10556SOL     OW42542   6.829   1.659   2.717
10556SOL    HW242543   6.876   1.732   2.676
10556SOL    HW342544   6.750   1.698   2.753
10556SOL    MW442545   6.824   1.674   2.716
10557SOL     OW42546   7.237   1.754   2.992
10557SOL    HW242547   7.280   1.724   3.072
10557SOL    HW342548   7.156   1.702   2.989
10557SOL    MW442549   7.232   1.743   3.002
10558SOL     OW42550   6.322   0.718   3.699
10558SOL    HW242551   6.392   0.660   3.671
10558SOL    HW342552   6.265   0.663   3.754
10558SOL    MW442553   6.324   0.705   3.703
10559SOL     OW42554   7.109   0.930   3.332
10559SOL    HW242555   7.114   0.983   3.412
10559SOL    HW342556   7.071   0.847   3.360
10559SOL    MW442557   7.105   0.925   3.347
10560SOL     OW42558   6.749   0.065   3.578
10560SOL    HW242559   6.744  -0.028   3.559
10560SOL    HW342560   6.832   0.076   3.624
10560SOL    MW442561   6.757   0.054   3.582
10561SOL     OW42562   6.123   0.585   2.032
10561SOL    HW242563   6.089   0.641   2.102
10561SOL    HW342564   6.194   0.535   2.072
10561SOL    MW442565   6.129   0.586   2.046
10562SOL     OW42566   7.219   1.336   2.854
10562SOL    HW242567   7.254   1.318   2.767
10562SOL    HW342568   7.124   1.337   2.841
10562SOL    MW442569   7.211   1.333   2.841
10563SOL     OW42570   6.648   0.984   3.223
10563SOL    HW242571   6.691   1.019   3.301
10563SOL    HW342572   6.631   1.061   3.169
10563SOL    MW442573   6.651   0.999   3.226
10564SOL     OW42574   7.179   0.471   2.096
10564SOL    HW242575   7.171   0.542   2.033
10564SOL    HW342576   7.197   0.515   2.179
10564SOL    MW442577   7.180   0.485   2.098
10565SOL     OW42578   6.039   0.126   2.525
10565SOL    HW242579   6.089   0.169   2.456
10565SOL    HW342580   5.954   0.170   2.525
10565SOL    MW442581   6.036   0.139   2.516
10566SOL     OW42582   5.798   1.188   3.385
10566SOL    HW242583   5.826   1.141   3.463
10566SOL    HW342584   5.719   1.143   3.356
10566SOL    MW442585   5.791   1.177   3.391
10567SOL     OW42586   6.306   0.515   3.352
10567SOL    HW242587   6.278   0.603   3.376
10567SOL    HW342588   6.275   0.459   3.423
10567SOL    MW442589   6.298   0.518   3.364
10568SOL     OW42590   6.848   0.733   2.071
10568SOL    HW242591   6.895   0.751   1.990
10568SOL    HW342592   6.814   0.817   2.099
10568SOL    MW442593   6.850   0.747   2.064
10569SOL     OW42594   5.961   0.911   2.565
10569SOL    HW242595   6.019   0.967   2.513
10569SOL    HW342596   6.005   0.826   2.567
10569SOL    MW442597   5.974   0.908   2.558
10570SOL     OW42598   7.101   0.263   2.402
10570SOL    HW242599   7.023   0.213   2.427
10570SOL    HW342600   7.072   0.354   2.402
10570SOL    MW442601   7.087   0.267   2.405
10571SOL     OW42602   6.687   0.225   2.561
10571SOL    HW242603   6.707   0.300   2.505
10571SOL    HW342604   6.667   0.264   2.646
10571SOL    MW442605   6.688   0.241   2.565
10572SOL     OW42606   6.583   1.475   1.893
10572SOL    HW242607   6.610   1.553   1.845
10572SOL    HW342608   6.490   1.490   1.912
10572SOL    MW442609   6.574   1.488   1.889
10573SOL     OW42610   7.447   0.998   3.580
10573SOL    HW242611   7.360   0.978   3.616
10573SOL    HW342612   7.501   0.924   3.605
10573SOL    MW442613   7.442   0.987   3.588
10574SOL     OW42614   5.668   1.511   2.737
10574SOL    HW242615   5.700   1.515   2.828
10574SOL    HW342616   5.573   1.519   2.745
10574SOL    MW442617   5.660   1.514   2.750
10575SOL     OW42618   5.623   0.637   2.284
10575SOL    HW242619   5.563   0.609   2.354
10575SOL    HW342620   5.697   0.577   2.290
10575SOL    MW442621   5.625   0.626   2.293
10576SOL     OW42622   7.191   1.849   3.718
10576SOL    HW242623   7.236   1.773   3.683
10576SOL    HW342624   7.229   1.862   3.805
10576SOL    MW442625   7.201   1.842   3.724
10577SOL     OW42626   6.791   1.368   2.444
10577SOL    HW242627   6.814   1.319   2.522
10577SOL    HW342628   6.872   1.410   2.416
10577SOL    MW442629   6.804   1.368   2.451
10578SOL     OW42630   6.049   0.376   3.173
10578SOL    HW242631   6.082   0.457   3.213
10578SOL    HW342632   6.022   0.402   3.085
10578SOL    MW442633   6.048   0.390   3.167
10579SOL     OW42634   6.003   0.343   2.909
10579SOL    HW242635   6.033   0.257   2.880
10579SOL    HW342636   5.908   0.336   2.912
10579SOL    MW442637   5.995   0.332   2.907
10580SOL     OW42638   6.832   0.552   3.600
10580SOL    HW242639   6.884   0.487   3.553
10580SOL    HW342640   6.790   0.603   3.530
10580SOL    MW442641   6.833   0.549   3.583
10581SOL     OW42642   6.931   0.347   3.461
10581SOL    HW242643   6.838   0.331   3.448
10581SOL    HW342644   6.957   0.285   3.529
10581SOL    MW442645   6.921   0.337   3.468
10582SOL     OW42646   6.146   0.121   2.800
10582SOL    HW242647   6.156   0.030   2.826
10582SOL    HW342648   6.102   0.117   2.715
10582SOL    MW442649   6.142   0.109   2.792
10583SOL     OW42650   6.240   1.736   3.346
10583SOL    HW242651   6.157   1.721   3.391
10583SOL    HW342652   6.299   1.669   3.381
10583SOL    MW442653   6.238   1.726   3.356
10584SOL     OW42654   7.297   0.443   2.971
10584SOL    HW242655   7.230   0.476   3.031
10584SOL    HW342656   7.340   0.521   2.937
10584SOL    MW442657   7.295   0.458   2.975
10585SOL     OW42658   7.475   1.163   2.941
10585SOL    HW242659   7.468   1.103   2.866
10585SOL    HW342660   7.401   1.223   2.930
10585SOL    MW442661   7.465   1.163   2.930
10586SOL     OW42662   6.857   1.025   2.859
10586SOL    HW242663   6.871   0.997   2.950
10586SOL    HW342664   6.943   1.056   2.831
10586SOL    MW442665   6.870   1.026   2.868
10587SOL     OW42666   6.940   0.520   3.138
10587SOL    HW242667   6.961   0.521   3.045
10587SOL    HW342668   6.985   0.442   3.171
10587SOL    MW442669   6.947   0.510   3.130
10588SOL     OW42670   7.433   0.651   3.680
10588SOL    HW242671   7.470   0.596   3.749
10588SOL    HW342672   7.458   0.608   3.598
10588SOL    MW442673   7.440   0.639   3.679
10589SOL     OW42674   6.980   0.949   3.731
10589SOL    HW242675   7.046   0.897   3.685
10589SOL    HW342676   7.000   0.936   3.824
10589SOL    MW442677   6.991   0.940   3.738
10590SOL     OW42678   6.931   0.035   2.080
10590SOL    HW242679   7.005   0.079   2.123
10590SOL    HW342680   6.855   0.089   2.102
10590SOL    MW442681   6.931   0.047   2.088
10591SOL     OW42682   6.991   0.810   2.358
10591SOL    HW242683   6.906   0.780   2.328
10591SOL    HW342684   6.983   0.817   2.453
10591SOL    MW442685   6.979   0.808   2.367
10592SOL     OW42686   6.067   1.273   3.089
10592SOL    HW242687   6.079   1.300   3.180
10592SOL    HW342688   6.048   1.354   3.042
10592SOL    MW442689   6.066   1.288   3.094
10593SOL     OW42690   6.351   0.253   2.912
10593SOL    HW242691   6.324   0.255   3.003
10593SOL    HW342692   6.281   0.205   2.867
10593SOL    MW442693   6.339   0.249   2.919
10594SOL     OW42694   6.205   1.745   3.074
10594SOL    HW242695   6.257   1.822   3.051
10594SOL    HW342696   6.214   1.737   3.169
10594SOL    MW442697   6.214   1.752   3.085
10595SOL     OW42698   7.107   1.330   3.306
10595SOL    HW242699   7.092   1.259   3.369
10595SOL    HW342700   7.153   1.288   3.234
10595SOL    MW442701   7.113   1.314   3.306
10596SOL     OW42702   6.181   1.061   3.423
10596SOL    HW242703   6.218   1.066   3.335
10596SOL    HW342704   6.220   1.134   3.470
10596SOL    MW442705   6.191   1.071   3.418
10597SOL     OW42706   6.361   1.104   3.235
10597SOL    HW242707   6.420   1.050   3.288
10597SOL    HW342708   6.376   1.076   3.145
10597SOL    MW442709   6.371   1.093   3.231
10598SOL     OW42710   6.364   0.476   2.084
10598SOL    HW242711   6.437   0.525   2.047
10598SOL    HW342712   6.380   0.385   2.058
10598SOL    MW442713   6.376   0.471   2.077
10599SOL     OW42714   7.172   1.593   3.407
10599SOL    HW242715   7.214   1.578   3.492
10599SOL    HW342716   7.163   1.506   3.369
10599SOL    MW442717   7.176   1.581   3.414
10600SOL     OW42718   6.832   0.072   2.998
10600SOL    HW242719   6.887   0.081   2.920
10600SOL    HW342720   6.887   0.106   3.069
10600SOL    MW442721   6.846   0.077   2.997
10601SOL     OW42722   5.839   0.985   2.182
10601SOL    HW242723   5.776   1.001   2.111
10601SOL    HW342724   5.786   0.948   2.253
10601SOL    MW442725   5.824   0.982   2.182
10602SOL     OW42726   6.195   1.339   2.041
10602SOL    HW242727   6.210   1.315   2.133
10602SOL    HW342728   6.103   1.317   2.025
10602SOL    MW442729   6.185   1.332   2.051
10603SOL     OW42730   6.734   1.570   2.193
10603SOL    HW242731   6.742   1.488   2.144
10603SOL    HW342732   6.653   1.609   2.160
10603SOL    MW442733   6.724   1.565   2.183
10604SOL     OW42734   5.993   1.728   2.762
10604SOL    HW242735   5.997   1.639   2.797
10604SOL    HW342736   6.019   1.719   2.671
10604SOL    MW442737   5.996   1.716   2.754
10605SOL     OW42738   6.610   1.206   3.005
10605SOL    HW242739   6.542   1.140   3.021
10605SOL    HW342740   6.628   1.200   2.912
10605SOL    MW442741   6.603   1.197   2.996
10606SOL     OW42742   5.699   1.481   3.256
10606SOL    HW242743   5.689   1.439   3.342
10606SOL    HW342744   5.620   1.534   3.246
10606SOL    MW442745   5.688   1.482   3.267
10607SOL     OW42746   6.603   0.345   2.826
10607SOL    HW242747   6.533   0.297   2.871
10607SOL    HW342748   6.635   0.408   2.890
10607SOL    MW442749   6.598   0.347   2.840
10608SOL     OW42750   6.254   0.781   3.446
10608SOL    HW242751   6.247   0.876   3.434
10608SOL    HW342752   6.263   0.770   3.541
10608SOL    MW442753   6.255   0.793   3.456
10609SOL     OW42754   5.975   1.296   3.704
10609SOL    HW242755   6.047   1.298   3.641
10609SOL    HW342756   5.945   1.205   3.703
10609SOL    MW442757   5.980   1.285   3.696
10610SOL     OW42758   7.059   0.059   3.171
10610SOL    HW242759   7.130   0.005   3.135
10610SOL    HW342760   7.058   0.038   3.264
10610SOL    MW442761   7.068   0.050   3.179
10611SOL     OW42762   7.259   1.589   3.655
10611SOL    HW242763   7.232   1.586   3.746
10611SOL    HW342764   7.355   1.593   3.658
10611SOL    MW442765   7.269   1.589   3.667
10612SOL     OW42766   6.070   0.451   2.639
10612SOL    HW242767   6.141   0.399   2.602
10612SOL    HW342768   6.056   0.416   2.726
10612SOL    MW442769   6.078   0.440   2.646
10613SOL     OW42770   5.625   1.786   3.711
10613SOL    HW242771   5.675   1.764   3.633
10613SOL    HW342772   5.633   1.881   3.719
10613SOL    MW442773   5.633   1.795   3.702
10614SOL     OW42774   6.386   1.544   2.715
10614SOL    HW242775   6.314   1.481   2.728
10614SOL    HW342776   6.347   1.629   2.733
10614SOL    MW442777   6.370   1.547   2.718
10615SOL     OW42778   6.706   0.392   2.363
10615SOL    HW242779   6.728   0.329   2.295
10615SOL    HW342780   6.611   0.384   2.374
10615SOL    MW442781   6.696   0.383   2.355
10616SOL     OW42782   5.791   0.082   2.295
10616SOL    HW242783   5.862   0.103   2.234
10616SOL    HW342784   5.745   0.010   2.253
10616SOL    MW442785   5.795   0.076   2.281
10617SOL     OW42786   5.622   0.549   3.438
10617SOL    HW242787   5.686   0.615   3.413
10617SOL    HW342788   5.541   0.576   3.395
10617SOL    MW442789   5.620   0.561   3.430
10618SOL     OW42790   7.360   1.456   2.395
10618SOL    HW242791   7.330   1.389   2.456
10618SOL    HW342792   7.454   1.462   2.409
10618SOL    MW442793   7.368   1.448   2.405
10619SOL     OW42794   6.916   1.133   2.325
10619SOL    HW242795   6.888   1.219   2.358
10619SOL    HW342796   6.944   1.149   2.235
10619SOL    MW442797   6.916   1.147   2.317
10620SOL     OW42798   6.578   0.053   2.378
10620SOL    HW242799   6.615   0.112   2.443
10620SOL    HW342800   6.555   0.109   2.304
10620SOL    MW442801   6.579   0.068   2.377
10621SOL     OW42802   7.431   0.935   2.800
10621SOL    HW242803   7.422   0.967   2.711
10621SOL    HW342804   7.384   0.851   2.800
10621SOL    MW442805   7.424   0.928   2.790
10622SOL     OW42806   5.807   0.775   3.379
10622SOL    HW242807   5.828   0.844   3.317
10622SOL    HW342808   5.887   0.722   3.384
10622SOL    MW442809   5.820   0.776   3.373
10623SOL     OW42810   7.343   0.866   2.501
10623SOL    HW242811   7.437   0.855   2.489
10623SOL    HW342812   7.319   0.938   2.442
10623SOL    MW442813   7.353   0.874   2.492
10624SOL     OW42814   5.792   0.790   3.646
10624SOL    HW242815   5.718   0.734   3.672
10624SOL    HW342816   5.787   0.793   3.551
10624SOL    MW442817   5.781   0.783   3.636
10625SOL     OW42818   5.958   0.077   3.096
10625SOL    HW242819   6.001   0.161   3.116
10625SOL    HW342820   6.031   0.015   3.089
10625SOL    MW442821   5.973   0.080   3.097
10626SOL     OW42822   5.999   0.744   2.274
10626SOL    HW242823   5.999   0.839   2.259
10626SOL    HW342824   6.076   0.728   2.328
10626SOL    MW442825   6.009   0.755   2.279
10627SOL     OW42826   6.775   0.603   3.338
10627SOL    HW242827   6.811   0.576   3.254
10627SOL    HW342828   6.688   0.637   3.317
10627SOL    MW442829   6.769   0.604   3.325
10628SOL     OW42830   5.758   0.475   2.563
10628SOL    HW242831   5.820   0.482   2.636
10628SOL    HW342832   5.758   0.382   2.540
10628SOL    MW442833   5.766   0.464   2.570
10629SOL     OW42834   7.305   1.815   2.095
10629SOL    HW242835   7.372   1.848   2.035
10629SOL    HW342836   7.262   1.894   2.129
10629SOL    MW442837   7.307   1.830   2.091
10630SOL     OW42838   6.440   0.736   3.047
10630SOL    HW242839   6.398   0.654   3.023
10630SOL    HW342840   6.441   0.735   3.143
10630SOL    MW442841   6.433   0.725   3.056
10631SOL     OW42842   7.111   1.869   3.446
10631SOL    HW242843   7.114   1.775   3.429
10631SOL    HW342844   7.134   1.877   3.538
10631SOL    MW442845   7.114   1.857   3.456
10632SOL     OW42846   6.244   0.206   3.152
10632SOL    HW242847   6.175   0.269   3.173
10632SOL    HW342848   6.271   0.170   3.237
10632SOL    MW442849   6.238   0.209   3.165
10633SOL     OW42850   5.627   1.047   2.021
10633SOL    HW242851   5.596   1.112   2.084
10633SOL    HW342852   5.576   0.969   2.040
10633SOL    MW442853   5.617   1.044   2.031
10634SOL     OW42854   7.039   0.059   2.769
10634SOL    HW242855   7.127   0.068   2.806
10634SOL    HW342856   7.049   0.000   2.695
10634SOL    MW442857   7.053   0.053   2.763
10635SOL     OW42858   7.071   0.798   2.613
10635SOL    HW242859   7.151   0.813   2.562
10635SOL    HW342860   7.064   0.703   2.619
10635SOL    MW442861   7.080   0.787   2.608
10636SOL     OW42862   6.211   1.847   1.963
10636SOL    HW242863   6.116   1.847   1.955
10636SOL    HW342864   6.227   1.793   2.041
10636SOL    MW442865   6.201   1.841   1.972
10637SOL     OW42866   6.521   0.724   3.310
10637SOL    HW242867   6.590   0.791   3.307
10637SOL    HW342868   6.454   0.762   3.366
10637SOL    MW442869   6.522   0.737   3.317
10638SOL     OW42870   5.939   1.024   3.558
10638SOL    HW242871   5.893   0.940   3.560
10638SOL    HW342872   5.996   1.018   3.482
10638SOL    MW442873   5.941   1.012   3.550
10639SOL     OW42874   7.056   0.667   1.879
10639SOL    HW242875   6.984   0.643   1.821
10639SOL    HW342876   7.122   0.704   1.821
10639SOL    MW442877   7.055   0.669   1.864
10640SOL     OW42878   6.190   1.399   2.559
10640SOL    HW242879   6.255   1.332   2.580
10640SOL    HW342880   6.242   1.476   2.536
10640SOL    MW442881   6.205   1.401   2.558
10641SOL     OW42882   6.451   0.564   2.689
10641SOL    HW242883   6.391   0.582   2.761
10641SOL    HW342884   6.485   0.476   2.708
10641SOL    MW442885   6.447   0.554   2.702
10642SOL     OW42886   7.392   0.063   3.358
10642SOL    HW242887   7.313   0.109   3.386
10642SOL    HW342888   7.427   0.117   3.287
10642SOL    MW442889   7.386   0.076   3.352
10643SOL     OW42890   6.676   1.147   2.708
10643SOL    HW242891   6.768   1.128   2.726
10643SOL    HW342892   6.649   1.077   2.648
10643SOL    MW442893   6.684   1.135   2.702
10644SOL     OW42894   6.469   0.967   2.063
10644SOL    HW242895   6.455   0.879   2.028
10644SOL    HW342896   6.420   1.024   2.004
10644SOL    MW442897   6.461   0.962   2.051
10645SOL     OW42898   6.950   1.385   2.804
10645SOL    HW242899   6.923   1.469   2.769
10645SOL    HW342900   6.910   1.380   2.891
10645SOL    MW442901   6.943   1.394   2.810
10646SOL     OW42902   6.869   1.333   3.072
10646SOL    HW242903   6.880   1.300   3.161
10646SOL    HW342904   6.788   1.292   3.041
10646SOL    MW442905   6.859   1.325   3.078
10647SOL     OW42906   5.882   0.691   2.842
10647SOL    HW242907   5.832   0.690   2.923
10647SOL    HW342908   5.902   0.783   2.826
10647SOL    MW442909   5.878   0.703   2.850
10648SOL     OW42910   6.949   1.455   3.604
10648SOL    HW242911   6.949   1.549   3.620
10648SOL    HW342912   6.994   1.445   3.520
10648SOL    MW442913   6.955   1.465   3.595
10649SOL     OW42914   7.188   0.173   2.165
10649SOL    HW242915   7.181   0.177   2.260
10649SOL    HW342916   7.200   0.264   2.138
10649SOL    MW442917   7.189   0.186   2.173
10650SOL     OW42918   6.477   0.736   2.279
10650SOL    HW242919   6.457   0.722   2.186
10650SOL    HW342920   6.570   0.715   2.286
10650SOL    MW442921   6.487   0.731   2.268
10651SOL     OW42922   5.804   0.359   3.583
10651SOL    HW242923   5.761   0.418   3.520
10651SOL    HW342924   5.872   0.414   3.623
10651SOL    MW442925   5.808   0.374   3.580
10652SOL     OW42926   6.916   0.979   3.128
10652SOL    HW242927   6.979   0.976   3.201
10652SOL    HW342928   6.832   0.997   3.170
10652SOL    MW442929   6.912   0.981   3.143
10653SOL     OW42930   6.460   1.694   2.317
10653SOL    HW242931   6.518   1.765   2.344
10653SOL    HW342932   6.483   1.622   2.375
10653SOL    MW442933   6.471   1.694   2.328
10654SOL     OW42934   7.255   0.156   2.907
10654SOL    HW242935   7.300   0.074   2.926
10654SOL    HW342936   7.275   0.212   2.983
10654SOL    MW442937   7.265   0.152   2.919
10655SOL     OW42938   5.703  -0.001   3.006
10655SOL    HW242939   5.694   0.000   2.911
10655SOL    HW342940   5.797   0.011   3.021
10655SOL    MW442941   5.715   0.002   2.997
10656SOL     OW42942   7.340   1.192   2.626
10656SOL    HW242943   7.319   1.138   2.549
10656SOL    HW342944   7.436   1.190   2.630
10656SOL    MW442945   7.349   1.185   2.615
10657SOL     OW42946   6.032   1.337   3.369
10657SOL    HW242947   5.953   1.287   3.392
10657SOL    HW342948   6.102   1.296   3.419
10657SOL    MW442949   6.030   1.325   3.379
10658SOL     OW42950   5.916   0.126   2.052
10658SOL    HW242951   5.845   0.181   2.020
10658SOL    HW342952   5.958   0.092   1.973
10658SOL    MW442953   5.912   0.128   2.038
10659SOL     OW42954   7.040   0.623   2.888
10659SOL    HW242955   6.963   0.669   2.854
10659SOL    HW342956   7.097   0.692   2.922
10659SOL    MW442957   7.037   0.638   2.888
10660SOL     OW42958   5.672   0.225   1.901
10660SOL    HW242959   5.639   0.304   1.945
10660SOL    HW342960   5.727   0.258   1.830
10660SOL    MW442961   5.675   0.239   1.898
10661SOL     OW42962   5.706   1.482   2.090
10661SOL    HW242963   5.723   1.566   2.132
10661SOL    HW342964   5.741   1.491   2.002
10661SOL    MW442965   5.711   1.495   2.084
10662SOL     OW42966   6.978   1.571   2.307
10662SOL    HW242967   7.041   1.561   2.236
10662SOL    HW342968   6.895   1.591   2.262
10662SOL    MW442969   6.975   1.572   2.292
10663SOL     OW42970   7.341   0.839   3.993
10663SOL    HW242971   7.382   0.781   4.058
10663SOL    HW342972   7.248   0.831   4.010
10663SOL    MW442973   7.335   0.831   4.003
10664SOL     OW42974   7.207   0.771   4.988
10664SOL    HW242975   7.162   0.838   5.039
10664SOL    HW342976   7.295   0.807   4.974
10664SOL    MW442977   7.213   0.784   4.992
10665SOL     OW42978   6.135   1.022   4.222
10665SOL    HW242979   6.225   0.997   4.206
10665SOL    HW342980   6.131   1.115   4.199
10665SOL    MW442981   6.147   1.031   4.217
10666SOL     OW42982   7.251   1.725   4.364
10666SOL    HW242983   7.263   1.671   4.442
10666SOL    HW342984   7.288   1.673   4.293
10666SOL    MW442985   7.257   1.710   4.365
10667SOL     OW42986   6.630   1.610   5.365
10667SOL    HW242987   6.671   1.646   5.286
10667SOL    HW342988   6.665   1.521   5.372
10667SOL    MW442989   6.641   1.603   5.356
10668SOL     OW42990   7.187   1.165   4.969
10668SOL    HW242991   7.108   1.130   4.927
10668SOL    HW342992   7.214   1.237   4.913
10668SOL    MW442993   7.180   1.170   4.956
10669SOL     OW42994   6.419   0.478   4.235
10669SOL    HW242995   6.394   0.566   4.263
10669SOL    HW342996   6.416   0.481   4.139
10669SOL    MW442997   6.415   0.490   4.227
10670SOL     OW42998   5.861   0.506   4.163
10670SOL    HW242999   5.893   0.594   4.145
10670SOL    HW343000   5.849   0.504   4.258
10670SOL    MW443001   5.864   0.518   4.175
10671SOL     OW43002   5.939   0.919   5.064
10671SOL    HW243003   6.002   0.866   5.015
10671SOL    HW343004   5.920   0.993   5.007
10671SOL    MW443005   5.945   0.921   5.051
10672SOL     OW43006   6.260   0.261   4.250
10672SOL    HW243007   6.318   0.337   4.252
10672SOL    HW343008   6.195   0.282   4.183
10672SOL    MW443009   6.259   0.273   4.241
10673SOL     OW43010   6.347   1.188   4.425
10673SOL    HW243011   6.427   1.191   4.477
10673SOL    HW343012   6.375   1.155   4.339
10673SOL    MW443013   6.361   1.184   4.420
10674SOL     OW43014   6.372   1.529   5.328
10674SOL    HW243015   6.456   1.555   5.367
10674SOL    HW343016   6.396   1.473   5.254
10674SOL    MW443017   6.386   1.525   5.323
10675SOL     OW43018   6.124   0.692   4.416
10675SOL    HW243019   6.109   0.612   4.467
10675SOL    HW343020   6.206   0.727   4.450
10675SOL    MW443021   6.132   0.684   4.428
10676SOL     OW43022   6.461   1.378   5.101
10676SOL    HW243023   6.425   1.444   5.041
10676SOL    HW343024   6.389   1.316   5.114
10676SOL    MW443025   6.447   1.378   5.095
10677SOL     OW43026   6.266   0.518   4.793
10677SOL    HW243027   6.172   0.514   4.811
10677SOL    HW343028   6.296   0.427   4.802
10677SOL    MW443029   6.257   0.506   4.796
10678SOL     OW43030   6.012   0.932   4.697
10678SOL    HW243031   5.967   0.939   4.613
10678SOL    HW343032   5.992   1.015   4.741
10678SOL    MW443033   6.004   0.944   4.691
10679SOL     OW43034   5.709   1.778   4.572
10679SOL    HW243035   5.798   1.770   4.607
10679SOL    HW343036   5.673   1.690   4.577
10679SOL    MW443037   5.716   1.765   4.577
10680SOL     OW43038   6.974   1.170   3.941
10680SOL    HW243039   6.892   1.206   3.907
10680SOL    HW343040   7.042   1.213   3.890
10680SOL    MW443041   6.972   1.180   3.929
10681SOL     OW43042   5.973   1.305   4.607
10681SOL    HW243043   5.949   1.358   4.683
10681SOL    HW343044   6.029   1.363   4.555
10681SOL    MW443045   5.977   1.320   4.610
10682SOL     OW43046   6.535   0.949   4.417
10682SOL    HW243047   6.449   0.936   4.457
10682SOL    HW343048   6.588   0.876   4.449
10682SOL    MW443049   6.531   0.938   4.426
10683SOL     OW43050   5.943   1.601   5.202
10683SOL    HW243051   5.851   1.577   5.187
10683SOL    HW343052   5.987   1.518   5.219
10683SOL    MW443053   5.937   1.586   5.201
10684SOL     OW43054   6.526   1.311   4.134
10684SOL    HW243055   6.503   1.373   4.202
10684SOL    HW343056   6.483   1.229   4.160
10684SOL    MW443057   6.518   1.307   4.145
10685SOL     OW43058   7.399   0.312   4.590
10685SOL    HW243059   7.336   0.292   4.659
10685SOL    HW343060   7.389   0.241   4.527
10685SOL    MW443061   7.389   0.299   4.591
10686SOL     OW43062   6.023   0.284   4.102
10686SOL    HW243063   5.997   0.246   4.018
10686SOL    HW343064   5.960   0.354   4.118
10686SOL    MW443065   6.012   0.287   4.093
10687SOL     OW43066   5.858   1.245   4.139
10687SOL    HW243067   5.806   1.313   4.095
10687SOL    HW343068   5.855   1.171   4.079
10687SOL    MW443069   5.850   1.244   4.126
10688SOL     OW43070   6.520   1.708   3.917
10688SOL    HW243071   6.475   1.724   4.000
10688SOL    HW343072   6.451   1.673   3.859
10688SOL    MW443073   6.506   1.705   3.919
10689SOL     OW43074   7.455   0.481   3.892
10689SOL    HW243075   7.364   0.483   3.920
10689SOL    HW343076   7.500   0.543   3.950
10689SOL    MW443077   7.448   0.489   3.902
10690SOL     OW43078   7.200   1.084   4.242
10690SOL    HW243079   7.110   1.084   4.277
10690SOL    HW343080   7.193   1.130   4.159
10690SOL    MW443081   7.187   1.090   4.236
10691SOL     OW43082   7.000   0.719   5.314
10691SOL    HW243083   7.069   0.657   5.291
10691SOL    HW343084   6.925   0.693   5.261
10691SOL    MW443085   7.000   0.706   5.305
10692SOL     OW43086   5.741   1.599   4.866
10692SOL    HW243087   5.724   1.545   4.943
10692SOL    HW343088   5.729   1.689   4.896
10692SOL    MW443089   5.738   1.603   4.880
10693SOL     OW43090   6.736   1.106   5.306
10693SOL    HW243091   6.721   1.199   5.291
10693SOL    HW343092   6.831   1.096   5.306
10693SOL    MW443093   6.745   1.116   5.303
10694SOL     OW43094   6.532   0.530   5.507
10694SOL    HW243095   6.622   0.531   5.474
10694SOL    HW343096   6.491   0.455   5.465
10694SOL    MW443097   6.538   0.520   5.498
10695SOL     OW43098   7.107   1.062   4.634
10695SOL    HW243099   7.110   0.996   4.565
10695SOL    HW343100   7.192   1.105   4.630
10695SOL    MW443101   7.119   1.058   4.625
10696SOL     OW43102   6.727   0.665   4.203
10696SOL    HW243103   6.753   0.689   4.114
10696SOL    HW343104   6.709   0.572   4.199
10696SOL    MW443105   6.729   0.657   4.190
10697SOL     OW43106   7.392   1.285   4.054
10697SOL    HW243107   7.348   1.326   4.129
10697SOL    HW343108   7.449   1.353   4.019
10697SOL    MW443109   7.394   1.299   4.059
10698SOL     OW43110   6.312   0.334   5.457
10698SOL    HW243111   6.322   0.260   5.397
10698SOL    HW343112   6.348   0.303   5.540
10698SOL    MW443113   6.318   0.320   5.459
10699SOL     OW43114   6.048   1.701   4.372
10699SOL    HW243115   6.080   1.789   4.350
10699SOL    HW343116   6.001   1.673   4.294
10699SOL    MW443117   6.047   1.709   4.359
10700SOL     OW43118   7.432   0.063   4.421
10700SOL    HW243119   7.486   0.014   4.483
10700SOL    HW343120   7.375  -0.003   4.382
10700SOL    MW443121   7.432   0.047   4.423
10701SOL     OW43122   5.764   1.761   3.949
10701SOL    HW243123   5.793   1.851   3.941
10701SOL    HW343124   5.714   1.744   3.870
10701SOL    MW443125   5.762   1.769   3.938
10702SOL     OW43126   6.551   0.016   4.834
10702SOL    HW243127   6.510   0.094   4.796
10702SOL    HW343128   6.645   0.034   4.829
10702SOL    MW443129   6.557   0.028   4.829
10703SOL     OW43130   7.168   1.569   3.920
10703SOL    HW243131   7.216   1.638   3.966
10703SOL    HW343132   7.089   1.613   3.889
10703SOL    MW443133   7.163   1.583   3.923
10704SOL     OW43134   6.566   0.694   3.864
10704SOL    HW243135   6.568   0.641   3.785
10704SOL    HW343136   6.654   0.731   3.870
10704SOL    MW443137   6.578   0.693   3.853
10705SOL     OW43138   7.180   0.620   4.200
10705SOL    HW243139   7.219   0.620   4.287
10705SOL    HW343140   7.121   0.696   4.200
10705SOL    MW443141   7.177   0.631   4.211
10706SOL     OW43142   6.497   0.987   5.329
10706SOL    HW243143   6.474   0.967   5.419
10706SOL    HW343144   6.582   1.031   5.334
10706SOL    MW443145   6.504   0.990   5.341
10707SOL     OW43146   6.577   0.124   5.089
10707SOL    HW243147   6.583   0.086   5.002
10707SOL    HW343148   6.566   0.218   5.074
10707SOL    MW443149   6.578   0.132   5.077
10708SOL     OW43150   6.666   0.613   4.923
10708SOL    HW243151   6.741   0.642   4.870
10708SOL    HW343152   6.598   0.678   4.907
10708SOL    MW443153   6.667   0.625   4.913
10709SOL     OW43154   7.216   0.581   5.200
10709SOL    HW243155   7.197   0.490   5.179
10709SOL    HW343156   7.194   0.630   5.121
10709SOL    MW443157   7.211   0.574   5.187
10710SOL     OW43158   7.358   1.675   5.104
10710SOL    HW243159   7.286   1.637   5.155
10710SOL    HW343160   7.375   1.760   5.145
10710SOL    MW443161   7.352   1.680   5.116
10711SOL     OW43162   6.663   0.319   5.306
10711SOL    HW243163   6.629   0.358   5.225
10711SOL    HW343164   6.641   0.227   5.299
10711SOL    MW443165   6.656   0.312   5.296
10712SOL     OW43166   7.072   1.133   5.382
10712SOL    HW243167   7.154   1.174   5.412
10712SOL    HW343168   7.035   1.095   5.462
10712SOL    MW443169   7.078   1.134   5.397
10713SOL     OW43170   7.367   0.506   4.366
10713SOL    HW243171   7.456   0.475   4.383
10713SOL    HW343172   7.310   0.446   4.414
10713SOL    MW443173   7.370   0.494   4.375
10714SOL     OW43174   5.793   0.220   4.395
10714SOL    HW243175   5.784   0.160   4.321
10714SOL    HW343176   5.726   0.191   4.458
10714SOL    MW443177   5.783   0.207   4.393
10715SOL     OW43178   6.736   1.313   3.956
10715SOL    HW243179   6.686   1.315   4.038
10715SOL    HW343180   6.670   1.331   3.888
10715SOL    MW443181   6.722   1.315   3.958
10716SOL     OW43182   5.740   0.393   4.758
10716SOL    HW243183   5.712   0.484   4.767
10716SOL    HW343184   5.677   0.354   4.697
10716SOL    MW443185   5.727   0.399   4.752
10717SOL     OW43186   6.199   1.731   4.064
10717SOL    HW243187   6.120   1.689   4.097
10717SOL    HW343188   6.265   1.714   4.131
10717SOL    MW443189   6.198   1.723   4.077
10718SOL     OW43190   7.327   1.251   5.461
10718SOL    HW243191   7.377   1.177   5.493
10718SOL    HW343192   7.273   1.278   5.536
10718SOL    MW443193   7.327   1.245   5.474
10719SOL     OW43194   6.335   1.146   3.771
10719SOL    HW243195   6.257   1.092   3.758
10719SOL    HW343196   6.306   1.219   3.824
10719SOL    MW443197   6.321   1.148   3.776
10720SOL     OW43198   7.461   0.886   4.963
10720SOL    HW243199   7.477   0.924   4.876
10720SOL    HW343200   7.495   0.952   5.024
10720SOL    MW443201   7.468   0.899   4.959
10721SOL     OW43202   7.253   1.595   4.632
10721SOL    HW243203   7.282   1.662   4.693
10721SOL    HW343204   7.234   1.519   4.687
10721SOL    MW443205   7.255   1.595   4.647
10722SOL     OW43206   6.916   1.662   3.839
10722SOL    HW243207   6.842   1.625   3.889
10722SOL    HW343208   6.924   1.752   3.872
10722SOL    MW443209   6.907   1.669   3.851
10723SOL     OW43210   5.724   0.668   4.928
10723SOL    HW243211   5.786   0.698   4.994
10723SOL    HW343212   5.658   0.737   4.922
10723SOL    MW443213   5.723   0.681   4.935
10724SOL     OW43214   7.140   1.336   3.781
10724SOL    HW243215   7.087   1.385   3.717
10724SOL    HW343216   7.171   1.402   3.842
10724SOL    MW443217   7.138   1.350   3.779
10725SOL     OW43218   6.365   0.225   3.836
10725SOL    HW243219   6.313   0.145   3.824
10725SOL    HW343220   6.452   0.202   3.804
10725SOL    MW443221   6.368   0.211   3.830
10726SOL     OW43222   5.819   1.777   5.380
10726SOL    HW243223   5.793   1.845   5.318
10726SOL    HW343224   5.867   1.714   5.328
10726SOL    MW443225   5.821   1.777   5.366
10727SOL     OW43226   5.871   1.096   4.887
10727SOL    HW243227   5.924   1.171   4.912
10727SOL    HW343228   5.790   1.134   4.853
10727SOL    MW443229   5.867   1.111   4.887
10728SOL     OW43230   6.411   1.000   4.875
10728SOL    HW243231   6.439   0.909   4.887
10728SOL    HW343232   6.340   0.994   4.811
10728SOL    MW443233   6.404   0.988   4.870
10729SOL     OW43234   5.726   0.865   4.293
10729SOL    HW243235   5.817   0.880   4.320
10729SOL    HW343236   5.729   0.786   4.239
10729SOL    MW443237   5.738   0.857   4.291
10730SOL     OW43238   5.962   0.573   5.547
10730SOL    HW243239   5.909   0.653   5.554
10730SOL    HW343240   6.032   0.585   5.612
10730SOL    MW443241   5.964   0.586   5.555
10731SOL     OW43242   6.348   0.123   5.254
10731SOL    HW243243   6.325   0.031   5.256
10731SOL    HW343244   6.434   0.125   5.211
10731SOL    MW443245   6.355   0.113   5.250
10732SOL     OW43246   6.032   0.647   5.293
10732SOL    HW243247   6.112   0.697   5.279
10732SOL    HW343248   6.023   0.641   5.388
10732SOL    MW443249   6.041   0.653   5.303
10733SOL     OW43250   6.353   1.797   4.667
10733SOL    HW243251   6.442   1.812   4.697
10733SOL    HW343252   6.348   1.844   4.583
10733SOL    MW443253   6.363   1.805   4.660
10734SOL     OW43254   7.009   0.172   5.564
10734SOL    HW243255   7.065   0.099   5.590
10734SOL    HW343256   6.979   0.210   5.646
10734SOL    MW443257   7.013   0.167   5.577
10735SOL     OW43258   5.734   1.477   4.332
10735SOL    HW243259   5.706   1.516   4.414
10735SOL    HW343260   5.754   1.386   4.354
10735SOL    MW443261   5.732   1.469   4.345
10736SOL     OW43262   6.567   1.520   4.367
10736SOL    HW243263   6.650   1.474   4.351
10736SOL    HW343264   6.557   1.519   4.463
10736SOL    MW443265   6.577   1.513   4.377
10737SOL     OW43266   7.399   0.665   4.681
10737SOL    HW243267   7.488   0.695   4.663
10737SOL    HW343268   7.379   0.605   4.610
10737SOL    MW443269   7.408   0.662   4.670
10738SOL     OW43270   7.250   0.844   5.561
10738SOL    HW243271   7.305   0.768   5.542
10738SOL    HW343272   7.252   0.852   5.656
10738SOL    MW443273   7.258   0.835   5.569
10739SOL     OW43274   6.300   1.577   3.772
10739SOL    HW243275   6.240   1.646   3.742
10739SOL    HW343276   6.245   1.519   3.825
10739SOL    MW443277   6.284   1.579   3.774
10740SOL     OW43278   6.738   0.222   3.995
10740SOL    HW243279   6.671   0.198   3.932
10740SOL    HW343280   6.803   0.271   3.944
10740SOL    MW443281   6.738   0.224   3.980
10741SOL     OW43282   6.545   0.406   5.080
10741SOL    HW243283   6.464   0.447   5.108
10741SOL    HW343284   6.592   0.474   5.032
10741SOL    MW443285   6.540   0.421   5.078
10742SOL     OW43286   6.805   0.744   4.703
10742SOL    HW243287   6.818   0.838   4.713
10742SOL    HW343288   6.766   0.734   4.617
10742SOL    MW443289   6.801   0.755   4.693
10743SOL     OW43290   6.257   0.939   4.507
10743SOL    HW243291   6.168   0.930   4.540
10743SOL    HW343292   6.261   1.029   4.475
10743SOL    MW443293   6.246   0.950   4.507
10744SOL     OW43294   7.056   0.522   4.502
10744SOL    HW243295   7.001   0.443   4.501
10744SOL    HW343296   7.038   0.563   4.586
10744SOL    MW443297   7.046   0.517   4.511
10745SOL     OW43298   6.027   0.209   5.319
10745SOL    HW243299   5.948   0.227   5.371
10745SOL    HW343300   6.022   0.271   5.246
10745SOL    MW443301   6.017   0.219   5.316
10746SOL     OW43302   6.675   0.726   4.459
10746SOL    HW243303   6.612   0.658   4.483
10746SOL    HW343304   6.695   0.707   4.367
10746SOL    MW443305   6.669   0.713   4.451
10747SOL     OW43306   5.931   1.621   4.161
10747SOL    HW243307   5.892   1.668   4.087
10747SOL    HW343308   5.865   1.556   4.186
10747SOL    MW443309   5.918   1.619   4.155
10748SOL     OW43310   6.423   1.030   4.185
10748SOL    HW243311   6.425   1.004   4.092
10748SOL    HW343312   6.481   0.967   4.228
10748SOL    MW443313   6.431   1.019   4.179
10749SOL     OW43314   6.976   1.590   4.957
10749SOL    HW243315   6.901   1.636   4.995
10749SOL    HW343316   6.958   1.497   4.974
10749SOL    MW443317   6.965   1.584   4.965
10750SOL     OW43318   6.980   1.798   4.387
10750SOL    HW243319   6.923   1.751   4.326
10750SOL    HW343320   7.066   1.759   4.374
10750SOL    MW443321   6.983   1.789   4.377
10751SOL     OW43322   6.933   0.274   4.518
10751SOL    HW243323   6.961   0.206   4.579
10751SOL    HW343324   6.847   0.245   4.488
10751SOL    MW443325   6.926   0.261   4.522
10752SOL     OW43326   5.738   1.208   4.452
10752SOL    HW243327   5.802   1.240   4.515
10752SOL    HW343328   5.787   1.144   4.400
10752SOL    MW443329   5.753   1.204   4.453
10753SOL     OW43330   6.238   1.284   5.434
10753SOL    HW243331   6.286   1.367   5.421
10753SOL    HW343332   6.295   1.232   5.490
10753SOL    MW443333   6.252   1.288   5.440
10754SOL     OW43334   5.814   1.526   5.574
10754SOL    HW243335   5.870   1.450   5.589
10754SOL    HW343336   5.763   1.504   5.496
10754SOL    MW443337   5.814   1.513   5.565
10755SOL     OW43338   6.913   0.378   3.853
10755SOL    HW243339   6.886   0.444   3.789
10755SOL    HW343340   6.983   0.421   3.903
10755SOL    MW443341   6.918   0.391   3.850
10756SOL     OW43342   6.581   0.083   3.790
10756SOL    HW243343   6.637   0.075   3.712
10756SOL    HW343344   6.558  -0.007   3.812
10756SOL    MW443345   6.586   0.070   3.783
10757SOL     OW43346   7.086   0.934   3.995
10757SOL    HW243347   7.053   1.023   3.985
10757SOL    HW343348   7.051   0.905   4.080
10757SOL    MW443349   7.076   0.943   4.006
10758SOL     OW43350   6.699   1.363   5.183
10758SOL    HW243351   6.610   1.369   5.151
10758SOL    HW343352   6.743   1.442   5.151
10758SOL    MW443353   6.694   1.373   5.175
10759SOL     OW43354   5.992   0.031   5.525
10759SOL    HW243355   5.920  -0.004   5.473
10759SOL    HW343356   6.050   0.072   5.460
10759SOL    MW443357   5.990   0.032   5.510
10760SOL     OW43358   6.016   1.521   4.824
10760SOL    HW243359   6.061   1.583   4.881
10760SOL    HW343360   5.923   1.540   4.837
10760SOL    MW443361   6.009   1.531   4.831
10761SOL     OW43362   7.456   1.050   5.178
10761SOL    HW243363   7.371   1.063   5.137
10761SOL    HW343364   7.436   1.014   5.265
10761SOL    MW443365   7.443   1.046   5.183
10762SOL     OW43366   6.438   1.589   4.932
10762SOL    HW243367   6.462   1.578   4.841
10762SOL    HW343368   6.361   1.646   4.930
10762SOL    MW443369   6.430   1.594   4.921
10763SOL     OW43370   6.080   0.972   3.787
10763SOL    HW243371   6.003   0.985   3.843
10763SOL    HW343372   6.044   0.936   3.706
10763SOL    MW443373   6.066   0.968   3.784
10764SOL     OW43374   6.733   0.945   4.030
10764SOL    HW243375   6.643   0.966   4.005
10764SOL    HW343376   6.760   1.018   4.086
10764SOL    MW443377   6.725   0.957   4.033
10765SOL     OW43378   6.233   1.294   4.722
10765SOL    HW243379   6.226   1.273   4.816
10765SOL    HW343380   6.151   1.262   4.685
10765SOL    MW443381   6.221   1.288   4.729
10766SOL     OW43382   7.097   0.304   5.124
10766SOL    HW243383   7.044   0.306   5.204
10766SOL    HW343384   7.082   0.217   5.087
10766SOL    MW443385   7.089   0.294   5.129
10767SOL     OW43386   7.433   0.228   4.997
10767SOL    HW243387   7.414   0.295   4.932
10767SOL    HW343388   7.490   0.166   4.952
10767SOL    MW443389   7.437   0.229   4.983
10768SOL     OW43390   5.679   1.386   5.385
10768SOL    HW243391   5.723   1.319   5.331
10768SOL    HW343392   5.594   1.348   5.405
10768SOL    MW443393   5.674   1.372   5.381
10769SOL     OW43394   6.362   0.061   4.437
10769SOL    HW243395   6.291   0.122   4.419
10769SOL    HW343396   6.413   0.058   4.356
10769SOL    MW443397   6.358   0.067   4.424
10770SOL     OW43398   6.120   1.301   4.186
10770SOL    HW243399   6.113   1.333   4.276
10770SOL    HW343400   6.030   1.285   4.158
10770SOL    MW443401   6.108   1.303   4.193
10771SOL     OW43402   6.715   1.694   5.095
10771SOL    HW243403   6.635   1.679   5.045
10771SOL    HW343404   6.722   1.789   5.102
10771SOL    MW443405   6.706   1.705   5.089
10772SOL     OW43406   6.829   1.659   4.585
10772SOL    HW243407   6.876   1.732   4.544
10772SOL    HW343408   6.750   1.698   4.621
10772SOL    MW443409   6.824   1.674   4.584
10773SOL     OW43410   7.237   1.754   4.860
10773SOL    HW243411   7.280   1.724   4.940
10773SOL    HW343412   7.156   1.702   4.857
10773SOL    MW443413   7.232   1.743   4.870
10774SOL     OW43414   6.322   0.718   5.567
10774SOL    HW243415   6.392   0.660   5.539
10774SOL    HW343416   6.265   0.663   5.622
10774SOL    MW443417   6.324   0.705   5.571
10775SOL     OW43418   7.109   0.930   5.200
10775SOL    HW243419   7.114   0.983   5.280
10775SOL    HW343420   7.071   0.847   5.228
10775SOL    MW443421   7.105   0.925   5.215
10776SOL     OW43422   6.749   0.065   5.446
10776SOL    HW243423   6.744  -0.028   5.427
10776SOL    HW343424   6.832   0.076   5.492
10776SOL    MW443425   6.757   0.054   5.450
10777SOL     OW43426   6.123   0.585   3.900
10777SOL    HW243427   6.089   0.641   3.970
10777SOL    HW343428   6.194   0.535   3.940
10777SOL    MW443429   6.129   0.586   3.914
10778SOL     OW43430   7.219   1.336   4.722
10778SOL    HW243431   7.254   1.318   4.635
10778SOL    HW343432   7.124   1.337   4.709
10778SOL    MW443433   7.211   1.333   4.709
10779SOL     OW43434   6.648   0.984   5.091
10779SOL    HW243435   6.691   1.019   5.169
10779SOL    HW343436   6.631   1.061   5.037
10779SOL    MW443437   6.651   0.999   5.094
10780SOL     OW43438   7.179   0.471   3.964
10780SOL    HW243439   7.171   0.542   3.901
10780SOL    HW343440   7.197   0.515   4.047
10780SOL    MW443441   7.180   0.485   3.966
10781SOL     OW43442   6.039   0.126   4.393
10781SOL    HW243443   6.089   0.169   4.324
10781SOL    HW343444   5.954   0.170   4.393
10781SOL    MW443445   6.036   0.139   4.384
10782SOL     OW43446   5.798   1.188   5.253
10782SOL    HW243447   5.826   1.141   5.331
10782SOL    HW343448   5.719   1.143   5.224
10782SOL    MW443449   5.791   1.177   5.259
10783SOL     OW43450   6.306   0.515   5.220
10783SOL    HW243451   6.278   0.603   5.244
10783SOL    HW343452   6.275   0.459   5.291
10783SOL    MW443453   6.298   0.518   5.232
10784SOL     OW43454   6.848   0.733   3.939
10784SOL    HW243455   6.895   0.751   3.858
10784SOL    HW343456   6.814   0.817   3.967
10784SOL    MW443457   6.850   0.747   3.932
10785SOL     OW43458   5.961   0.911   4.433
10785SOL    HW243459   6.019   0.967   4.381
10785SOL    HW343460   6.005   0.826   4.435
10785SOL    MW443461   5.974   0.908   4.426
10786SOL     OW43462   7.101   0.263   4.270
10786SOL    HW243463   7.023   0.213   4.295
10786SOL    HW343464   7.072   0.354   4.270
10786SOL    MW443465   7.087   0.267   4.273
10787SOL     OW43466   6.583   1.475   3.761
10787SOL    HW243467   6.610   1.553   3.713
10787SOL    HW343468   6.490   1.490   3.780
10787SOL    MW443469   6.574   1.488   3.757
10788SOL     OW43470   7.447   0.998   5.448
10788SOL    HW243471   7.360   0.978   5.484
10788SOL    HW343472   7.501   0.924   5.473
10788SOL    MW443473   7.442   0.987   5.456
10789SOL     OW43474   5.668   1.511   4.605
10789SOL    HW243475   5.700   1.515   4.696
10789SOL    HW343476   5.573   1.519   4.613
10789SOL    MW443477   5.660   1.514   4.618
10790SOL     OW43478   5.623   0.637   4.152
10790SOL    HW243479   5.563   0.609   4.222
10790SOL    HW343480   5.697   0.577   4.158
10790SOL    MW443481   5.625   0.626   4.161
10791SOL     OW43482   7.191   1.849   5.586
10791SOL    HW243483   7.236   1.773   5.551
10791SOL    HW343484   7.229   1.862   5.673
10791SOL    MW443485   7.201   1.842   5.592
10792SOL     OW43486   6.791   1.368   4.312
10792SOL    HW243487   6.814   1.319   4.390
10792SOL    HW343488   6.872   1.410   4.284
10792SOL    MW443489   6.804   1.368   4.319
10793SOL     OW43490   6.003   0.343   4.777
10793SOL    HW243491   6.033   0.257   4.748
10793SOL    HW343492   5.908   0.336   4.780
10793SOL    MW443493   5.995   0.332   4.775
10794SOL     OW43494   6.832   0.552   5.468
10794SOL    HW243495   6.884   0.487   5.421
10794SOL    HW343496   6.790   0.603   5.398
10794SOL    MW443497   6.833   0.549   5.451
10795SOL     OW43498   6.931   0.347   5.329
10795SOL    HW243499   6.838   0.331   5.316
10795SOL    HW343500   6.957   0.285   5.397
10795SOL    MW443501   6.921   0.337   5.336
10796SOL     OW43502   6.146   0.121   4.668
10796SOL    HW243503   6.156   0.030   4.694
10796SOL    HW343504   6.102   0.117   4.583
10796SOL    MW443505   6.142   0.109   4.660
10797SOL     OW43506   6.240   1.736   5.214
10797SOL    HW243507   6.157   1.721   5.259
10797SOL    HW343508   6.299   1.669   5.249
10797SOL    MW443509   6.238   1.726   5.224
10798SOL     OW43510   7.297   0.443   4.839
10798SOL    HW243511   7.230   0.476   4.899
10798SOL    HW343512   7.340   0.521   4.805
10798SOL    MW443513   7.295   0.458   4.843
10799SOL     OW43514   7.475   1.163   4.809
10799SOL    HW243515   7.468   1.103   4.734
10799SOL    HW343516   7.401   1.223   4.798
10799SOL    MW443517   7.465   1.163   4.798
10800SOL     OW43518   6.857   1.025   4.727
10800SOL    HW243519   6.871   0.997   4.818
10800SOL    HW343520   6.943   1.056   4.699
10800SOL    MW443521   6.870   1.026   4.736
10801SOL     OW43522   6.940   0.520   5.006
10801SOL    HW243523   6.961   0.521   4.913
10801SOL    HW343524   6.985   0.442   5.039
10801SOL    MW443525   6.947   0.510   4.998
10802SOL     OW43526   7.433   0.651   5.548
10802SOL    HW243527   7.470   0.596   5.617
10802SOL    HW343528   7.458   0.608   5.466
10802SOL    MW443529   7.440   0.639   5.547
10803SOL     OW43530   6.980   0.949   5.600
10803SOL    HW243531   7.046   0.897   5.554
10803SOL    HW343532   7.000   0.936   5.693
10803SOL    MW443533   6.991   0.940   5.607
10804SOL     OW43534   6.931   0.035   3.948
10804SOL    HW243535   7.005   0.079   3.991
10804SOL    HW343536   6.855   0.089   3.970
10804SOL    MW443537   6.931   0.047   3.956
10805SOL     OW43538   6.991   0.810   4.226
10805SOL    HW243539   6.906   0.780   4.196
10805SOL    HW343540   6.983   0.817   4.321
10805SOL    MW443541   6.979   0.808   4.235
10806SOL     OW43542   6.067   1.273   4.957
10806SOL    HW243543   6.079   1.300   5.048
10806SOL    HW343544   6.048   1.354   4.910
10806SOL    MW443545   6.066   1.288   4.962
10807SOL     OW43546   6.351   0.253   4.780
10807SOL    HW243547   6.324   0.255   4.871
10807SOL    HW343548   6.281   0.205   4.735
10807SOL    MW443549   6.339   0.249   4.787
10808SOL     OW43550   6.205   1.745   4.942
10808SOL    HW243551   6.257   1.822   4.919
10808SOL    HW343552   6.214   1.737   5.037
10808SOL    MW443553   6.214   1.752   4.953
10809SOL     OW43554   7.107   1.330   5.174
10809SOL    HW243555   7.092   1.259   5.237
10809SOL    HW343556   7.153   1.288   5.102
10809SOL    MW443557   7.113   1.314   5.174
10810SOL     OW43558   6.181   1.061   5.291
10810SOL    HW243559   6.218   1.066   5.203
10810SOL    HW343560   6.220   1.134   5.338
10810SOL    MW443561   6.191   1.071   5.286
10811SOL     OW43562   6.361   1.104   5.103
10811SOL    HW243563   6.420   1.050   5.156
10811SOL    HW343564   6.376   1.076   5.013
10811SOL    MW443565   6.371   1.093   5.099
10812SOL     OW43566   6.364   0.476   3.952
10812SOL    HW243567   6.437   0.525   3.915
10812SOL    HW343568   6.380   0.385   3.926
10812SOL    MW443569   6.376   0.471   3.945
10813SOL     OW43570   7.172   1.593   5.275
10813SOL    HW243571   7.214   1.578   5.360
10813SOL    HW343572   7.163   1.506   5.237
10813SOL    MW443573   7.176   1.581   5.282
10814SOL     OW43574   6.832   0.072   4.866
10814SOL    HW243575   6.887   0.081   4.788
10814SOL    HW343576   6.887   0.106   4.937
10814SOL    MW443577   6.846   0.077   4.865
10815SOL     OW43578   5.839   0.985   4.050
10815SOL    HW243579   5.776   1.001   3.979
10815SOL    HW343580   5.786   0.948   4.121
10815SOL    MW443581   5.824   0.982   4.050
10816SOL     OW43582   6.195   1.339   3.909
10816SOL    HW243583   6.210   1.315   4.001
10816SOL    HW343584   6.103   1.317   3.893
10816SOL    MW443585   6.185   1.332   3.919
10817SOL     OW43586   6.734   1.570   4.061
10817SOL    HW243587   6.742   1.488   4.012
10817SOL    HW343588   6.653   1.609   4.028
10817SOL    MW443589   6.724   1.565   4.051
10818SOL     OW43590   5.993   1.728   4.630
10818SOL    HW243591   5.997   1.639   4.665
10818SOL    HW343592   6.019   1.719   4.539
10818SOL    MW443593   5.996   1.716   4.622
10819SOL     OW43594   6.610   1.206   4.873
10819SOL    HW243595   6.542   1.140   4.889
10819SOL    HW343596   6.628   1.200   4.780
10819SOL    MW443597   6.603   1.197   4.864
10820SOL     OW43598   5.699   1.481   5.124
10820SOL    HW243599   5.689   1.439   5.210
10820SOL    HW343600   5.620   1.534   5.114
10820SOL    MW443601   5.688   1.482   5.135
10821SOL     OW43602   6.603   0.345   4.694
10821SOL    HW243603   6.533   0.297   4.739
10821SOL    HW343604   6.635   0.408   4.758
10821SOL    MW443605   6.598   0.347   4.708
10822SOL     OW43606   6.254   0.781   5.314
10822SOL    HW243607   6.247   0.876   5.302
10822SOL    HW343608   6.263   0.770   5.409
10822SOL    MW443609   6.255   0.793   5.324
10823SOL     OW43610   5.975   1.296   5.572
10823SOL    HW243611   6.047   1.298   5.509
10823SOL    HW343612   5.945   1.205   5.571
10823SOL    MW443613   5.980   1.285   5.564
10824SOL     OW43614   7.059   0.059   5.039
10824SOL    HW243615   7.130   0.005   5.003
10824SOL    HW343616   7.058   0.038   5.132
10824SOL    MW443617   7.068   0.050   5.047
10825SOL     OW43618   7.259   1.589   5.523
10825SOL    HW243619   7.232   1.586   5.614
10825SOL    HW343620   7.355   1.593   5.526
10825SOL    MW443621   7.269   1.589   5.535
10826SOL     OW43622   6.070   0.451   4.507
10826SOL    HW243623   6.141   0.399   4.470
10826SOL    HW343624   6.056   0.416   4.594
10826SOL    MW443625   6.078   0.440   4.514
10827SOL     OW43626   5.625   1.786   5.579
10827SOL    HW243627   5.675   1.764   5.501
10827SOL    HW343628   5.633   1.881   5.587
10827SOL    MW443629   5.633   1.795   5.570
10828SOL     OW43630   6.386   1.544   4.583
10828SOL    HW243631   6.314   1.481   4.596
10828SOL    HW343632   6.347   1.629   4.601
10828SOL    MW443633   6.370   1.547   4.586
10829SOL     OW43634   6.706   0.392   4.231
10829SOL    HW243635   6.728   0.329   4.163
10829SOL    HW343636   6.611   0.384   4.242
10829SOL    MW443637   6.696   0.383   4.223
10830SOL     OW43638   5.791   0.082   4.163
10830SOL    HW243639   5.862   0.103   4.102
10830SOL    HW343640   5.745   0.010   4.121
10830SOL    MW443641   5.795   0.076   4.149
10831SOL     OW43642   5.622   0.549   5.306
10831SOL    HW243643   5.686   0.615   5.281
10831SOL    HW343644   5.541   0.576   5.263
10831SOL    MW443645   5.620   0.561   5.298
10832SOL     OW43646   7.360   1.456   4.263
10832SOL    HW243647   7.330   1.389   4.324
10832SOL    HW343648   7.454   1.462   4.277
10832SOL    MW443649   7.368   1.448   4.273
10833SOL     OW43650   6.916   1.133   4.193
10833SOL    HW243651   6.888   1.219   4.226
10833SOL    HW343652   6.944   1.149   4.103
10833SOL    MW443653   6.916   1.147   4.185
10834SOL     OW43654   6.578   0.053   4.246
10834SOL    HW243655   6.615   0.112   4.311
10834SOL    HW343656   6.555   0.109   4.172
10834SOL    MW443657   6.579   0.068   4.245
10835SOL     OW43658   7.431   0.935   4.668
10835SOL    HW243659   7.422   0.967   4.579
10835SOL    HW343660   7.384   0.851   4.668
10835SOL    MW443661   7.424   0.928   4.658
10836SOL     OW43662   5.807   0.775   5.247
10836SOL    HW243663   5.828   0.844   5.185
10836SOL    HW343664   5.887   0.722   5.252
10836SOL    MW443665   5.820   0.776   5.241
10837SOL     OW43666   7.343   0.866   4.369
10837SOL    HW243667   7.437   0.855   4.357
10837SOL    HW343668   7.319   0.938   4.310
10837SOL    MW443669   7.353   0.874   4.360
10838SOL     OW43670   5.792   0.790   5.514
10838SOL    HW243671   5.718   0.734   5.540
10838SOL    HW343672   5.787   0.793   5.419
10838SOL    MW443673   5.781   0.783   5.504
10839SOL     OW43674   5.958   0.077   4.964
10839SOL    HW243675   6.001   0.161   4.984
10839SOL    HW343676   6.031   0.015   4.957
10839SOL    MW443677   5.973   0.080   4.965
10840SOL     OW43678   5.999   0.744   4.142
10840SOL    HW243679   5.999   0.839   4.127
10840SOL    HW343680   6.076   0.728   4.196
10840SOL    MW443681   6.009   0.755   4.147
10841SOL     OW43682   6.775   0.603   5.206
10841SOL    HW243683   6.811   0.576   5.122
10841SOL    HW343684   6.688   0.637   5.185
10841SOL    MW443685   6.769   0.604   5.193
10842SOL     OW43686   5.758   0.475   4.431
10842SOL    HW243687   5.820   0.482   4.504
10842SOL    HW343688   5.758   0.382   4.408
10842SOL    MW443689   5.766   0.464   4.438
10843SOL     OW43690   7.305   1.815   3.963
10843SOL    HW243691   7.372   1.848   3.903
10843SOL    HW343692   7.262   1.894   3.997
10843SOL    MW443693   7.307   1.830   3.959
10844SOL     OW43694   6.440   0.736   4.915
10844SOL    HW243695   6.398   0.654   4.891
10844SOL    HW343696   6.441   0.735   5.011
10844SOL    MW443697   6.433   0.725   4.924
10845SOL     OW43698   7.111   1.869   5.314
10845SOL    HW243699   7.114   1.775   5.297
10845SOL    HW343700   7.134   1.877   5.406
10845SOL    MW443701   7.114   1.857   5.324
10846SOL     OW43702   6.244   0.206   5.020
10846SOL    HW243703   6.175   0.269   5.041
10846SOL    HW343704   6.271   0.170   5.105
10846SOL    MW443705   6.238   0.209   5.033
10847SOL     OW43706   5.627   1.047   3.889
10847SOL    HW243707   5.596   1.112   3.952
10847SOL    HW343708   5.576   0.969   3.908
10847SOL    MW443709   5.617   1.044   3.899
10848SOL     OW43710   7.039   0.059   4.637
10848SOL    HW243711   7.127   0.068   4.674
10848SOL    HW343712   7.049   0.000   4.563
10848SOL    MW443713   7.053   0.053   4.631
10849SOL     OW43714   7.071   0.798   4.481
10849SOL    HW243715   7.151   0.813   4.430
10849SOL    HW343716   7.064   0.703   4.487
10849SOL    MW443717   7.080   0.787   4.476
10850SOL     OW43718   6.211   1.847   3.831
10850SOL    HW243719   6.116   1.847   3.823
10850SOL    HW343720   6.227   1.793   3.909
10850SOL    MW443721   6.201   1.841   3.840
10851SOL     OW43722   6.521   0.724   5.178
10851SOL    HW243723   6.590   0.791   5.175
10851SOL    HW343724   6.454   0.762   5.234
10851SOL    MW443725   6.522   0.737   5.185
10852SOL     OW43726   5.939   1.024   5.426
10852SOL    HW243727   5.893   0.940   5.428
10852SOL    HW343728   5.996   1.018   5.350
10852SOL    MW443729   5.941   1.012   5.418
10853SOL     OW43730   7.056   0.667   3.747
10853SOL    HW243731   6.984   0.643   3.689
10853SOL    HW343732   7.122   0.704   3.689
10853SOL    MW443733   7.055   0.669   3.732
10854SOL     OW43734   6.190   1.399   4.427
10854SOL    HW243735   6.255   1.332   4.448
10854SOL    HW343736   6.242   1.476   4.404
10854SOL    MW443737   6.205   1.401   4.426
10855SOL     OW43738   6.451   0.564   4.557
10855SOL    HW243739   6.391   0.582   4.629
10855SOL    HW343740   6.485   0.476   4.576
10855SOL    MW443741   6.447   0.554   4.570
10856SOL     OW43742   7.392   0.063   5.226
10856SOL    HW243743   7.313   0.109   5.254
10856SOL    HW343744   7.427   0.117   5.155
10856SOL    MW443745   7.386   0.076   5.220
10857SOL     OW43746   6.676   1.147   4.576
10857SOL    HW243747   6.768   1.128   4.594
10857SOL    HW343748   6.649   1.077   4.516
10857SOL    MW443749   6.684   1.135   4.570
10858SOL     OW43750   6.469   0.967   3.931
10858SOL    HW243751   6.455   0.879   3.896
10858SOL    HW343752   6.420   1.024   3.872
10858SOL    MW443753   6.461   0.962   3.919
10859SOL     OW43754   6.950   1.385   4.672
10859SOL    HW243755   6.923   1.469   4.637
10859SOL    HW343756   6.910   1.380   4.759
10859SOL    MW443757   6.943   1.394   4.678
10860SOL     OW43758   6.869   1.333   4.940
10860SOL    HW243759   6.880   1.300   5.029
10860SOL    HW343760   6.788   1.292   4.909
10860SOL    MW443761   6.859   1.325   4.946
10861SOL     OW43762   5.882   0.691   4.710
10861SOL    HW243763   5.832   0.690   4.791
10861SOL    HW343764   5.902   0.783   4.694
10861SOL    MW443765   5.878   0.703   4.718
10862SOL     OW43766   6.949   1.455   5.472
10862SOL    HW243767   6.949   1.549   5.488
10862SOL    HW343768   6.994   1.445   5.388
10862SOL    MW443769   6.955   1.465   5.463
10863SOL     OW43770   7.188   0.173   4.033
10863SOL    HW243771   7.181   0.177   4.128
10863SOL    HW343772   7.200   0.264   4.006
10863SOL    MW443773   7.189   0.186   4.041
10864SOL     OW43774   6.477   0.736   4.147
10864SOL    HW243775   6.457   0.722   4.054
10864SOL    HW343776   6.570   0.715   4.154
10864SOL    MW443777   6.487   0.731   4.136
10865SOL     OW43778   5.804   0.359   5.451
10865SOL    HW243779   5.761   0.418   5.388
10865SOL    HW343780   5.872   0.414   5.491
10865SOL    MW443781   5.808   0.374   5.448
10866SOL     OW43782   6.916   0.979   4.996
10866SOL    HW243783   6.979   0.976   5.069
10866SOL    HW343784   6.832   0.997   5.038
10866SOL    MW443785   6.912   0.981   5.011
10867SOL     OW43786   6.460   1.694   4.185
10867SOL    HW243787   6.518   1.765   4.212
10867SOL    HW343788   6.483   1.622   4.243
10867SOL    MW443789   6.471   1.694   4.196
10868SOL     OW43790   7.255   0.156   4.775
10868SOL    HW243791   7.300   0.074   4.794
10868SOL    HW343792   7.275   0.212   4.851
10868SOL    MW443793   7.265   0.152   4.787
10869SOL     OW43794   5.703  -0.001   4.874
10869SOL    HW243795   5.694   0.000   4.779
10869SOL    HW343796   5.797   0.011   4.889
10869SOL    MW443797   5.715   0.002   4.865
10870SOL     OW43798   7.340   1.192   4.494
10870SOL    HW243799   7.319   1.138   4.417
10870SOL    HW343800   7.436   1.190   4.498
10870SOL    MW443801   7.349   1.185   4.483
10871SOL     OW43802   6.032   1.337   5.237
10871SOL    HW243803   5.953   1.287   5.260
10871SOL    HW343804   6.102   1.296   5.287
10871SOL    MW443805   6.030   1.325   5.247
10872SOL     OW43806   5.916   0.126   3.920
10872SOL    HW243807   5.845   0.181   3.888
10872SOL    HW343808   5.958   0.092   3.841
10872SOL    MW443809   5.912   0.128   3.906
10873SOL     OW43810   7.040   0.623   4.756
10873SOL    HW243811   6.963   0.669   4.722
10873SOL    HW343812   7.097   0.692   4.790
10873SOL    MW443813   7.037   0.638   4.756
10874SOL     OW43814   5.672   0.225   3.769
10874SOL    HW243815   5.639   0.304   3.813
10874SOL    HW343816   5.727   0.258   3.698
10874SOL    MW443817   5.675   0.239   3.766
10875SOL     OW43818   5.706   1.482   3.958
10875SOL    HW243819   5.723   1.566   4.000
10875SOL    HW343820   5.741   1.491   3.870
10875SOL    MW443821   5.711   1.495   3.952
10876SOL     OW43822   6.978   1.571   4.175
10876SOL    HW243823   7.041   1.561   4.104
10876SOL    HW343824   6.895   1.591   4.130
10876SOL    MW443825   6.975   1.572   4.160
10877SOL     OW43826   7.341   0.839   5.862
10877SOL    HW243827   7.382   0.781   5.927
10877SOL    HW343828   7.248   0.831   5.879
10877SOL    MW443829   7.335   0.831   5.872
10878SOL     OW43830   7.207   0.771   6.857
10878SOL    HW243831   7.162   0.838   6.908
10878SOL    HW343832   7.295   0.807   6.843
10878SOL    MW443833   7.213   0.784   6.861
10879SOL     OW43834   6.135   1.022   6.091
10879SOL    HW243835   6.225   0.997   6.075
10879SOL    HW343836   6.131   1.115   6.068
10879SOL    MW443837   6.147   1.031   6.086
10880SOL     OW43838   7.251   1.725   6.233
10880SOL    HW243839   7.263   1.671   6.311
10880SOL    HW343840   7.288   1.673   6.162
10880SOL    MW443841   7.257   1.710   6.234
10881SOL     OW43842   6.630   1.610   7.234
10881SOL    HW243843   6.671   1.646   7.155
10881SOL    HW343844   6.665   1.521   7.241
10881SOL    MW443845   6.641   1.603   7.225
10882SOL     OW43846   7.187   1.165   6.838
10882SOL    HW243847   7.108   1.130   6.796
10882SOL    HW343848   7.214   1.237   6.782
10882SOL    MW443849   7.180   1.170   6.825
10883SOL     OW43850   6.419   0.478   6.104
10883SOL    HW243851   6.394   0.566   6.132
10883SOL    HW343852   6.416   0.481   6.008
10883SOL    MW443853   6.415   0.490   6.096
10884SOL     OW43854   5.861   0.506   6.032
10884SOL    HW243855   5.893   0.594   6.014
10884SOL    HW343856   5.849   0.504   6.127
10884SOL    MW443857   5.864   0.518   6.044
10885SOL     OW43858   5.939   0.919   6.933
10885SOL    HW243859   6.002   0.866   6.884
10885SOL    HW343860   5.920   0.993   6.876
10885SOL    MW443861   5.945   0.921   6.920
10886SOL     OW43862   6.260   0.261   6.119
10886SOL    HW243863   6.318   0.337   6.121
10886SOL    HW343864   6.195   0.282   6.052
10886SOL    MW443865   6.259   0.273   6.110
10887SOL     OW43866   6.347   1.188   6.294
10887SOL    HW243867   6.427   1.191   6.346
10887SOL    HW343868   6.375   1.155   6.208
10887SOL    MW443869   6.361   1.184   6.289
10888SOL     OW43870   6.372   1.529   7.197
10888SOL    HW243871   6.456   1.555   7.236
10888SOL    HW343872   6.396   1.473   7.123
10888SOL    MW443873   6.386   1.525   7.192
10889SOL     OW43874   6.124   0.692   6.285
10889SOL    HW243875   6.109   0.612   6.336
10889SOL    HW343876   6.206   0.727   6.319
10889SOL    MW443877   6.132   0.684   6.297
10890SOL     OW43878   6.461   1.378   6.970
10890SOL    HW243879   6.425   1.444   6.910
10890SOL    HW343880   6.389   1.316   6.983
10890SOL    MW443881   6.447   1.378   6.964
10891SOL     OW43882   6.266   0.518   6.662
10891SOL    HW243883   6.172   0.514   6.680
10891SOL    HW343884   6.296   0.427   6.671
10891SOL    MW443885   6.257   0.506   6.665
10892SOL     OW43886   6.012   0.932   6.566
10892SOL    HW243887   5.967   0.939   6.482
10892SOL    HW343888   5.992   1.015   6.610
10892SOL    MW443889   6.004   0.944   6.560
10893SOL     OW43890   5.709   1.778   6.441
10893SOL    HW243891   5.798   1.770   6.476
10893SOL    HW343892   5.673   1.690   6.446
10893SOL    MW443893   5.716   1.765   6.446
10894SOL     OW43894   6.974   1.170   5.810
10894SOL    HW243895   6.892   1.206   5.776
10894SOL    HW343896   7.042   1.213   5.759
10894SOL    MW443897   6.972   1.180   5.798
10895SOL     OW43898   5.973   1.305   6.476
10895SOL    HW243899   5.949   1.358   6.552
10895SOL    HW343900   6.029   1.363   6.424
10895SOL    MW443901   5.977   1.320   6.479
10896SOL     OW43902   6.535   0.949   6.286
10896SOL    HW243903   6.449   0.936   6.326
10896SOL    HW343904   6.588   0.876   6.318
10896SOL    MW443905   6.531   0.938   6.295
10897SOL     OW43906   5.943   1.601   7.071
10897SOL    HW243907   5.851   1.577   7.056
10897SOL    HW343908   5.987   1.518   7.088
10897SOL    MW443909   5.937   1.586   7.070
10898SOL     OW43910   6.526   1.311   6.003
10898SOL    HW243911   6.503   1.373   6.071
10898SOL    HW343912   6.483   1.229   6.029
10898SOL    MW443913   6.518   1.307   6.014
10899SOL     OW43914   7.399   0.312   6.459
10899SOL    HW243915   7.336   0.292   6.528
10899SOL    HW343916   7.389   0.241   6.396
10899SOL    MW443917   7.389   0.299   6.460
10900SOL     OW43918   6.023   0.284   5.971
10900SOL    HW243919   5.997   0.246   5.887
10900SOL    HW343920   5.960   0.354   5.987
10900SOL    MW443921   6.012   0.287   5.962
10901SOL     OW43922   5.858   1.245   6.008
10901SOL    HW243923   5.806   1.313   5.964
10901SOL    HW343924   5.855   1.171   5.948
10901SOL    MW443925   5.850   1.244   5.995
10902SOL     OW43926   6.520   1.708   5.786
10902SOL    HW243927   6.475   1.724   5.869
10902SOL    HW343928   6.451   1.673   5.728
10902SOL    MW443929   6.506   1.705   5.788
10903SOL     OW43930   7.455   0.481   5.761
10903SOL    HW243931   7.364   0.483   5.789
10903SOL    HW343932   7.500   0.543   5.819
10903SOL    MW443933   7.448   0.489   5.771
10904SOL     OW43934   7.200   1.084   6.111
10904SOL    HW243935   7.110   1.084   6.146
10904SOL    HW343936   7.193   1.130   6.028
10904SOL    MW443937   7.187   1.090   6.105
10905SOL     OW43938   7.000   0.719   7.183
10905SOL    HW243939   7.069   0.657   7.160
10905SOL    HW343940   6.925   0.693   7.130
10905SOL    MW443941   7.000   0.706   7.174
10906SOL     OW43942   5.741   1.599   6.735
10906SOL    HW243943   5.724   1.545   6.812
10906SOL    HW343944   5.729   1.689   6.765
10906SOL    MW443945   5.738   1.603   6.749
10907SOL     OW43946   6.736   1.106   7.175
10907SOL    HW243947   6.721   1.199   7.160
10907SOL    HW343948   6.831   1.096   7.175
10907SOL    MW443949   6.745   1.116   7.172
10908SOL     OW43950   6.532   0.530   7.376
10908SOL    HW243951   6.622   0.531   7.343
10908SOL    HW343952   6.491   0.455   7.334
10908SOL    MW443953   6.538   0.520   7.367
10909SOL     OW43954   7.107   1.062   6.503
10909SOL    HW243955   7.110   0.996   6.434
10909SOL    HW343956   7.192   1.105   6.499
10909SOL    MW443957   7.119   1.058   6.494
10910SOL     OW43958   6.727   0.665   6.072
10910SOL    HW243959   6.753   0.689   5.983
10910SOL    HW343960   6.709   0.572   6.068
10910SOL    MW443961   6.729   0.657   6.059
10911SOL     OW43962   7.392   1.285   5.923
10911SOL    HW243963   7.348   1.326   5.998
10911SOL    HW343964   7.449   1.353   5.888
10911SOL    MW443965   7.394   1.299   5.928
10912SOL     OW43966   6.312   0.334   7.326
10912SOL    HW243967   6.322   0.260   7.266
10912SOL    HW343968   6.348   0.303   7.409
10912SOL    MW443969   6.318   0.320   7.328
10913SOL     OW43970   6.048   1.701   6.241
10913SOL    HW243971   6.080   1.789   6.219
10913SOL    HW343972   6.001   1.673   6.163
10913SOL    MW443973   6.047   1.709   6.228
10914SOL     OW43974   7.432   0.063   6.290
10914SOL    HW243975   7.486   0.014   6.352
10914SOL    HW343976   7.375  -0.003   6.251
10914SOL    MW443977   7.432   0.047   6.292
10915SOL     OW43978   5.764   1.761   5.818
10915SOL    HW243979   5.793   1.851   5.810
10915SOL    HW343980   5.714   1.744   5.739
10915SOL    MW443981   5.762   1.769   5.807
10916SOL     OW43982   6.551   0.016   6.703
10916SOL    HW243983   6.510   0.094   6.665
10916SOL    HW343984   6.645   0.034   6.698
10916SOL    MW443985   6.557   0.028   6.698
10917SOL     OW43986   7.168   1.569   5.789
10917SOL    HW243987   7.216   1.638   5.835
10917SOL    HW343988   7.089   1.613   5.758
10917SOL    MW443989   7.163   1.583   5.792
10918SOL     OW43990   6.566   0.694   5.733
10918SOL    HW243991   6.568   0.641   5.654
10918SOL    HW343992   6.654   0.731   5.739
10918SOL    MW443993   6.578   0.693   5.722
10919SOL     OW43994   7.180   0.620   6.069
10919SOL    HW243995   7.219   0.620   6.156
10919SOL    HW343996   7.121   0.696   6.069
10919SOL    MW443997   7.177   0.631   6.080
10920SOL     OW43998   6.497   0.987   7.198
10920SOL    HW243999   6.474   0.967   7.288
10920SOL    HW344000   6.582   1.031   7.203
10920SOL    MW444001   6.504   0.990   7.210
10921SOL     OW44002   6.577   0.124   6.958
10921SOL    HW244003   6.583   0.086   6.871
10921SOL    HW344004   6.566   0.218   6.943
10921SOL    MW444005   6.578   0.132   6.946
10922SOL     OW44006   6.666   0.613   6.792
10922SOL    HW244007   6.741   0.642   6.739
10922SOL    HW344008   6.598   0.678   6.776
10922SOL    MW444009   6.667   0.625   6.782
10923SOL     OW44010   7.216   0.581   7.069
10923SOL    HW244011   7.197   0.490   7.048
10923SOL    HW344012   7.194   0.630   6.990
10923SOL    MW444013   7.211   0.574   7.056
10924SOL     OW44014   7.358   1.675   6.973
10924SOL    HW244015   7.286   1.637   7.024
10924SOL    HW344016   7.375   1.760   7.014
10924SOL    MW444017   7.352   1.680   6.985
10925SOL     OW44018   6.663   0.319   7.175
10925SOL    HW244019   6.629   0.358   7.094
10925SOL    HW344020   6.641   0.227   7.168
10925SOL    MW444021   6.656   0.312   7.165
10926SOL     OW44022   7.072   1.133   7.251
10926SOL    HW244023   7.154   1.174   7.281
10926SOL    HW344024   7.035   1.095   7.331
10926SOL    MW444025   7.078   1.134   7.266
10927SOL     OW44026   7.367   0.506   6.235
10927SOL    HW244027   7.456   0.475   6.252
10927SOL    HW344028   7.310   0.446   6.283
10927SOL    MW444029   7.370   0.494   6.244
10928SOL     OW44030   5.793   0.220   6.264
10928SOL    HW244031   5.784   0.160   6.190
10928SOL    HW344032   5.726   0.191   6.327
10928SOL    MW444033   5.783   0.207   6.262
10929SOL     OW44034   6.736   1.313   5.825
10929SOL    HW244035   6.686   1.315   5.907
10929SOL    HW344036   6.670   1.331   5.757
10929SOL    MW444037   6.722   1.315   5.827
10930SOL     OW44038   5.740   0.393   6.627
10930SOL    HW244039   5.712   0.484   6.636
10930SOL    HW344040   5.677   0.354   6.566
10930SOL    MW444041   5.727   0.399   6.621
10931SOL     OW44042   6.199   1.731   5.933
10931SOL    HW244043   6.120   1.689   5.966
10931SOL    HW344044   6.265   1.714   6.000
10931SOL    MW444045   6.198   1.723   5.946
10932SOL     OW44046   7.327   1.251   7.330
10932SOL    HW244047   7.377   1.177   7.362
10932SOL    HW344048   7.273   1.278   7.405
10932SOL    MW444049   7.327   1.245   7.343
10933SOL     OW44050   6.335   1.146   5.640
10933SOL    HW244051   6.257   1.092   5.627
10933SOL    HW344052   6.306   1.219   5.693
10933SOL    MW444053   6.321   1.148   5.645
10934SOL     OW44054   7.461   0.886   6.832
10934SOL    HW244055   7.477   0.924   6.745
10934SOL    HW344056   7.495   0.952   6.893
10934SOL    MW444057   7.468   0.899   6.828
10935SOL     OW44058   7.253   1.595   6.501
10935SOL    HW244059   7.282   1.662   6.562
10935SOL    HW344060   7.234   1.519   6.556
10935SOL    MW444061   7.255   1.595   6.516
10936SOL     OW44062   6.916   1.662   5.708
10936SOL    HW244063   6.842   1.625   5.758
10936SOL    HW344064   6.924   1.752   5.741
10936SOL    MW444065   6.907   1.669   5.720
10937SOL     OW44066   5.724   0.668   6.797
10937SOL    HW244067   5.786   0.698   6.863
10937SOL    HW344068   5.658   0.737   6.791
10937SOL    MW444069   5.723   0.681   6.804
10938SOL     OW44070   7.140   1.336   5.650
10938SOL    HW244071   7.087   1.385   5.586
10938SOL    HW344072   7.171   1.402   5.711
10938SOL    MW444073   7.138   1.350   5.648
10939SOL     OW44074   6.365   0.225   5.705
10939SOL    HW244075   6.313   0.145   5.693
10939SOL    HW344076   6.452   0.202   5.673
10939SOL    MW444077   6.368   0.211   5.699
10940SOL     OW44078   5.819   1.777   7.249
10940SOL    HW244079   5.793   1.845   7.187
10940SOL    HW344080   5.867   1.714   7.197
10940SOL    MW444081   5.821   1.777   7.235
10941SOL     OW44082   5.871   1.096   6.756
10941SOL    HW244083   5.924   1.171   6.781
10941SOL    HW344084   5.790   1.134   6.722
10941SOL    MW444085   5.867   1.111   6.756
10942SOL     OW44086   5.726   0.865   6.162
10942SOL    HW244087   5.817   0.880   6.189
10942SOL    HW344088   5.729   0.786   6.108
10942SOL    MW444089   5.738   0.857   6.160
10943SOL     OW44090   5.962   0.573   7.416
10943SOL    HW244091   5.909   0.653   7.423
10943SOL    HW344092   6.032   0.585   7.481
10943SOL    MW444093   5.964   0.586   7.424
10944SOL     OW44094   6.348   0.123   7.123
10944SOL    HW244095   6.325   0.031   7.125
10944SOL    HW344096   6.434   0.125   7.080
10944SOL    MW444097   6.355   0.113   7.119
10945SOL     OW44098   6.032   0.647   7.162
10945SOL    HW244099   6.112   0.697   7.148
10945SOL    HW344100   6.023   0.641   7.257
10945SOL    MW444101   6.041   0.653   7.172
10946SOL     OW44102   6.353   1.797   6.536
10946SOL    HW244103   6.442   1.812   6.566
10946SOL    HW344104   6.348   1.844   6.452
10946SOL    MW444105   6.363   1.805   6.529
10947SOL     OW44106   7.009   0.172   7.433
10947SOL    HW244107   7.065   0.099   7.459
10947SOL    HW344108   6.979   0.210   7.515
10947SOL    MW444109   7.013   0.167   7.446
10948SOL     OW44110   5.734   1.477   6.201
10948SOL    HW244111   5.706   1.516   6.283
10948SOL    HW344112   5.754   1.386   6.223
10948SOL    MW444113   5.732   1.469   6.214
10949SOL     OW44114   6.567   1.520   6.236
10949SOL    HW244115   6.650   1.474   6.220
10949SOL    HW344116   6.557   1.519   6.332
10949SOL    MW444117   6.577   1.513   6.246
10950SOL     OW44118   7.399   0.665   6.550
10950SOL    HW244119   7.488   0.695   6.532
10950SOL    HW344120   7.379   0.605   6.479
10950SOL    MW444121   7.408   0.662   6.539
10951SOL     OW44122   7.250   0.844   7.430
10951SOL    HW244123   7.305   0.768   7.411
10951SOL    HW344124   7.252   0.852   7.525
10951SOL    MW444125   7.258   0.835   7.438
10952SOL     OW44126   6.300   1.577   5.641
10952SOL    HW244127   6.240   1.646   5.611
10952SOL    HW344128   6.245   1.519   5.694
10952SOL    MW444129   6.284   1.579   5.643
10953SOL     OW44130   6.738   0.222   5.864
10953SOL    HW244131   6.671   0.198   5.801
10953SOL    HW344132   6.803   0.271   5.813
10953SOL    MW444133   6.738   0.224   5.849
10954SOL     OW44134   6.545   0.406   6.949
10954SOL    HW244135   6.464   0.447   6.977
10954SOL    HW344136   6.592   0.474   6.901
10954SOL    MW444137   6.540   0.421   6.947
10955SOL     OW44138   6.805   0.744   6.572
10955SOL    HW244139   6.818   0.838   6.582
10955SOL    HW344140   6.766   0.734   6.486
10955SOL    MW444141   6.801   0.755   6.562
10956SOL     OW44142   6.257   0.939   6.376
10956SOL    HW244143   6.168   0.930   6.409
10956SOL    HW344144   6.261   1.029   6.344
10956SOL    MW444145   6.246   0.950   6.376
10957SOL     OW44146   7.056   0.522   6.371
10957SOL    HW244147   7.001   0.443   6.370
10957SOL    HW344148   7.038   0.563   6.455
10957SOL    MW444149   7.046   0.517   6.380
10958SOL     OW44150   6.027   0.209   7.188
10958SOL    HW244151   5.948   0.227   7.240
10958SOL    HW344152   6.022   0.271   7.115
10958SOL    MW444153   6.017   0.219   7.185
10959SOL     OW44154   6.675   0.726   6.328
10959SOL    HW244155   6.612   0.658   6.352
10959SOL    HW344156   6.695   0.707   6.236
10959SOL    MW444157   6.669   0.713   6.320
10960SOL     OW44158   5.931   1.621   6.030
10960SOL    HW244159   5.892   1.668   5.956
10960SOL    HW344160   5.865   1.556   6.055
10960SOL    MW444161   5.918   1.619   6.024
10961SOL     OW44162   6.423   1.030   6.054
10961SOL    HW244163   6.425   1.004   5.961
10961SOL    HW344164   6.481   0.967   6.097
10961SOL    MW444165   6.431   1.019   6.048
10962SOL     OW44166   6.976   1.590   6.826
10962SOL    HW244167   6.901   1.636   6.864
10962SOL    HW344168   6.958   1.497   6.843
10962SOL    MW444169   6.965   1.584   6.834
10963SOL     OW44170   6.980   1.798   6.256
10963SOL    HW244171   6.923   1.751   6.195
10963SOL    HW344172   7.066   1.759   6.243
10963SOL    MW444173   6.983   1.789   6.246
10964SOL     OW44174   6.933   0.274   6.387
10964SOL    HW244175   6.961   0.206   6.448
10964SOL    HW344176   6.847   0.245   6.357
10964SOL    MW444177   6.926   0.261   6.391
10965SOL     OW44178   5.738   1.208   6.321
10965SOL    HW244179   5.802   1.240   6.384
10965SOL    HW344180   5.787   1.144   6.269
10965SOL    MW444181   5.753   1.204   6.322
10966SOL     OW44182   6.238   1.284   7.303
10966SOL    HW244183   6.286   1.367   7.290
10966SOL    HW344184   6.295   1.232   7.359
10966SOL    MW444185   6.252   1.288   7.309
10967SOL     OW44186   5.814   1.526   7.443
10967SOL    HW244187   5.870   1.450   7.458
10967SOL    HW344188   5.763   1.504   7.365
10967SOL    MW444189   5.814   1.513   7.434
10968SOL     OW44190   6.913   0.378   5.722
10968SOL    HW244191   6.886   0.444   5.658
10968SOL    HW344192   6.983   0.421   5.772
10968SOL    MW444193   6.918   0.391   5.719
10969SOL     OW44194   7.086   0.934   5.864
10969SOL    HW244195   7.053   1.023   5.854
10969SOL    HW344196   7.051   0.905   5.949
10969SOL    MW444197   7.076   0.943   5.875
10970SOL     OW44198   6.699   1.363   7.052
10970SOL    HW244199   6.610   1.369   7.020
10970SOL    HW344200   6.743   1.442   7.020
10970SOL    MW444201   6.694   1.373   7.044
10971SOL     OW44202   5.992   0.031   7.394
10971SOL    HW244203   5.920  -0.004   7.342
10971SOL    HW344204   6.050   0.072   7.329
10971SOL    MW444205   5.990   0.032   7.379
10972SOL     OW44206   6.016   1.521   6.693
10972SOL    HW244207   6.061   1.583   6.750
10972SOL    HW344208   5.923   1.540   6.706
10972SOL    MW444209   6.009   1.531   6.700
10973SOL     OW44210   7.456   1.050   7.047
10973SOL    HW244211   7.371   1.063   7.006
10973SOL    HW344212   7.436   1.014   7.134
10973SOL    MW444213   7.443   1.046   7.052
10974SOL     OW44214   6.438   1.589   6.801
10974SOL    HW244215   6.462   1.578   6.710
10974SOL    HW344216   6.361   1.646   6.799
10974SOL    MW444217   6.430   1.594   6.790
10975SOL     OW44218   6.080   0.972   5.656
10975SOL    HW244219   6.003   0.985   5.712
10975SOL    HW344220   6.044   0.936   5.575
10975SOL    MW444221   6.066   0.968   5.653
10976SOL     OW44222   6.733   0.945   5.899
10976SOL    HW244223   6.643   0.966   5.874
10976SOL    HW344224   6.760   1.018   5.955
10976SOL    MW444225   6.725   0.957   5.902
10977SOL     OW44226   6.233   1.294   6.591
10977SOL    HW244227   6.226   1.273   6.685
10977SOL    HW344228   6.151   1.262   6.554
10977SOL    MW444229   6.221   1.288   6.598
10978SOL     OW44230   7.097   0.304   6.993
10978SOL    HW244231   7.044   0.306   7.073
10978SOL    HW344232   7.082   0.217   6.956
10978SOL    MW444233   7.089   0.294   6.998
10979SOL     OW44234   7.433   0.228   6.866
10979SOL    HW244235   7.414   0.295   6.801
10979SOL    HW344236   7.490   0.166   6.821
10979SOL    MW444237   7.437   0.229   6.852
10980SOL     OW44238   5.679   1.386   7.254
10980SOL    HW244239   5.723   1.319   7.200
10980SOL    HW344240   5.594   1.348   7.274
10980SOL    MW444241   5.674   1.372   7.250
10981SOL     OW44242   6.362   0.061   6.306
10981SOL    HW244243   6.291   0.122   6.288
10981SOL    HW344244   6.413   0.058   6.225
10981SOL    MW444245   6.358   0.067   6.293
10982SOL     OW44246   6.120   1.301   6.055
10982SOL    HW244247   6.113   1.333   6.145
10982SOL    HW344248   6.030   1.285   6.027
10982SOL    MW444249   6.108   1.303   6.062
10983SOL     OW44250   6.715   1.694   6.964
10983SOL    HW244251   6.635   1.679   6.914
10983SOL    HW344252   6.722   1.789   6.971
10983SOL    MW444253   6.706   1.705   6.958
10984SOL     OW44254   6.829   1.659   6.454
10984SOL    HW244255   6.876   1.732   6.413
10984SOL    HW344256   6.750   1.698   6.490
10984SOL    MW444257   6.824   1.674   6.453
10985SOL     OW44258   7.237   1.754   6.729
10985SOL    HW244259   7.280   1.724   6.809
10985SOL    HW344260   7.156   1.702   6.726
10985SOL    MW444261   7.232   1.743   6.739
10986SOL     OW44262   6.322   0.718   7.436
10986SOL    HW244263   6.392   0.660   7.408
10986SOL    HW344264   6.265   0.663   7.491
10986SOL    MW444265   6.324   0.705   7.440
10987SOL     OW44266   7.109   0.930   7.069
10987SOL    HW244267   7.114   0.983   7.149
10987SOL    HW344268   7.071   0.847   7.097
10987SOL    MW444269   7.105   0.925   7.084
10988SOL     OW44270   6.749   0.065   7.315
10988SOL    HW244271   6.744  -0.028   7.296
10988SOL    HW344272   6.832   0.076   7.361
10988SOL    MW444273   6.757   0.054   7.319
10989SOL     OW44274   6.123   0.585   5.769
10989SOL    HW244275   6.089   0.641   5.839
10989SOL    HW344276   6.194   0.535   5.809
10989SOL    MW444277   6.129   0.586   5.783
10990SOL     OW44278   7.219   1.336   6.591
10990SOL    HW244279   7.254   1.318   6.504
10990SOL    HW344280   7.124   1.337   6.578
10990SOL    MW444281   7.211   1.333   6.578
10991SOL     OW44282   6.648   0.984   6.960
10991SOL    HW244283   6.691   1.019   7.038
10991SOL    HW344284   6.631   1.061   6.906
10991SOL    MW444285   6.651   0.999   6.963
10992SOL     OW44286   7.179   0.471   5.833
10992SOL    HW244287   7.171   0.542   5.770
10992SOL    HW344288   7.197   0.515   5.916
10992SOL    MW444289   7.180   0.485   5.835
10993SOL     OW44290   6.039   0.126   6.262
10993SOL    HW244291   6.089   0.169   6.193
10993SOL    HW344292   5.954   0.170   6.262
10993SOL    MW444293   6.036   0.139   6.253
10994SOL     OW44294   5.798   1.188   7.122
10994SOL    HW244295   5.826   1.141   7.200
10994SOL    HW344296   5.719   1.143   7.093
10994SOL    MW444297   5.791   1.177   7.128
10995SOL     OW44298   6.306   0.515   7.089
10995SOL    HW244299   6.278   0.603   7.113
10995SOL    HW344300   6.275   0.459   7.160
10995SOL    MW444301   6.298   0.518   7.101
10996SOL     OW44302   6.848   0.733   5.808
10996SOL    HW244303   6.895   0.751   5.727
10996SOL    HW344304   6.814   0.817   5.836
10996SOL    MW444305   6.850   0.747   5.801
10997SOL     OW44306   5.961   0.911   6.302
10997SOL    HW244307   6.019   0.967   6.250
10997SOL    HW344308   6.005   0.826   6.304
10997SOL    MW444309   5.974   0.908   6.295
10998SOL     OW44310   7.101   0.263   6.139
10998SOL    HW244311   7.023   0.213   6.164
10998SOL    HW344312   7.072   0.354   6.139
10998SOL    MW444313   7.087   0.267   6.142
10999SOL     OW44314   6.687   0.225   6.298
10999SOL    HW244315   6.707   0.300   6.242
10999SOL    HW344316   6.667   0.264   6.383
10999SOL    MW444317   6.688   0.241   6.302
11000SOL     OW44318   6.583   1.475   5.630
11000SOL    HW244319   6.610   1.553   5.582
11000SOL    HW344320   6.490   1.490   5.649
11000SOL    MW444321   6.574   1.488   5.626
11001SOL     OW44322   7.447   0.998   7.317
11001SOL    HW244323   7.360   0.978   7.353
11001SOL    HW344324   7.501   0.924   7.342
11001SOL    MW444325   7.442   0.987   7.325
11002SOL     OW44326   5.668   1.511   6.474
11002SOL    HW244327   5.700   1.515   6.565
11002SOL    HW344328   5.573   1.519   6.482
11002SOL    MW444329   5.660   1.514   6.487
11003SOL     OW44330   5.623   0.637   6.021
11003SOL    HW244331   5.563   0.609   6.091
11003SOL    HW344332   5.697   0.577   6.027
11003SOL    MW444333   5.625   0.626   6.030
11004SOL     OW44334   7.191   1.849   7.455
11004SOL    HW244335   7.236   1.773   7.420
11004SOL    HW344336   7.229   1.862   7.542
11004SOL    MW444337   7.201   1.842   7.461
11005SOL     OW44338   6.791   1.368   6.181
11005SOL    HW244339   6.814   1.319   6.259
11005SOL    HW344340   6.872   1.410   6.153
11005SOL    MW444341   6.804   1.368   6.188
11006SOL     OW44342   6.049   0.376   6.910
11006SOL    HW244343   6.082   0.457   6.950
11006SOL    HW344344   6.022   0.402   6.822
11006SOL    MW444345   6.048   0.390   6.904
11007SOL     OW44346   6.003   0.343   6.646
11007SOL    HW244347   6.033   0.257   6.617
11007SOL    HW344348   5.908   0.336   6.649
11007SOL    MW444349   5.995   0.332   6.644
11008SOL     OW44350   6.832   0.552   7.337
11008SOL    HW244351   6.884   0.487   7.290
11008SOL    HW344352   6.790   0.603   7.267
11008SOL    MW444353   6.833   0.549   7.320
11009SOL     OW44354   6.931   0.347   7.198
11009SOL    HW244355   6.838   0.331   7.185
11009SOL    HW344356   6.957   0.285   7.266
11009SOL    MW444357   6.921   0.337   7.205
11010SOL     OW44358   6.146   0.121   6.537
11010SOL    HW244359   6.156   0.030   6.563
11010SOL    HW344360   6.102   0.117   6.452
11010SOL    MW444361   6.142   0.109   6.529
11011SOL     OW44362   6.240   1.736   7.083
11011SOL    HW244363   6.157   1.721   7.128
11011SOL    HW344364   6.299   1.669   7.118
11011SOL    MW444365   6.238   1.726   7.093
11012SOL     OW44366   7.297   0.443   6.708
11012SOL    HW244367   7.230   0.476   6.768
11012SOL    HW344368   7.340   0.521   6.674
11012SOL    MW444369   7.295   0.458   6.712
11013SOL     OW44370   7.475   1.163   6.678
11013SOL    HW244371   7.468   1.103   6.603
11013SOL    HW344372   7.401   1.223   6.667
11013SOL    MW444373   7.465   1.163   6.667
11014SOL     OW44374   6.857   1.025   6.596
11014SOL    HW244375   6.871   0.997   6.687
11014SOL    HW344376   6.943   1.056   6.568
11014SOL    MW444377   6.870   1.026   6.605
11015SOL     OW44378   6.940   0.520   6.875
11015SOL    HW244379   6.961   0.521   6.782
11015SOL    HW344380   6.985   0.442   6.908
11015SOL    MW444381   6.947   0.510   6.867
11016SOL     OW44382   7.433   0.651   7.417
11016SOL    HW244383   7.470   0.596   7.486
11016SOL    HW344384   7.458   0.608   7.335
11016SOL    MW444385   7.440   0.639   7.416
11017SOL     OW44386   6.980   0.949   7.468
11017SOL    HW244387   7.046   0.897   7.422
11017SOL    HW344388   7.000   0.936   7.561
11017SOL    MW444389   6.991   0.940   7.475
11018SOL     OW44390   6.931   0.035   5.817
11018SOL    HW244391   7.005   0.079   5.860
11018SOL    HW344392   6.855   0.089   5.839
11018SOL    MW444393   6.931   0.047   5.825
11019SOL     OW44394   6.991   0.810   6.095
11019SOL    HW244395   6.906   0.780   6.065
11019SOL    HW344396   6.983   0.817   6.190
11019SOL    MW444397   6.979   0.808   6.104
11020SOL     OW44398   6.067   1.273   6.826
11020SOL    HW244399   6.079   1.300   6.917
11020SOL    HW344400   6.048   1.354   6.779
11020SOL    MW444401   6.066   1.288   6.831
11021SOL     OW44402   6.351   0.253   6.649
11021SOL    HW244403   6.324   0.255   6.740
11021SOL    HW344404   6.281   0.205   6.604
11021SOL    MW444405   6.339   0.249   6.656
11022SOL     OW44406   6.205   1.745   6.811
11022SOL    HW244407   6.257   1.822   6.788
11022SOL    HW344408   6.214   1.737   6.906
11022SOL    MW444409   6.214   1.752   6.822
11023SOL     OW44410   7.107   1.330   7.043
11023SOL    HW244411   7.092   1.259   7.106
11023SOL    HW344412   7.153   1.288   6.971
11023SOL    MW444413   7.113   1.314   7.043
11024SOL     OW44414   6.181   1.061   7.160
11024SOL    HW244415   6.218   1.066   7.072
11024SOL    HW344416   6.220   1.134   7.207
11024SOL    MW444417   6.191   1.071   7.155
11025SOL     OW44418   6.361   1.104   6.972
11025SOL    HW244419   6.420   1.050   7.025
11025SOL    HW344420   6.376   1.076   6.882
11025SOL    MW444421   6.371   1.093   6.968
11026SOL     OW44422   6.364   0.476   5.821
11026SOL    HW244423   6.437   0.525   5.784
11026SOL    HW344424   6.380   0.385   5.795
11026SOL    MW444425   6.376   0.471   5.814
11027SOL     OW44426   7.172   1.593   7.144
11027SOL    HW244427   7.214   1.578   7.229
11027SOL    HW344428   7.163   1.506   7.106
11027SOL    MW444429   7.176   1.581   7.151
11028SOL     OW44430   6.832   0.072   6.735
11028SOL    HW244431   6.887   0.081   6.657
11028SOL    HW344432   6.887   0.106   6.806
11028SOL    MW444433   6.846   0.077   6.734
11029SOL     OW44434   5.839   0.985   5.919
11029SOL    HW244435   5.776   1.001   5.848
11029SOL    HW344436   5.786   0.948   5.990
11029SOL    MW444437   5.824   0.982   5.919
11030SOL     OW44438   6.195   1.339   5.778
11030SOL    HW244439   6.210   1.315   5.870
11030SOL    HW344440   6.103   1.317   5.762
11030SOL    MW444441   6.185   1.332   5.788
11031SOL     OW44442   6.734   1.570   5.930
11031SOL    HW244443   6.742   1.488   5.881
11031SOL    HW344444   6.653   1.609   5.897
11031SOL    MW444445   6.724   1.565   5.920
11032SOL     OW44446   5.993   1.728   6.499
11032SOL    HW244447   5.997   1.639   6.534
11032SOL    HW344448   6.019   1.719   6.408
11032SOL    MW444449   5.996   1.716   6.491
11033SOL     OW44450   6.610   1.206   6.742
11033SOL    HW244451   6.542   1.140   6.758
11033SOL    HW344452   6.628   1.200   6.649
11033SOL    MW444453   6.603   1.197   6.733
11034SOL     OW44454   5.699   1.481   6.993
11034SOL    HW244455   5.689   1.439   7.079
11034SOL    HW344456   5.620   1.534   6.983
11034SOL    MW444457   5.688   1.482   7.004
11035SOL     OW44458   6.603   0.345   6.563
11035SOL    HW244459   6.533   0.297   6.608
11035SOL    HW344460   6.635   0.408   6.627
11035SOL    MW444461   6.598   0.347   6.577
11036SOL     OW44462   6.254   0.781   7.183
11036SOL    HW244463   6.247   0.876   7.171
11036SOL    HW344464   6.263   0.770   7.278
11036SOL    MW444465   6.255   0.793   7.193
11037SOL     OW44466   5.975   1.296   7.441
11037SOL    HW244467   6.047   1.298   7.378
11037SOL    HW344468   5.945   1.205   7.440
11037SOL    MW444469   5.980   1.285   7.433
11038SOL     OW44470   7.059   0.059   6.908
11038SOL    HW244471   7.130   0.005   6.872
11038SOL    HW344472   7.058   0.038   7.001
11038SOL    MW444473   7.068   0.050   6.916
11039SOL     OW44474   7.259   1.589   7.392
11039SOL    HW244475   7.232   1.586   7.483
11039SOL    HW344476   7.355   1.593   7.395
11039SOL    MW444477   7.269   1.589   7.404
11040SOL     OW44478   6.070   0.451   6.376
11040SOL    HW244479   6.141   0.399   6.339
11040SOL    HW344480   6.056   0.416   6.463
11040SOL    MW444481   6.078   0.440   6.383
11041SOL     OW44482   5.625   1.786   7.448
11041SOL    HW244483   5.675   1.764   7.370
11041SOL    HW344484   5.633   1.881   7.456
11041SOL    MW444485   5.633   1.795   7.439
11042SOL     OW44486   6.386   1.544   6.452
11042SOL    HW244487   6.314   1.481   6.465
11042SOL    HW344488   6.347   1.629   6.470
11042SOL    MW444489   6.370   1.547   6.455
11043SOL     OW44490   6.706   0.392   6.100
11043SOL    HW244491   6.728   0.329   6.032
11043SOL    HW344492   6.611   0.384   6.111
11043SOL    MW444493   6.696   0.383   6.092
11044SOL     OW44494   5.791   0.082   6.032
11044SOL    HW244495   5.862   0.103   5.971
11044SOL    HW344496   5.745   0.010   5.990
11044SOL    MW444497   5.795   0.076   6.018
11045SOL     OW44498   5.622   0.549   7.175
11045SOL    HW244499   5.686   0.615   7.150
11045SOL    HW344500   5.541   0.576   7.132
11045SOL    MW444501   5.620   0.561   7.167
11046SOL     OW44502   7.360   1.456   6.132
11046SOL    HW244503   7.330   1.389   6.193
11046SOL    HW344504   7.454   1.462   6.146
11046SOL    MW444505   7.368   1.448   6.142
11047SOL     OW44506   6.916   1.133   6.062
11047SOL    HW244507   6.888   1.219   6.095
11047SOL    HW344508   6.944   1.149   5.972
11047SOL    MW444509   6.916   1.147   6.054
11048SOL     OW44510   6.578   0.053   6.115
11048SOL    HW244511   6.615   0.112   6.180
11048SOL    HW344512   6.555   0.109   6.041
11048SOL    MW444513   6.579   0.068   6.114
11049SOL     OW44514   7.431   0.935   6.537
11049SOL    HW244515   7.422   0.967   6.448
11049SOL    HW344516   7.384   0.851   6.537
11049SOL    MW444517   7.424   0.928   6.527
11050SOL     OW44518   5.807   0.775   7.116
11050SOL    HW244519   5.828   0.844   7.054
11050SOL    HW344520   5.887   0.722   7.121
11050SOL    MW444521   5.820   0.776   7.110
11051SOL     OW44522   7.343   0.866   6.238
11051SOL    HW244523   7.437   0.855   6.226
11051SOL    HW344524   7.319   0.938   6.179
11051SOL    MW444525   7.353   0.874   6.229
11052SOL     OW44526   5.792   0.790   7.383
11052SOL    HW244527   5.718   0.734   7.409
11052SOL    HW344528   5.787   0.793   7.288
11052SOL    MW444529   5.781   0.783   7.373
11053SOL     OW44530   5.958   0.077   6.833
11053SOL    HW244531   6.001   0.161   6.853
11053SOL    HW344532   6.031   0.015   6.826
11053SOL    MW444533   5.973   0.080   6.834
11054SOL     OW44534   5.999   0.744   6.011
11054SOL    HW244535   5.999   0.839   5.996
11054SOL    HW344536   6.076   0.728   6.065
11054SOL    MW444537   6.009   0.755   6.016
11055SOL     OW44538   6.775   0.603   7.075
11055SOL    HW244539   6.811   0.576   6.991
11055SOL    HW344540   6.688   0.637   7.054
11055SOL    MW444541   6.769   0.604   7.062
11056SOL     OW44542   5.758   0.475   6.300
11056SOL    HW244543   5.820   0.482   6.373
11056SOL    HW344544   5.758   0.382   6.277
11056SOL    MW444545   5.766   0.464   6.307
11057SOL     OW44546   7.305   1.815   5.832
11057SOL    HW244547   7.372   1.848   5.772
11057SOL    HW344548   7.262   1.894   5.866
11057SOL    MW444549   7.307   1.830   5.828
11058SOL     OW44550   6.440   0.736   6.784
11058SOL    HW244551   6.398   0.654   6.760
11058SOL    HW344552   6.441   0.735   6.880
11058SOL    MW444553   6.433   0.725   6.793
11059SOL     OW44554   7.111   1.869   7.183
11059SOL    HW244555   7.114   1.775   7.166
11059SOL    HW344556   7.134   1.877   7.275
11059SOL    MW444557   7.114   1.857   7.193
11060SOL     OW44558   6.244   0.206   6.889
11060SOL    HW244559   6.175   0.269   6.910
11060SOL    HW344560   6.271   0.170   6.974
11060SOL    MW444561   6.238   0.209   6.902
11061SOL     OW44562   5.627   1.047   5.758
11061SOL    HW244563   5.596   1.112   5.821
11061SOL    HW344564   5.576   0.969   5.777
11061SOL    MW444565   5.617   1.044   5.768
11062SOL     OW44566   7.039   0.059   6.506
11062SOL    HW244567   7.127   0.068   6.543
11062SOL    HW344568   7.049   0.000   6.432
11062SOL    MW444569   7.053   0.053   6.500
11063SOL     OW44570   7.071   0.798   6.350
11063SOL    HW244571   7.151   0.813   6.299
11063SOL    HW344572   7.064   0.703   6.356
11063SOL    MW444573   7.080   0.787   6.345
11064SOL     OW44574   6.211   1.847   5.700
11064SOL    HW244575   6.116   1.847   5.692
11064SOL    HW344576   6.227   1.793   5.778
11064SOL    MW444577   6.201   1.841   5.709
11065SOL     OW44578   6.521   0.724   7.047
11065SOL    HW244579   6.590   0.791   7.044
11065SOL    HW344580   6.454   0.762   7.103
11065SOL    MW444581   6.522   0.737   7.054
11066SOL     OW44582   5.939   1.024   7.295
11066SOL    HW244583   5.893   0.940   7.297
11066SOL    HW344584   5.996   1.018   7.219
11066SOL    MW444585   5.941   1.012   7.287
11067SOL     OW44586   7.056   0.667   5.615
11067SOL    HW244587   6.984   0.643   5.557
11067SOL    HW344588   7.122   0.704   5.557
11067SOL    MW444589   7.055   0.669   5.600
11068SOL     OW44590   6.190   1.399   6.296
11068SOL    HW244591   6.255   1.332   6.317
11068SOL    HW344592   6.242   1.476   6.273
11068SOL    MW444593   6.205   1.401   6.295
11069SOL     OW44594   6.451   0.564   6.426
11069SOL    HW244595   6.391   0.582   6.498
11069SOL    HW344596   6.485   0.476   6.445
11069SOL    MW444597   6.447   0.554   6.439
11070SOL     OW44598   7.392   0.063   7.095
11070SOL    HW244599   7.313   0.109   7.123
11070SOL    HW344600   7.427   0.117   7.024
11070SOL    MW444601   7.386   0.076   7.089
11071SOL     OW44602   6.676   1.147   6.445
11071SOL    HW244603   6.768   1.128   6.463
11071SOL    HW344604   6.649   1.077   6.385
11071SOL    MW444605   6.684   1.135   6.439
11072SOL     OW44606   6.469   0.967   5.800
11072SOL    HW244607   6.455   0.879   5.765
11072SOL    HW344608   6.420   1.024   5.741
11072SOL    MW444609   6.461   0.962   5.788
11073SOL     OW44610   6.950   1.385   6.541
11073SOL    HW244611   6.923   1.469   6.506
11073SOL    HW344612   6.910   1.380   6.628
11073SOL    MW444613   6.943   1.394   6.547
11074SOL     OW44614   6.869   1.333   6.809
11074SOL    HW244615   6.880   1.300   6.898
11074SOL    HW344616   6.788   1.292   6.778
11074SOL    MW444617   6.859   1.325   6.815
11075SOL     OW44618   5.882   0.691   6.579
11075SOL    HW244619   5.832   0.690   6.660
11075SOL    HW344620   5.902   0.783   6.563
11075SOL    MW444621   5.878   0.703   6.587
11076SOL     OW44622   6.949   1.455   7.341
11076SOL    HW244623   6.949   1.549   7.357
11076SOL    HW344624   6.994   1.445   7.257
11076SOL    MW444625   6.955   1.465   7.332
11077SOL     OW44626   7.188   0.173   5.902
11077SOL    HW244627   7.181   0.177   5.997
11077SOL    HW344628   7.200   0.264   5.875
11077SOL    MW444629   7.189   0.186   5.910
11078SOL     OW44630   6.477   0.736   6.016
11078SOL    HW244631   6.457   0.722   5.923
11078SOL    HW344632   6.570   0.715   6.023
11078SOL    MW444633   6.487   0.731   6.005
11079SOL     OW44634   5.804   0.359   7.320
11079SOL    HW244635   5.761   0.418   7.257
11079SOL    HW344636   5.872   0.414   7.360
11079SOL    MW444637   5.808   0.374   7.317
11080SOL     OW44638   6.916   0.979   6.865
11080SOL    HW244639   6.979   0.976   6.938
11080SOL    HW344640   6.832   0.997   6.907
11080SOL    MW444641   6.912   0.981   6.880
11081SOL     OW44642   6.460   1.694   6.054
11081SOL    HW244643   6.518   1.765   6.081
11081SOL    HW344644   6.483   1.622   6.112
11081SOL    MW444645   6.471   1.694   6.065
11082SOL     OW44646   7.255   0.156   6.644
11082SOL    HW244647   7.300   0.074   6.663
11082SOL    HW344648   7.275   0.212   6.720
11082SOL    MW444649   7.265   0.152   6.656
11083SOL     OW44650   5.703  -0.001   6.743
11083SOL    HW244651   5.694   0.000   6.648
11083SOL    HW344652   5.797   0.011   6.758
11083SOL    MW444653   5.715   0.002   6.734
11084SOL     OW44654   7.340   1.192   6.363
11084SOL    HW244655   7.319   1.138   6.286
11084SOL    HW344656   7.436   1.190   6.367
11084SOL    MW444657   7.349   1.185   6.352
11085SOL     OW44658   6.032   1.337   7.106
11085SOL    HW244659   5.953   1.287   7.129
11085SOL    HW344660   6.102   1.296   7.156
11085SOL    MW444661   6.030   1.325   7.116
11086SOL     OW44662   5.916   0.126   5.789
11086SOL    HW244663   5.845   0.181   5.757
11086SOL    HW344664   5.958   0.092   5.710
11086SOL    MW444665   5.912   0.128   5.775
11087SOL     OW44666   7.040   0.623   6.625
11087SOL    HW244667   6.963   0.669   6.591
11087SOL    HW344668   7.097   0.692   6.659
11087SOL    MW444669   7.037   0.638   6.625
11088SOL     OW44670   5.672   0.225   5.638
11088SOL    HW244671   5.639   0.304   5.682
11088SOL    HW344672   5.727   0.258   5.567
11088SOL    MW444673   5.675   0.239   5.635
11089SOL     OW44674   5.706   1.482   5.827
11089SOL    HW244675   5.723   1.566   5.869
11089SOL    HW344676   5.741   1.491   5.739
11089SOL    MW444677   5.711   1.495   5.821
11090SOL     OW44678   6.978   1.571   6.044
11090SOL    HW244679   7.041   1.561   5.973
11090SOL    HW344680   6.895   1.591   5.999
11090SOL    MW444681   6.975   1.572   6.029
11091SOL     OW44682   7.341   2.707   0.257
11091SOL    HW244683   7.382   2.649   0.322
11091SOL    HW344684   7.248   2.699   0.274
11091SOL    MW444685   7.335   2.699   0.267
11092SOL     OW44686   7.207   2.639   1.252
11092SOL    HW244687   7.162   2.706   1.303
11092SOL    HW344688   7.295   2.675   1.238
11092SOL    MW444689   7.213   2.652   1.256
11093SOL     OW44690   6.135   2.890   0.486
11093SOL    HW244691   6.225   2.865   0.470
11093SOL    HW344692   6.131   2.983   0.463
11093SOL    MW444693   6.147   2.899   0.481
11094SOL     OW44694   7.251   3.593   0.628
11094SOL    HW244695   7.263   3.539   0.706
11094SOL    HW344696   7.288   3.541   0.557
11094SOL    MW444697   7.257   3.578   0.629
11095SOL     OW44698   6.630   3.478   1.629
11095SOL    HW244699   6.671   3.514   1.550
11095SOL    HW344700   6.665   3.389   1.636
11095SOL    MW444701   6.641   3.471   1.620
11096SOL     OW44702   7.187   3.033   1.233
11096SOL    HW244703   7.108   2.998   1.191
11096SOL    HW344704   7.214   3.105   1.177
11096SOL    MW444705   7.180   3.038   1.220
11097SOL     OW44706   6.419   2.346   0.499
11097SOL    HW244707   6.394   2.434   0.527
11097SOL    HW344708   6.416   2.349   0.403
11097SOL    MW444709   6.415   2.358   0.491
11098SOL     OW44710   5.861   2.374   0.427
11098SOL    HW244711   5.893   2.462   0.409
11098SOL    HW344712   5.849   2.372   0.522
11098SOL    MW444713   5.864   2.386   0.439
11099SOL     OW44714   5.939   2.787   1.328
11099SOL    HW244715   6.002   2.734   1.279
11099SOL    HW344716   5.920   2.861   1.271
11099SOL    MW444717   5.945   2.789   1.315
11100SOL     OW44718   6.260   2.129   0.514
11100SOL    HW244719   6.318   2.205   0.516
11100SOL    HW344720   6.195   2.150   0.447
11100SOL    MW444721   6.259   2.141   0.505
11101SOL     OW44722   6.347   3.056   0.689
11101SOL    HW244723   6.427   3.059   0.741
11101SOL    HW344724   6.375   3.023   0.603
11101SOL    MW444725   6.361   3.052   0.684
11102SOL     OW44726   6.372   3.397   1.592
11102SOL    HW244727   6.456   3.423   1.631
11102SOL    HW344728   6.396   3.341   1.518
11102SOL    MW444729   6.386   3.393   1.587
11103SOL     OW44730   6.124   2.560   0.680
11103SOL    HW244731   6.109   2.480   0.731
11103SOL    HW344732   6.206   2.595   0.714
11103SOL    MW444733   6.132   2.552   0.692
11104SOL     OW44734   6.461   3.246   1.365
11104SOL    HW244735   6.425   3.312   1.305
11104SOL    HW344736   6.389   3.184   1.378
11104SOL    MW444737   6.447   3.246   1.359
11105SOL     OW44738   6.266   2.386   1.057
11105SOL    HW244739   6.172   2.382   1.075
11105SOL    HW344740   6.296   2.295   1.066
11105SOL    MW444741   6.257   2.374   1.060
11106SOL     OW44742   6.012   2.800   0.961
11106SOL    HW244743   5.967   2.807   0.877
11106SOL    HW344744   5.992   2.883   1.005
11106SOL    MW444745   6.004   2.812   0.955
11107SOL     OW44746   5.709   3.646   0.836
11107SOL    HW244747   5.798   3.638   0.871
11107SOL    HW344748   5.673   3.558   0.841
11107SOL    MW444749   5.716   3.633   0.841
11108SOL     OW44750   6.974   3.038   0.205
11108SOL    HW244751   6.892   3.074   0.171
11108SOL    HW344752   7.042   3.081   0.154
11108SOL    MW444753   6.972   3.048   0.193
11109SOL     OW44754   5.973   3.173   0.871
11109SOL    HW244755   5.949   3.226   0.947
11109SOL    HW344756   6.029   3.231   0.819
11109SOL    MW444757   5.977   3.188   0.874
11110SOL     OW44758   6.535   2.817   0.681
11110SOL    HW244759   6.449   2.804   0.721
11110SOL    HW344760   6.588   2.744   0.713
11110SOL    MW444761   6.531   2.806   0.690
11111SOL     OW44762   5.943   3.469   1.466
11111SOL    HW244763   5.851   3.445   1.451
11111SOL    HW344764   5.987   3.386   1.483
11111SOL    MW444765   5.937   3.454   1.465
11112SOL     OW44766   6.526   3.179   0.398
11112SOL    HW244767   6.503   3.241   0.466
11112SOL    HW344768   6.483   3.097   0.424
11112SOL    MW444769   6.518   3.175   0.409
11113SOL     OW44770   7.399   2.180   0.854
11113SOL    HW244771   7.336   2.160   0.923
11113SOL    HW344772   7.389   2.109   0.791
11113SOL    MW444773   7.389   2.167   0.855
11114SOL     OW44774   6.023   2.152   0.366
11114SOL    HW244775   5.997   2.114   0.282
11114SOL    HW344776   5.960   2.222   0.382
11114SOL    MW444777   6.012   2.155   0.357
11115SOL     OW44778   5.858   3.113   0.403
11115SOL    HW244779   5.806   3.181   0.359
11115SOL    HW344780   5.855   3.039   0.343
11115SOL    MW444781   5.850   3.112   0.390
11116SOL     OW44782   6.520   3.576   0.181
11116SOL    HW244783   6.475   3.592   0.264
11116SOL    HW344784   6.451   3.541   0.123
11116SOL    MW444785   6.506   3.573   0.183
11117SOL     OW44786   7.455   2.349   0.156
11117SOL    HW244787   7.364   2.351   0.184
11117SOL    HW344788   7.500   2.411   0.214
11117SOL    MW444789   7.448   2.357   0.166
11118SOL     OW44790   7.200   2.952   0.506
11118SOL    HW244791   7.110   2.952   0.541
11118SOL    HW344792   7.193   2.998   0.423
11118SOL    MW444793   7.187   2.958   0.500
11119SOL     OW44794   7.000   2.587   1.578
11119SOL    HW244795   7.069   2.525   1.555
11119SOL    HW344796   6.925   2.561   1.525
11119SOL    MW444797   7.000   2.574   1.569
11120SOL     OW44798   5.741   3.467   1.130
11120SOL    HW244799   5.724   3.413   1.207
11120SOL    HW344800   5.729   3.557   1.160
11120SOL    MW444801   5.738   3.471   1.144
11121SOL     OW44802   6.736   2.974   1.570
11121SOL    HW244803   6.721   3.067   1.555
11121SOL    HW344804   6.831   2.964   1.570
11121SOL    MW444805   6.745   2.984   1.567
11122SOL     OW44806   6.532   2.398   1.771
11122SOL    HW244807   6.622   2.399   1.738
11122SOL    HW344808   6.491   2.323   1.729
11122SOL    MW444809   6.538   2.388   1.762
11123SOL     OW44810   7.107   2.930   0.898
11123SOL    HW244811   7.110   2.864   0.829
11123SOL    HW344812   7.192   2.973   0.894
11123SOL    MW444813   7.119   2.926   0.889
11124SOL     OW44814   6.727   2.533   0.467
11124SOL    HW244815   6.753   2.557   0.378
11124SOL    HW344816   6.709   2.440   0.463
11124SOL    MW444817   6.729   2.525   0.454
11125SOL     OW44818   7.392   3.153   0.318
11125SOL    HW244819   7.348   3.194   0.393
11125SOL    HW344820   7.449   3.221   0.283
11125SOL    MW444821   7.394   3.167   0.323
11126SOL     OW44822   6.312   2.202   1.721
11126SOL    HW244823   6.322   2.128   1.661
11126SOL    HW344824   6.348   2.171   1.804
11126SOL    MW444825   6.318   2.188   1.723
11127SOL     OW44826   6.048   3.569   0.636
11127SOL    HW244827   6.080   3.657   0.614
11127SOL    HW344828   6.001   3.541   0.558
11127SOL    MW444829   6.047   3.577   0.623
11128SOL     OW44830   7.432   1.931   0.685
11128SOL    HW244831   7.486   1.882   0.747
11128SOL    HW344832   7.375   1.865   0.646
11128SOL    MW444833   7.432   1.915   0.687
11129SOL     OW44834   5.764   3.629   0.213
11129SOL    HW244835   5.793   3.719   0.205
11129SOL    HW344836   5.714   3.612   0.134
11129SOL    MW444837   5.762   3.637   0.202
11130SOL     OW44838   6.551   1.884   1.098
11130SOL    HW244839   6.510   1.962   1.060
11130SOL    HW344840   6.645   1.902   1.093
11130SOL    MW444841   6.557   1.896   1.093
11131SOL     OW44842   7.168   3.437   0.184
11131SOL    HW244843   7.216   3.506   0.230
11131SOL    HW344844   7.089   3.481   0.153
11131SOL    MW444845   7.163   3.451   0.187
11132SOL     OW44846   6.566   2.562   0.128
11132SOL    HW244847   6.568   2.509   0.049
11132SOL    HW344848   6.654   2.599   0.134
11132SOL    MW444849   6.578   2.561   0.117
11133SOL     OW44850   7.180   2.488   0.464
11133SOL    HW244851   7.219   2.488   0.551
11133SOL    HW344852   7.121   2.564   0.464
11133SOL    MW444853   7.177   2.499   0.475
11134SOL     OW44854   6.497   2.855   1.593
11134SOL    HW244855   6.474   2.835   1.683
11134SOL    HW344856   6.582   2.899   1.598
11134SOL    MW444857   6.504   2.858   1.605
11135SOL     OW44858   6.577   1.992   1.353
11135SOL    HW244859   6.583   1.954   1.266
11135SOL    HW344860   6.566   2.086   1.338
11135SOL    MW444861   6.578   2.000   1.341
11136SOL     OW44862   6.666   2.481   1.187
11136SOL    HW244863   6.741   2.510   1.134
11136SOL    HW344864   6.598   2.546   1.171
11136SOL    MW444865   6.667   2.493   1.177
11137SOL     OW44866   7.216   2.449   1.464
11137SOL    HW244867   7.197   2.358   1.443
11137SOL    HW344868   7.194   2.498   1.385
11137SOL    MW444869   7.211   2.442   1.451
11138SOL     OW44870   7.358   3.543   1.368
11138SOL    HW244871   7.286   3.505   1.419
11138SOL    HW344872   7.375   3.628   1.409
11138SOL    MW444873   7.352   3.548   1.380
11139SOL     OW44874   6.663   2.187   1.570
11139SOL    HW244875   6.629   2.226   1.489
11139SOL    HW344876   6.641   2.095   1.563
11139SOL    MW444877   6.656   2.180   1.560
11140SOL     OW44878   7.072   3.001   1.646
11140SOL    HW244879   7.154   3.042   1.676
11140SOL    HW344880   7.035   2.963   1.726
11140SOL    MW444881   7.078   3.002   1.661
11141SOL     OW44882   7.367   2.374   0.630
11141SOL    HW244883   7.456   2.343   0.647
11141SOL    HW344884   7.310   2.314   0.678
11141SOL    MW444885   7.370   2.362   0.639
11142SOL     OW44886   5.793   2.088   0.659
11142SOL    HW244887   5.784   2.028   0.585
11142SOL    HW344888   5.726   2.059   0.722
11142SOL    MW444889   5.783   2.075   0.657
11143SOL     OW44890   6.736   3.181   0.220
11143SOL    HW244891   6.686   3.183   0.302
11143SOL    HW344892   6.670   3.199   0.152
11143SOL    MW444893   6.722   3.183   0.222
11144SOL     OW44894   5.740   2.261   1.022
11144SOL    HW244895   5.712   2.352   1.031
11144SOL    HW344896   5.677   2.222   0.961
11144SOL    MW444897   5.727   2.267   1.016
11145SOL     OW44898   6.199   3.599   0.328
11145SOL    HW244899   6.120   3.557   0.361
11145SOL    HW344900   6.265   3.582   0.395
11145SOL    MW444901   6.198   3.591   0.341
11146SOL     OW44902   7.327   3.119   1.725
11146SOL    HW244903   7.377   3.045   1.757
11146SOL    HW344904   7.273   3.146   1.800
11146SOL    MW444905   7.327   3.113   1.738
11147SOL     OW44906   6.335   3.014   0.035
11147SOL    HW244907   6.257   2.960   0.022
11147SOL    HW344908   6.306   3.087   0.088
11147SOL    MW444909   6.321   3.016   0.040
11148SOL     OW44910   7.461   2.754   1.227
11148SOL    HW244911   7.477   2.792   1.140
11148SOL    HW344912   7.495   2.820   1.288
11148SOL    MW444913   7.468   2.767   1.223
11149SOL     OW44914   7.253   3.463   0.896
11149SOL    HW244915   7.282   3.530   0.957
11149SOL    HW344916   7.234   3.387   0.951
11149SOL    MW444917   7.255   3.463   0.911
11150SOL     OW44918   6.916   3.530   0.103
11150SOL    HW244919   6.842   3.493   0.153
11150SOL    HW344920   6.924   3.620   0.136
11150SOL    MW444921   6.907   3.537   0.115
11151SOL     OW44922   5.724   2.536   1.192
11151SOL    HW244923   5.786   2.566   1.258
11151SOL    HW344924   5.658   2.605   1.186
11151SOL    MW444925   5.723   2.549   1.199
11152SOL     OW44926   7.140   3.204   0.045
11152SOL    HW244927   7.087   3.253  -0.019
11152SOL    HW344928   7.171   3.270   0.106
11152SOL    MW444929   7.138   3.218   0.043
11153SOL     OW44930   6.365   2.093   0.100
11153SOL    HW244931   6.313   2.013   0.088
11153SOL    HW344932   6.452   2.070   0.068
11153SOL    MW444933   6.368   2.079   0.094
11154SOL     OW44934   5.819   3.645   1.644
11154SOL    HW244935   5.793   3.713   1.582
11154SOL    HW344936   5.867   3.582   1.592
11154SOL    MW444937   5.821   3.645   1.630
11155SOL     OW44938   5.871   2.964   1.151
11155SOL    HW244939   5.924   3.039   1.176
11155SOL    HW344940   5.790   3.002   1.117
11155SOL    MW444941   5.867   2.979   1.151
11156SOL     OW44942   6.411   2.868   1.139
11156SOL    HW244943   6.439   2.777   1.151
11156SOL    HW344944   6.340   2.862   1.075
11156SOL    MW444945   6.404   2.856   1.134
11157SOL     OW44946   5.726   2.733   0.557
11157SOL    HW244947   5.817   2.748   0.584
11157SOL    HW344948   5.729   2.654   0.503
11157SOL    MW444949   5.738   2.725   0.555
11158SOL     OW44950   5.962   2.441   1.811
11158SOL    HW244951   5.909   2.521   1.818
11158SOL    HW344952   6.032   2.453   1.876
11158SOL    MW444953   5.964   2.454   1.819
11159SOL     OW44954   6.348   1.991   1.518
11159SOL    HW244955   6.325   1.899   1.520
11159SOL    HW344956   6.434   1.993   1.475
11159SOL    MW444957   6.355   1.981   1.514
11160SOL     OW44958   6.032   2.515   1.557
11160SOL    HW244959   6.112   2.565   1.543
11160SOL    HW344960   6.023   2.509   1.652
11160SOL    MW444961   6.041   2.521   1.567
11161SOL     OW44962   6.353   3.665   0.931
11161SOL    HW244963   6.442   3.680   0.961
11161SOL    HW344964   6.348   3.712   0.847
11161SOL    MW444965   6.363   3.673   0.924
11162SOL     OW44966   7.009   2.040   1.828
11162SOL    HW244967   7.065   1.967   1.854
11162SOL    HW344968   6.979   2.078   1.910
11162SOL    MW444969   7.013   2.035   1.841
11163SOL     OW44970   5.734   3.345   0.596
11163SOL    HW244971   5.706   3.384   0.678
11163SOL    HW344972   5.754   3.254   0.618
11163SOL    MW444973   5.732   3.337   0.609
11164SOL     OW44974   6.567   3.388   0.631
11164SOL    HW244975   6.650   3.342   0.615
11164SOL    HW344976   6.557   3.387   0.727
11164SOL    MW444977   6.577   3.381   0.641
11165SOL     OW44978   7.399   2.533   0.945
11165SOL    HW244979   7.488   2.563   0.927
11165SOL    HW344980   7.379   2.473   0.874
11165SOL    MW444981   7.408   2.530   0.934
11166SOL     OW44982   7.250   2.712   1.825
11166SOL    HW244983   7.305   2.636   1.806
11166SOL    HW344984   7.252   2.720   1.920
11166SOL    MW444985   7.258   2.703   1.833
11167SOL     OW44986   6.300   3.445   0.036
11167SOL    HW244987   6.240   3.514   0.006
11167SOL    HW344988   6.245   3.387   0.089
11167SOL    MW444989   6.284   3.447   0.038
11168SOL     OW44990   6.738   2.090   0.259
11168SOL    HW244991   6.671   2.066   0.196
11168SOL    HW344992   6.803   2.139   0.208
11168SOL    MW444993   6.738   2.092   0.244
11169SOL     OW44994   6.545   2.274   1.344
11169SOL    HW244995   6.464   2.315   1.372
11169SOL    HW344996   6.592   2.342   1.296
11169SOL    MW444997   6.540   2.289   1.342
11170SOL     OW44998   6.805   2.612   0.967
11170SOL    HW244999   6.818   2.706   0.977
11170SOL    HW345000   6.766   2.602   0.881
11170SOL    MW445001   6.801   2.623   0.957
11171SOL     OW45002   6.257   2.807   0.771
11171SOL    HW245003   6.168   2.798   0.804
11171SOL    HW345004   6.261   2.897   0.739
11171SOL    MW445005   6.246   2.818   0.771
11172SOL     OW45006   7.056   2.390   0.766
11172SOL    HW245007   7.001   2.311   0.765
11172SOL    HW345008   7.038   2.431   0.850
11172SOL    MW445009   7.046   2.385   0.775
11173SOL     OW45010   6.027   2.077   1.583
11173SOL    HW245011   5.948   2.095   1.635
11173SOL    HW345012   6.022   2.139   1.510
11173SOL    MW445013   6.017   2.087   1.580
11174SOL     OW45014   6.675   2.594   0.723
11174SOL    HW245015   6.612   2.526   0.747
11174SOL    HW345016   6.695   2.575   0.631
11174SOL    MW445017   6.669   2.581   0.715
11175SOL     OW45018   5.931   3.489   0.425
11175SOL    HW245019   5.892   3.536   0.351
11175SOL    HW345020   5.865   3.424   0.450
11175SOL    MW445021   5.918   3.487   0.419
11176SOL     OW45022   6.423   2.898   0.449
11176SOL    HW245023   6.425   2.872   0.356
11176SOL    HW345024   6.481   2.835   0.492
11176SOL    MW445025   6.431   2.887   0.443
11177SOL     OW45026   6.976   3.458   1.221
11177SOL    HW245027   6.901   3.504   1.259
11177SOL    HW345028   6.958   3.365   1.238
11177SOL    MW445029   6.965   3.452   1.229
11178SOL     OW45030   6.980   3.666   0.651
11178SOL    HW245031   6.923   3.619   0.590
11178SOL    HW345032   7.066   3.627   0.638
11178SOL    MW445033   6.983   3.657   0.641
11179SOL     OW45034   6.933   2.142   0.782
11179SOL    HW245035   6.961   2.074   0.843
11179SOL    HW345036   6.847   2.113   0.752
11179SOL    MW445037   6.926   2.129   0.786
11180SOL     OW45038   5.738   3.076   0.716
11180SOL    HW245039   5.802   3.108   0.779
11180SOL    HW345040   5.787   3.012   0.664
11180SOL    MW445041   5.753   3.072   0.717
11181SOL     OW45042   6.238   3.152   1.698
11181SOL    HW245043   6.286   3.235   1.685
11181SOL    HW345044   6.295   3.100   1.754
11181SOL    MW445045   6.252   3.156   1.704
11182SOL     OW45046   5.814   3.394   1.838
11182SOL    HW245047   5.870   3.318   1.853
11182SOL    HW345048   5.763   3.372   1.760
11182SOL    MW445049   5.814   3.381   1.829
11183SOL     OW45050   6.913   2.246   0.117
11183SOL    HW245051   6.886   2.312   0.053
11183SOL    HW345052   6.983   2.289   0.167
11183SOL    MW445053   6.918   2.259   0.114
11184SOL     OW45054   6.581   1.951   0.054
11184SOL    HW245055   6.637   1.943  -0.024
11184SOL    HW345056   6.558   1.861   0.076
11184SOL    MW445057   6.586   1.938   0.047
11185SOL     OW45058   7.086   2.802   0.259
11185SOL    HW245059   7.053   2.891   0.249
11185SOL    HW345060   7.051   2.773   0.344
11185SOL    MW445061   7.076   2.811   0.270
11186SOL     OW45062   6.699   3.231   1.447
11186SOL    HW245063   6.610   3.237   1.415
11186SOL    HW345064   6.743   3.310   1.415
11186SOL    MW445065   6.694   3.241   1.439
11187SOL     OW45066   5.992   1.899   1.789
11187SOL    HW245067   5.920   1.864   1.737
11187SOL    HW345068   6.050   1.940   1.724
11187SOL    MW445069   5.990   1.900   1.774
11188SOL     OW45070   6.016   3.389   1.088
11188SOL    HW245071   6.061   3.451   1.145
11188SOL    HW345072   5.923   3.408   1.101
11188SOL    MW445073   6.009   3.399   1.095
11189SOL     OW45074   7.456   2.918   1.442
11189SOL    HW245075   7.371   2.931   1.401
11189SOL    HW345076   7.436   2.882   1.529
11189SOL    MW445077   7.443   2.914   1.447
11190SOL     OW45078   6.438   3.457   1.196
11190SOL    HW245079   6.462   3.446   1.105
11190SOL    HW345080   6.361   3.514   1.194
11190SOL    MW445081   6.430   3.462   1.185
11191SOL     OW45082   6.080   2.840   0.051
11191SOL    HW245083   6.003   2.853   0.107
11191SOL    HW345084   6.044   2.804  -0.030
11191SOL    MW445085   6.066   2.836   0.048
11192SOL     OW45086   6.733   2.813   0.294
11192SOL    HW245087   6.643   2.834   0.269
11192SOL    HW345088   6.760   2.886   0.350
11192SOL    MW445089   6.725   2.825   0.297
11193SOL     OW45090   6.233   3.162   0.986
11193SOL    HW245091   6.226   3.141   1.080
11193SOL    HW345092   6.151   3.130   0.949
11193SOL    MW445093   6.221   3.156   0.993
11194SOL     OW45094   7.097   2.172   1.388
11194SOL    HW245095   7.044   2.174   1.468
11194SOL    HW345096   7.082   2.085   1.351
11194SOL    MW445097   7.089   2.162   1.393
11195SOL     OW45098   7.433   2.096   1.261
11195SOL    HW245099   7.414   2.163   1.196
11195SOL    HW345100   7.490   2.034   1.216
11195SOL    MW445101   7.437   2.097   1.247
11196SOL     OW45102   5.679   3.254   1.649
11196SOL    HW245103   5.723   3.187   1.595
11196SOL    HW345104   5.594   3.216   1.669
11196SOL    MW445105   5.674   3.240   1.645
11197SOL     OW45106   6.362   1.929   0.701
11197SOL    HW245107   6.291   1.990   0.683
11197SOL    HW345108   6.413   1.926   0.620
11197SOL    MW445109   6.358   1.935   0.688
11198SOL     OW45110   6.120   3.169   0.450
11198SOL    HW245111   6.113   3.201   0.540
11198SOL    HW345112   6.030   3.153   0.422
11198SOL    MW445113   6.108   3.171   0.457
11199SOL     OW45114   6.715   3.562   1.359
11199SOL    HW245115   6.635   3.547   1.309
11199SOL    HW345116   6.722   3.657   1.366
11199SOL    MW445117   6.706   3.573   1.353
11200SOL     OW45118   6.829   3.527   0.849
11200SOL    HW245119   6.876   3.600   0.808
11200SOL    HW345120   6.750   3.566   0.885
11200SOL    MW445121   6.824   3.542   0.848
11201SOL     OW45122   7.237   3.622   1.124
11201SOL    HW245123   7.280   3.592   1.204
11201SOL    HW345124   7.156   3.570   1.121
11201SOL    MW445125   7.232   3.611   1.134
11202SOL     OW45126   6.322   2.586   1.831
11202SOL    HW245127   6.392   2.528   1.803
11202SOL    HW345128   6.265   2.531   1.886
11202SOL    MW445129   6.324   2.573   1.835
11203SOL     OW45130   7.109   2.798   1.464
11203SOL    HW245131   7.114   2.851   1.544
11203SOL    HW345132   7.071   2.715   1.492
11203SOL    MW445133   7.105   2.793   1.479
11204SOL     OW45134   6.749   1.933   1.710
11204SOL    HW245135   6.744   1.840   1.691
11204SOL    HW345136   6.832   1.944   1.756
11204SOL    MW445137   6.757   1.922   1.714
11205SOL     OW45138   6.123   2.453   0.164
11205SOL    HW245139   6.089   2.509   0.234
11205SOL    HW345140   6.194   2.403   0.204
11205SOL    MW445141   6.129   2.454   0.178
11206SOL     OW45142   7.219   3.204   0.986
11206SOL    HW245143   7.254   3.186   0.899
11206SOL    HW345144   7.124   3.205   0.973
11206SOL    MW445145   7.211   3.201   0.973
11207SOL     OW45146   6.648   2.852   1.355
11207SOL    HW245147   6.691   2.887   1.433
11207SOL    HW345148   6.631   2.929   1.301
11207SOL    MW445149   6.651   2.867   1.358
11208SOL     OW45150   7.179   2.339   0.228
11208SOL    HW245151   7.171   2.410   0.165
11208SOL    HW345152   7.197   2.383   0.311
11208SOL    MW445153   7.180   2.353   0.230
11209SOL     OW45154   6.039   1.994   0.657
11209SOL    HW245155   6.089   2.037   0.588
11209SOL    HW345156   5.954   2.038   0.657
11209SOL    MW445157   6.036   2.007   0.648
11210SOL     OW45158   5.798   3.056   1.517
11210SOL    HW245159   5.826   3.009   1.595
11210SOL    HW345160   5.719   3.011   1.488
11210SOL    MW445161   5.791   3.045   1.523
11211SOL     OW45162   6.306   2.383   1.484
11211SOL    HW245163   6.278   2.471   1.508
11211SOL    HW345164   6.275   2.327   1.555
11211SOL    MW445165   6.298   2.386   1.496
11212SOL     OW45166   6.848   2.601   0.203
11212SOL    HW245167   6.895   2.619   0.122
11212SOL    HW345168   6.814   2.685   0.231
11212SOL    MW445169   6.850   2.615   0.196
11213SOL     OW45170   5.961   2.779   0.697
11213SOL    HW245171   6.019   2.835   0.645
11213SOL    HW345172   6.005   2.694   0.699
11213SOL    MW445173   5.974   2.776   0.690
11214SOL     OW45174   7.101   2.131   0.534
11214SOL    HW245175   7.023   2.081   0.559
11214SOL    HW345176   7.072   2.222   0.534
11214SOL    MW445177   7.087   2.135   0.537
11215SOL     OW45178   6.687   2.093   0.693
11215SOL    HW245179   6.707   2.168   0.637
11215SOL    HW345180   6.667   2.132   0.778
11215SOL    MW445181   6.688   2.109   0.697
11216SOL     OW45182   6.583   3.343   0.025
11216SOL    HW245183   6.610   3.421  -0.023
11216SOL    HW345184   6.490   3.358   0.044
11216SOL    MW445185   6.574   3.356   0.021
11217SOL     OW45186   7.447   2.866   1.712
11217SOL    HW245187   7.360   2.846   1.748
11217SOL    HW345188   7.501   2.792   1.737
11217SOL    MW445189   7.442   2.855   1.720
11218SOL     OW45190   5.668   3.379   0.869
11218SOL    HW245191   5.700   3.383   0.960
11218SOL    HW345192   5.573   3.387   0.877
11218SOL    MW445193   5.660   3.382   0.882
11219SOL     OW45194   5.623   2.505   0.416
11219SOL    HW245195   5.563   2.477   0.486
11219SOL    HW345196   5.697   2.445   0.422
11219SOL    MW445197   5.625   2.494   0.425
11220SOL     OW45198   7.191   3.717   1.850
11220SOL    HW245199   7.236   3.641   1.815
11220SOL    HW345200   7.229   3.730   1.937
11220SOL    MW445201   7.201   3.710   1.856
11221SOL     OW45202   6.791   3.236   0.576
11221SOL    HW245203   6.814   3.187   0.654
11221SOL    HW345204   6.872   3.278   0.548
11221SOL    MW445205   6.804   3.236   0.583
11222SOL     OW45206   6.049   2.244   1.305
11222SOL    HW245207   6.082   2.325   1.345
11222SOL    HW345208   6.022   2.270   1.217
11222SOL    MW445209   6.048   2.258   1.299
11223SOL     OW45210   6.003   2.211   1.041
11223SOL    HW245211   6.033   2.125   1.012
11223SOL    HW345212   5.908   2.204   1.044
11223SOL    MW445213   5.995   2.200   1.039
11224SOL     OW45214   6.832   2.420   1.732
11224SOL    HW245215   6.884   2.355   1.685
11224SOL    HW345216   6.790   2.471   1.662
11224SOL    MW445217   6.833   2.417   1.715
11225SOL     OW45218   6.931   2.215   1.593
11225SOL    HW245219   6.838   2.199   1.580
11225SOL    HW345220   6.957   2.153   1.661
11225SOL    MW445221   6.921   2.205   1.600
11226SOL     OW45222   6.146   1.989   0.932
11226SOL    HW245223   6.156   1.898   0.958
11226SOL    HW345224   6.102   1.985   0.847
11226SOL    MW445225   6.142   1.977   0.924
11227SOL     OW45226   6.240   3.604   1.478
11227SOL    HW245227   6.157   3.589   1.523
11227SOL    HW345228   6.299   3.537   1.513
11227SOL    MW445229   6.238   3.594   1.488
11228SOL     OW45230   7.297   2.311   1.103
11228SOL    HW245231   7.230   2.344   1.163
11228SOL    HW345232   7.340   2.389   1.069
11228SOL    MW445233   7.295   2.326   1.107
11229SOL     OW45234   7.475   3.031   1.073
11229SOL    HW245235   7.468   2.971   0.998
11229SOL    HW345236   7.401   3.091   1.062
11229SOL    MW445237   7.465   3.031   1.062
11230SOL     OW45238   6.857   2.893   0.991
11230SOL    HW245239   6.871   2.865   1.082
11230SOL    HW345240   6.943   2.924   0.963
11230SOL    MW445241   6.870   2.894   1.000
11231SOL     OW45242   6.940   2.388   1.270
11231SOL    HW245243   6.961   2.389   1.177
11231SOL    HW345244   6.985   2.310   1.303
11231SOL    MW445245   6.947   2.378   1.262
11232SOL     OW45246   7.433   2.519   1.812
11232SOL    HW245247   7.470   2.464   1.881
11232SOL    HW345248   7.458   2.476   1.730
11232SOL    MW445249   7.440   2.507   1.811
11233SOL     OW45250   6.980   2.817   1.863
11233SOL    HW245251   7.046   2.765   1.817
11233SOL    HW345252   7.000   2.804   1.956
11233SOL    MW445253   6.991   2.808   1.870
11234SOL     OW45254   6.931   1.903   0.212
11234SOL    HW245255   7.005   1.947   0.255
11234SOL    HW345256   6.855   1.957   0.234
11234SOL    MW445257   6.931   1.915   0.220
11235SOL     OW45258   6.991   2.678   0.490
11235SOL    HW245259   6.906   2.648   0.460
11235SOL    HW345260   6.983   2.685   0.585
11235SOL    MW445261   6.979   2.676   0.499
11236SOL     OW45262   6.067   3.141   1.221
11236SOL    HW245263   6.079   3.168   1.312
11236SOL    HW345264   6.048   3.222   1.174
11236SOL    MW445265   6.066   3.156   1.226
11237SOL     OW45266   6.351   2.121   1.044
11237SOL    HW245267   6.324   2.123   1.135
11237SOL    HW345268   6.281   2.073   0.999
11237SOL    MW445269   6.339   2.117   1.051
11238SOL     OW45270   6.205   3.613   1.206
11238SOL    HW245271   6.257   3.690   1.183
11238SOL    HW345272   6.214   3.605   1.301
11238SOL    MW445273   6.214   3.620   1.217
11239SOL     OW45274   7.107   3.198   1.438
11239SOL    HW245275   7.092   3.127   1.501
11239SOL    HW345276   7.153   3.156   1.366
11239SOL    MW445277   7.113   3.182   1.438
11240SOL     OW45278   6.181   2.929   1.555
11240SOL    HW245279   6.218   2.934   1.467
11240SOL    HW345280   6.220   3.002   1.602
11240SOL    MW445281   6.191   2.939   1.550
11241SOL     OW45282   6.361   2.972   1.367
11241SOL    HW245283   6.420   2.918   1.420
11241SOL    HW345284   6.376   2.944   1.277
11241SOL    MW445285   6.371   2.961   1.363
11242SOL     OW45286   6.364   2.344   0.216
11242SOL    HW245287   6.437   2.393   0.179
11242SOL    HW345288   6.380   2.253   0.190
11242SOL    MW445289   6.376   2.339   0.209
11243SOL     OW45290   7.172   3.461   1.539
11243SOL    HW245291   7.214   3.446   1.624
11243SOL    HW345292   7.163   3.374   1.501
11243SOL    MW445293   7.176   3.449   1.546
11244SOL     OW45294   6.832   1.940   1.130
11244SOL    HW245295   6.887   1.949   1.052
11244SOL    HW345296   6.887   1.974   1.201
11244SOL    MW445297   6.846   1.945   1.129
11245SOL     OW45298   5.839   2.853   0.314
11245SOL    HW245299   5.776   2.869   0.243
11245SOL    HW345300   5.786   2.816   0.385
11245SOL    MW445301   5.824   2.850   0.314
11246SOL     OW45302   6.195   3.207   0.173
11246SOL    HW245303   6.210   3.183   0.265
11246SOL    HW345304   6.103   3.185   0.157
11246SOL    MW445305   6.185   3.200   0.183
11247SOL     OW45306   6.734   3.438   0.325
11247SOL    HW245307   6.742   3.356   0.276
11247SOL    HW345308   6.653   3.477   0.292
11247SOL    MW445309   6.724   3.433   0.315
11248SOL     OW45310   5.993   3.596   0.894
11248SOL    HW245311   5.997   3.507   0.929
11248SOL    HW345312   6.019   3.587   0.803
11248SOL    MW445313   5.996   3.584   0.886
11249SOL     OW45314   6.610   3.074   1.137
11249SOL    HW245315   6.542   3.008   1.153
11249SOL    HW345316   6.628   3.068   1.044
11249SOL    MW445317   6.603   3.065   1.128
11250SOL     OW45318   5.699   3.349   1.388
11250SOL    HW245319   5.689   3.307   1.474
11250SOL    HW345320   5.620   3.402   1.378
11250SOL    MW445321   5.688   3.350   1.399
11251SOL     OW45322   6.603   2.213   0.958
11251SOL    HW245323   6.533   2.165   1.003
11251SOL    HW345324   6.635   2.276   1.022
11251SOL    MW445325   6.598   2.215   0.972
11252SOL     OW45326   6.254   2.649   1.578
11252SOL    HW245327   6.247   2.744   1.566
11252SOL    HW345328   6.263   2.638   1.673
11252SOL    MW445329   6.255   2.661   1.588
11253SOL     OW45330   5.975   3.164   1.836
11253SOL    HW245331   6.047   3.166   1.773
11253SOL    HW345332   5.945   3.073   1.835
11253SOL    MW445333   5.980   3.153   1.828
11254SOL     OW45334   7.059   1.927   1.303
11254SOL    HW245335   7.130   1.873   1.267
11254SOL    HW345336   7.058   1.906   1.396
11254SOL    MW445337   7.068   1.918   1.311
11255SOL     OW45338   7.259   3.457   1.787
11255SOL    HW245339   7.232   3.454   1.878
11255SOL    HW345340   7.355   3.461   1.790
11255SOL    MW445341   7.269   3.457   1.799
11256SOL     OW45342   6.070   2.319   0.771
11256SOL    HW245343   6.141   2.267   0.734
11256SOL    HW345344   6.056   2.284   0.858
11256SOL    MW445345   6.078   2.308   0.778
11257SOL     OW45346   5.625   3.654   1.843
11257SOL    HW245347   5.675   3.632   1.765
11257SOL    HW345348   5.633   3.749   1.851
11257SOL    MW445349   5.633   3.663   1.834
11258SOL     OW45350   6.386   3.412   0.847
11258SOL    HW245351   6.314   3.349   0.860
11258SOL    HW345352   6.347   3.497   0.865
11258SOL    MW445353   6.370   3.415   0.850
11259SOL     OW45354   6.706   2.260   0.495
11259SOL    HW245355   6.728   2.197   0.427
11259SOL    HW345356   6.611   2.252   0.506
11259SOL    MW445357   6.696   2.251   0.487
11260SOL     OW45358   5.791   1.950   0.427
11260SOL    HW245359   5.862   1.971   0.366
11260SOL    HW345360   5.745   1.878   0.385
11260SOL    MW445361   5.795   1.944   0.413
11261SOL     OW45362   5.622   2.417   1.570
11261SOL    HW245363   5.686   2.483   1.545
11261SOL    HW345364   5.541   2.444   1.527
11261SOL    MW445365   5.620   2.429   1.562
11262SOL     OW45366   7.360   3.324   0.527
11262SOL    HW245367   7.330   3.257   0.588
11262SOL    HW345368   7.454   3.330   0.541
11262SOL    MW445369   7.368   3.316   0.537
11263SOL     OW45370   6.916   3.001   0.457
11263SOL    HW245371   6.888   3.087   0.490
11263SOL    HW345372   6.944   3.017   0.367
11263SOL    MW445373   6.916   3.015   0.449
11264SOL     OW45374   6.578   1.921   0.510
11264SOL    HW245375   6.615   1.980   0.575
11264SOL    HW345376   6.555   1.977   0.436
11264SOL    MW445377   6.579   1.936   0.509
11265SOL     OW45378   7.431   2.803   0.932
11265SOL    HW245379   7.422   2.835   0.843
11265SOL    HW345380   7.384   2.719   0.932
11265SOL    MW445381   7.424   2.796   0.922
11266SOL     OW45382   5.807   2.643   1.511
11266SOL    HW245383   5.828   2.712   1.449
11266SOL    HW345384   5.887   2.590   1.516
11266SOL    MW445385   5.820   2.644   1.505
11267SOL     OW45386   7.343   2.734   0.633
11267SOL    HW245387   7.437   2.723   0.621
11267SOL    HW345388   7.319   2.806   0.574
11267SOL    MW445389   7.353   2.742   0.624
11268SOL     OW45390   5.792   2.658   1.778
11268SOL    HW245391   5.718   2.602   1.804
11268SOL    HW345392   5.787   2.661   1.683
11268SOL    MW445393   5.781   2.651   1.768
11269SOL     OW45394   5.958   1.945   1.228
11269SOL    HW245395   6.001   2.029   1.248
11269SOL    HW345396   6.031   1.883   1.221
11269SOL    MW445397   5.973   1.948   1.229
11270SOL     OW45398   5.999   2.612   0.406
11270SOL    HW245399   5.999   2.707   0.391
11270SOL    HW345400   6.076   2.596   0.460
11270SOL    MW445401   6.009   2.623   0.411
11271SOL     OW45402   6.775   2.471   1.470
11271SOL    HW245403   6.811   2.444   1.386
11271SOL    HW345404   6.688   2.505   1.449
11271SOL    MW445405   6.769   2.472   1.457
11272SOL     OW45406   5.758   2.343   0.695
11272SOL    HW245407   5.820   2.350   0.768
11272SOL    HW345408   5.758   2.250   0.672
11272SOL    MW445409   5.766   2.332   0.702
11273SOL     OW45410   7.305   3.683   0.227
11273SOL    HW245411   7.372   3.716   0.167
11273SOL    HW345412   7.262   3.762   0.261
11273SOL    MW445413   7.307   3.698   0.223
11274SOL     OW45414   6.440   2.604   1.179
11274SOL    HW245415   6.398   2.522   1.155
11274SOL    HW345416   6.441   2.603   1.275
11274SOL    MW445417   6.433   2.593   1.188
11275SOL     OW45418   7.111   3.737   1.578
11275SOL    HW245419   7.114   3.643   1.561
11275SOL    HW345420   7.134   3.745   1.670
11275SOL    MW445421   7.114   3.725   1.588
11276SOL     OW45422   6.244   2.074   1.284
11276SOL    HW245423   6.175   2.137   1.305
11276SOL    HW345424   6.271   2.038   1.369
11276SOL    MW445425   6.238   2.077   1.297
11277SOL     OW45426   5.627   2.915   0.153
11277SOL    HW245427   5.596   2.980   0.216
11277SOL    HW345428   5.576   2.837   0.172
11277SOL    MW445429   5.617   2.912   0.163
11278SOL     OW45430   7.039   1.927   0.901
11278SOL    HW245431   7.127   1.936   0.938
11278SOL    HW345432   7.049   1.868   0.827
11278SOL    MW445433   7.053   1.921   0.895
11279SOL     OW45434   7.071   2.666   0.745
11279SOL    HW245435   7.151   2.681   0.694
11279SOL    HW345436   7.064   2.571   0.751
11279SOL    MW445437   7.080   2.655   0.740
11280SOL     OW45438   6.211   3.715   0.095
11280SOL    HW245439   6.116   3.715   0.087
11280SOL    HW345440   6.227   3.661   0.173
11280SOL    MW445441   6.201   3.709   0.104
11281SOL     OW45442   6.521   2.592   1.442
11281SOL    HW245443   6.590   2.659   1.439
11281SOL    HW345444   6.454   2.630   1.498
11281SOL    MW445445   6.522   2.605   1.449
11282SOL     OW45446   5.939   2.892   1.690
11282SOL    HW245447   5.893   2.808   1.692
11282SOL    HW345448   5.996   2.886   1.614
11282SOL    MW445449   5.941   2.880   1.682
11283SOL     OW45450   7.056   2.535   0.011
11283SOL    HW245451   6.984   2.511  -0.047
11283SOL    HW345452   7.122   2.572  -0.047
11283SOL    MW445453   7.055   2.537  -0.004
11284SOL     OW45454   6.190   3.267   0.691
11284SOL    HW245455   6.255   3.200   0.712
11284SOL    HW345456   6.242   3.344   0.668
11284SOL    MW445457   6.205   3.269   0.690
11285SOL     OW45458   6.451   2.432   0.821
11285SOL    HW245459   6.391   2.450   0.893
11285SOL    HW345460   6.485   2.344   0.840
11285SOL    MW445461   6.447   2.422   0.834
11286SOL     OW45462   7.392   1.931   1.490
11286SOL    HW245463   7.313   1.977   1.518
11286SOL    HW345464   7.427   1.985   1.419
11286SOL    MW445465   7.386   1.944   1.484
11287SOL     OW45466   6.676   3.015   0.840
11287SOL    HW245467   6.768   2.996   0.858
11287SOL    HW345468   6.649   2.945   0.780
11287SOL    MW445469   6.684   3.003   0.834
11288SOL     OW45470   6.469   2.835   0.195
11288SOL    HW245471   6.455   2.747   0.160
11288SOL    HW345472   6.420   2.892   0.136
11288SOL    MW445473   6.461   2.830   0.183
11289SOL     OW45474   6.950   3.253   0.936
11289SOL    HW245475   6.923   3.337   0.901
11289SOL    HW345476   6.910   3.248   1.023
11289SOL    MW445477   6.943   3.262   0.942
11290SOL     OW45478   6.869   3.201   1.204
11290SOL    HW245479   6.880   3.168   1.293
11290SOL    HW345480   6.788   3.160   1.173
11290SOL    MW445481   6.859   3.193   1.210
11291SOL     OW45482   5.882   2.559   0.974
11291SOL    HW245483   5.832   2.558   1.055
11291SOL    HW345484   5.902   2.651   0.958
11291SOL    MW445485   5.878   2.571   0.982
11292SOL     OW45486   6.949   3.323   1.736
11292SOL    HW245487   6.949   3.417   1.752
11292SOL    HW345488   6.994   3.313   1.652
11292SOL    MW445489   6.955   3.333   1.727
11293SOL     OW45490   7.188   2.041   0.297
11293SOL    HW245491   7.181   2.045   0.392
11293SOL    HW345492   7.200   2.132   0.270
11293SOL    MW445493   7.189   2.054   0.305
11294SOL     OW45494   6.477   2.604   0.411
11294SOL    HW245495   6.457   2.590   0.318
11294SOL    HW345496   6.570   2.583   0.418
11294SOL    MW445497   6.487   2.599   0.400
11295SOL     OW45498   5.804   2.227   1.715
11295SOL    HW245499   5.761   2.286   1.652
11295SOL    HW345500   5.872   2.282   1.755
11295SOL    MW445501   5.808   2.242   1.712
11296SOL     OW45502   6.916   2.847   1.260
11296SOL    HW245503   6.979   2.844   1.333
11296SOL    HW345504   6.832   2.865   1.302
11296SOL    MW445505   6.912   2.849   1.275
11297SOL     OW45506   6.460   3.562   0.449
11297SOL    HW245507   6.518   3.633   0.476
11297SOL    HW345508   6.483   3.490   0.507
11297SOL    MW445509   6.471   3.562   0.460
11298SOL     OW45510   7.255   2.024   1.039
11298SOL    HW245511   7.300   1.942   1.058
11298SOL    HW345512   7.275   2.080   1.115
11298SOL    MW445513   7.265   2.020   1.051
11299SOL     OW45514   5.703   1.867   1.138
11299SOL    HW245515   5.694   1.868   1.043
11299SOL    HW345516   5.797   1.879   1.153
11299SOL    MW445517   5.715   1.870   1.129
11300SOL     OW45518   7.340   3.060   0.758
11300SOL    HW245519   7.319   3.006   0.681
11300SOL    HW345520   7.436   3.058   0.762
11300SOL    MW445521   7.349   3.053   0.747
11301SOL     OW45522   6.032   3.205   1.501
11301SOL    HW245523   5.953   3.155   1.524
11301SOL    HW345524   6.102   3.164   1.551
11301SOL    MW445525   6.030   3.193   1.511
11302SOL     OW45526   5.916   1.994   0.184
11302SOL    HW245527   5.845   2.049   0.152
11302SOL    HW345528   5.958   1.960   0.105
11302SOL    MW445529   5.912   1.996   0.170
11303SOL     OW45530   7.040   2.491   1.020
11303SOL    HW245531   6.963   2.537   0.986
11303SOL    HW345532   7.097   2.560   1.054
11303SOL    MW445533   7.037   2.506   1.020
11304SOL     OW45534   5.672   2.093   0.033
11304SOL    HW245535   5.639   2.172   0.077
11304SOL    HW345536   5.727   2.126  -0.038
11304SOL    MW445537   5.675   2.107   0.030
11305SOL     OW45538   5.706   3.350   0.222
11305SOL    HW245539   5.723   3.434   0.264
11305SOL    HW345540   5.741   3.359   0.134
11305SOL    MW445541   5.711   3.363   0.216
11306SOL     OW45542   6.978   3.439   0.439
11306SOL    HW245543   7.041   3.429   0.368
11306SOL    HW345544   6.895   3.459   0.394
11306SOL    MW445545   6.975   3.440   0.424
11307SOL     OW45546   7.341   2.707   2.125
11307SOL    HW245547   7.382   2.649   2.190
11307SOL    HW345548   7.248   2.699   2.142
11307SOL    MW445549   7.335   2.699   2.135
11308SOL     OW45550   7.207   2.639   3.120
11308SOL    HW245551   7.162   2.706   3.171
11308SOL    HW345552   7.295   2.675   3.106
11308SOL    MW445553   7.213   2.652   3.124
11309SOL     OW45554   6.135   2.890   2.354
11309SOL    HW245555   6.225   2.865   2.338
11309SOL    HW345556   6.131   2.983   2.331
11309SOL    MW445557   6.147   2.899   2.349
11310SOL     OW45558   7.251   3.593   2.496
11310SOL    HW245559   7.263   3.539   2.574
11310SOL    HW345560   7.288   3.541   2.425
11310SOL    MW445561   7.257   3.578   2.497
11311SOL     OW45562   6.630   3.478   3.497
11311SOL    HW245563   6.671   3.514   3.418
11311SOL    HW345564   6.665   3.389   3.504
11311SOL    MW445565   6.641   3.471   3.488
11312SOL     OW45566   7.187   3.033   3.101
11312SOL    HW245567   7.108   2.998   3.059
11312SOL    HW345568   7.214   3.105   3.045
11312SOL    MW445569   7.180   3.038   3.088
11313SOL     OW45570   6.419   2.346   2.367
11313SOL    HW245571   6.394   2.434   2.395
11313SOL    HW345572   6.416   2.349   2.271
11313SOL    MW445573   6.415   2.358   2.359
11314SOL     OW45574   5.861   2.374   2.295
11314SOL    HW245575   5.893   2.462   2.277
11314SOL    HW345576   5.849   2.372   2.390
11314SOL    MW445577   5.864   2.386   2.307
11315SOL     OW45578   5.939   2.787   3.196
11315SOL    HW245579   6.002   2.734   3.147
11315SOL    HW345580   5.920   2.861   3.139
11315SOL    MW445581   5.945   2.789   3.183
11316SOL     OW45582   6.260   2.129   2.382
11316SOL    HW245583   6.318   2.205   2.384
11316SOL    HW345584   6.195   2.150   2.315
11316SOL    MW445585   6.259   2.141   2.373
11317SOL     OW45586   6.347   3.056   2.557
11317SOL    HW245587   6.427   3.059   2.609
11317SOL    HW345588   6.375   3.023   2.471
11317SOL    MW445589   6.361   3.052   2.552
11318SOL     OW45590   6.372   3.397   3.460
11318SOL    HW245591   6.456   3.423   3.499
11318SOL    HW345592   6.396   3.341   3.386
11318SOL    MW445593   6.386   3.393   3.455
11319SOL     OW45594   6.124   2.560   2.548
11319SOL    HW245595   6.109   2.480   2.599
11319SOL    HW345596   6.206   2.595   2.582
11319SOL    MW445597   6.132   2.552   2.560
11320SOL     OW45598   6.461   3.246   3.233
11320SOL    HW245599   6.425   3.312   3.173
11320SOL    HW345600   6.389   3.184   3.246
11320SOL    MW445601   6.447   3.246   3.227
11321SOL     OW45602   6.266   2.386   2.925
11321SOL    HW245603   6.172   2.382   2.943
11321SOL    HW345604   6.296   2.295   2.934
11321SOL    MW445605   6.257   2.374   2.928
11322SOL     OW45606   6.012   2.800   2.829
11322SOL    HW245607   5.967   2.807   2.745
11322SOL    HW345608   5.992   2.883   2.873
11322SOL    MW445609   6.004   2.812   2.823
11323SOL     OW45610   5.709   3.646   2.704
11323SOL    HW245611   5.798   3.638   2.739
11323SOL    HW345612   5.673   3.558   2.709
11323SOL    MW445613   5.716   3.633   2.709
11324SOL     OW45614   6.974   3.038   2.073
11324SOL    HW245615   6.892   3.074   2.039
11324SOL    HW345616   7.042   3.081   2.022
11324SOL    MW445617   6.972   3.048   2.061
11325SOL     OW45618   5.973   3.173   2.739
11325SOL    HW245619   5.949   3.226   2.815
11325SOL    HW345620   6.029   3.231   2.687
11325SOL    MW445621   5.977   3.188   2.742
11326SOL     OW45622   6.535   2.817   2.549
11326SOL    HW245623   6.449   2.804   2.589
11326SOL    HW345624   6.588   2.744   2.581
11326SOL    MW445625   6.531   2.806   2.558
11327SOL     OW45626   5.943   3.469   3.334
11327SOL    HW245627   5.851   3.445   3.319
11327SOL    HW345628   5.987   3.386   3.351
11327SOL    MW445629   5.937   3.454   3.333
11328SOL     OW45630   6.526   3.179   2.266
11328SOL    HW245631   6.503   3.241   2.334
11328SOL    HW345632   6.483   3.097   2.292
11328SOL    MW445633   6.518   3.175   2.277
11329SOL     OW45634   7.399   2.180   2.722
11329SOL    HW245635   7.336   2.160   2.791
11329SOL    HW345636   7.389   2.109   2.659
11329SOL    MW445637   7.389   2.167   2.723
11330SOL     OW45638   6.023   2.152   2.234
11330SOL    HW245639   5.997   2.114   2.150
11330SOL    HW345640   5.960   2.222   2.250
11330SOL    MW445641   6.012   2.155   2.225
11331SOL     OW45642   5.858   3.113   2.271
11331SOL    HW245643   5.806   3.181   2.227
11331SOL    HW345644   5.855   3.039   2.211
11331SOL    MW445645   5.850   3.112   2.258
11332SOL     OW45646   6.520   3.576   2.049
11332SOL    HW245647   6.475   3.592   2.132
11332SOL    HW345648   6.451   3.541   1.991
11332SOL    MW445649   6.506   3.573   2.051
11333SOL     OW45650   7.455   2.349   2.024
11333SOL    HW245651   7.364   2.351   2.052
11333SOL    HW345652   7.500   2.411   2.082
11333SOL    MW445653   7.448   2.357   2.034
11334SOL     OW45654   7.200   2.952   2.374
11334SOL    HW245655   7.110   2.952   2.409
11334SOL    HW345656   7.193   2.998   2.291
11334SOL    MW445657   7.187   2.958   2.368
11335SOL     OW45658   7.000   2.587   3.446
11335SOL    HW245659   7.069   2.525   3.423
11335SOL    HW345660   6.925   2.561   3.393
11335SOL    MW445661   7.000   2.574   3.437
11336SOL     OW45662   5.741   3.467   2.998
11336SOL    HW245663   5.724   3.413   3.075
11336SOL    HW345664   5.729   3.557   3.028
11336SOL    MW445665   5.738   3.471   3.012
11337SOL     OW45666   6.736   2.974   3.438
11337SOL    HW245667   6.721   3.067   3.423
11337SOL    HW345668   6.831   2.964   3.438
11337SOL    MW445669   6.745   2.984   3.435
11338SOL     OW45670   6.532   2.398   3.639
11338SOL    HW245671   6.622   2.399   3.606
11338SOL    HW345672   6.491   2.323   3.597
11338SOL    MW445673   6.538   2.388   3.630
11339SOL     OW45674   7.107   2.930   2.766
11339SOL    HW245675   7.110   2.864   2.697
11339SOL    HW345676   7.192   2.973   2.762
11339SOL    MW445677   7.119   2.926   2.757
11340SOL     OW45678   6.727   2.533   2.335
11340SOL    HW245679   6.753   2.557   2.246
11340SOL    HW345680   6.709   2.440   2.331
11340SOL    MW445681   6.729   2.525   2.322
11341SOL     OW45682   7.392   3.153   2.186
11341SOL    HW245683   7.348   3.194   2.261
11341SOL    HW345684   7.449   3.221   2.151
11341SOL    MW445685   7.394   3.167   2.191
11342SOL     OW45686   6.312   2.202   3.589
11342SOL    HW245687   6.322   2.128   3.529
11342SOL    HW345688   6.348   2.171   3.672
11342SOL    MW445689   6.318   2.188   3.591
11343SOL     OW45690   6.048   3.569   2.504
11343SOL    HW245691   6.080   3.657   2.482
11343SOL    HW345692   6.001   3.541   2.426
11343SOL    MW445693   6.047   3.577   2.491
11344SOL     OW45694   7.432   1.931   2.553
11344SOL    HW245695   7.486   1.882   2.615
11344SOL    HW345696   7.375   1.865   2.514
11344SOL    MW445697   7.432   1.915   2.555
11345SOL     OW45698   5.764   3.629   2.081
11345SOL    HW245699   5.793   3.719   2.073
11345SOL    HW345700   5.714   3.612   2.002
11345SOL    MW445701   5.762   3.637   2.070
11346SOL     OW45702   6.551   1.884   2.966
11346SOL    HW245703   6.510   1.962   2.928
11346SOL    HW345704   6.645   1.902   2.961
11346SOL    MW445705   6.557   1.896   2.961
11347SOL     OW45706   7.168   3.437   2.052
11347SOL    HW245707   7.216   3.506   2.098
11347SOL    HW345708   7.089   3.481   2.021
11347SOL    MW445709   7.163   3.451   2.055
11348SOL     OW45710   6.566   2.562   1.996
11348SOL    HW245711   6.568   2.509   1.917
11348SOL    HW345712   6.654   2.599   2.002
11348SOL    MW445713   6.578   2.561   1.985
11349SOL     OW45714   7.180   2.488   2.332
11349SOL    HW245715   7.219   2.488   2.419
11349SOL    HW345716   7.121   2.564   2.332
11349SOL    MW445717   7.177   2.499   2.343
11350SOL     OW45718   6.497   2.855   3.461
11350SOL    HW245719   6.474   2.835   3.551
11350SOL    HW345720   6.582   2.899   3.466
11350SOL    MW445721   6.504   2.858   3.473
11351SOL     OW45722   6.577   1.992   3.221
11351SOL    HW245723   6.583   1.954   3.134
11351SOL    HW345724   6.566   2.086   3.206
11351SOL    MW445725   6.578   2.000   3.209
11352SOL     OW45726   6.666   2.481   3.055
11352SOL    HW245727   6.741   2.510   3.002
11352SOL    HW345728   6.598   2.546   3.039
11352SOL    MW445729   6.667   2.493   3.045
11353SOL     OW45730   7.216   2.449   3.332
11353SOL    HW245731   7.197   2.358   3.311
11353SOL    HW345732   7.194   2.498   3.253
11353SOL    MW445733   7.211   2.442   3.319
11354SOL     OW45734   7.358   3.543   3.236
11354SOL    HW245735   7.286   3.505   3.287
11354SOL    HW345736   7.375   3.628   3.277
11354SOL    MW445737   7.352   3.548   3.248
11355SOL     OW45738   6.663   2.187   3.438
11355SOL    HW245739   6.629   2.226   3.357
11355SOL    HW345740   6.641   2.095   3.431
11355SOL    MW445741   6.656   2.180   3.428
11356SOL     OW45742   7.072   3.001   3.514
11356SOL    HW245743   7.154   3.042   3.544
11356SOL    HW345744   7.035   2.963   3.594
11356SOL    MW445745   7.078   3.002   3.529
11357SOL     OW45746   7.367   2.374   2.498
11357SOL    HW245747   7.456   2.343   2.515
11357SOL    HW345748   7.310   2.314   2.546
11357SOL    MW445749   7.370   2.362   2.507
11358SOL     OW45750   5.793   2.088   2.527
11358SOL    HW245751   5.784   2.028   2.453
11358SOL    HW345752   5.726   2.059   2.590
11358SOL    MW445753   5.783   2.075   2.525
11359SOL     OW45754   6.736   3.181   2.088
11359SOL    HW245755   6.686   3.183   2.170
11359SOL    HW345756   6.670   3.199   2.020
11359SOL    MW445757   6.722   3.183   2.090
11360SOL     OW45758   5.740   2.261   2.890
11360SOL    HW245759   5.712   2.352   2.899
11360SOL    HW345760   5.677   2.222   2.829
11360SOL    MW445761   5.727   2.267   2.884
11361SOL     OW45762   6.199   3.599   2.196
11361SOL    HW245763   6.120   3.557   2.229
11361SOL    HW345764   6.265   3.582   2.263
11361SOL    MW445765   6.198   3.591   2.209
11362SOL     OW45766   7.327   3.119   3.593
11362SOL    HW245767   7.377   3.045   3.625
11362SOL    HW345768   7.273   3.146   3.668
11362SOL    MW445769   7.327   3.113   3.606
11363SOL     OW45770   6.335   3.014   1.903
11363SOL    HW245771   6.257   2.960   1.890
11363SOL    HW345772   6.306   3.087   1.956
11363SOL    MW445773   6.321   3.016   1.908
11364SOL     OW45774   7.461   2.754   3.095
11364SOL    HW245775   7.477   2.792   3.008
11364SOL    HW345776   7.495   2.820   3.156
11364SOL    MW445777   7.468   2.767   3.091
11365SOL     OW45778   7.253   3.463   2.764
11365SOL    HW245779   7.282   3.530   2.825
11365SOL    HW345780   7.234   3.387   2.819
11365SOL    MW445781   7.255   3.463   2.779
11366SOL     OW45782   6.916   3.530   1.971
11366SOL    HW245783   6.842   3.493   2.021
11366SOL    HW345784   6.924   3.620   2.004
11366SOL    MW445785   6.907   3.537   1.983
11367SOL     OW45786   5.724   2.536   3.060
11367SOL    HW245787   5.786   2.566   3.126
11367SOL    HW345788   5.658   2.605   3.054
11367SOL    MW445789   5.723   2.549   3.067
11368SOL     OW45790   7.140   3.204   1.913
11368SOL    HW245791   7.087   3.253   1.849
11368SOL    HW345792   7.171   3.270   1.974
11368SOL    MW445793   7.138   3.218   1.911
11369SOL     OW45794   6.365   2.093   1.968
11369SOL    HW245795   6.313   2.013   1.956
11369SOL    HW345796   6.452   2.070   1.936
11369SOL    MW445797   6.368   2.079   1.962
11370SOL     OW45798   5.819   3.645   3.512
11370SOL    HW245799   5.793   3.713   3.450
11370SOL    HW345800   5.867   3.582   3.460
11370SOL    MW445801   5.821   3.645   3.498
11371SOL     OW45802   5.871   2.964   3.019
11371SOL    HW245803   5.924   3.039   3.044
11371SOL    HW345804   5.790   3.002   2.985
11371SOL    MW445805   5.867   2.979   3.019
11372SOL     OW45806   6.411   2.868   3.007
11372SOL    HW245807   6.439   2.777   3.019
11372SOL    HW345808   6.340   2.862   2.943
11372SOL    MW445809   6.404   2.856   3.002
11373SOL     OW45810   5.726   2.733   2.425
11373SOL    HW245811   5.817   2.748   2.452
11373SOL    HW345812   5.729   2.654   2.371
11373SOL    MW445813   5.738   2.725   2.423
11374SOL     OW45814   5.962   2.441   3.679
11374SOL    HW245815   5.909   2.521   3.686
11374SOL    HW345816   6.032   2.453   3.744
11374SOL    MW445817   5.964   2.454   3.687
11375SOL     OW45818   6.348   1.991   3.386
11375SOL    HW245819   6.325   1.899   3.388
11375SOL    HW345820   6.434   1.993   3.343
11375SOL    MW445821   6.355   1.981   3.382
11376SOL     OW45822   6.032   2.515   3.425
11376SOL    HW245823   6.112   2.565   3.411
11376SOL    HW345824   6.023   2.509   3.520
11376SOL    MW445825   6.041   2.521   3.435
11377SOL     OW45826   6.353   3.665   2.799
11377SOL    HW245827   6.442   3.680   2.829
11377SOL    HW345828   6.348   3.712   2.715
11377SOL    MW445829   6.363   3.673   2.792
11378SOL     OW45830   7.009   2.040   3.696
11378SOL    HW245831   7.065   1.967   3.722
11378SOL    HW345832   6.979   2.078   3.778
11378SOL    MW445833   7.013   2.035   3.709
11379SOL     OW45834   5.734   3.345   2.464
11379SOL    HW245835   5.706   3.384   2.546
11379SOL    HW345836   5.754   3.254   2.486
11379SOL    MW445837   5.732   3.337   2.477
11380SOL     OW45838   6.567   3.388   2.499
11380SOL    HW245839   6.650   3.342   2.483
11380SOL    HW345840   6.557   3.387   2.595
11380SOL    MW445841   6.577   3.381   2.509
11381SOL     OW45842   7.399   2.533   2.813
11381SOL    HW245843   7.488   2.563   2.795
11381SOL    HW345844   7.379   2.473   2.742
11381SOL    MW445845   7.408   2.530   2.802
11382SOL     OW45846   7.250   2.712   3.693
11382SOL    HW245847   7.305   2.636   3.674
11382SOL    HW345848   7.252   2.720   3.788
11382SOL    MW445849   7.258   2.703   3.701
11383SOL     OW45850   6.300   3.445   1.904
11383SOL    HW245851   6.240   3.514   1.874
11383SOL    HW345852   6.245   3.387   1.957
11383SOL    MW445853   6.284   3.447   1.906
11384SOL     OW45854   6.738   2.090   2.127
11384SOL    HW245855   6.671   2.066   2.064
11384SOL    HW345856   6.803   2.139   2.076
11384SOL    MW445857   6.738   2.092   2.112
11385SOL     OW45858   6.545   2.274   3.212
11385SOL    HW245859   6.464   2.315   3.240
11385SOL    HW345860   6.592   2.342   3.164
11385SOL    MW445861   6.540   2.289   3.210
11386SOL     OW45862   6.805   2.612   2.835
11386SOL    HW245863   6.818   2.706   2.845
11386SOL    HW345864   6.766   2.602   2.749
11386SOL    MW445865   6.801   2.623   2.825
11387SOL     OW45866   6.257   2.807   2.639
11387SOL    HW245867   6.168   2.798   2.672
11387SOL    HW345868   6.261   2.897   2.607
11387SOL    MW445869   6.246   2.818   2.639
11388SOL     OW45870   7.056   2.390   2.634
11388SOL    HW245871   7.001   2.311   2.633
11388SOL    HW345872   7.038   2.431   2.718
11388SOL    MW445873   7.046   2.385   2.643
11389SOL     OW45874   6.027   2.077   3.451
11389SOL    HW245875   5.948   2.095   3.503
11389SOL    HW345876   6.022   2.139   3.378
11389SOL    MW445877   6.017   2.087   3.448
11390SOL     OW45878   6.675   2.594   2.591
11390SOL    HW245879   6.612   2.526   2.615
11390SOL    HW345880   6.695   2.575   2.499
11390SOL    MW445881   6.669   2.581   2.583
11391SOL     OW45882   5.931   3.489   2.293
11391SOL    HW245883   5.892   3.536   2.219
11391SOL    HW345884   5.865   3.424   2.318
11391SOL    MW445885   5.918   3.487   2.287
11392SOL     OW45886   6.423   2.898   2.317
11392SOL    HW245887   6.425   2.872   2.224
11392SOL    HW345888   6.481   2.835   2.360
11392SOL    MW445889   6.431   2.887   2.311
11393SOL     OW45890   6.976   3.458   3.089
11393SOL    HW245891   6.901   3.504   3.127
11393SOL    HW345892   6.958   3.365   3.106
11393SOL    MW445893   6.965   3.452   3.097
11394SOL     OW45894   6.980   3.666   2.519
11394SOL    HW245895   6.923   3.619   2.458
11394SOL    HW345896   7.066   3.627   2.506
11394SOL    MW445897   6.983   3.657   2.509
11395SOL     OW45898   6.933   2.142   2.650
11395SOL    HW245899   6.961   2.074   2.711
11395SOL    HW345900   6.847   2.113   2.620
11395SOL    MW445901   6.926   2.129   2.654
11396SOL     OW45902   5.738   3.076   2.584
11396SOL    HW245903   5.802   3.108   2.647
11396SOL    HW345904   5.787   3.012   2.532
11396SOL    MW445905   5.753   3.072   2.585
11397SOL     OW45906   6.238   3.152   3.566
11397SOL    HW245907   6.286   3.235   3.553
11397SOL    HW345908   6.295   3.100   3.622
11397SOL    MW445909   6.252   3.156   3.572
11398SOL     OW45910   5.814   3.394   3.706
11398SOL    HW245911   5.870   3.318   3.721
11398SOL    HW345912   5.763   3.372   3.628
11398SOL    MW445913   5.814   3.381   3.697
11399SOL     OW45914   6.913   2.246   1.985
11399SOL    HW245915   6.886   2.312   1.921
11399SOL    HW345916   6.983   2.289   2.035
11399SOL    MW445917   6.918   2.259   1.982
11400SOL     OW45918   6.581   1.951   1.922
11400SOL    HW245919   6.637   1.943   1.844
11400SOL    HW345920   6.558   1.861   1.944
11400SOL    MW445921   6.586   1.938   1.915
11401SOL     OW45922   7.086   2.802   2.127
11401SOL    HW245923   7.053   2.891   2.117
11401SOL    HW345924   7.051   2.773   2.212
11401SOL    MW445925   7.076   2.811   2.138
11402SOL     OW45926   6.699   3.231   3.315
11402SOL    HW245927   6.610   3.237   3.283
11402SOL    HW345928   6.743   3.310   3.283
11402SOL    MW445929   6.694   3.241   3.307
11403SOL     OW45930   5.992   1.899   3.657
11403SOL    HW245931   5.920   1.864   3.605
11403SOL    HW345932   6.050   1.940   3.592
11403SOL    MW445933   5.990   1.900   3.642
11404SOL     OW45934   6.016   3.389   2.956
11404SOL    HW245935   6.061   3.451   3.013
11404SOL    HW345936   5.923   3.408   2.969
11404SOL    MW445937   6.009   3.399   2.963
11405SOL     OW45938   7.456   2.918   3.310
11405SOL    HW245939   7.371   2.931   3.269
11405SOL    HW345940   7.436   2.882   3.397
11405SOL    MW445941   7.443   2.914   3.315
11406SOL     OW45942   6.438   3.457   3.064
11406SOL    HW245943   6.462   3.446   2.973
11406SOL    HW345944   6.361   3.514   3.062
11406SOL    MW445945   6.430   3.462   3.053
11407SOL     OW45946   6.080   2.840   1.919
11407SOL    HW245947   6.003   2.853   1.975
11407SOL    HW345948   6.044   2.804   1.838
11407SOL    MW445949   6.066   2.836   1.916
11408SOL     OW45950   6.733   2.813   2.162
11408SOL    HW245951   6.643   2.834   2.137
11408SOL    HW345952   6.760   2.886   2.218
11408SOL    MW445953   6.725   2.825   2.165
11409SOL     OW45954   6.233   3.162   2.854
11409SOL    HW245955   6.226   3.141   2.948
11409SOL    HW345956   6.151   3.130   2.817
11409SOL    MW445957   6.221   3.156   2.861
11410SOL     OW45958   7.097   2.172   3.256
11410SOL    HW245959   7.044   2.174   3.336
11410SOL    HW345960   7.082   2.085   3.219
11410SOL    MW445961   7.089   2.162   3.261
11411SOL     OW45962   7.433   2.096   3.129
11411SOL    HW245963   7.414   2.163   3.064
11411SOL    HW345964   7.490   2.034   3.084
11411SOL    MW445965   7.437   2.097   3.115
11412SOL     OW45966   5.679   3.254   3.517
11412SOL    HW245967   5.723   3.187   3.463
11412SOL    HW345968   5.594   3.216   3.537
11412SOL    MW445969   5.674   3.240   3.513
11413SOL     OW45970   6.362   1.929   2.569
11413SOL    HW245971   6.291   1.990   2.551
11413SOL    HW345972   6.413   1.926   2.488
11413SOL    MW445973   6.358   1.935   2.556
11414SOL     OW45974   6.120   3.169   2.318
11414SOL    HW245975   6.113   3.201   2.408
11414SOL    HW345976   6.030   3.153   2.290
11414SOL    MW445977   6.108   3.171   2.325
11415SOL     OW45978   6.715   3.562   3.227
11415SOL    HW245979   6.635   3.547   3.177
11415SOL    HW345980   6.722   3.657   3.234
11415SOL    MW445981   6.706   3.573   3.221
11416SOL     OW45982   6.829   3.527   2.717
11416SOL    HW245983   6.876   3.600   2.676
11416SOL    HW345984   6.750   3.566   2.753
11416SOL    MW445985   6.824   3.542   2.716
11417SOL     OW45986   7.237   3.622   2.992
11417SOL    HW245987   7.280   3.592   3.072
11417SOL    HW345988   7.156   3.570   2.989
11417SOL    MW445989   7.232   3.611   3.002
11418SOL     OW45990   6.322   2.586   3.699
11418SOL    HW245991   6.392   2.528   3.671
11418SOL    HW345992   6.265   2.531   3.754
11418SOL    MW445993   6.324   2.573   3.703
11419SOL     OW45994   7.109   2.798   3.332
11419SOL    HW245995   7.114   2.851   3.412
11419SOL    HW345996   7.071   2.715   3.360
11419SOL    MW445997   7.105   2.793   3.347
11420SOL     OW45998   6.123   2.453   2.032
11420SOL    HW245999   6.089   2.509   2.102
11420SOL    HW346000   6.194   2.403   2.072
11420SOL    MW446001   6.129   2.454   2.046
11421SOL     OW46002   7.219   3.204   2.854
11421SOL    HW246003   7.254   3.186   2.767
11421SOL    HW346004   7.124   3.205   2.841
11421SOL    MW446005   7.211   3.201   2.841
11422SOL     OW46006   6.648   2.852   3.223
11422SOL    HW246007   6.691   2.887   3.301
11422SOL    HW346008   6.631   2.929   3.169
11422SOL    MW446009   6.651   2.867   3.226
11423SOL     OW46010   7.179   2.339   2.096
11423SOL    HW246011   7.171   2.410   2.033
11423SOL    HW346012   7.197   2.383   2.179
11423SOL    MW446013   7.180   2.353   2.098
11424SOL     OW46014   6.039   1.994   2.525
11424SOL    HW246015   6.089   2.037   2.456
11424SOL    HW346016   5.954   2.038   2.525
11424SOL    MW446017   6.036   2.007   2.516
11425SOL     OW46018   5.798   3.056   3.385
11425SOL    HW246019   5.826   3.009   3.463
11425SOL    HW346020   5.719   3.011   3.356
11425SOL    MW446021   5.791   3.045   3.391
11426SOL     OW46022   6.306   2.383   3.352
11426SOL    HW246023   6.278   2.471   3.376
11426SOL    HW346024   6.275   2.327   3.423
11426SOL    MW446025   6.298   2.386   3.364
11427SOL     OW46026   6.848   2.601   2.071
11427SOL    HW246027   6.895   2.619   1.990
11427SOL    HW346028   6.814   2.685   2.099
11427SOL    MW446029   6.850   2.615   2.064
11428SOL     OW46030   5.961   2.779   2.565
11428SOL    HW246031   6.019   2.835   2.513
11428SOL    HW346032   6.005   2.694   2.567
11428SOL    MW446033   5.974   2.776   2.558
11429SOL     OW46034   7.101   2.131   2.402
11429SOL    HW246035   7.023   2.081   2.427
11429SOL    HW346036   7.072   2.222   2.402
11429SOL    MW446037   7.087   2.135   2.405
11430SOL     OW46038   6.687   2.093   2.561
11430SOL    HW246039   6.707   2.168   2.505
11430SOL    HW346040   6.667   2.132   2.646
11430SOL    MW446041   6.688   2.109   2.565
11431SOL     OW46042   6.583   3.343   1.893
11431SOL    HW246043   6.610   3.421   1.845
11431SOL    HW346044   6.490   3.358   1.912
11431SOL    MW446045   6.574   3.356   1.889
11432SOL     OW46046   7.447   2.866   3.580
11432SOL    HW246047   7.360   2.846   3.616
11432SOL    HW346048   7.501   2.792   3.605
11432SOL    MW446049   7.442   2.855   3.588
11433SOL     OW46050   5.668   3.379   2.737
11433SOL    HW246051   5.700   3.383   2.828
11433SOL    HW346052   5.573   3.387   2.745
11433SOL    MW446053   5.660   3.382   2.750
11434SOL     OW46054   5.623   2.505   2.284
11434SOL    HW246055   5.563   2.477   2.354
11434SOL    HW346056   5.697   2.445   2.290
11434SOL    MW446057   5.625   2.494   2.293
11435SOL     OW46058   7.191   3.717   3.718
11435SOL    HW246059   7.236   3.641   3.683
11435SOL    HW346060   7.229   3.730   3.805
11435SOL    MW446061   7.201   3.710   3.724
11436SOL     OW46062   6.791   3.236   2.444
11436SOL    HW246063   6.814   3.187   2.522
11436SOL    HW346064   6.872   3.278   2.416
11436SOL    MW446065   6.804   3.236   2.451
11437SOL     OW46066   6.049   2.244   3.173
11437SOL    HW246067   6.082   2.325   3.213
11437SOL    HW346068   6.022   2.270   3.085
11437SOL    MW446069   6.048   2.258   3.167
11438SOL     OW46070   6.003   2.211   2.909
11438SOL    HW246071   6.033   2.125   2.880
11438SOL    HW346072   5.908   2.204   2.912
11438SOL    MW446073   5.995   2.200   2.907
11439SOL     OW46074   6.832   2.420   3.600
11439SOL    HW246075   6.884   2.355   3.553
11439SOL    HW346076   6.790   2.471   3.530
11439SOL    MW446077   6.833   2.417   3.583
11440SOL     OW46078   6.931   2.215   3.461
11440SOL    HW246079   6.838   2.199   3.448
11440SOL    HW346080   6.957   2.153   3.529
11440SOL    MW446081   6.921   2.205   3.468
11441SOL     OW46082   6.146   1.989   2.800
11441SOL    HW246083   6.156   1.898   2.826
11441SOL    HW346084   6.102   1.985   2.715
11441SOL    MW446085   6.142   1.977   2.792
11442SOL     OW46086   6.240   3.604   3.346
11442SOL    HW246087   6.157   3.589   3.391
11442SOL    HW346088   6.299   3.537   3.381
11442SOL    MW446089   6.238   3.594   3.356
11443SOL     OW46090   7.297   2.311   2.971
11443SOL    HW246091   7.230   2.344   3.031
11443SOL    HW346092   7.340   2.389   2.937
11443SOL    MW446093   7.295   2.326   2.975
11444SOL     OW46094   7.475   3.031   2.941
11444SOL    HW246095   7.468   2.971   2.866
11444SOL    HW346096   7.401   3.091   2.930
11444SOL    MW446097   7.465   3.031   2.930
11445SOL     OW46098   6.857   2.893   2.859
11445SOL    HW246099   6.871   2.865   2.950
11445SOL    HW346100   6.943   2.924   2.831
11445SOL    MW446101   6.870   2.894   2.868
11446SOL     OW46102   6.940   2.388   3.138
11446SOL    HW246103   6.961   2.389   3.045
11446SOL    HW346104   6.985   2.310   3.171
11446SOL    MW446105   6.947   2.378   3.130
11447SOL     OW46106   7.433   2.519   3.680
11447SOL    HW246107   7.470   2.464   3.749
11447SOL    HW346108   7.458   2.476   3.598
11447SOL    MW446109   7.440   2.507   3.679
11448SOL     OW46110   6.980   2.817   3.731
11448SOL    HW246111   7.046   2.765   3.685
11448SOL    HW346112   7.000   2.804   3.824
11448SOL    MW446113   6.991   2.808   3.738
11449SOL     OW46114   6.931   1.903   2.080
11449SOL    HW246115   7.005   1.947   2.123
11449SOL    HW346116   6.855   1.957   2.102
11449SOL    MW446117   6.931   1.915   2.088
11450SOL     OW46118   6.991   2.678   2.358
11450SOL    HW246119   6.906   2.648   2.328
11450SOL    HW346120   6.983   2.685   2.453
11450SOL    MW446121   6.979   2.676   2.367
11451SOL     OW46122   6.067   3.141   3.089
11451SOL    HW246123   6.079   3.168   3.180
11451SOL    HW346124   6.048   3.222   3.042
11451SOL    MW446125   6.066   3.156   3.094
11452SOL     OW46126   6.351   2.121   2.912
11452SOL    HW246127   6.324   2.123   3.003
11452SOL    HW346128   6.281   2.073   2.867
11452SOL    MW446129   6.339   2.117   2.919
11453SOL     OW46130   6.205   3.613   3.074
11453SOL    HW246131   6.257   3.690   3.051
11453SOL    HW346132   6.214   3.605   3.169
11453SOL    MW446133   6.214   3.620   3.085
11454SOL     OW46134   7.107   3.198   3.306
11454SOL    HW246135   7.092   3.127   3.369
11454SOL    HW346136   7.153   3.156   3.234
11454SOL    MW446137   7.113   3.182   3.306
11455SOL     OW46138   6.181   2.929   3.423
11455SOL    HW246139   6.218   2.934   3.335
11455SOL    HW346140   6.220   3.002   3.470
11455SOL    MW446141   6.191   2.939   3.418
11456SOL     OW46142   6.361   2.972   3.235
11456SOL    HW246143   6.420   2.918   3.288
11456SOL    HW346144   6.376   2.944   3.145
11456SOL    MW446145   6.371   2.961   3.231
11457SOL     OW46146   6.364   2.344   2.084
11457SOL    HW246147   6.437   2.393   2.047
11457SOL    HW346148   6.380   2.253   2.058
11457SOL    MW446149   6.376   2.339   2.077
11458SOL     OW46150   7.172   3.461   3.407
11458SOL    HW246151   7.214   3.446   3.492
11458SOL    HW346152   7.163   3.374   3.369
11458SOL    MW446153   7.176   3.449   3.414
11459SOL     OW46154   6.832   1.940   2.998
11459SOL    HW246155   6.887   1.949   2.920
11459SOL    HW346156   6.887   1.974   3.069
11459SOL    MW446157   6.846   1.945   2.997
11460SOL     OW46158   5.839   2.853   2.182
11460SOL    HW246159   5.776   2.869   2.111
11460SOL    HW346160   5.786   2.816   2.253
11460SOL    MW446161   5.824   2.850   2.182
11461SOL     OW46162   6.195   3.207   2.041
11461SOL    HW246163   6.210   3.183   2.133
11461SOL    HW346164   6.103   3.185   2.025
11461SOL    MW446165   6.185   3.200   2.051
11462SOL     OW46166   6.734   3.438   2.193
11462SOL    HW246167   6.742   3.356   2.144
11462SOL    HW346168   6.653   3.477   2.160
11462SOL    MW446169   6.724   3.433   2.183
11463SOL     OW46170   5.993   3.596   2.762
11463SOL    HW246171   5.997   3.507   2.797
11463SOL    HW346172   6.019   3.587   2.671
11463SOL    MW446173   5.996   3.584   2.754
11464SOL     OW46174   6.610   3.074   3.005
11464SOL    HW246175   6.542   3.008   3.021
11464SOL    HW346176   6.628   3.068   2.912
11464SOL    MW446177   6.603   3.065   2.996
11465SOL     OW46178   5.699   3.349   3.256
11465SOL    HW246179   5.689   3.307   3.342
11465SOL    HW346180   5.620   3.402   3.246
11465SOL    MW446181   5.688   3.350   3.267
11466SOL     OW46182   6.603   2.213   2.826
11466SOL    HW246183   6.533   2.165   2.871
11466SOL    HW346184   6.635   2.276   2.890
11466SOL    MW446185   6.598   2.215   2.840
11467SOL     OW46186   6.254   2.649   3.446
11467SOL    HW246187   6.247   2.744   3.434
11467SOL    HW346188   6.263   2.638   3.541
11467SOL    MW446189   6.255   2.661   3.456
11468SOL     OW46190   5.975   3.164   3.704
11468SOL    HW246191   6.047   3.166   3.641
11468SOL    HW346192   5.945   3.073   3.703
11468SOL    MW446193   5.980   3.153   3.696
11469SOL     OW46194   7.059   1.927   3.171
11469SOL    HW246195   7.130   1.873   3.135
11469SOL    HW346196   7.058   1.906   3.264
11469SOL    MW446197   7.068   1.918   3.179
11470SOL     OW46198   7.259   3.457   3.655
11470SOL    HW246199   7.232   3.454   3.746
11470SOL    HW346200   7.355   3.461   3.658
11470SOL    MW446201   7.269   3.457   3.667
11471SOL     OW46202   6.070   2.319   2.639
11471SOL    HW246203   6.141   2.267   2.602
11471SOL    HW346204   6.056   2.284   2.726
11471SOL    MW446205   6.078   2.308   2.646
11472SOL     OW46206   5.625   3.654   3.711
11472SOL    HW246207   5.675   3.632   3.633
11472SOL    HW346208   5.633   3.749   3.719
11472SOL    MW446209   5.633   3.663   3.702
11473SOL     OW46210   6.386   3.412   2.715
11473SOL    HW246211   6.314   3.349   2.728
11473SOL    HW346212   6.347   3.497   2.733
11473SOL    MW446213   6.370   3.415   2.718
11474SOL     OW46214   6.706   2.260   2.363
11474SOL    HW246215   6.728   2.197   2.295
11474SOL    HW346216   6.611   2.252   2.374
11474SOL    MW446217   6.696   2.251   2.355
11475SOL     OW46218   5.791   1.950   2.295
11475SOL    HW246219   5.862   1.971   2.234
11475SOL    HW346220   5.745   1.878   2.253
11475SOL    MW446221   5.795   1.944   2.281
11476SOL     OW46222   5.622   2.417   3.438
11476SOL    HW246223   5.686   2.483   3.413
11476SOL    HW346224   5.541   2.444   3.395
11476SOL    MW446225   5.620   2.429   3.430
11477SOL     OW46226   7.360   3.324   2.395
11477SOL    HW246227   7.330   3.257   2.456
11477SOL    HW346228   7.454   3.330   2.409
11477SOL    MW446229   7.368   3.316   2.405
11478SOL     OW46230   6.916   3.001   2.325
11478SOL    HW246231   6.888   3.087   2.358
11478SOL    HW346232   6.944   3.017   2.235
11478SOL    MW446233   6.916   3.015   2.317
11479SOL     OW46234   6.578   1.921   2.378
11479SOL    HW246235   6.615   1.980   2.443
11479SOL    HW346236   6.555   1.977   2.304
11479SOL    MW446237   6.579   1.936   2.377
11480SOL     OW46238   7.431   2.803   2.800
11480SOL    HW246239   7.422   2.835   2.711
11480SOL    HW346240   7.384   2.719   2.800
11480SOL    MW446241   7.424   2.796   2.790
11481SOL     OW46242   5.807   2.643   3.379
11481SOL    HW246243   5.828   2.712   3.317
11481SOL    HW346244   5.887   2.590   3.384
11481SOL    MW446245   5.820   2.644   3.373
11482SOL     OW46246   7.343   2.734   2.501
11482SOL    HW246247   7.437   2.723   2.489
11482SOL    HW346248   7.319   2.806   2.442
11482SOL    MW446249   7.353   2.742   2.492
11483SOL     OW46250   5.792   2.658   3.646
11483SOL    HW246251   5.718   2.602   3.672
11483SOL    HW346252   5.787   2.661   3.551
11483SOL    MW446253   5.781   2.651   3.636
11484SOL     OW46254   5.958   1.945   3.096
11484SOL    HW246255   6.001   2.029   3.116
11484SOL    HW346256   6.031   1.883   3.089
11484SOL    MW446257   5.973   1.948   3.097
11485SOL     OW46258   5.999   2.612   2.274
11485SOL    HW246259   5.999   2.707   2.259
11485SOL    HW346260   6.076   2.596   2.328
11485SOL    MW446261   6.009   2.623   2.279
11486SOL     OW46262   6.775   2.471   3.338
11486SOL    HW246263   6.811   2.444   3.254
11486SOL    HW346264   6.688   2.505   3.317
11486SOL    MW446265   6.769   2.472   3.325
11487SOL     OW46266   5.758   2.343   2.563
11487SOL    HW246267   5.820   2.350   2.636
11487SOL    HW346268   5.758   2.250   2.540
11487SOL    MW446269   5.766   2.332   2.570
11488SOL     OW46270   7.305   3.683   2.095
11488SOL    HW246271   7.372   3.716   2.035
11488SOL    HW346272   7.262   3.762   2.129
11488SOL    MW446273   7.307   3.698   2.091
11489SOL     OW46274   6.440   2.604   3.047
11489SOL    HW246275   6.398   2.522   3.023
11489SOL    HW346276   6.441   2.603   3.143
11489SOL    MW446277   6.433   2.593   3.056
11490SOL     OW46278   7.111   3.737   3.446
11490SOL    HW246279   7.114   3.643   3.429
11490SOL    HW346280   7.134   3.745   3.538
11490SOL    MW446281   7.114   3.725   3.456
11491SOL     OW46282   6.244   2.074   3.152
11491SOL    HW246283   6.175   2.137   3.173
11491SOL    HW346284   6.271   2.038   3.237
11491SOL    MW446285   6.238   2.077   3.165
11492SOL     OW46286   5.627   2.915   2.021
11492SOL    HW246287   5.596   2.980   2.084
11492SOL    HW346288   5.576   2.837   2.040
11492SOL    MW446289   5.617   2.912   2.031
11493SOL     OW46290   7.039   1.927   2.769
11493SOL    HW246291   7.127   1.936   2.806
11493SOL    HW346292   7.049   1.868   2.695
11493SOL    MW446293   7.053   1.921   2.763
11494SOL     OW46294   7.071   2.666   2.613
11494SOL    HW246295   7.151   2.681   2.562
11494SOL    HW346296   7.064   2.571   2.619
11494SOL    MW446297   7.080   2.655   2.608
11495SOL     OW46298   6.211   3.715   1.963
11495SOL    HW246299   6.116   3.715   1.955
11495SOL    HW346300   6.227   3.661   2.041
11495SOL    MW446301   6.201   3.709   1.972
11496SOL     OW46302   6.521   2.592   3.310
11496SOL    HW246303   6.590   2.659   3.307
11496SOL    HW346304   6.454   2.630   3.366
11496SOL    MW446305   6.522   2.605   3.317
11497SOL     OW46306   5.939   2.892   3.558
11497SOL    HW246307   5.893   2.808   3.560
11497SOL    HW346308   5.996   2.886   3.482
11497SOL    MW446309   5.941   2.880   3.550
11498SOL     OW46310   7.056   2.535   1.879
11498SOL    HW246311   6.984   2.511   1.821
11498SOL    HW346312   7.122   2.572   1.821
11498SOL    MW446313   7.055   2.537   1.864
11499SOL     OW46314   6.190   3.267   2.559
11499SOL    HW246315   6.255   3.200   2.580
11499SOL    HW346316   6.242   3.344   2.536
11499SOL    MW446317   6.205   3.269   2.558
11500SOL     OW46318   6.451   2.432   2.689
11500SOL    HW246319   6.391   2.450   2.761
11500SOL    HW346320   6.485   2.344   2.708
11500SOL    MW446321   6.447   2.422   2.702
11501SOL     OW46322   7.392   1.931   3.358
11501SOL    HW246323   7.313   1.977   3.386
11501SOL    HW346324   7.427   1.985   3.287
11501SOL    MW446325   7.386   1.944   3.352
11502SOL     OW46326   6.676   3.015   2.708
11502SOL    HW246327   6.768   2.996   2.726
11502SOL    HW346328   6.649   2.945   2.648
11502SOL    MW446329   6.684   3.003   2.702
11503SOL     OW46330   6.469   2.835   2.063
11503SOL    HW246331   6.455   2.747   2.028
11503SOL    HW346332   6.420   2.892   2.004
11503SOL    MW446333   6.461   2.830   2.051
11504SOL     OW46334   6.950   3.253   2.804
11504SOL    HW246335   6.923   3.337   2.769
11504SOL    HW346336   6.910   3.248   2.891
11504SOL    MW446337   6.943   3.262   2.810
11505SOL     OW46338   6.869   3.201   3.072
11505SOL    HW246339   6.880   3.168   3.161
11505SOL    HW346340   6.788   3.160   3.041
11505SOL    MW446341   6.859   3.193   3.078
11506SOL     OW46342   5.882   2.559   2.842
11506SOL    HW246343   5.832   2.558   2.923
11506SOL    HW346344   5.902   2.651   2.826
11506SOL    MW446345   5.878   2.571   2.850
11507SOL     OW46346   6.949   3.323   3.604
11507SOL    HW246347   6.949   3.417   3.620
11507SOL    HW346348   6.994   3.313   3.520
11507SOL    MW446349   6.955   3.333   3.595
11508SOL     OW46350   7.188   2.041   2.165
11508SOL    HW246351   7.181   2.045   2.260
11508SOL    HW346352   7.200   2.132   2.138
11508SOL    MW446353   7.189   2.054   2.173
11509SOL     OW46354   6.477   2.604   2.279
11509SOL    HW246355   6.457   2.590   2.186
11509SOL    HW346356   6.570   2.583   2.286
11509SOL    MW446357   6.487   2.599   2.268
11510SOL     OW46358   5.804   2.227   3.583
11510SOL    HW246359   5.761   2.286   3.520
11510SOL    HW346360   5.872   2.282   3.623
11510SOL    MW446361   5.808   2.242   3.580
11511SOL     OW46362   6.916   2.847   3.128
11511SOL    HW246363   6.979   2.844   3.201
11511SOL    HW346364   6.832   2.865   3.170
11511SOL    MW446365   6.912   2.849   3.143
11512SOL     OW46366   6.460   3.562   2.317
11512SOL    HW246367   6.518   3.633   2.344
11512SOL    HW346368   6.483   3.490   2.375
11512SOL    MW446369   6.471   3.562   2.328
11513SOL     OW46370   7.255   2.024   2.907
11513SOL    HW246371   7.300   1.942   2.926
11513SOL    HW346372   7.275   2.080   2.983
11513SOL    MW446373   7.265   2.020   2.919
11514SOL     OW46374   5.703   1.867   3.006
11514SOL    HW246375   5.694   1.868   2.911
11514SOL    HW346376   5.797   1.879   3.021
11514SOL    MW446377   5.715   1.870   2.997
11515SOL     OW46378   7.340   3.060   2.626
11515SOL    HW246379   7.319   3.006   2.549
11515SOL    HW346380   7.436   3.058   2.630
11515SOL    MW446381   7.349   3.053   2.615
11516SOL     OW46382   6.032   3.205   3.369
11516SOL    HW246383   5.953   3.155   3.392
11516SOL    HW346384   6.102   3.164   3.419
11516SOL    MW446385   6.030   3.193   3.379
11517SOL     OW46386   5.916   1.994   2.052
11517SOL    HW246387   5.845   2.049   2.020
11517SOL    HW346388   5.958   1.960   1.973
11517SOL    MW446389   5.912   1.996   2.038
11518SOL     OW46390   7.040   2.491   2.888
11518SOL    HW246391   6.963   2.537   2.854
11518SOL    HW346392   7.097   2.560   2.922
11518SOL    MW446393   7.037   2.506   2.888
11519SOL     OW46394   5.672   2.093   1.901
11519SOL    HW246395   5.639   2.172   1.945
11519SOL    HW346396   5.727   2.126   1.830
11519SOL    MW446397   5.675   2.107   1.898
11520SOL     OW46398   5.706   3.350   2.090
11520SOL    HW246399   5.723   3.434   2.132
11520SOL    HW346400   5.741   3.359   2.002
11520SOL    MW446401   5.711   3.363   2.084
11521SOL     OW46402   6.978   3.439   2.307
11521SOL    HW246403   7.041   3.429   2.236
11521SOL    HW346404   6.895   3.459   2.262
11521SOL    MW446405   6.975   3.440   2.292
11522SOL     OW46406   7.341   2.707   3.993
11522SOL    HW246407   7.382   2.649   4.058
11522SOL    HW346408   7.248   2.699   4.010
11522SOL    MW446409   7.335   2.699   4.003
11523SOL     OW46410   7.207   2.639   4.988
11523SOL    HW246411   7.162   2.706   5.039
11523SOL    HW346412   7.295   2.675   4.974
11523SOL    MW446413   7.213   2.652   4.992
11524SOL     OW46414   6.135   2.890   4.222
11524SOL    HW246415   6.225   2.865   4.206
11524SOL    HW346416   6.131   2.983   4.199
11524SOL    MW446417   6.147   2.899   4.217
11525SOL     OW46418   7.251   3.593   4.364
11525SOL    HW246419   7.263   3.539   4.442
11525SOL    HW346420   7.288   3.541   4.293
11525SOL    MW446421   7.257   3.578   4.365
11526SOL     OW46422   6.630   3.478   5.365
11526SOL    HW246423   6.671   3.514   5.286
11526SOL    HW346424   6.665   3.389   5.372
11526SOL    MW446425   6.641   3.471   5.356
11527SOL     OW46426   7.187   3.033   4.969
11527SOL    HW246427   7.108   2.998   4.927
11527SOL    HW346428   7.214   3.105   4.913
11527SOL    MW446429   7.180   3.038   4.956
11528SOL     OW46430   6.419   2.346   4.235
11528SOL    HW246431   6.394   2.434   4.263
11528SOL    HW346432   6.416   2.349   4.139
11528SOL    MW446433   6.415   2.358   4.227
11529SOL     OW46434   5.861   2.374   4.163
11529SOL    HW246435   5.893   2.462   4.145
11529SOL    HW346436   5.849   2.372   4.258
11529SOL    MW446437   5.864   2.386   4.175
11530SOL     OW46438   5.939   2.787   5.064
11530SOL    HW246439   6.002   2.734   5.015
11530SOL    HW346440   5.920   2.861   5.007
11530SOL    MW446441   5.945   2.789   5.051
11531SOL     OW46442   6.260   2.129   4.250
11531SOL    HW246443   6.318   2.205   4.252
11531SOL    HW346444   6.195   2.150   4.183
11531SOL    MW446445   6.259   2.141   4.241
11532SOL     OW46446   6.347   3.056   4.425
11532SOL    HW246447   6.427   3.059   4.477
11532SOL    HW346448   6.375   3.023   4.339
11532SOL    MW446449   6.361   3.052   4.420
11533SOL     OW46450   6.372   3.397   5.328
11533SOL    HW246451   6.456   3.423   5.367
11533SOL    HW346452   6.396   3.341   5.254
11533SOL    MW446453   6.386   3.393   5.323
11534SOL     OW46454   6.124   2.560   4.416
11534SOL    HW246455   6.109   2.480   4.467
11534SOL    HW346456   6.206   2.595   4.450
11534SOL    MW446457   6.132   2.552   4.428
11535SOL     OW46458   6.461   3.246   5.101
11535SOL    HW246459   6.425   3.312   5.041
11535SOL    HW346460   6.389   3.184   5.114
11535SOL    MW446461   6.447   3.246   5.095
11536SOL     OW46462   6.266   2.386   4.793
11536SOL    HW246463   6.172   2.382   4.811
11536SOL    HW346464   6.296   2.295   4.802
11536SOL    MW446465   6.257   2.374   4.796
11537SOL     OW46466   6.012   2.800   4.697
11537SOL    HW246467   5.967   2.807   4.613
11537SOL    HW346468   5.992   2.883   4.741
11537SOL    MW446469   6.004   2.812   4.691
11538SOL     OW46470   5.709   3.646   4.572
11538SOL    HW246471   5.798   3.638   4.607
11538SOL    HW346472   5.673   3.558   4.577
11538SOL    MW446473   5.716   3.633   4.577
11539SOL     OW46474   6.974   3.038   3.941
11539SOL    HW246475   6.892   3.074   3.907
11539SOL    HW346476   7.042   3.081   3.890
11539SOL    MW446477   6.972   3.048   3.929
11540SOL     OW46478   5.973   3.173   4.607
11540SOL    HW246479   5.949   3.226   4.683
11540SOL    HW346480   6.029   3.231   4.555
11540SOL    MW446481   5.977   3.188   4.610
11541SOL     OW46482   6.535   2.817   4.417
11541SOL    HW246483   6.449   2.804   4.457
11541SOL    HW346484   6.588   2.744   4.449
11541SOL    MW446485   6.531   2.806   4.426
11542SOL     OW46486   5.943   3.469   5.202
11542SOL    HW246487   5.851   3.445   5.187
11542SOL    HW346488   5.987   3.386   5.219
11542SOL    MW446489   5.937   3.454   5.201
11543SOL     OW46490   6.526   3.179   4.134
11543SOL    HW246491   6.503   3.241   4.202
11543SOL    HW346492   6.483   3.097   4.160
11543SOL    MW446493   6.518   3.175   4.145
11544SOL     OW46494   7.399   2.180   4.590
11544SOL    HW246495   7.336   2.160   4.659
11544SOL    HW346496   7.389   2.109   4.527
11544SOL    MW446497   7.389   2.167   4.591
11545SOL     OW46498   6.023   2.152   4.102
11545SOL    HW246499   5.997   2.114   4.018
11545SOL    HW346500   5.960   2.222   4.118
11545SOL    MW446501   6.012   2.155   4.093
11546SOL     OW46502   5.858   3.113   4.139
11546SOL    HW246503   5.806   3.181   4.095
11546SOL    HW346504   5.855   3.039   4.079
11546SOL    MW446505   5.850   3.112   4.126
11547SOL     OW46506   6.520   3.576   3.917
11547SOL    HW246507   6.475   3.592   4.000
11547SOL    HW346508   6.451   3.541   3.859
11547SOL    MW446509   6.506   3.573   3.919
11548SOL     OW46510   7.455   2.349   3.892
11548SOL    HW246511   7.364   2.351   3.920
11548SOL    HW346512   7.500   2.411   3.950
11548SOL    MW446513   7.448   2.357   3.902
11549SOL     OW46514   7.200   2.952   4.242
11549SOL    HW246515   7.110   2.952   4.277
11549SOL    HW346516   7.193   2.998   4.159
11549SOL    MW446517   7.187   2.958   4.236
11550SOL     OW46518   7.000   2.587   5.314
11550SOL    HW246519   7.069   2.525   5.291
11550SOL    HW346520   6.925   2.561   5.261
11550SOL    MW446521   7.000   2.574   5.305
11551SOL     OW46522   5.741   3.467   4.866
11551SOL    HW246523   5.724   3.413   4.943
11551SOL    HW346524   5.729   3.557   4.896
11551SOL    MW446525   5.738   3.471   4.880
11552SOL     OW46526   6.736   2.974   5.306
11552SOL    HW246527   6.721   3.067   5.291
11552SOL    HW346528   6.831   2.964   5.306
11552SOL    MW446529   6.745   2.984   5.303
11553SOL     OW46530   6.532   2.398   5.507
11553SOL    HW246531   6.622   2.399   5.474
11553SOL    HW346532   6.491   2.323   5.465
11553SOL    MW446533   6.538   2.388   5.498
11554SOL     OW46534   7.107   2.930   4.634
11554SOL    HW246535   7.110   2.864   4.565
11554SOL    HW346536   7.192   2.973   4.630
11554SOL    MW446537   7.119   2.926   4.625
11555SOL     OW46538   6.727   2.533   4.203
11555SOL    HW246539   6.753   2.557   4.114
11555SOL    HW346540   6.709   2.440   4.199
11555SOL    MW446541   6.729   2.525   4.190
11556SOL     OW46542   7.392   3.153   4.054
11556SOL    HW246543   7.348   3.194   4.129
11556SOL    HW346544   7.449   3.221   4.019
11556SOL    MW446545   7.394   3.167   4.059
11557SOL     OW46546   6.312   2.202   5.457
11557SOL    HW246547   6.322   2.128   5.397
11557SOL    HW346548   6.348   2.171   5.540
11557SOL    MW446549   6.318   2.188   5.459
11558SOL     OW46550   6.048   3.569   4.372
11558SOL    HW246551   6.080   3.657   4.350
11558SOL    HW346552   6.001   3.541   4.294
11558SOL    MW446553   6.047   3.577   4.359
11559SOL     OW46554   7.432   1.931   4.421
11559SOL    HW246555   7.486   1.882   4.483
11559SOL    HW346556   7.375   1.865   4.382
11559SOL    MW446557   7.432   1.915   4.423
11560SOL     OW46558   5.764   3.629   3.949
11560SOL    HW246559   5.793   3.719   3.941
11560SOL    HW346560   5.714   3.612   3.870
11560SOL    MW446561   5.762   3.637   3.938
11561SOL     OW46562   6.551   1.884   4.834
11561SOL    HW246563   6.510   1.962   4.796
11561SOL    HW346564   6.645   1.902   4.829
11561SOL    MW446565   6.557   1.896   4.829
11562SOL     OW46566   7.168   3.437   3.920
11562SOL    HW246567   7.216   3.506   3.966
11562SOL    HW346568   7.089   3.481   3.889
11562SOL    MW446569   7.163   3.451   3.923
11563SOL     OW46570   6.566   2.562   3.864
11563SOL    HW246571   6.568   2.509   3.785
11563SOL    HW346572   6.654   2.599   3.870
11563SOL    MW446573   6.578   2.561   3.853
11564SOL     OW46574   7.180   2.488   4.200
11564SOL    HW246575   7.219   2.488   4.287
11564SOL    HW346576   7.121   2.564   4.200
11564SOL    MW446577   7.177   2.499   4.211
11565SOL     OW46578   6.497   2.855   5.329
11565SOL    HW246579   6.474   2.835   5.419
11565SOL    HW346580   6.582   2.899   5.334
11565SOL    MW446581   6.504   2.858   5.341
11566SOL     OW46582   6.577   1.992   5.089
11566SOL    HW246583   6.583   1.954   5.002
11566SOL    HW346584   6.566   2.086   5.074
11566SOL    MW446585   6.578   2.000   5.077
11567SOL     OW46586   6.666   2.481   4.923
11567SOL    HW246587   6.741   2.510   4.870
11567SOL    HW346588   6.598   2.546   4.907
11567SOL    MW446589   6.667   2.493   4.913
11568SOL     OW46590   7.216   2.449   5.200
11568SOL    HW246591   7.197   2.358   5.179
11568SOL    HW346592   7.194   2.498   5.121
11568SOL    MW446593   7.211   2.442   5.187
11569SOL     OW46594   7.358   3.543   5.104
11569SOL    HW246595   7.286   3.505   5.155
11569SOL    HW346596   7.375   3.628   5.145
11569SOL    MW446597   7.352   3.548   5.116
11570SOL     OW46598   6.663   2.187   5.306
11570SOL    HW246599   6.629   2.226   5.225
11570SOL    HW346600   6.641   2.095   5.299
11570SOL    MW446601   6.656   2.180   5.296
11571SOL     OW46602   7.072   3.001   5.382
11571SOL    HW246603   7.154   3.042   5.412
11571SOL    HW346604   7.035   2.963   5.462
11571SOL    MW446605   7.078   3.002   5.397
11572SOL     OW46606   7.367   2.374   4.366
11572SOL    HW246607   7.456   2.343   4.383
11572SOL    HW346608   7.310   2.314   4.414
11572SOL    MW446609   7.370   2.362   4.375
11573SOL     OW46610   5.793   2.088   4.395
11573SOL    HW246611   5.784   2.028   4.321
11573SOL    HW346612   5.726   2.059   4.458
11573SOL    MW446613   5.783   2.075   4.393
11574SOL     OW46614   6.736   3.181   3.956
11574SOL    HW246615   6.686   3.183   4.038
11574SOL    HW346616   6.670   3.199   3.888
11574SOL    MW446617   6.722   3.183   3.958
11575SOL     OW46618   5.740   2.261   4.758
11575SOL    HW246619   5.712   2.352   4.767
11575SOL    HW346620   5.677   2.222   4.697
11575SOL    MW446621   5.727   2.267   4.752
11576SOL     OW46622   6.199   3.599   4.064
11576SOL    HW246623   6.120   3.557   4.097
11576SOL    HW346624   6.265   3.582   4.131
11576SOL    MW446625   6.198   3.591   4.077
11577SOL     OW46626   7.327   3.119   5.461
11577SOL    HW246627   7.377   3.045   5.493
11577SOL    HW346628   7.273   3.146   5.536
11577SOL    MW446629   7.327   3.113   5.474
11578SOL     OW46630   6.335   3.014   3.771
11578SOL    HW246631   6.257   2.960   3.758
11578SOL    HW346632   6.306   3.087   3.824
11578SOL    MW446633   6.321   3.016   3.776
11579SOL     OW46634   7.461   2.754   4.963
11579SOL    HW246635   7.477   2.792   4.876
11579SOL    HW346636   7.495   2.820   5.024
11579SOL    MW446637   7.468   2.767   4.959
11580SOL     OW46638   7.253   3.463   4.632
11580SOL    HW246639   7.282   3.530   4.693
11580SOL    HW346640   7.234   3.387   4.687
11580SOL    MW446641   7.255   3.463   4.647
11581SOL     OW46642   6.916   3.530   3.839
11581SOL    HW246643   6.842   3.493   3.889
11581SOL    HW346644   6.924   3.620   3.872
11581SOL    MW446645   6.907   3.537   3.851
11582SOL     OW46646   5.724   2.536   4.928
11582SOL    HW246647   5.786   2.566   4.994
11582SOL    HW346648   5.658   2.605   4.922
11582SOL    MW446649   5.723   2.549   4.935
11583SOL     OW46650   7.140   3.204   3.781
11583SOL    HW246651   7.087   3.253   3.717
11583SOL    HW346652   7.171   3.270   3.842
11583SOL    MW446653   7.138   3.218   3.779
11584SOL     OW46654   6.365   2.093   3.836
11584SOL    HW246655   6.313   2.013   3.824
11584SOL    HW346656   6.452   2.070   3.804
11584SOL    MW446657   6.368   2.079   3.830
11585SOL     OW46658   5.819   3.645   5.380
11585SOL    HW246659   5.793   3.713   5.318
11585SOL    HW346660   5.867   3.582   5.328
11585SOL    MW446661   5.821   3.645   5.366
11586SOL     OW46662   5.871   2.964   4.887
11586SOL    HW246663   5.924   3.039   4.912
11586SOL    HW346664   5.790   3.002   4.853
11586SOL    MW446665   5.867   2.979   4.887
11587SOL     OW46666   6.411   2.868   4.875
11587SOL    HW246667   6.439   2.777   4.887
11587SOL    HW346668   6.340   2.862   4.811
11587SOL    MW446669   6.404   2.856   4.870
11588SOL     OW46670   5.726   2.733   4.293
11588SOL    HW246671   5.817   2.748   4.320
11588SOL    HW346672   5.729   2.654   4.239
11588SOL    MW446673   5.738   2.725   4.291
11589SOL     OW46674   5.962   2.441   5.547
11589SOL    HW246675   5.909   2.521   5.554
11589SOL    HW346676   6.032   2.453   5.612
11589SOL    MW446677   5.964   2.454   5.555
11590SOL     OW46678   6.348   1.991   5.254
11590SOL    HW246679   6.325   1.899   5.256
11590SOL    HW346680   6.434   1.993   5.211
11590SOL    MW446681   6.355   1.981   5.250
11591SOL     OW46682   6.032   2.515   5.293
11591SOL    HW246683   6.112   2.565   5.279
11591SOL    HW346684   6.023   2.509   5.388
11591SOL    MW446685   6.041   2.521   5.303
11592SOL     OW46686   6.353   3.665   4.667
11592SOL    HW246687   6.442   3.680   4.697
11592SOL    HW346688   6.348   3.712   4.583
11592SOL    MW446689   6.363   3.673   4.660
11593SOL     OW46690   7.009   2.040   5.564
11593SOL    HW246691   7.065   1.967   5.590
11593SOL    HW346692   6.979   2.078   5.646
11593SOL    MW446693   7.013   2.035   5.577
11594SOL     OW46694   5.734   3.345   4.332
11594SOL    HW246695   5.706   3.384   4.414
11594SOL    HW346696   5.754   3.254   4.354
11594SOL    MW446697   5.732   3.337   4.345
11595SOL     OW46698   6.567   3.388   4.367
11595SOL    HW246699   6.650   3.342   4.351
11595SOL    HW346700   6.557   3.387   4.463
11595SOL    MW446701   6.577   3.381   4.377
11596SOL     OW46702   7.399   2.533   4.681
11596SOL    HW246703   7.488   2.563   4.663
11596SOL    HW346704   7.379   2.473   4.610
11596SOL    MW446705   7.408   2.530   4.670
11597SOL     OW46706   7.250   2.712   5.561
11597SOL    HW246707   7.305   2.636   5.542
11597SOL    HW346708   7.252   2.720   5.656
11597SOL    MW446709   7.258   2.703   5.569
11598SOL     OW46710   6.300   3.445   3.772
11598SOL    HW246711   6.240   3.514   3.742
11598SOL    HW346712   6.245   3.387   3.825
11598SOL    MW446713   6.284   3.447   3.774
11599SOL     OW46714   6.738   2.090   3.995
11599SOL    HW246715   6.671   2.066   3.932
11599SOL    HW346716   6.803   2.139   3.944
11599SOL    MW446717   6.738   2.092   3.980
11600SOL     OW46718   6.545   2.274   5.080
11600SOL    HW246719   6.464   2.315   5.108
11600SOL    HW346720   6.592   2.342   5.032
11600SOL    MW446721   6.540   2.289   5.078
11601SOL     OW46722   6.805   2.612   4.703
11601SOL    HW246723   6.818   2.706   4.713
11601SOL    HW346724   6.766   2.602   4.617
11601SOL    MW446725   6.801   2.623   4.693
11602SOL     OW46726   6.257   2.807   4.507
11602SOL    HW246727   6.168   2.798   4.540
11602SOL    HW346728   6.261   2.897   4.475
11602SOL    MW446729   6.246   2.818   4.507
11603SOL     OW46730   7.056   2.390   4.502
11603SOL    HW246731   7.001   2.311   4.501
11603SOL    HW346732   7.038   2.431   4.586
11603SOL    MW446733   7.046   2.385   4.511
11604SOL     OW46734   6.027   2.077   5.319
11604SOL    HW246735   5.948   2.095   5.371
11604SOL    HW346736   6.022   2.139   5.246
11604SOL    MW446737   6.017   2.087   5.316
11605SOL     OW46738   6.675   2.594   4.459
11605SOL    HW246739   6.612   2.526   4.483
11605SOL    HW346740   6.695   2.575   4.367
11605SOL    MW446741   6.669   2.581   4.451
11606SOL     OW46742   5.931   3.489   4.161
11606SOL    HW246743   5.892   3.536   4.087
11606SOL    HW346744   5.865   3.424   4.186
11606SOL    MW446745   5.918   3.487   4.155
11607SOL     OW46746   6.423   2.898   4.185
11607SOL    HW246747   6.425   2.872   4.092
11607SOL    HW346748   6.481   2.835   4.228
11607SOL    MW446749   6.431   2.887   4.179
11608SOL     OW46750   6.976   3.458   4.957
11608SOL    HW246751   6.901   3.504   4.995
11608SOL    HW346752   6.958   3.365   4.974
11608SOL    MW446753   6.965   3.452   4.965
11609SOL     OW46754   6.980   3.666   4.387
11609SOL    HW246755   6.923   3.619   4.326
11609SOL    HW346756   7.066   3.627   4.374
11609SOL    MW446757   6.983   3.657   4.377
11610SOL     OW46758   6.933   2.142   4.518
11610SOL    HW246759   6.961   2.074   4.579
11610SOL    HW346760   6.847   2.113   4.488
11610SOL    MW446761   6.926   2.129   4.522
11611SOL     OW46762   5.738   3.076   4.452
11611SOL    HW246763   5.802   3.108   4.515
11611SOL    HW346764   5.787   3.012   4.400
11611SOL    MW446765   5.753   3.072   4.453
11612SOL     OW46766   6.238   3.152   5.434
11612SOL    HW246767   6.286   3.235   5.421
11612SOL    HW346768   6.295   3.100   5.490
11612SOL    MW446769   6.252   3.156   5.440
11613SOL     OW46770   5.814   3.394   5.574
11613SOL    HW246771   5.870   3.318   5.589
11613SOL    HW346772   5.763   3.372   5.496
11613SOL    MW446773   5.814   3.381   5.565
11614SOL     OW46774   6.913   2.246   3.853
11614SOL    HW246775   6.886   2.312   3.789
11614SOL    HW346776   6.983   2.289   3.903
11614SOL    MW446777   6.918   2.259   3.850
11615SOL     OW46778   6.581   1.951   3.790
11615SOL    HW246779   6.637   1.943   3.712
11615SOL    HW346780   6.558   1.861   3.812
11615SOL    MW446781   6.586   1.938   3.783
11616SOL     OW46782   7.086   2.802   3.995
11616SOL    HW246783   7.053   2.891   3.985
11616SOL    HW346784   7.051   2.773   4.080
11616SOL    MW446785   7.076   2.811   4.006
11617SOL     OW46786   6.699   3.231   5.183
11617SOL    HW246787   6.610   3.237   5.151
11617SOL    HW346788   6.743   3.310   5.151
11617SOL    MW446789   6.694   3.241   5.175
11618SOL     OW46790   5.992   1.899   5.525
11618SOL    HW246791   5.920   1.864   5.473
11618SOL    HW346792   6.050   1.940   5.460
11618SOL    MW446793   5.990   1.900   5.510
11619SOL     OW46794   6.016   3.389   4.824
11619SOL    HW246795   6.061   3.451   4.881
11619SOL    HW346796   5.923   3.408   4.837
11619SOL    MW446797   6.009   3.399   4.831
11620SOL     OW46798   7.456   2.918   5.178
11620SOL    HW246799   7.371   2.931   5.137
11620SOL    HW346800   7.436   2.882   5.265
11620SOL    MW446801   7.443   2.914   5.183
11621SOL     OW46802   6.438   3.457   4.932
11621SOL    HW246803   6.462   3.446   4.841
11621SOL    HW346804   6.361   3.514   4.930
11621SOL    MW446805   6.430   3.462   4.921
11622SOL     OW46806   6.080   2.840   3.787
11622SOL    HW246807   6.003   2.853   3.843
11622SOL    HW346808   6.044   2.804   3.706
11622SOL    MW446809   6.066   2.836   3.784
11623SOL     OW46810   6.733   2.813   4.030
11623SOL    HW246811   6.643   2.834   4.005
11623SOL    HW346812   6.760   2.886   4.086
11623SOL    MW446813   6.725   2.825   4.033
11624SOL     OW46814   6.233   3.162   4.722
11624SOL    HW246815   6.226   3.141   4.816
11624SOL    HW346816   6.151   3.130   4.685
11624SOL    MW446817   6.221   3.156   4.729
11625SOL     OW46818   7.097   2.172   5.124
11625SOL    HW246819   7.044   2.174   5.204
11625SOL    HW346820   7.082   2.085   5.087
11625SOL    MW446821   7.089   2.162   5.129
11626SOL     OW46822   7.433   2.096   4.997
11626SOL    HW246823   7.414   2.163   4.932
11626SOL    HW346824   7.490   2.034   4.952
11626SOL    MW446825   7.437   2.097   4.983
11627SOL     OW46826   5.679   3.254   5.385
11627SOL    HW246827   5.723   3.187   5.331
11627SOL    HW346828   5.594   3.216   5.405
11627SOL    MW446829   5.674   3.240   5.381
11628SOL     OW46830   6.362   1.929   4.437
11628SOL    HW246831   6.291   1.990   4.419
11628SOL    HW346832   6.413   1.926   4.356
11628SOL    MW446833   6.358   1.935   4.424
11629SOL     OW46834   6.120   3.169   4.186
11629SOL    HW246835   6.113   3.201   4.276
11629SOL    HW346836   6.030   3.153   4.158
11629SOL    MW446837   6.108   3.171   4.193
11630SOL     OW46838   6.829   3.527   4.585
11630SOL    HW246839   6.876   3.600   4.544
11630SOL    HW346840   6.750   3.566   4.621
11630SOL    MW446841   6.824   3.542   4.584
11631SOL     OW46842   7.237   3.622   4.860
11631SOL    HW246843   7.280   3.592   4.940
11631SOL    HW346844   7.156   3.570   4.857
11631SOL    MW446845   7.232   3.611   4.870
11632SOL     OW46846   6.322   2.586   5.567
11632SOL    HW246847   6.392   2.528   5.539
11632SOL    HW346848   6.265   2.531   5.622
11632SOL    MW446849   6.324   2.573   5.571
11633SOL     OW46850   7.109   2.798   5.200
11633SOL    HW246851   7.114   2.851   5.280
11633SOL    HW346852   7.071   2.715   5.228
11633SOL    MW446853   7.105   2.793   5.215
11634SOL     OW46854   6.749   1.933   5.446
11634SOL    HW246855   6.744   1.840   5.427
11634SOL    HW346856   6.832   1.944   5.492
11634SOL    MW446857   6.757   1.922   5.450
11635SOL     OW46858   6.123   2.453   3.900
11635SOL    HW246859   6.089   2.509   3.970
11635SOL    HW346860   6.194   2.403   3.940
11635SOL    MW446861   6.129   2.454   3.914
11636SOL     OW46862   7.219   3.204   4.722
11636SOL    HW246863   7.254   3.186   4.635
11636SOL    HW346864   7.124   3.205   4.709
11636SOL    MW446865   7.211   3.201   4.709
11637SOL     OW46866   6.648   2.852   5.091
11637SOL    HW246867   6.691   2.887   5.169
11637SOL    HW346868   6.631   2.929   5.037
11637SOL    MW446869   6.651   2.867   5.094
11638SOL     OW46870   7.179   2.339   3.964
11638SOL    HW246871   7.171   2.410   3.901
11638SOL    HW346872   7.197   2.383   4.047
11638SOL    MW446873   7.180   2.353   3.966
11639SOL     OW46874   6.039   1.994   4.393
11639SOL    HW246875   6.089   2.037   4.324
11639SOL    HW346876   5.954   2.038   4.393
11639SOL    MW446877   6.036   2.007   4.384
11640SOL     OW46878   5.798   3.056   5.253
11640SOL    HW246879   5.826   3.009   5.331
11640SOL    HW346880   5.719   3.011   5.224
11640SOL    MW446881   5.791   3.045   5.259
11641SOL     OW46882   6.306   2.383   5.220
11641SOL    HW246883   6.278   2.471   5.244
11641SOL    HW346884   6.275   2.327   5.291
11641SOL    MW446885   6.298   2.386   5.232
11642SOL     OW46886   6.848   2.601   3.939
11642SOL    HW246887   6.895   2.619   3.858
11642SOL    HW346888   6.814   2.685   3.967
11642SOL    MW446889   6.850   2.615   3.932
11643SOL     OW46890   5.961   2.779   4.433
11643SOL    HW246891   6.019   2.835   4.381
11643SOL    HW346892   6.005   2.694   4.435
11643SOL    MW446893   5.974   2.776   4.426
11644SOL     OW46894   7.101   2.131   4.270
11644SOL    HW246895   7.023   2.081   4.295
11644SOL    HW346896   7.072   2.222   4.270
11644SOL    MW446897   7.087   2.135   4.273
11645SOL     OW46898   6.687   2.093   4.429
11645SOL    HW246899   6.707   2.168   4.373
11645SOL    HW346900   6.667   2.132   4.514
11645SOL    MW446901   6.688   2.109   4.433
11646SOL     OW46902   6.583   3.343   3.761
11646SOL    HW246903   6.610   3.421   3.713
11646SOL    HW346904   6.490   3.358   3.780
11646SOL    MW446905   6.574   3.356   3.757
11647SOL     OW46906   7.447   2.866   5.448
11647SOL    HW246907   7.360   2.846   5.484
11647SOL    HW346908   7.501   2.792   5.473
11647SOL    MW446909   7.442   2.855   5.456
11648SOL     OW46910   5.668   3.379   4.605
11648SOL    HW246911   5.700   3.383   4.696
11648SOL    HW346912   5.573   3.387   4.613
11648SOL    MW446913   5.660   3.382   4.618
11649SOL     OW46914   5.623   2.505   4.152
11649SOL    HW246915   5.563   2.477   4.222
11649SOL    HW346916   5.697   2.445   4.158
11649SOL    MW446917   5.625   2.494   4.161
11650SOL     OW46918   7.191   3.717   5.586
11650SOL    HW246919   7.236   3.641   5.551
11650SOL    HW346920   7.229   3.730   5.673
11650SOL    MW446921   7.201   3.710   5.592
11651SOL     OW46922   6.791   3.236   4.312
11651SOL    HW246923   6.814   3.187   4.390
11651SOL    HW346924   6.872   3.278   4.284
11651SOL    MW446925   6.804   3.236   4.319
11652SOL     OW46926   6.049   2.244   5.041
11652SOL    HW246927   6.082   2.325   5.081
11652SOL    HW346928   6.022   2.270   4.953
11652SOL    MW446929   6.048   2.258   5.035
11653SOL     OW46930   6.003   2.211   4.777
11653SOL    HW246931   6.033   2.125   4.748
11653SOL    HW346932   5.908   2.204   4.780
11653SOL    MW446933   5.995   2.200   4.775
11654SOL     OW46934   6.832   2.420   5.468
11654SOL    HW246935   6.884   2.355   5.421
11654SOL    HW346936   6.790   2.471   5.398
11654SOL    MW446937   6.833   2.417   5.451
11655SOL     OW46938   6.931   2.215   5.329
11655SOL    HW246939   6.838   2.199   5.316
11655SOL    HW346940   6.957   2.153   5.397
11655SOL    MW446941   6.921   2.205   5.336
11656SOL     OW46942   6.146   1.989   4.668
11656SOL    HW246943   6.156   1.898   4.694
11656SOL    HW346944   6.102   1.985   4.583
11656SOL    MW446945   6.142   1.977   4.660
11657SOL     OW46946   6.240   3.604   5.214
11657SOL    HW246947   6.157   3.589   5.259
11657SOL    HW346948   6.299   3.537   5.249
11657SOL    MW446949   6.238   3.594   5.224
11658SOL     OW46950   7.297   2.311   4.839
11658SOL    HW246951   7.230   2.344   4.899
11658SOL    HW346952   7.340   2.389   4.805
11658SOL    MW446953   7.295   2.326   4.843
11659SOL     OW46954   7.475   3.031   4.809
11659SOL    HW246955   7.468   2.971   4.734
11659SOL    HW346956   7.401   3.091   4.798
11659SOL    MW446957   7.465   3.031   4.798
11660SOL     OW46958   6.857   2.893   4.727
11660SOL    HW246959   6.871   2.865   4.818
11660SOL    HW346960   6.943   2.924   4.699
11660SOL    MW446961   6.870   2.894   4.736
11661SOL     OW46962   6.940   2.388   5.006
11661SOL    HW246963   6.961   2.389   4.913
11661SOL    HW346964   6.985   2.310   5.039
11661SOL    MW446965   6.947   2.378   4.998
11662SOL     OW46966   7.433   2.519   5.548
11662SOL    HW246967   7.470   2.464   5.617
11662SOL    HW346968   7.458   2.476   5.466
11662SOL    MW446969   7.440   2.507   5.547
11663SOL     OW46970   6.980   2.817   5.600
11663SOL    HW246971   7.046   2.765   5.554
11663SOL    HW346972   7.000   2.804   5.693
11663SOL    MW446973   6.991   2.808   5.607
11664SOL     OW46974   6.931   1.903   3.948
11664SOL    HW246975   7.005   1.947   3.991
11664SOL    HW346976   6.855   1.957   3.970
11664SOL    MW446977   6.931   1.915   3.956
11665SOL     OW46978   6.991   2.678   4.226
11665SOL    HW246979   6.906   2.648   4.196
11665SOL    HW346980   6.983   2.685   4.321
11665SOL    MW446981   6.979   2.676   4.235
11666SOL     OW46982   6.067   3.141   4.957
11666SOL    HW246983   6.079   3.168   5.048
11666SOL    HW346984   6.048   3.222   4.910
11666SOL    MW446985   6.066   3.156   4.962
11667SOL     OW46986   6.351   2.121   4.780
11667SOL    HW246987   6.324   2.123   4.871
11667SOL    HW346988   6.281   2.073   4.735
11667SOL    MW446989   6.339   2.117   4.787
11668SOL     OW46990   6.205   3.613   4.942
11668SOL    HW246991   6.257   3.690   4.919
11668SOL    HW346992   6.214   3.605   5.037
11668SOL    MW446993   6.214   3.620   4.953
11669SOL     OW46994   7.107   3.198   5.174
11669SOL    HW246995   7.092   3.127   5.237
11669SOL    HW346996   7.153   3.156   5.102
11669SOL    MW446997   7.113   3.182   5.174
11670SOL     OW46998   6.181   2.929   5.291
11670SOL    HW246999   6.218   2.934   5.203
11670SOL    HW347000   6.220   3.002   5.338
11670SOL    MW447001   6.191   2.939   5.286
11671SOL     OW47002   6.361   2.972   5.103
11671SOL    HW247003   6.420   2.918   5.156
11671SOL    HW347004   6.376   2.944   5.013
11671SOL    MW447005   6.371   2.961   5.099
11672SOL     OW47006   6.364   2.344   3.952
11672SOL    HW247007   6.437   2.393   3.915
11672SOL    HW347008   6.380   2.253   3.926
11672SOL    MW447009   6.376   2.339   3.945
11673SOL     OW47010   7.172   3.461   5.275
11673SOL    HW247011   7.214   3.446   5.360
11673SOL    HW347012   7.163   3.374   5.237
11673SOL    MW447013   7.176   3.449   5.282
11674SOL     OW47014   6.832   1.940   4.866
11674SOL    HW247015   6.887   1.949   4.788
11674SOL    HW347016   6.887   1.974   4.937
11674SOL    MW447017   6.846   1.945   4.865
11675SOL     OW47018   5.839   2.853   4.050
11675SOL    HW247019   5.776   2.869   3.979
11675SOL    HW347020   5.786   2.816   4.121
11675SOL    MW447021   5.824   2.850   4.050
11676SOL     OW47022   6.195   3.207   3.909
11676SOL    HW247023   6.210   3.183   4.001
11676SOL    HW347024   6.103   3.185   3.893
11676SOL    MW447025   6.185   3.200   3.919
11677SOL     OW47026   6.734   3.438   4.061
11677SOL    HW247027   6.742   3.356   4.012
11677SOL    HW347028   6.653   3.477   4.028
11677SOL    MW447029   6.724   3.433   4.051
11678SOL     OW47030   5.993   3.596   4.630
11678SOL    HW247031   5.997   3.507   4.665
11678SOL    HW347032   6.019   3.587   4.539
11678SOL    MW447033   5.996   3.584   4.622
11679SOL     OW47034   6.610   3.074   4.873
11679SOL    HW247035   6.542   3.008   4.889
11679SOL    HW347036   6.628   3.068   4.780
11679SOL    MW447037   6.603   3.065   4.864
11680SOL     OW47038   5.699   3.349   5.124
11680SOL    HW247039   5.689   3.307   5.210
11680SOL    HW347040   5.620   3.402   5.114
11680SOL    MW447041   5.688   3.350   5.135
11681SOL     OW47042   6.603   2.213   4.694
11681SOL    HW247043   6.533   2.165   4.739
11681SOL    HW347044   6.635   2.276   4.758
11681SOL    MW447045   6.598   2.215   4.708
11682SOL     OW47046   6.254   2.649   5.314
11682SOL    HW247047   6.247   2.744   5.302
11682SOL    HW347048   6.263   2.638   5.409
11682SOL    MW447049   6.255   2.661   5.324
11683SOL     OW47050   5.975   3.164   5.572
11683SOL    HW247051   6.047   3.166   5.509
11683SOL    HW347052   5.945   3.073   5.571
11683SOL    MW447053   5.980   3.153   5.564
11684SOL     OW47054   7.059   1.927   5.039
11684SOL    HW247055   7.130   1.873   5.003
11684SOL    HW347056   7.058   1.906   5.132
11684SOL    MW447057   7.068   1.918   5.047
11685SOL     OW47058   7.259   3.457   5.523
11685SOL    HW247059   7.232   3.454   5.614
11685SOL    HW347060   7.355   3.461   5.526
11685SOL    MW447061   7.269   3.457   5.535
11686SOL     OW47062   6.070   2.319   4.507
11686SOL    HW247063   6.141   2.267   4.470
11686SOL    HW347064   6.056   2.284   4.594
11686SOL    MW447065   6.078   2.308   4.514
11687SOL     OW47066   5.625   3.654   5.579
11687SOL    HW247067   5.675   3.632   5.501
11687SOL    HW347068   5.633   3.749   5.587
11687SOL    MW447069   5.633   3.663   5.570
11688SOL     OW47070   6.386   3.412   4.583
11688SOL    HW247071   6.314   3.349   4.596
11688SOL    HW347072   6.347   3.497   4.601
11688SOL    MW447073   6.370   3.415   4.586
11689SOL     OW47074   6.706   2.260   4.231
11689SOL    HW247075   6.728   2.197   4.163
11689SOL    HW347076   6.611   2.252   4.242
11689SOL    MW447077   6.696   2.251   4.223
11690SOL     OW47078   5.791   1.950   4.163
11690SOL    HW247079   5.862   1.971   4.102
11690SOL    HW347080   5.745   1.878   4.121
11690SOL    MW447081   5.795   1.944   4.149
11691SOL     OW47082   5.622   2.417   5.306
11691SOL    HW247083   5.686   2.483   5.281
11691SOL    HW347084   5.541   2.444   5.263
11691SOL    MW447085   5.620   2.429   5.298
11692SOL     OW47086   7.360   3.324   4.263
11692SOL    HW247087   7.330   3.257   4.324
11692SOL    HW347088   7.454   3.330   4.277
11692SOL    MW447089   7.368   3.316   4.273
11693SOL     OW47090   6.916   3.001   4.193
11693SOL    HW247091   6.888   3.087   4.226
11693SOL    HW347092   6.944   3.017   4.103
11693SOL    MW447093   6.916   3.015   4.185
11694SOL     OW47094   6.578   1.921   4.246
11694SOL    HW247095   6.615   1.980   4.311
11694SOL    HW347096   6.555   1.977   4.172
11694SOL    MW447097   6.579   1.936   4.245
11695SOL     OW47098   7.431   2.803   4.668
11695SOL    HW247099   7.422   2.835   4.579
11695SOL    HW347100   7.384   2.719   4.668
11695SOL    MW447101   7.424   2.796   4.658
11696SOL     OW47102   5.807   2.643   5.247
11696SOL    HW247103   5.828   2.712   5.185
11696SOL    HW347104   5.887   2.590   5.252
11696SOL    MW447105   5.820   2.644   5.241
11697SOL     OW47106   7.343   2.734   4.369
11697SOL    HW247107   7.437   2.723   4.357
11697SOL    HW347108   7.319   2.806   4.310
11697SOL    MW447109   7.353   2.742   4.360
11698SOL     OW47110   5.792   2.658   5.514
11698SOL    HW247111   5.718   2.602   5.540
11698SOL    HW347112   5.787   2.661   5.419
11698SOL    MW447113   5.781   2.651   5.504
11699SOL     OW47114   5.958   1.945   4.964
11699SOL    HW247115   6.001   2.029   4.984
11699SOL    HW347116   6.031   1.883   4.957
11699SOL    MW447117   5.973   1.948   4.965
11700SOL     OW47118   5.999   2.612   4.142
11700SOL    HW247119   5.999   2.707   4.127
11700SOL    HW347120   6.076   2.596   4.196
11700SOL    MW447121   6.009   2.623   4.147
11701SOL     OW47122   6.775   2.471   5.206
11701SOL    HW247123   6.811   2.444   5.122
11701SOL    HW347124   6.688   2.505   5.185
11701SOL    MW447125   6.769   2.472   5.193
11702SOL     OW47126   5.758   2.343   4.431
11702SOL    HW247127   5.820   2.350   4.504
11702SOL    HW347128   5.758   2.250   4.408
11702SOL    MW447129   5.766   2.332   4.438
11703SOL     OW47130   7.305   3.683   3.963
11703SOL    HW247131   7.372   3.716   3.903
11703SOL    HW347132   7.262   3.762   3.997
11703SOL    MW447133   7.307   3.698   3.959
11704SOL     OW47134   6.440   2.604   4.915
11704SOL    HW247135   6.398   2.522   4.891
11704SOL    HW347136   6.441   2.603   5.011
11704SOL    MW447137   6.433   2.593   4.924
11705SOL     OW47138   7.111   3.737   5.314
11705SOL    HW247139   7.114   3.643   5.297
11705SOL    HW347140   7.134   3.745   5.406
11705SOL    MW447141   7.114   3.725   5.324
11706SOL     OW47142   6.244   2.074   5.020
11706SOL    HW247143   6.175   2.137   5.041
11706SOL    HW347144   6.271   2.038   5.105
11706SOL    MW447145   6.238   2.077   5.033
11707SOL     OW47146   5.627   2.915   3.889
11707SOL    HW247147   5.596   2.980   3.952
11707SOL    HW347148   5.576   2.837   3.908
11707SOL    MW447149   5.617   2.912   3.899
11708SOL     OW47150   7.039   1.927   4.637
11708SOL    HW247151   7.127   1.936   4.674
11708SOL    HW347152   7.049   1.868   4.563
11708SOL    MW447153   7.053   1.921   4.631
11709SOL     OW47154   7.071   2.666   4.481
11709SOL    HW247155   7.151   2.681   4.430
11709SOL    HW347156   7.064   2.571   4.487
11709SOL    MW447157   7.080   2.655   4.476
11710SOL     OW47158   6.211   3.715   3.831
11710SOL    HW247159   6.116   3.715   3.823
11710SOL    HW347160   6.227   3.661   3.909
11710SOL    MW447161   6.201   3.709   3.840
11711SOL     OW47162   6.521   2.592   5.178
11711SOL    HW247163   6.590   2.659   5.175
11711SOL    HW347164   6.454   2.630   5.234
11711SOL    MW447165   6.522   2.605   5.185
11712SOL     OW47166   5.939   2.892   5.426
11712SOL    HW247167   5.893   2.808   5.428
11712SOL    HW347168   5.996   2.886   5.350
11712SOL    MW447169   5.941   2.880   5.418
11713SOL     OW47170   7.056   2.535   3.747
11713SOL    HW247171   6.984   2.511   3.689
11713SOL    HW347172   7.122   2.572   3.689
11713SOL    MW447173   7.055   2.537   3.732
11714SOL     OW47174   6.190   3.267   4.427
11714SOL    HW247175   6.255   3.200   4.448
11714SOL    HW347176   6.242   3.344   4.404
11714SOL    MW447177   6.205   3.269   4.426
11715SOL     OW47178   6.451   2.432   4.557
11715SOL    HW247179   6.391   2.450   4.629
11715SOL    HW347180   6.485   2.344   4.576
11715SOL    MW447181   6.447   2.422   4.570
11716SOL     OW47182   7.392   1.931   5.226
11716SOL    HW247183   7.313   1.977   5.254
11716SOL    HW347184   7.427   1.985   5.155
11716SOL    MW447185   7.386   1.944   5.220
11717SOL     OW47186   6.676   3.015   4.576
11717SOL    HW247187   6.768   2.996   4.594
11717SOL    HW347188   6.649   2.945   4.516
11717SOL    MW447189   6.684   3.003   4.570
11718SOL     OW47190   6.469   2.835   3.931
11718SOL    HW247191   6.455   2.747   3.896
11718SOL    HW347192   6.420   2.892   3.872
11718SOL    MW447193   6.461   2.830   3.919
11719SOL     OW47194   6.950   3.253   4.672
11719SOL    HW247195   6.923   3.337   4.637
11719SOL    HW347196   6.910   3.248   4.759
11719SOL    MW447197   6.943   3.262   4.678
11720SOL     OW47198   6.869   3.201   4.940
11720SOL    HW247199   6.880   3.168   5.029
11720SOL    HW347200   6.788   3.160   4.909
11720SOL    MW447201   6.859   3.193   4.946
11721SOL     OW47202   5.882   2.559   4.710
11721SOL    HW247203   5.832   2.558   4.791
11721SOL    HW347204   5.902   2.651   4.694
11721SOL    MW447205   5.878   2.571   4.718
11722SOL     OW47206   6.949   3.323   5.472
11722SOL    HW247207   6.949   3.417   5.488
11722SOL    HW347208   6.994   3.313   5.388
11722SOL    MW447209   6.955   3.333   5.463
11723SOL     OW47210   7.188   2.041   4.033
11723SOL    HW247211   7.181   2.045   4.128
11723SOL    HW347212   7.200   2.132   4.006
11723SOL    MW447213   7.189   2.054   4.041
11724SOL     OW47214   6.477   2.604   4.147
11724SOL    HW247215   6.457   2.590   4.054
11724SOL    HW347216   6.570   2.583   4.154
11724SOL    MW447217   6.487   2.599   4.136
11725SOL     OW47218   5.804   2.227   5.451
11725SOL    HW247219   5.761   2.286   5.388
11725SOL    HW347220   5.872   2.282   5.491
11725SOL    MW447221   5.808   2.242   5.448
11726SOL     OW47222   6.916   2.847   4.996
11726SOL    HW247223   6.979   2.844   5.069
11726SOL    HW347224   6.832   2.865   5.038
11726SOL    MW447225   6.912   2.849   5.011
11727SOL     OW47226   6.460   3.562   4.185
11727SOL    HW247227   6.518   3.633   4.212
11727SOL    HW347228   6.483   3.490   4.243
11727SOL    MW447229   6.471   3.562   4.196
11728SOL     OW47230   7.255   2.024   4.775
11728SOL    HW247231   7.300   1.942   4.794
11728SOL    HW347232   7.275   2.080   4.851
11728SOL    MW447233   7.265   2.020   4.787
11729SOL     OW47234   5.703   1.867   4.874
11729SOL    HW247235   5.694   1.868   4.779
11729SOL    HW347236   5.797   1.879   4.889
11729SOL    MW447237   5.715   1.870   4.865
11730SOL     OW47238   7.340   3.060   4.494
11730SOL    HW247239   7.319   3.006   4.417
11730SOL    HW347240   7.436   3.058   4.498
11730SOL    MW447241   7.349   3.053   4.483
11731SOL     OW47242   6.032   3.205   5.237
11731SOL    HW247243   5.953   3.155   5.260
11731SOL    HW347244   6.102   3.164   5.287
11731SOL    MW447245   6.030   3.193   5.247
11732SOL     OW47246   5.916   1.994   3.920
11732SOL    HW247247   5.845   2.049   3.888
11732SOL    HW347248   5.958   1.960   3.841
11732SOL    MW447249   5.912   1.996   3.906
11733SOL     OW47250   7.040   2.491   4.756
11733SOL    HW247251   6.963   2.537   4.722
11733SOL    HW347252   7.097   2.560   4.790
11733SOL    MW447253   7.037   2.506   4.756
11734SOL     OW47254   5.672   2.093   3.769
11734SOL    HW247255   5.639   2.172   3.813
11734SOL    HW347256   5.727   2.126   3.698
11734SOL    MW447257   5.675   2.107   3.766
11735SOL     OW47258   5.706   3.350   3.958
11735SOL    HW247259   5.723   3.434   4.000
11735SOL    HW347260   5.741   3.359   3.870
11735SOL    MW447261   5.711   3.363   3.952
11736SOL     OW47262   6.978   3.439   4.175
11736SOL    HW247263   7.041   3.429   4.104
11736SOL    HW347264   6.895   3.459   4.130
11736SOL    MW447265   6.975   3.440   4.160
11737SOL     OW47266   7.341   2.707   5.862
11737SOL    HW247267   7.382   2.649   5.927
11737SOL    HW347268   7.248   2.699   5.879
11737SOL    MW447269   7.335   2.699   5.872
11738SOL     OW47270   7.207   2.639   6.857
11738SOL    HW247271   7.162   2.706   6.908
11738SOL    HW347272   7.295   2.675   6.843
11738SOL    MW447273   7.213   2.652   6.861
11739SOL     OW47274   6.135   2.890   6.091
11739SOL    HW247275   6.225   2.865   6.075
11739SOL    HW347276   6.131   2.983   6.068
11739SOL    MW447277   6.147   2.899   6.086
11740SOL     OW47278   7.251   3.593   6.233
11740SOL    HW247279   7.263   3.539   6.311
11740SOL    HW347280   7.288   3.541   6.162
11740SOL    MW447281   7.257   3.578   6.234
11741SOL     OW47282   6.630   3.478   7.234
11741SOL    HW247283   6.671   3.514   7.155
11741SOL    HW347284   6.665   3.389   7.241
11741SOL    MW447285   6.641   3.471   7.225
11742SOL     OW47286   7.187   3.033   6.838
11742SOL    HW247287   7.108   2.998   6.796
11742SOL    HW347288   7.214   3.105   6.782
11742SOL    MW447289   7.180   3.038   6.825
11743SOL     OW47290   6.419   2.346   6.104
11743SOL    HW247291   6.394   2.434   6.132
11743SOL    HW347292   6.416   2.349   6.008
11743SOL    MW447293   6.415   2.358   6.096
11744SOL     OW47294   5.861   2.374   6.032
11744SOL    HW247295   5.893   2.462   6.014
11744SOL    HW347296   5.849   2.372   6.127
11744SOL    MW447297   5.864   2.386   6.044
11745SOL     OW47298   5.939   2.787   6.933
11745SOL    HW247299   6.002   2.734   6.884
11745SOL    HW347300   5.920   2.861   6.876
11745SOL    MW447301   5.945   2.789   6.920
11746SOL     OW47302   6.260   2.129   6.119
11746SOL    HW247303   6.318   2.205   6.121
11746SOL    HW347304   6.195   2.150   6.052
11746SOL    MW447305   6.259   2.141   6.110
11747SOL     OW47306   6.347   3.056   6.294
11747SOL    HW247307   6.427   3.059   6.346
11747SOL    HW347308   6.375   3.023   6.208
11747SOL    MW447309   6.361   3.052   6.289
11748SOL     OW47310   6.372   3.397   7.197
11748SOL    HW247311   6.456   3.423   7.236
11748SOL    HW347312   6.396   3.341   7.123
11748SOL    MW447313   6.386   3.393   7.192
11749SOL     OW47314   6.124   2.560   6.285
11749SOL    HW247315   6.109   2.480   6.336
11749SOL    HW347316   6.206   2.595   6.319
11749SOL    MW447317   6.132   2.552   6.297
11750SOL     OW47318   6.461   3.246   6.970
11750SOL    HW247319   6.425   3.312   6.910
11750SOL    HW347320   6.389   3.184   6.983
11750SOL    MW447321   6.447   3.246   6.964
11751SOL     OW47322   6.266   2.386   6.662
11751SOL    HW247323   6.172   2.382   6.680
11751SOL    HW347324   6.296   2.295   6.671
11751SOL    MW447325   6.257   2.374   6.665
11752SOL     OW47326   6.012   2.800   6.566
11752SOL    HW247327   5.967   2.807   6.482
11752SOL    HW347328   5.992   2.883   6.610
11752SOL    MW447329   6.004   2.812   6.560
11753SOL     OW47330   5.709   3.646   6.441
11753SOL    HW247331   5.798   3.638   6.476
11753SOL    HW347332   5.673   3.558   6.446
11753SOL    MW447333   5.716   3.633   6.446
11754SOL     OW47334   6.974   3.038   5.810
11754SOL    HW247335   6.892   3.074   5.776
11754SOL    HW347336   7.042   3.081   5.759
11754SOL    MW447337   6.972   3.048   5.798
11755SOL     OW47338   5.973   3.173   6.476
11755SOL    HW247339   5.949   3.226   6.552
11755SOL    HW347340   6.029   3.231   6.424
11755SOL    MW447341   5.977   3.188   6.479
11756SOL     OW47342   6.535   2.817   6.286
11756SOL    HW247343   6.449   2.804   6.326
11756SOL    HW347344   6.588   2.744   6.318
11756SOL    MW447345   6.531   2.806   6.295
11757SOL     OW47346   5.943   3.469   7.071
11757SOL    HW247347   5.851   3.445   7.056
11757SOL    HW347348   5.987   3.386   7.088
11757SOL    MW447349   5.937   3.454   7.070
11758SOL     OW47350   6.526   3.179   6.003
11758SOL    HW247351   6.503   3.241   6.071
11758SOL    HW347352   6.483   3.097   6.029
11758SOL    MW447353   6.518   3.175   6.014
11759SOL     OW47354   7.399   2.180   6.459
11759SOL    HW247355   7.336   2.160   6.528
11759SOL    HW347356   7.389   2.109   6.396
11759SOL    MW447357   7.389   2.167   6.460
11760SOL     OW47358   6.023   2.152   5.971
11760SOL    HW247359   5.997   2.114   5.887
11760SOL    HW347360   5.960   2.222   5.987
11760SOL    MW447361   6.012   2.155   5.962
11761SOL     OW47362   5.858   3.113   6.008
11761SOL    HW247363   5.806   3.181   5.964
11761SOL    HW347364   5.855   3.039   5.948
11761SOL    MW447365   5.850   3.112   5.995
11762SOL     OW47366   6.520   3.576   5.786
11762SOL    HW247367   6.475   3.592   5.869
11762SOL    HW347368   6.451   3.541   5.728
11762SOL    MW447369   6.506   3.573   5.788
11763SOL     OW47370   7.455   2.349   5.761
11763SOL    HW247371   7.364   2.351   5.789
11763SOL    HW347372   7.500   2.411   5.819
11763SOL    MW447373   7.448   2.357   5.771
11764SOL     OW47374   7.200   2.952   6.111
11764SOL    HW247375   7.110   2.952   6.146
11764SOL    HW347376   7.193   2.998   6.028
11764SOL    MW447377   7.187   2.958   6.105
11765SOL     OW47378   7.000   2.587   7.183
11765SOL    HW247379   7.069   2.525   7.160
11765SOL    HW347380   6.925   2.561   7.130
11765SOL    MW447381   7.000   2.574   7.174
11766SOL     OW47382   5.741   3.467   6.735
11766SOL    HW247383   5.724   3.413   6.812
11766SOL    HW347384   5.729   3.557   6.765
11766SOL    MW447385   5.738   3.471   6.749
11767SOL     OW47386   6.736   2.974   7.175
11767SOL    HW247387   6.721   3.067   7.160
11767SOL    HW347388   6.831   2.964   7.175
11767SOL    MW447389   6.745   2.984   7.172
11768SOL     OW47390   6.532   2.398   7.376
11768SOL    HW247391   6.622   2.399   7.343
11768SOL    HW347392   6.491   2.323   7.334
11768SOL    MW447393   6.538   2.388   7.367
11769SOL     OW47394   7.107   2.930   6.503
11769SOL    HW247395   7.110   2.864   6.434
11769SOL    HW347396   7.192   2.973   6.499
11769SOL    MW447397   7.119   2.926   6.494
11770SOL     OW47398   6.727   2.533   6.072
11770SOL    HW247399   6.753   2.557   5.983
11770SOL    HW347400   6.709   2.440   6.068
11770SOL    MW447401   6.729   2.525   6.059
11771SOL     OW47402   7.392   3.153   5.923
11771SOL    HW247403   7.348   3.194   5.998
11771SOL    HW347404   7.449   3.221   5.888
11771SOL    MW447405   7.394   3.167   5.928
11772SOL     OW47406   6.312   2.202   7.326
11772SOL    HW247407   6.322   2.128   7.266
11772SOL    HW347408   6.348   2.171   7.409
11772SOL    MW447409   6.318   2.188   7.328
11773SOL     OW47410   6.048   3.569   6.241
11773SOL    HW247411   6.080   3.657   6.219
11773SOL    HW347412   6.001   3.541   6.163
11773SOL    MW447413   6.047   3.577   6.228
11774SOL     OW47414   7.432   1.931   6.290
11774SOL    HW247415   7.486   1.882   6.352
11774SOL    HW347416   7.375   1.865   6.251
11774SOL    MW447417   7.432   1.915   6.292
11775SOL     OW47418   5.764   3.629   5.818
11775SOL    HW247419   5.793   3.719   5.810
11775SOL    HW347420   5.714   3.612   5.739
11775SOL    MW447421   5.762   3.637   5.807
11776SOL     OW47422   6.551   1.884   6.703
11776SOL    HW247423   6.510   1.962   6.665
11776SOL    HW347424   6.645   1.902   6.698
11776SOL    MW447425   6.557   1.896   6.698
11777SOL     OW47426   7.168   3.437   5.789
11777SOL    HW247427   7.216   3.506   5.835
11777SOL    HW347428   7.089   3.481   5.758
11777SOL    MW447429   7.163   3.451   5.792
11778SOL     OW47430   6.566   2.562   5.733
11778SOL    HW247431   6.568   2.509   5.654
11778SOL    HW347432   6.654   2.599   5.739
11778SOL    MW447433   6.578   2.561   5.722
11779SOL     OW47434   7.180   2.488   6.069
11779SOL    HW247435   7.219   2.488   6.156
11779SOL    HW347436   7.121   2.564   6.069
11779SOL    MW447437   7.177   2.499   6.080
11780SOL     OW47438   6.497   2.855   7.198
11780SOL    HW247439   6.474   2.835   7.288
11780SOL    HW347440   6.582   2.899   7.203
11780SOL    MW447441   6.504   2.858   7.210
11781SOL     OW47442   6.577   1.992   6.958
11781SOL    HW247443   6.583   1.954   6.871
11781SOL    HW347444   6.566   2.086   6.943
11781SOL    MW447445   6.578   2.000   6.946
11782SOL     OW47446   6.666   2.481   6.792
11782SOL    HW247447   6.741   2.510   6.739
11782SOL    HW347448   6.598   2.546   6.776
11782SOL    MW447449   6.667   2.493   6.782
11783SOL     OW47450   7.216   2.449   7.069
11783SOL    HW247451   7.197   2.358   7.048
11783SOL    HW347452   7.194   2.498   6.990
11783SOL    MW447453   7.211   2.442   7.056
11784SOL     OW47454   7.358   3.543   6.973
11784SOL    HW247455   7.286   3.505   7.024
11784SOL    HW347456   7.375   3.628   7.014
11784SOL    MW447457   7.352   3.548   6.985
11785SOL     OW47458   6.663   2.187   7.175
11785SOL    HW247459   6.629   2.226   7.094
11785SOL    HW347460   6.641   2.095   7.168
11785SOL    MW447461   6.656   2.180   7.165
11786SOL     OW47462   7.072   3.001   7.251
11786SOL    HW247463   7.154   3.042   7.281
11786SOL    HW347464   7.035   2.963   7.331
11786SOL    MW447465   7.078   3.002   7.266
11787SOL     OW47466   7.367   2.374   6.235
11787SOL    HW247467   7.456   2.343   6.252
11787SOL    HW347468   7.310   2.314   6.283
11787SOL    MW447469   7.370   2.362   6.244
11788SOL     OW47470   5.793   2.088   6.264
11788SOL    HW247471   5.784   2.028   6.190
11788SOL    HW347472   5.726   2.059   6.327
11788SOL    MW447473   5.783   2.075   6.262
11789SOL     OW47474   6.736   3.181   5.825
11789SOL    HW247475   6.686   3.183   5.907
11789SOL    HW347476   6.670   3.199   5.757
11789SOL    MW447477   6.722   3.183   5.827
11790SOL     OW47478   5.740   2.261   6.627
11790SOL    HW247479   5.712   2.352   6.636
11790SOL    HW347480   5.677   2.222   6.566
11790SOL    MW447481   5.727   2.267   6.621
11791SOL     OW47482   6.199   3.599   5.933
11791SOL    HW247483   6.120   3.557   5.966
11791SOL    HW347484   6.265   3.582   6.000
11791SOL    MW447485   6.198   3.591   5.946
11792SOL     OW47486   7.327   3.119   7.330
11792SOL    HW247487   7.377   3.045   7.362
11792SOL    HW347488   7.273   3.146   7.405
11792SOL    MW447489   7.327   3.113   7.343
11793SOL     OW47490   6.335   3.014   5.640
11793SOL    HW247491   6.257   2.960   5.627
11793SOL    HW347492   6.306   3.087   5.693
11793SOL    MW447493   6.321   3.016   5.645
11794SOL     OW47494   7.461   2.754   6.832
11794SOL    HW247495   7.477   2.792   6.745
11794SOL    HW347496   7.495   2.820   6.893
11794SOL    MW447497   7.468   2.767   6.828
11795SOL     OW47498   7.253   3.463   6.501
11795SOL    HW247499   7.282   3.530   6.562
11795SOL    HW347500   7.234   3.387   6.556
11795SOL    MW447501   7.255   3.463   6.516
11796SOL     OW47502   6.916   3.530   5.708
11796SOL    HW247503   6.842   3.493   5.758
11796SOL    HW347504   6.924   3.620   5.741
11796SOL    MW447505   6.907   3.537   5.720
11797SOL     OW47506   5.724   2.536   6.797
11797SOL    HW247507   5.786   2.566   6.863
11797SOL    HW347508   5.658   2.605   6.791
11797SOL    MW447509   5.723   2.549   6.804
11798SOL     OW47510   7.140   3.204   5.650
11798SOL    HW247511   7.087   3.253   5.586
11798SOL    HW347512   7.171   3.270   5.711
11798SOL    MW447513   7.138   3.218   5.648
11799SOL     OW47514   5.819   3.645   7.249
11799SOL    HW247515   5.793   3.713   7.187
11799SOL    HW347516   5.867   3.582   7.197
11799SOL    MW447517   5.821   3.645   7.235
11800SOL     OW47518   5.871   2.964   6.756
11800SOL    HW247519   5.924   3.039   6.781
11800SOL    HW347520   5.790   3.002   6.722
11800SOL    MW447521   5.867   2.979   6.756
11801SOL     OW47522   6.411   2.868   6.744
11801SOL    HW247523   6.439   2.777   6.756
11801SOL    HW347524   6.340   2.862   6.680
11801SOL    MW447525   6.404   2.856   6.739
11802SOL     OW47526   5.726   2.733   6.162
11802SOL    HW247527   5.817   2.748   6.189
11802SOL    HW347528   5.729   2.654   6.108
11802SOL    MW447529   5.738   2.725   6.160
11803SOL     OW47530   5.962   2.441   7.416
11803SOL    HW247531   5.909   2.521   7.423
11803SOL    HW347532   6.032   2.453   7.481
11803SOL    MW447533   5.964   2.454   7.424
11804SOL     OW47534   6.348   1.991   7.123
11804SOL    HW247535   6.325   1.899   7.125
11804SOL    HW347536   6.434   1.993   7.080
11804SOL    MW447537   6.355   1.981   7.119
11805SOL     OW47538   6.032   2.515   7.162
11805SOL    HW247539   6.112   2.565   7.148
11805SOL    HW347540   6.023   2.509   7.257
11805SOL    MW447541   6.041   2.521   7.172
11806SOL     OW47542   6.353   3.665   6.536
11806SOL    HW247543   6.442   3.680   6.566
11806SOL    HW347544   6.348   3.712   6.452
11806SOL    MW447545   6.363   3.673   6.529
11807SOL     OW47546   7.009   2.040   7.433
11807SOL    HW247547   7.065   1.967   7.459
11807SOL    HW347548   6.979   2.078   7.515
11807SOL    MW447549   7.013   2.035   7.446
11808SOL     OW47550   5.734   3.345   6.201
11808SOL    HW247551   5.706   3.384   6.283
11808SOL    HW347552   5.754   3.254   6.223
11808SOL    MW447553   5.732   3.337   6.214
11809SOL     OW47554   6.567   3.388   6.236
11809SOL    HW247555   6.650   3.342   6.220
11809SOL    HW347556   6.557   3.387   6.332
11809SOL    MW447557   6.577   3.381   6.246
11810SOL     OW47558   7.399   2.533   6.550
11810SOL    HW247559   7.488   2.563   6.532
11810SOL    HW347560   7.379   2.473   6.479
11810SOL    MW447561   7.408   2.530   6.539
11811SOL     OW47562   7.250   2.712   7.430
11811SOL    HW247563   7.305   2.636   7.411
11811SOL    HW347564   7.252   2.720   7.525
11811SOL    MW447565   7.258   2.703   7.438
11812SOL     OW47566   6.300   3.445   5.641
11812SOL    HW247567   6.240   3.514   5.611
11812SOL    HW347568   6.245   3.387   5.694
11812SOL    MW447569   6.284   3.447   5.643
11813SOL     OW47570   6.738   2.090   5.864
11813SOL    HW247571   6.671   2.066   5.801
11813SOL    HW347572   6.803   2.139   5.813
11813SOL    MW447573   6.738   2.092   5.849
11814SOL     OW47574   6.545   2.274   6.949
11814SOL    HW247575   6.464   2.315   6.977
11814SOL    HW347576   6.592   2.342   6.901
11814SOL    MW447577   6.540   2.289   6.947
11815SOL     OW47578   6.805   2.612   6.572
11815SOL    HW247579   6.818   2.706   6.582
11815SOL    HW347580   6.766   2.602   6.486
11815SOL    MW447581   6.801   2.623   6.562
11816SOL     OW47582   6.257   2.807   6.376
11816SOL    HW247583   6.168   2.798   6.409
11816SOL    HW347584   6.261   2.897   6.344
11816SOL    MW447585   6.246   2.818   6.376
11817SOL     OW47586   7.056   2.390   6.371
11817SOL    HW247587   7.001   2.311   6.370
11817SOL    HW347588   7.038   2.431   6.455
11817SOL    MW447589   7.046   2.385   6.380
11818SOL     OW47590   6.027   2.077   7.188
11818SOL    HW247591   5.948   2.095   7.240
11818SOL    HW347592   6.022   2.139   7.115
11818SOL    MW447593   6.017   2.087   7.185
11819SOL     OW47594   6.675   2.594   6.328
11819SOL    HW247595   6.612   2.526   6.352
11819SOL    HW347596   6.695   2.575   6.236
11819SOL    MW447597   6.669   2.581   6.320
11820SOL     OW47598   5.931   3.489   6.030
11820SOL    HW247599   5.892   3.536   5.956
11820SOL    HW347600   5.865   3.424   6.055
11820SOL    MW447601   5.918   3.487   6.024
11821SOL     OW47602   6.423   2.898   6.054
11821SOL    HW247603   6.425   2.872   5.961
11821SOL    HW347604   6.481   2.835   6.097
11821SOL    MW447605   6.431   2.887   6.048
11822SOL     OW47606   6.976   3.458   6.826
11822SOL    HW247607   6.901   3.504   6.864
11822SOL    HW347608   6.958   3.365   6.843
11822SOL    MW447609   6.965   3.452   6.834
11823SOL     OW47610   6.980   3.666   6.256
11823SOL    HW247611   6.923   3.619   6.195
11823SOL    HW347612   7.066   3.627   6.243
11823SOL    MW447613   6.983   3.657   6.246
11824SOL     OW47614   6.933   2.142   6.387
11824SOL    HW247615   6.961   2.074   6.448
11824SOL    HW347616   6.847   2.113   6.357
11824SOL    MW447617   6.926   2.129   6.391
11825SOL     OW47618   5.738   3.076   6.321
11825SOL    HW247619   5.802   3.108   6.384
11825SOL    HW347620   5.787   3.012   6.269
11825SOL    MW447621   5.753   3.072   6.322
11826SOL     OW47622   6.238   3.152   7.303
11826SOL    HW247623   6.286   3.235   7.290
11826SOL    HW347624   6.295   3.100   7.359
11826SOL    MW447625   6.252   3.156   7.309
11827SOL     OW47626   5.814   3.394   7.443
11827SOL    HW247627   5.870   3.318   7.458
11827SOL    HW347628   5.763   3.372   7.365
11827SOL    MW447629   5.814   3.381   7.434
11828SOL     OW47630   6.913   2.246   5.722
11828SOL    HW247631   6.886   2.312   5.658
11828SOL    HW347632   6.983   2.289   5.772
11828SOL    MW447633   6.918   2.259   5.719
11829SOL     OW47634   6.581   1.951   5.659
11829SOL    HW247635   6.637   1.943   5.581
11829SOL    HW347636   6.558   1.861   5.681
11829SOL    MW447637   6.586   1.938   5.652
11830SOL     OW47638   7.086   2.802   5.864
11830SOL    HW247639   7.053   2.891   5.854
11830SOL    HW347640   7.051   2.773   5.949
11830SOL    MW447641   7.076   2.811   5.875
11831SOL     OW47642   6.699   3.231   7.052
11831SOL    HW247643   6.610   3.237   7.020
11831SOL    HW347644   6.743   3.310   7.020
11831SOL    MW447645   6.694   3.241   7.044
11832SOL     OW47646   5.992   1.899   7.394
11832SOL    HW247647   5.920   1.864   7.342
11832SOL    HW347648   6.050   1.940   7.329
11832SOL    MW447649   5.990   1.900   7.379
11833SOL     OW47650   6.016   3.389   6.693
11833SOL    HW247651   6.061   3.451   6.750
11833SOL    HW347652   5.923   3.408   6.706
11833SOL    MW447653   6.009   3.399   6.700
11834SOL     OW47654   7.456   2.918   7.047
11834SOL    HW247655   7.371   2.931   7.006
11834SOL    HW347656   7.436   2.882   7.134
11834SOL    MW447657   7.443   2.914   7.052
11835SOL     OW47658   6.438   3.457   6.801
11835SOL    HW247659   6.462   3.446   6.710
11835SOL    HW347660   6.361   3.514   6.799
11835SOL    MW447661   6.430   3.462   6.790
11836SOL     OW47662   6.080   2.840   5.656
11836SOL    HW247663   6.003   2.853   5.712
11836SOL    HW347664   6.044   2.804   5.575
11836SOL    MW447665   6.066   2.836   5.653
11837SOL     OW47666   6.733   2.813   5.899
11837SOL    HW247667   6.643   2.834   5.874
11837SOL    HW347668   6.760   2.886   5.955
11837SOL    MW447669   6.725   2.825   5.902
11838SOL     OW47670   6.233   3.162   6.591
11838SOL    HW247671   6.226   3.141   6.685
11838SOL    HW347672   6.151   3.130   6.554
11838SOL    MW447673   6.221   3.156   6.598
11839SOL     OW47674   7.097   2.172   6.993
11839SOL    HW247675   7.044   2.174   7.073
11839SOL    HW347676   7.082   2.085   6.956
11839SOL    MW447677   7.089   2.162   6.998
11840SOL     OW47678   7.433   2.096   6.866
11840SOL    HW247679   7.414   2.163   6.801
11840SOL    HW347680   7.490   2.034   6.821
11840SOL    MW447681   7.437   2.097   6.852
11841SOL     OW47682   5.679   3.254   7.254
11841SOL    HW247683   5.723   3.187   7.200
11841SOL    HW347684   5.594   3.216   7.274
11841SOL    MW447685   5.674   3.240   7.250
11842SOL     OW47686   6.362   1.929   6.306
11842SOL    HW247687   6.291   1.990   6.288
11842SOL    HW347688   6.413   1.926   6.225
11842SOL    MW447689   6.358   1.935   6.293
11843SOL     OW47690   6.120   3.169   6.055
11843SOL    HW247691   6.113   3.201   6.145
11843SOL    HW347692   6.030   3.153   6.027
11843SOL    MW447693   6.108   3.171   6.062
11844SOL     OW47694   6.715   3.562   6.964
11844SOL    HW247695   6.635   3.547   6.914
11844SOL    HW347696   6.722   3.657   6.971
11844SOL    MW447697   6.706   3.573   6.958
11845SOL     OW47698   6.829   3.527   6.454
11845SOL    HW247699   6.876   3.600   6.413
11845SOL    HW347700   6.750   3.566   6.490
11845SOL    MW447701   6.824   3.542   6.453
11846SOL     OW47702   7.237   3.622   6.729
11846SOL    HW247703   7.280   3.592   6.809
11846SOL    HW347704   7.156   3.570   6.726
11846SOL    MW447705   7.232   3.611   6.739
11847SOL     OW47706   6.322   2.586   7.436
11847SOL    HW247707   6.392   2.528   7.408
11847SOL    HW347708   6.265   2.531   7.491
11847SOL    MW447709   6.324   2.573   7.440
11848SOL     OW47710   7.109   2.798   7.069
11848SOL    HW247711   7.114   2.851   7.149
11848SOL    HW347712   7.071   2.715   7.097
11848SOL    MW447713   7.105   2.793   7.084
11849SOL     OW47714   6.749   1.933   7.315
11849SOL    HW247715   6.744   1.840   7.296
11849SOL    HW347716   6.832   1.944   7.361
11849SOL    MW447717   6.757   1.922   7.319
11850SOL     OW47718   6.123   2.453   5.769
11850SOL    HW247719   6.089   2.509   5.839
11850SOL    HW347720   6.194   2.403   5.809
11850SOL    MW447721   6.129   2.454   5.783
11851SOL     OW47722   7.219   3.204   6.591
11851SOL    HW247723   7.254   3.186   6.504
11851SOL    HW347724   7.124   3.205   6.578
11851SOL    MW447725   7.211   3.201   6.578
11852SOL     OW47726   6.648   2.852   6.960
11852SOL    HW247727   6.691   2.887   7.038
11852SOL    HW347728   6.631   2.929   6.906
11852SOL    MW447729   6.651   2.867   6.963
11853SOL     OW47730   7.179   2.339   5.833
11853SOL    HW247731   7.171   2.410   5.770
11853SOL    HW347732   7.197   2.383   5.916
11853SOL    MW447733   7.180   2.353   5.835
11854SOL     OW47734   6.039   1.994   6.262
11854SOL    HW247735   6.089   2.037   6.193
11854SOL    HW347736   5.954   2.038   6.262
11854SOL    MW447737   6.036   2.007   6.253
11855SOL     OW47738   5.798   3.056   7.122
11855SOL    HW247739   5.826   3.009   7.200
11855SOL    HW347740   5.719   3.011   7.093
11855SOL    MW447741   5.791   3.045   7.128
11856SOL     OW47742   6.306   2.383   7.089
11856SOL    HW247743   6.278   2.471   7.113
11856SOL    HW347744   6.275   2.327   7.160
11856SOL    MW447745   6.298   2.386   7.101
11857SOL     OW47746   6.848   2.601   5.808
11857SOL    HW247747   6.895   2.619   5.727
11857SOL    HW347748   6.814   2.685   5.836
11857SOL    MW447749   6.850   2.615   5.801
11858SOL     OW47750   5.961   2.779   6.302
11858SOL    HW247751   6.019   2.835   6.250
11858SOL    HW347752   6.005   2.694   6.304
11858SOL    MW447753   5.974   2.776   6.295
11859SOL     OW47754   7.101   2.131   6.139
11859SOL    HW247755   7.023   2.081   6.164
11859SOL    HW347756   7.072   2.222   6.139
11859SOL    MW447757   7.087   2.135   6.142
11860SOL     OW47758   6.687   2.093   6.298
11860SOL    HW247759   6.707   2.168   6.242
11860SOL    HW347760   6.667   2.132   6.383
11860SOL    MW447761   6.688   2.109   6.302
11861SOL     OW47762   6.583   3.343   5.630
11861SOL    HW247763   6.610   3.421   5.582
11861SOL    HW347764   6.490   3.358   5.649
11861SOL    MW447765   6.574   3.356   5.626
11862SOL     OW47766   7.447   2.866   7.317
11862SOL    HW247767   7.360   2.846   7.353
11862SOL    HW347768   7.501   2.792   7.342
11862SOL    MW447769   7.442   2.855   7.325
11863SOL     OW47770   5.668   3.379   6.474
11863SOL    HW247771   5.700   3.383   6.565
11863SOL    HW347772   5.573   3.387   6.482
11863SOL    MW447773   5.660   3.382   6.487
11864SOL     OW47774   5.623   2.505   6.021
11864SOL    HW247775   5.563   2.477   6.091
11864SOL    HW347776   5.697   2.445   6.027
11864SOL    MW447777   5.625   2.494   6.030
11865SOL     OW47778   7.191   3.717   7.455
11865SOL    HW247779   7.236   3.641   7.420
11865SOL    HW347780   7.229   3.730   7.542
11865SOL    MW447781   7.201   3.710   7.461
11866SOL     OW47782   6.791   3.236   6.181
11866SOL    HW247783   6.814   3.187   6.259
11866SOL    HW347784   6.872   3.278   6.153
11866SOL    MW447785   6.804   3.236   6.188
11867SOL     OW47786   6.049   2.244   6.910
11867SOL    HW247787   6.082   2.325   6.950
11867SOL    HW347788   6.022   2.270   6.822
11867SOL    MW447789   6.048   2.258   6.904
11868SOL     OW47790   6.003   2.211   6.646
11868SOL    HW247791   6.033   2.125   6.617
11868SOL    HW347792   5.908   2.204   6.649
11868SOL    MW447793   5.995   2.200   6.644
11869SOL     OW47794   6.832   2.420   7.337
11869SOL    HW247795   6.884   2.355   7.290
11869SOL    HW347796   6.790   2.471   7.267
11869SOL    MW447797   6.833   2.417   7.320
11870SOL     OW47798   6.931   2.215   7.198
11870SOL    HW247799   6.838   2.199   7.185
11870SOL    HW347800   6.957   2.153   7.266
11870SOL    MW447801   6.921   2.205   7.205
11871SOL     OW47802   6.146   1.989   6.537
11871SOL    HW247803   6.156   1.898   6.563
11871SOL    HW347804   6.102   1.985   6.452
11871SOL    MW447805   6.142   1.977   6.529
11872SOL     OW47806   6.240   3.604   7.083
11872SOL    HW247807   6.157   3.589   7.128
11872SOL    HW347808   6.299   3.537   7.118
11872SOL    MW447809   6.238   3.594   7.093
11873SOL     OW47810   7.297   2.311   6.708
11873SOL    HW247811   7.230   2.344   6.768
11873SOL    HW347812   7.340   2.389   6.674
11873SOL    MW447813   7.295   2.326   6.712
11874SOL     OW47814   7.475   3.031   6.678
11874SOL    HW247815   7.468   2.971   6.603
11874SOL    HW347816   7.401   3.091   6.667
11874SOL    MW447817   7.465   3.031   6.667
11875SOL     OW47818   6.857   2.893   6.596
11875SOL    HW247819   6.871   2.865   6.687
11875SOL    HW347820   6.943   2.924   6.568
11875SOL    MW447821   6.870   2.894   6.605
11876SOL     OW47822   6.940   2.388   6.875
11876SOL    HW247823   6.961   2.389   6.782
11876SOL    HW347824   6.985   2.310   6.908
11876SOL    MW447825   6.947   2.378   6.867
11877SOL     OW47826   7.433   2.519   7.417
11877SOL    HW247827   7.470   2.464   7.486
11877SOL    HW347828   7.458   2.476   7.335
11877SOL    MW447829   7.440   2.507   7.416
11878SOL     OW47830   6.980   2.817   7.468
11878SOL    HW247831   7.046   2.765   7.422
11878SOL    HW347832   7.000   2.804   7.561
11878SOL    MW447833   6.991   2.808   7.475
11879SOL     OW47834   6.931   1.903   5.817
11879SOL    HW247835   7.005   1.947   5.860
11879SOL    HW347836   6.855   1.957   5.839
11879SOL    MW447837   6.931   1.915   5.825
11880SOL     OW47838   6.991   2.678   6.095
11880SOL    HW247839   6.906   2.648   6.065
11880SOL    HW347840   6.983   2.685   6.190
11880SOL    MW447841   6.979   2.676   6.104
11881SOL     OW47842   6.067   3.141   6.826
11881SOL    HW247843   6.079   3.168   6.917
11881SOL    HW347844   6.048   3.222   6.779
11881SOL    MW447845   6.066   3.156   6.831
11882SOL     OW47846   6.351   2.121   6.649
11882SOL    HW247847   6.324   2.123   6.740
11882SOL    HW347848   6.281   2.073   6.604
11882SOL    MW447849   6.339   2.117   6.656
11883SOL     OW47850   6.205   3.613   6.811
11883SOL    HW247851   6.257   3.690   6.788
11883SOL    HW347852   6.214   3.605   6.906
11883SOL    MW447853   6.214   3.620   6.822
11884SOL     OW47854   7.107   3.198   7.043
11884SOL    HW247855   7.092   3.127   7.106
11884SOL    HW347856   7.153   3.156   6.971
11884SOL    MW447857   7.113   3.182   7.043
11885SOL     OW47858   6.181   2.929   7.160
11885SOL    HW247859   6.218   2.934   7.072
11885SOL    HW347860   6.220   3.002   7.207
11885SOL    MW447861   6.191   2.939   7.155
11886SOL     OW47862   6.361   2.972   6.972
11886SOL    HW247863   6.420   2.918   7.025
11886SOL    HW347864   6.376   2.944   6.882
11886SOL    MW447865   6.371   2.961   6.968
11887SOL     OW47866   6.364   2.344   5.821
11887SOL    HW247867   6.437   2.393   5.784
11887SOL    HW347868   6.380   2.253   5.795
11887SOL    MW447869   6.376   2.339   5.814
11888SOL     OW47870   7.172   3.461   7.144
11888SOL    HW247871   7.214   3.446   7.229
11888SOL    HW347872   7.163   3.374   7.106
11888SOL    MW447873   7.176   3.449   7.151
11889SOL     OW47874   6.832   1.940   6.735
11889SOL    HW247875   6.887   1.949   6.657
11889SOL    HW347876   6.887   1.974   6.806
11889SOL    MW447877   6.846   1.945   6.734
11890SOL     OW47878   5.839   2.853   5.919
11890SOL    HW247879   5.776   2.869   5.848
11890SOL    HW347880   5.786   2.816   5.990
11890SOL    MW447881   5.824   2.850   5.919
11891SOL     OW47882   6.195   3.207   5.778
11891SOL    HW247883   6.210   3.183   5.870
11891SOL    HW347884   6.103   3.185   5.762
11891SOL    MW447885   6.185   3.200   5.788
11892SOL     OW47886   6.734   3.438   5.930
11892SOL    HW247887   6.742   3.356   5.881
11892SOL    HW347888   6.653   3.477   5.897
11892SOL    MW447889   6.724   3.433   5.920
11893SOL     OW47890   5.993   3.596   6.499
11893SOL    HW247891   5.997   3.507   6.534
11893SOL    HW347892   6.019   3.587   6.408
11893SOL    MW447893   5.996   3.584   6.491
11894SOL     OW47894   6.610   3.074   6.742
11894SOL    HW247895   6.542   3.008   6.758
11894SOL    HW347896   6.628   3.068   6.649
11894SOL    MW447897   6.603   3.065   6.733
11895SOL     OW47898   5.699   3.349   6.993
11895SOL    HW247899   5.689   3.307   7.079
11895SOL    HW347900   5.620   3.402   6.983
11895SOL    MW447901   5.688   3.350   7.004
11896SOL     OW47902   6.603   2.213   6.563
11896SOL    HW247903   6.533   2.165   6.608
11896SOL    HW347904   6.635   2.276   6.627
11896SOL    MW447905   6.598   2.215   6.577
11897SOL     OW47906   6.254   2.649   7.183
11897SOL    HW247907   6.247   2.744   7.171
11897SOL    HW347908   6.263   2.638   7.278
11897SOL    MW447909   6.255   2.661   7.193
11898SOL     OW47910   5.975   3.164   7.441
11898SOL    HW247911   6.047   3.166   7.378
11898SOL    HW347912   5.945   3.073   7.440
11898SOL    MW447913   5.980   3.153   7.433
11899SOL     OW47914   7.059   1.927   6.908
11899SOL    HW247915   7.130   1.873   6.872
11899SOL    HW347916   7.058   1.906   7.001
11899SOL    MW447917   7.068   1.918   6.916
11900SOL     OW47918   7.259   3.457   7.392
11900SOL    HW247919   7.232   3.454   7.483
11900SOL    HW347920   7.355   3.461   7.395
11900SOL    MW447921   7.269   3.457   7.404
11901SOL     OW47922   6.070   2.319   6.376
11901SOL    HW247923   6.141   2.267   6.339
11901SOL    HW347924   6.056   2.284   6.463
11901SOL    MW447925   6.078   2.308   6.383
11902SOL     OW47926   5.625   3.654   7.448
11902SOL    HW247927   5.675   3.632   7.370
11902SOL    HW347928   5.633   3.749   7.456
11902SOL    MW447929   5.633   3.663   7.439
11903SOL     OW47930   6.386   3.412   6.452
11903SOL    HW247931   6.314   3.349   6.465
11903SOL    HW347932   6.347   3.497   6.470
11903SOL    MW447933   6.370   3.415   6.455
11904SOL     OW47934   6.706   2.260   6.100
11904SOL    HW247935   6.728   2.197   6.032
11904SOL    HW347936   6.611   2.252   6.111
11904SOL    MW447937   6.696   2.251   6.092
11905SOL     OW47938   5.791   1.950   6.032
11905SOL    HW247939   5.862   1.971   5.971
11905SOL    HW347940   5.745   1.878   5.990
11905SOL    MW447941   5.795   1.944   6.018
11906SOL     OW47942   5.622   2.417   7.175
11906SOL    HW247943   5.686   2.483   7.150
11906SOL    HW347944   5.541   2.444   7.132
11906SOL    MW447945   5.620   2.429   7.167
11907SOL     OW47946   7.360   3.324   6.132
11907SOL    HW247947   7.330   3.257   6.193
11907SOL    HW347948   7.454   3.330   6.146
11907SOL    MW447949   7.368   3.316   6.142
11908SOL     OW47950   6.916   3.001   6.062
11908SOL    HW247951   6.888   3.087   6.095
11908SOL    HW347952   6.944   3.017   5.972
11908SOL    MW447953   6.916   3.015   6.054
11909SOL     OW47954   6.578   1.921   6.115
11909SOL    HW247955   6.615   1.980   6.180
11909SOL    HW347956   6.555   1.977   6.041
11909SOL    MW447957   6.579   1.936   6.114
11910SOL     OW47958   7.431   2.803   6.537
11910SOL    HW247959   7.422   2.835   6.448
11910SOL    HW347960   7.384   2.719   6.537
11910SOL    MW447961   7.424   2.796   6.527
11911SOL     OW47962   5.807   2.643   7.116
11911SOL    HW247963   5.828   2.712   7.054
11911SOL    HW347964   5.887   2.590   7.121
11911SOL    MW447965   5.820   2.644   7.110
11912SOL     OW47966   7.343   2.734   6.238
11912SOL    HW247967   7.437   2.723   6.226
11912SOL    HW347968   7.319   2.806   6.179
11912SOL    MW447969   7.353   2.742   6.229
11913SOL     OW47970   5.792   2.658   7.383
11913SOL    HW247971   5.718   2.602   7.409
11913SOL    HW347972   5.787   2.661   7.288
11913SOL    MW447973   5.781   2.651   7.373
11914SOL     OW47974   5.958   1.945   6.833
11914SOL    HW247975   6.001   2.029   6.853
11914SOL    HW347976   6.031   1.883   6.826
11914SOL    MW447977   5.973   1.948   6.834
11915SOL     OW47978   5.999   2.612   6.011
11915SOL    HW247979   5.999   2.707   5.996
11915SOL    HW347980   6.076   2.596   6.065
11915SOL    MW447981   6.009   2.623   6.016
11916SOL     OW47982   6.775   2.471   7.075
11916SOL    HW247983   6.811   2.444   6.991
11916SOL    HW347984   6.688   2.505   7.054
11916SOL    MW447985   6.769   2.472   7.062
11917SOL     OW47986   5.758   2.343   6.300
11917SOL    HW247987   5.820   2.350   6.373
11917SOL    HW347988   5.758   2.250   6.277
11917SOL    MW447989   5.766   2.332   6.307
11918SOL     OW47990   7.305   3.683   5.832
11918SOL    HW247991   7.372   3.716   5.772
11918SOL    HW347992   7.262   3.762   5.866
11918SOL    MW447993   7.307   3.698   5.828
11919SOL     OW47994   6.440   2.604   6.784
11919SOL    HW247995   6.398   2.522   6.760
11919SOL    HW347996   6.441   2.603   6.880
11919SOL    MW447997   6.433   2.593   6.793
11920SOL     OW47998   7.111   3.737   7.183
11920SOL    HW247999   7.114   3.643   7.166
11920SOL    HW348000   7.134   3.745   7.275
11920SOL    MW448001   7.114   3.725   7.193
11921SOL     OW48002   6.244   2.074   6.889
11921SOL    HW248003   6.175   2.137   6.910
11921SOL    HW348004   6.271   2.038   6.974
11921SOL    MW448005   6.238   2.077   6.902
11922SOL     OW48006   5.627   2.915   5.758
11922SOL    HW248007   5.596   2.980   5.821
11922SOL    HW348008   5.576   2.837   5.777
11922SOL    MW448009   5.617   2.912   5.768
11923SOL     OW48010   7.039   1.927   6.506
11923SOL    HW248011   7.127   1.936   6.543
11923SOL    HW348012   7.049   1.868   6.432
11923SOL    MW448013   7.053   1.921   6.500
11924SOL     OW48014   7.071   2.666   6.350
11924SOL    HW248015   7.151   2.681   6.299
11924SOL    HW348016   7.064   2.571   6.356
11924SOL    MW448017   7.080   2.655   6.345
11925SOL     OW48018   6.211   3.715   5.700
11925SOL    HW248019   6.116   3.715   5.692
11925SOL    HW348020   6.227   3.661   5.778
11925SOL    MW448021   6.201   3.709   5.709
11926SOL     OW48022   6.521   2.592   7.047
11926SOL    HW248023   6.590   2.659   7.044
11926SOL    HW348024   6.454   2.630   7.103
11926SOL    MW448025   6.522   2.605   7.054
11927SOL     OW48026   5.939   2.892   7.295
11927SOL    HW248027   5.893   2.808   7.297
11927SOL    HW348028   5.996   2.886   7.219
11927SOL    MW448029   5.941   2.880   7.287
11928SOL     OW48030   7.056   2.535   5.615
11928SOL    HW248031   6.984   2.511   5.557
11928SOL    HW348032   7.122   2.572   5.557
11928SOL    MW448033   7.055   2.537   5.600
11929SOL     OW48034   6.190   3.267   6.296
11929SOL    HW248035   6.255   3.200   6.317
11929SOL    HW348036   6.242   3.344   6.273
11929SOL    MW448037   6.205   3.269   6.295
11930SOL     OW48038   6.451   2.432   6.426
11930SOL    HW248039   6.391   2.450   6.498
11930SOL    HW348040   6.485   2.344   6.445
11930SOL    MW448041   6.447   2.422   6.439
11931SOL     OW48042   7.392   1.931   7.095
11931SOL    HW248043   7.313   1.977   7.123
11931SOL    HW348044   7.427   1.985   7.024
11931SOL    MW448045   7.386   1.944   7.089
11932SOL     OW48046   6.676   3.015   6.445
11932SOL    HW248047   6.768   2.996   6.463
11932SOL    HW348048   6.649   2.945   6.385
11932SOL    MW448049   6.684   3.003   6.439
11933SOL     OW48050   6.469   2.835   5.800
11933SOL    HW248051   6.455   2.747   5.765
11933SOL    HW348052   6.420   2.892   5.741
11933SOL    MW448053   6.461   2.830   5.788
11934SOL     OW48054   6.950   3.253   6.541
11934SOL    HW248055   6.923   3.337   6.506
11934SOL    HW348056   6.910   3.248   6.628
11934SOL    MW448057   6.943   3.262   6.547
11935SOL     OW48058   6.869   3.201   6.809
11935SOL    HW248059   6.880   3.168   6.898
11935SOL    HW348060   6.788   3.160   6.778
11935SOL    MW448061   6.859   3.193   6.815
11936SOL     OW48062   5.882   2.559   6.579
11936SOL    HW248063   5.832   2.558   6.660
11936SOL    HW348064   5.902   2.651   6.563
11936SOL    MW448065   5.878   2.571   6.587
11937SOL     OW48066   6.949   3.323   7.341
11937SOL    HW248067   6.949   3.417   7.357
11937SOL    HW348068   6.994   3.313   7.257
11937SOL    MW448069   6.955   3.333   7.332
11938SOL     OW48070   7.188   2.041   5.902
11938SOL    HW248071   7.181   2.045   5.997
11938SOL    HW348072   7.200   2.132   5.875
11938SOL    MW448073   7.189   2.054   5.910
11939SOL     OW48074   6.477   2.604   6.016
11939SOL    HW248075   6.457   2.590   5.923
11939SOL    HW348076   6.570   2.583   6.023
11939SOL    MW448077   6.487   2.599   6.005
11940SOL     OW48078   5.804   2.227   7.320
11940SOL    HW248079   5.761   2.286   7.257
11940SOL    HW348080   5.872   2.282   7.360
11940SOL    MW448081   5.808   2.242   7.317
11941SOL     OW48082   6.916   2.847   6.865
11941SOL    HW248083   6.979   2.844   6.938
11941SOL    HW348084   6.832   2.865   6.907
11941SOL    MW448085   6.912   2.849   6.880
11942SOL     OW48086   6.460   3.562   6.054
11942SOL    HW248087   6.518   3.633   6.081
11942SOL    HW348088   6.483   3.490   6.112
11942SOL    MW448089   6.471   3.562   6.065
11943SOL     OW48090   7.255   2.024   6.644
11943SOL    HW248091   7.300   1.942   6.663
11943SOL    HW348092   7.275   2.080   6.720
11943SOL    MW448093   7.265   2.020   6.656
11944SOL     OW48094   5.703   1.867   6.743
11944SOL    HW248095   5.694   1.868   6.648
11944SOL    HW348096   5.797   1.879   6.758
11944SOL    MW448097   5.715   1.870   6.734
11945SOL     OW48098   7.340   3.060   6.363
11945SOL    HW248099   7.319   3.006   6.286
11945SOL    HW348100   7.436   3.058   6.367
11945SOL    MW448101   7.349   3.053   6.352
11946SOL     OW48102   6.032   3.205   7.106
11946SOL    HW248103   5.953   3.155   7.129
11946SOL    HW348104   6.102   3.164   7.156
11946SOL    MW448105   6.030   3.193   7.116
11947SOL     OW48106   5.916   1.994   5.789
11947SOL    HW248107   5.845   2.049   5.757
11947SOL    HW348108   5.958   1.960   5.710
11947SOL    MW448109   5.912   1.996   5.775
11948SOL     OW48110   7.040   2.491   6.625
11948SOL    HW248111   6.963   2.537   6.591
11948SOL    HW348112   7.097   2.560   6.659
11948SOL    MW448113   7.037   2.506   6.625
11949SOL     OW48114   5.672   2.093   5.638
11949SOL    HW248115   5.639   2.172   5.682
11949SOL    HW348116   5.727   2.126   5.567
11949SOL    MW448117   5.675   2.107   5.635
11950SOL     OW48118   5.706   3.350   5.827
11950SOL    HW248119   5.723   3.434   5.869
11950SOL    HW348120   5.741   3.359   5.739
11950SOL    MW448121   5.711   3.363   5.821
11951SOL     OW48122   6.978   3.439   6.044
11951SOL    HW248123   7.041   3.429   5.973
11951SOL    HW348124   6.895   3.459   5.999
11951SOL    MW448125   6.975   3.440   6.029
11952SOL     OW48126   7.341   4.575   0.257
11952SOL    HW248127   7.382   4.517   0.322
11952SOL    HW348128   7.248   4.567   0.274
11952SOL    MW448129   7.335   4.567   0.267
11953SOL     OW48130   7.207   4.507   1.252
11953SOL    HW248131   7.162   4.574   1.303
11953SOL    HW348132   7.295   4.543   1.238
11953SOL    MW448133   7.213   4.520   1.256
11954SOL     OW48134   6.135   4.758   0.486
11954SOL    HW248135   6.225   4.733   0.470
11954SOL    HW348136   6.131   4.851   0.463
11954SOL    MW448137   6.147   4.767   0.481
11955SOL     OW48138   7.251   5.461   0.628
11955SOL    HW248139   7.263   5.407   0.706
11955SOL    HW348140   7.288   5.409   0.557
11955SOL    MW448141   7.257   5.446   0.629
11956SOL     OW48142   6.630   5.346   1.629
11956SOL    HW248143   6.671   5.382   1.550
11956SOL    HW348144   6.665   5.257   1.636
11956SOL    MW448145   6.641   5.339   1.620
11957SOL     OW48146   7.187   4.901   1.233
11957SOL    HW248147   7.108   4.866   1.191
11957SOL    HW348148   7.214   4.973   1.177
11957SOL    MW448149   7.180   4.906   1.220
11958SOL     OW48150   6.419   4.214   0.499
11958SOL    HW248151   6.394   4.302   0.527
11958SOL    HW348152   6.416   4.217   0.403
11958SOL    MW448153   6.415   4.226   0.491
11959SOL     OW48154   5.861   4.242   0.427
11959SOL    HW248155   5.893   4.330   0.409
11959SOL    HW348156   5.849   4.240   0.522
11959SOL    MW448157   5.864   4.254   0.439
11960SOL     OW48158   5.939   4.655   1.328
11960SOL    HW248159   6.002   4.602   1.279
11960SOL    HW348160   5.920   4.729   1.271
11960SOL    MW448161   5.945   4.657   1.315
11961SOL     OW48162   6.260   3.997   0.514
11961SOL    HW248163   6.318   4.073   0.516
11961SOL    HW348164   6.195   4.018   0.447
11961SOL    MW448165   6.259   4.009   0.505
11962SOL     OW48166   6.347   4.924   0.689
11962SOL    HW248167   6.427   4.927   0.741
11962SOL    HW348168   6.375   4.891   0.603
11962SOL    MW448169   6.361   4.920   0.684
11963SOL     OW48170   6.372   5.265   1.592
11963SOL    HW248171   6.456   5.291   1.631
11963SOL    HW348172   6.396   5.209   1.518
11963SOL    MW448173   6.386   5.261   1.587
11964SOL     OW48174   6.124   4.428   0.680
11964SOL    HW248175   6.109   4.348   0.731
11964SOL    HW348176   6.206   4.463   0.714
11964SOL    MW448177   6.132   4.420   0.692
11965SOL     OW48178   6.461   5.114   1.365
11965SOL    HW248179   6.425   5.180   1.305
11965SOL    HW348180   6.389   5.052   1.378
11965SOL    MW448181   6.447   5.114   1.359
11966SOL     OW48182   6.266   4.254   1.057
11966SOL    HW248183   6.172   4.250   1.075
11966SOL    HW348184   6.296   4.163   1.066
11966SOL    MW448185   6.257   4.242   1.060
11967SOL     OW48186   6.012   4.668   0.961
11967SOL    HW248187   5.967   4.675   0.877
11967SOL    HW348188   5.992   4.751   1.005
11967SOL    MW448189   6.004   4.680   0.955
11968SOL     OW48190   5.709   5.514   0.836
11968SOL    HW248191   5.798   5.506   0.871
11968SOL    HW348192   5.673   5.426   0.841
11968SOL    MW448193   5.716   5.501   0.841
11969SOL     OW48194   6.974   4.906   0.205
11969SOL    HW248195   6.892   4.942   0.171
11969SOL    HW348196   7.042   4.949   0.154
11969SOL    MW448197   6.972   4.916   0.193
11970SOL     OW48198   5.973   5.041   0.871
11970SOL    HW248199   5.949   5.094   0.947
11970SOL    HW348200   6.029   5.099   0.819
11970SOL    MW448201   5.977   5.056   0.874
11971SOL     OW48202   6.535   4.685   0.681
11971SOL    HW248203   6.449   4.672   0.721
11971SOL    HW348204   6.588   4.612   0.713
11971SOL    MW448205   6.531   4.674   0.690
11972SOL     OW48206   5.943   5.337   1.466
11972SOL    HW248207   5.851   5.313   1.451
11972SOL    HW348208   5.987   5.254   1.483
11972SOL    MW448209   5.937   5.322   1.465
11973SOL     OW48210   6.526   5.047   0.398
11973SOL    HW248211   6.503   5.109   0.466
11973SOL    HW348212   6.483   4.965   0.424
11973SOL    MW448213   6.518   5.043   0.409
11974SOL     OW48214   7.399   4.048   0.854
11974SOL    HW248215   7.336   4.028   0.923
11974SOL    HW348216   7.389   3.977   0.791
11974SOL    MW448217   7.389   4.035   0.855
11975SOL     OW48218   6.023   4.020   0.366
11975SOL    HW248219   5.997   3.982   0.282
11975SOL    HW348220   5.960   4.090   0.382
11975SOL    MW448221   6.012   4.023   0.357
11976SOL     OW48222   5.858   4.981   0.403
11976SOL    HW248223   5.806   5.049   0.359
11976SOL    HW348224   5.855   4.907   0.343
11976SOL    MW448225   5.850   4.980   0.390
11977SOL     OW48226   6.520   5.444   0.181
11977SOL    HW248227   6.475   5.460   0.264
11977SOL    HW348228   6.451   5.409   0.123
11977SOL    MW448229   6.506   5.441   0.183
11978SOL     OW48230   7.455   4.217   0.156
11978SOL    HW248231   7.364   4.219   0.184
11978SOL    HW348232   7.500   4.279   0.214
11978SOL    MW448233   7.448   4.225   0.166
11979SOL     OW48234   7.200   4.820   0.506
11979SOL    HW248235   7.110   4.820   0.541
11979SOL    HW348236   7.193   4.866   0.423
11979SOL    MW448237   7.187   4.826   0.500
11980SOL     OW48238   7.000   4.455   1.578
11980SOL    HW248239   7.069   4.393   1.555
11980SOL    HW348240   6.925   4.429   1.525
11980SOL    MW448241   7.000   4.442   1.569
11981SOL     OW48242   5.741   5.335   1.130
11981SOL    HW248243   5.724   5.281   1.207
11981SOL    HW348244   5.729   5.425   1.160
11981SOL    MW448245   5.738   5.339   1.144
11982SOL     OW48246   6.736   4.842   1.570
11982SOL    HW248247   6.721   4.935   1.555
11982SOL    HW348248   6.831   4.832   1.570
11982SOL    MW448249   6.745   4.852   1.567
11983SOL     OW48250   6.532   4.266   1.771
11983SOL    HW248251   6.622   4.267   1.738
11983SOL    HW348252   6.491   4.191   1.729
11983SOL    MW448253   6.538   4.256   1.762
11984SOL     OW48254   7.107   4.798   0.898
11984SOL    HW248255   7.110   4.732   0.829
11984SOL    HW348256   7.192   4.841   0.894
11984SOL    MW448257   7.119   4.794   0.889
11985SOL     OW48258   6.727   4.401   0.467
11985SOL    HW248259   6.753   4.425   0.378
11985SOL    HW348260   6.709   4.308   0.463
11985SOL    MW448261   6.729   4.393   0.454
11986SOL     OW48262   7.392   5.021   0.318
11986SOL    HW248263   7.348   5.062   0.393
11986SOL    HW348264   7.449   5.089   0.283
11986SOL    MW448265   7.394   5.035   0.323
11987SOL     OW48266   6.312   4.070   1.721
11987SOL    HW248267   6.322   3.996   1.661
11987SOL    HW348268   6.348   4.039   1.804
11987SOL    MW448269   6.318   4.056   1.723
11988SOL     OW48270   6.048   5.437   0.636
11988SOL    HW248271   6.080   5.525   0.614
11988SOL    HW348272   6.001   5.409   0.558
11988SOL    MW448273   6.047   5.445   0.623
11989SOL     OW48274   7.432   3.799   0.685
11989SOL    HW248275   7.486   3.750   0.747
11989SOL    HW348276   7.375   3.733   0.646
11989SOL    MW448277   7.432   3.783   0.687
11990SOL     OW48278   5.764   5.497   0.213
11990SOL    HW248279   5.793   5.587   0.205
11990SOL    HW348280   5.714   5.480   0.134
11990SOL    MW448281   5.762   5.505   0.202
11991SOL     OW48282   6.551   3.752   1.098
11991SOL    HW248283   6.510   3.830   1.060
11991SOL    HW348284   6.645   3.770   1.093
11991SOL    MW448285   6.557   3.764   1.093
11992SOL     OW48286   7.168   5.305   0.184
11992SOL    HW248287   7.216   5.374   0.230
11992SOL    HW348288   7.089   5.349   0.153
11992SOL    MW448289   7.163   5.319   0.187
11993SOL     OW48290   6.566   4.430   0.128
11993SOL    HW248291   6.568   4.377   0.049
11993SOL    HW348292   6.654   4.467   0.134
11993SOL    MW448293   6.578   4.429   0.117
11994SOL     OW48294   7.180   4.356   0.464
11994SOL    HW248295   7.219   4.356   0.551
11994SOL    HW348296   7.121   4.432   0.464
11994SOL    MW448297   7.177   4.367   0.475
11995SOL     OW48298   6.497   4.723   1.593
11995SOL    HW248299   6.474   4.703   1.683
11995SOL    HW348300   6.582   4.767   1.598
11995SOL    MW448301   6.504   4.726   1.605
11996SOL     OW48302   6.577   3.860   1.353
11996SOL    HW248303   6.583   3.822   1.266
11996SOL    HW348304   6.566   3.954   1.338
11996SOL    MW448305   6.578   3.868   1.341
11997SOL     OW48306   6.666   4.349   1.187
11997SOL    HW248307   6.741   4.378   1.134
11997SOL    HW348308   6.598   4.414   1.171
11997SOL    MW448309   6.667   4.361   1.177
11998SOL     OW48310   7.216   4.317   1.464
11998SOL    HW248311   7.197   4.226   1.443
11998SOL    HW348312   7.194   4.366   1.385
11998SOL    MW448313   7.211   4.310   1.451
11999SOL     OW48314   7.358   5.411   1.368
11999SOL    HW248315   7.286   5.373   1.419
11999SOL    HW348316   7.375   5.496   1.409
11999SOL    MW448317   7.352   5.416   1.380
12000SOL     OW48318   6.663   4.055   1.570
12000SOL    HW248319   6.629   4.094   1.489
12000SOL    HW348320   6.641   3.963   1.563
12000SOL    MW448321   6.656   4.048   1.560
12001SOL     OW48322   7.072   4.869   1.646
12001SOL    HW248323   7.154   4.910   1.676
12001SOL    HW348324   7.035   4.831   1.726
12001SOL    MW448325   7.078   4.870   1.661
12002SOL     OW48326   7.367   4.242   0.630
12002SOL    HW248327   7.456   4.211   0.647
12002SOL    HW348328   7.310   4.182   0.678
12002SOL    MW448329   7.370   4.230   0.639
12003SOL     OW48330   5.793   3.956   0.659
12003SOL    HW248331   5.784   3.896   0.585
12003SOL    HW348332   5.726   3.927   0.722
12003SOL    MW448333   5.783   3.943   0.657
12004SOL     OW48334   6.736   5.049   0.220
12004SOL    HW248335   6.686   5.051   0.302
12004SOL    HW348336   6.670   5.067   0.152
12004SOL    MW448337   6.722   5.051   0.222
12005SOL     OW48338   5.740   4.129   1.022
12005SOL    HW248339   5.712   4.220   1.031
12005SOL    HW348340   5.677   4.090   0.961
12005SOL    MW448341   5.727   4.135   1.016
12006SOL     OW48342   6.199   5.467   0.328
12006SOL    HW248343   6.120   5.425   0.361
12006SOL    HW348344   6.265   5.450   0.395
12006SOL    MW448345   6.198   5.459   0.341
12007SOL     OW48346   7.327   4.987   1.725
12007SOL    HW248347   7.377   4.913   1.757
12007SOL    HW348348   7.273   5.014   1.800
12007SOL    MW448349   7.327   4.981   1.738
12008SOL     OW48350   6.335   4.882   0.035
12008SOL    HW248351   6.257   4.828   0.022
12008SOL    HW348352   6.306   4.955   0.088
12008SOL    MW448353   6.321   4.884   0.040
12009SOL     OW48354   7.461   4.622   1.227
12009SOL    HW248355   7.477   4.660   1.140
12009SOL    HW348356   7.495   4.688   1.288
12009SOL    MW448357   7.468   4.635   1.223
12010SOL     OW48358   7.253   5.331   0.896
12010SOL    HW248359   7.282   5.398   0.957
12010SOL    HW348360   7.234   5.255   0.951
12010SOL    MW448361   7.255   5.331   0.911
12011SOL     OW48362   6.916   5.398   0.103
12011SOL    HW248363   6.842   5.361   0.153
12011SOL    HW348364   6.924   5.488   0.136
12011SOL    MW448365   6.907   5.405   0.115
12012SOL     OW48366   5.724   4.404   1.192
12012SOL    HW248367   5.786   4.434   1.258
12012SOL    HW348368   5.658   4.473   1.186
12012SOL    MW448369   5.723   4.417   1.199
12013SOL     OW48370   7.140   5.072   0.045
12013SOL    HW248371   7.087   5.121  -0.019
12013SOL    HW348372   7.171   5.138   0.106
12013SOL    MW448373   7.138   5.086   0.043
12014SOL     OW48374   6.365   3.961   0.100
12014SOL    HW248375   6.313   3.881   0.088
12014SOL    HW348376   6.452   3.938   0.068
12014SOL    MW448377   6.368   3.947   0.094
12015SOL     OW48378   5.819   5.513   1.644
12015SOL    HW248379   5.793   5.581   1.582
12015SOL    HW348380   5.867   5.450   1.592
12015SOL    MW448381   5.821   5.513   1.630
12016SOL     OW48382   5.871   4.832   1.151
12016SOL    HW248383   5.924   4.907   1.176
12016SOL    HW348384   5.790   4.870   1.117
12016SOL    MW448385   5.867   4.847   1.151
12017SOL     OW48386   6.411   4.736   1.139
12017SOL    HW248387   6.439   4.645   1.151
12017SOL    HW348388   6.340   4.730   1.075
12017SOL    MW448389   6.404   4.724   1.134
12018SOL     OW48390   5.726   4.601   0.557
12018SOL    HW248391   5.817   4.616   0.584
12018SOL    HW348392   5.729   4.522   0.503
12018SOL    MW448393   5.738   4.593   0.555
12019SOL     OW48394   5.962   4.309   1.811
12019SOL    HW248395   5.909   4.389   1.818
12019SOL    HW348396   6.032   4.321   1.876
12019SOL    MW448397   5.964   4.322   1.819
12020SOL     OW48398   6.348   3.859   1.518
12020SOL    HW248399   6.325   3.767   1.520
12020SOL    HW348400   6.434   3.861   1.475
12020SOL    MW448401   6.355   3.849   1.514
12021SOL     OW48402   6.032   4.383   1.557
12021SOL    HW248403   6.112   4.433   1.543
12021SOL    HW348404   6.023   4.377   1.652
12021SOL    MW448405   6.041   4.389   1.567
12022SOL     OW48406   6.353   5.533   0.931
12022SOL    HW248407   6.442   5.548   0.961
12022SOL    HW348408   6.348   5.580   0.847
12022SOL    MW448409   6.363   5.541   0.924
12023SOL     OW48410   7.009   3.908   1.828
12023SOL    HW248411   7.065   3.835   1.854
12023SOL    HW348412   6.979   3.946   1.910
12023SOL    MW448413   7.013   3.903   1.841
12024SOL     OW48414   5.734   5.213   0.596
12024SOL    HW248415   5.706   5.252   0.678
12024SOL    HW348416   5.754   5.122   0.618
12024SOL    MW448417   5.732   5.205   0.609
12025SOL     OW48418   6.567   5.256   0.631
12025SOL    HW248419   6.650   5.210   0.615
12025SOL    HW348420   6.557   5.255   0.727
12025SOL    MW448421   6.577   5.249   0.641
12026SOL     OW48422   7.399   4.401   0.945
12026SOL    HW248423   7.488   4.431   0.927
12026SOL    HW348424   7.379   4.341   0.874
12026SOL    MW448425   7.408   4.398   0.934
12027SOL     OW48426   7.250   4.580   1.825
12027SOL    HW248427   7.305   4.504   1.806
12027SOL    HW348428   7.252   4.588   1.920
12027SOL    MW448429   7.258   4.571   1.833
12028SOL     OW48430   6.300   5.313   0.036
12028SOL    HW248431   6.240   5.382   0.006
12028SOL    HW348432   6.245   5.255   0.089
12028SOL    MW448433   6.284   5.315   0.038
12029SOL     OW48434   6.738   3.958   0.259
12029SOL    HW248435   6.671   3.934   0.196
12029SOL    HW348436   6.803   4.007   0.208
12029SOL    MW448437   6.738   3.960   0.244
12030SOL     OW48438   6.545   4.142   1.344
12030SOL    HW248439   6.464   4.183   1.372
12030SOL    HW348440   6.592   4.210   1.296
12030SOL    MW448441   6.540   4.157   1.342
12031SOL     OW48442   6.805   4.480   0.967
12031SOL    HW248443   6.818   4.574   0.977
12031SOL    HW348444   6.766   4.470   0.881
12031SOL    MW448445   6.801   4.491   0.957
12032SOL     OW48446   6.257   4.675   0.771
12032SOL    HW248447   6.168   4.666   0.804
12032SOL    HW348448   6.261   4.765   0.739
12032SOL    MW448449   6.246   4.686   0.771
12033SOL     OW48450   7.056   4.258   0.766
12033SOL    HW248451   7.001   4.179   0.765
12033SOL    HW348452   7.038   4.299   0.850
12033SOL    MW448453   7.046   4.253   0.775
12034SOL     OW48454   6.027   3.945   1.583
12034SOL    HW248455   5.948   3.963   1.635
12034SOL    HW348456   6.022   4.007   1.510
12034SOL    MW448457   6.017   3.955   1.580
12035SOL     OW48458   6.675   4.462   0.723
12035SOL    HW248459   6.612   4.394   0.747
12035SOL    HW348460   6.695   4.443   0.631
12035SOL    MW448461   6.669   4.449   0.715
12036SOL     OW48462   5.931   5.357   0.425
12036SOL    HW248463   5.892   5.404   0.351
12036SOL    HW348464   5.865   5.292   0.450
12036SOL    MW448465   5.918   5.355   0.419
12037SOL     OW48466   6.423   4.766   0.449
12037SOL    HW248467   6.425   4.740   0.356
12037SOL    HW348468   6.481   4.703   0.492
12037SOL    MW448469   6.431   4.755   0.443
12038SOL     OW48470   6.976   5.326   1.221
12038SOL    HW248471   6.901   5.372   1.259
12038SOL    HW348472   6.958   5.233   1.238
12038SOL    MW448473   6.965   5.320   1.229
12039SOL     OW48474   6.980   5.534   0.651
12039SOL    HW248475   6.923   5.487   0.590
12039SOL    HW348476   7.066   5.495   0.638
12039SOL    MW448477   6.983   5.525   0.641
12040SOL     OW48478   6.933   4.010   0.782
12040SOL    HW248479   6.961   3.942   0.843
12040SOL    HW348480   6.847   3.981   0.752
12040SOL    MW448481   6.926   3.997   0.786
12041SOL     OW48482   5.738   4.944   0.716
12041SOL    HW248483   5.802   4.976   0.779
12041SOL    HW348484   5.787   4.880   0.664
12041SOL    MW448485   5.753   4.940   0.717
12042SOL     OW48486   6.238   5.020   1.698
12042SOL    HW248487   6.286   5.103   1.685
12042SOL    HW348488   6.295   4.968   1.754
12042SOL    MW448489   6.252   5.024   1.704
12043SOL     OW48490   5.814   5.262   1.838
12043SOL    HW248491   5.870   5.186   1.853
12043SOL    HW348492   5.763   5.240   1.760
12043SOL    MW448493   5.814   5.249   1.829
12044SOL     OW48494   6.913   4.114   0.117
12044SOL    HW248495   6.886   4.180   0.053
12044SOL    HW348496   6.983   4.157   0.167
12044SOL    MW448497   6.918   4.127   0.114
12045SOL     OW48498   6.581   3.819   0.054
12045SOL    HW248499   6.637   3.811  -0.024
12045SOL    HW348500   6.558   3.729   0.076
12045SOL    MW448501   6.586   3.806   0.047
12046SOL     OW48502   7.086   4.670   0.259
12046SOL    HW248503   7.053   4.759   0.249
12046SOL    HW348504   7.051   4.641   0.344
12046SOL    MW448505   7.076   4.679   0.270
12047SOL     OW48506   6.699   5.099   1.447
12047SOL    HW248507   6.610   5.105   1.415
12047SOL    HW348508   6.743   5.178   1.415
12047SOL    MW448509   6.694   5.109   1.439
12048SOL     OW48510   5.992   3.767   1.789
12048SOL    HW248511   5.920   3.732   1.737
12048SOL    HW348512   6.050   3.808   1.724
12048SOL    MW448513   5.990   3.768   1.774
12049SOL     OW48514   6.016   5.257   1.088
12049SOL    HW248515   6.061   5.319   1.145
12049SOL    HW348516   5.923   5.276   1.101
12049SOL    MW448517   6.009   5.267   1.095
12050SOL     OW48518   7.456   4.786   1.442
12050SOL    HW248519   7.371   4.799   1.401
12050SOL    HW348520   7.436   4.750   1.529
12050SOL    MW448521   7.443   4.782   1.447
12051SOL     OW48522   6.438   5.325   1.196
12051SOL    HW248523   6.462   5.314   1.105
12051SOL    HW348524   6.361   5.382   1.194
12051SOL    MW448525   6.430   5.330   1.185
12052SOL     OW48526   6.080   4.708   0.051
12052SOL    HW248527   6.003   4.721   0.107
12052SOL    HW348528   6.044   4.672  -0.030
12052SOL    MW448529   6.066   4.704   0.048
12053SOL     OW48530   6.733   4.681   0.294
12053SOL    HW248531   6.643   4.702   0.269
12053SOL    HW348532   6.760   4.754   0.350
12053SOL    MW448533   6.725   4.693   0.297
12054SOL     OW48534   6.233   5.030   0.986
12054SOL    HW248535   6.226   5.009   1.080
12054SOL    HW348536   6.151   4.998   0.949
12054SOL    MW448537   6.221   5.024   0.993
12055SOL     OW48538   7.097   4.040   1.388
12055SOL    HW248539   7.044   4.042   1.468
12055SOL    HW348540   7.082   3.953   1.351
12055SOL    MW448541   7.089   4.030   1.393
12056SOL     OW48542   7.433   3.964   1.261
12056SOL    HW248543   7.414   4.031   1.196
12056SOL    HW348544   7.490   3.902   1.216
12056SOL    MW448545   7.437   3.965   1.247
12057SOL     OW48546   5.679   5.122   1.649
12057SOL    HW248547   5.723   5.055   1.595
12057SOL    HW348548   5.594   5.084   1.669
12057SOL    MW448549   5.674   5.108   1.645
12058SOL     OW48550   6.362   3.797   0.701
12058SOL    HW248551   6.291   3.858   0.683
12058SOL    HW348552   6.413   3.794   0.620
12058SOL    MW448553   6.358   3.803   0.688
12059SOL     OW48554   6.120   5.037   0.450
12059SOL    HW248555   6.113   5.069   0.540
12059SOL    HW348556   6.030   5.021   0.422
12059SOL    MW448557   6.108   5.039   0.457
12060SOL     OW48558   6.715   5.430   1.359
12060SOL    HW248559   6.635   5.415   1.309
12060SOL    HW348560   6.722   5.525   1.366
12060SOL    MW448561   6.706   5.441   1.353
12061SOL     OW48562   6.829   5.395   0.849
12061SOL    HW248563   6.876   5.468   0.808
12061SOL    HW348564   6.750   5.434   0.885
12061SOL    MW448565   6.824   5.410   0.848
12062SOL     OW48566   7.237   5.490   1.124
12062SOL    HW248567   7.280   5.460   1.204
12062SOL    HW348568   7.156   5.438   1.121
12062SOL    MW448569   7.232   5.479   1.134
12063SOL     OW48570   6.322   4.454   1.831
12063SOL    HW248571   6.392   4.396   1.803
12063SOL    HW348572   6.265   4.399   1.886
12063SOL    MW448573   6.324   4.441   1.835
12064SOL     OW48574   7.109   4.666   1.464
12064SOL    HW248575   7.114   4.719   1.544
12064SOL    HW348576   7.071   4.583   1.492
12064SOL    MW448577   7.105   4.661   1.479
12065SOL     OW48578   6.749   3.801   1.710
12065SOL    HW248579   6.744   3.708   1.691
12065SOL    HW348580   6.832   3.812   1.756
12065SOL    MW448581   6.757   3.790   1.714
12066SOL     OW48582   6.123   4.321   0.164
12066SOL    HW248583   6.089   4.377   0.234
12066SOL    HW348584   6.194   4.271   0.204
12066SOL    MW448585   6.129   4.322   0.178
12067SOL     OW48586   7.219   5.072   0.986
12067SOL    HW248587   7.254   5.054   0.899
12067SOL    HW348588   7.124   5.073   0.973
12067SOL    MW448589   7.211   5.069   0.973
12068SOL     OW48590   6.648   4.720   1.355
12068SOL    HW248591   6.691   4.755   1.433
12068SOL    HW348592   6.631   4.797   1.301
12068SOL    MW448593   6.651   4.735   1.358
12069SOL     OW48594   7.179   4.207   0.228
12069SOL    HW248595   7.171   4.278   0.165
12069SOL    HW348596   7.197   4.251   0.311
12069SOL    MW448597   7.180   4.221   0.230
12070SOL     OW48598   6.039   3.862   0.657
12070SOL    HW248599   6.089   3.905   0.588
12070SOL    HW348600   5.954   3.906   0.657
12070SOL    MW448601   6.036   3.875   0.648
12071SOL     OW48602   5.798   4.924   1.517
12071SOL    HW248603   5.826   4.877   1.595
12071SOL    HW348604   5.719   4.879   1.488
12071SOL    MW448605   5.791   4.913   1.523
12072SOL     OW48606   6.306   4.251   1.484
12072SOL    HW248607   6.278   4.339   1.508
12072SOL    HW348608   6.275   4.195   1.555
12072SOL    MW448609   6.298   4.254   1.496
12073SOL     OW48610   6.848   4.469   0.203
12073SOL    HW248611   6.895   4.487   0.122
12073SOL    HW348612   6.814   4.553   0.231
12073SOL    MW448613   6.850   4.483   0.196
12074SOL     OW48614   5.961   4.647   0.697
12074SOL    HW248615   6.019   4.703   0.645
12074SOL    HW348616   6.005   4.562   0.699
12074SOL    MW448617   5.974   4.644   0.690
12075SOL     OW48618   7.101   3.999   0.534
12075SOL    HW248619   7.023   3.949   0.559
12075SOL    HW348620   7.072   4.090   0.534
12075SOL    MW448621   7.087   4.003   0.537
12076SOL     OW48622   6.687   3.961   0.693
12076SOL    HW248623   6.707   4.036   0.637
12076SOL    HW348624   6.667   4.000   0.778
12076SOL    MW448625   6.688   3.977   0.697
12077SOL     OW48626   6.583   5.211   0.025
12077SOL    HW248627   6.610   5.289  -0.023
12077SOL    HW348628   6.490   5.226   0.044
12077SOL    MW448629   6.574   5.224   0.021
12078SOL     OW48630   7.447   4.734   1.712
12078SOL    HW248631   7.360   4.714   1.748
12078SOL    HW348632   7.501   4.660   1.737
12078SOL    MW448633   7.442   4.723   1.720
12079SOL     OW48634   5.668   5.247   0.869
12079SOL    HW248635   5.700   5.251   0.960
12079SOL    HW348636   5.573   5.255   0.877
12079SOL    MW448637   5.660   5.250   0.882
12080SOL     OW48638   5.623   4.373   0.416
12080SOL    HW248639   5.563   4.345   0.486
12080SOL    HW348640   5.697   4.313   0.422
12080SOL    MW448641   5.625   4.362   0.425
12081SOL     OW48642   7.191   5.585   1.850
12081SOL    HW248643   7.236   5.509   1.815
12081SOL    HW348644   7.229   5.598   1.937
12081SOL    MW448645   7.201   5.578   1.856
12082SOL     OW48646   6.791   5.104   0.576
12082SOL    HW248647   6.814   5.055   0.654
12082SOL    HW348648   6.872   5.146   0.548
12082SOL    MW448649   6.804   5.104   0.583
12083SOL     OW48650   6.049   4.112   1.305
12083SOL    HW248651   6.082   4.193   1.345
12083SOL    HW348652   6.022   4.138   1.217
12083SOL    MW448653   6.048   4.126   1.299
12084SOL     OW48654   6.003   4.079   1.041
12084SOL    HW248655   6.033   3.993   1.012
12084SOL    HW348656   5.908   4.072   1.044
12084SOL    MW448657   5.995   4.068   1.039
12085SOL     OW48658   6.832   4.288   1.732
12085SOL    HW248659   6.884   4.223   1.685
12085SOL    HW348660   6.790   4.339   1.662
12085SOL    MW448661   6.833   4.285   1.715
12086SOL     OW48662   6.931   4.083   1.593
12086SOL    HW248663   6.838   4.067   1.580
12086SOL    HW348664   6.957   4.021   1.661
12086SOL    MW448665   6.921   4.073   1.600
12087SOL     OW48666   6.146   3.857   0.932
12087SOL    HW248667   6.156   3.766   0.958
12087SOL    HW348668   6.102   3.853   0.847
12087SOL    MW448669   6.142   3.845   0.924
12088SOL     OW48670   6.240   5.472   1.478
12088SOL    HW248671   6.157   5.457   1.523
12088SOL    HW348672   6.299   5.405   1.513
12088SOL    MW448673   6.238   5.462   1.488
12089SOL     OW48674   7.297   4.179   1.103
12089SOL    HW248675   7.230   4.212   1.163
12089SOL    HW348676   7.340   4.257   1.069
12089SOL    MW448677   7.295   4.194   1.107
12090SOL     OW48678   7.475   4.899   1.073
12090SOL    HW248679   7.468   4.839   0.998
12090SOL    HW348680   7.401   4.959   1.062
12090SOL    MW448681   7.465   4.899   1.062
12091SOL     OW48682   6.857   4.761   0.991
12091SOL    HW248683   6.871   4.733   1.082
12091SOL    HW348684   6.943   4.792   0.963
12091SOL    MW448685   6.870   4.762   1.000
12092SOL     OW48686   6.940   4.256   1.270
12092SOL    HW248687   6.961   4.257   1.177
12092SOL    HW348688   6.985   4.178   1.303
12092SOL    MW448689   6.947   4.246   1.262
12093SOL     OW48690   7.433   4.387   1.812
12093SOL    HW248691   7.470   4.332   1.881
12093SOL    HW348692   7.458   4.344   1.730
12093SOL    MW448693   7.440   4.375   1.811
12094SOL     OW48694   6.980   4.685   1.863
12094SOL    HW248695   7.046   4.633   1.817
12094SOL    HW348696   7.000   4.672   1.956
12094SOL    MW448697   6.991   4.676   1.870
12095SOL     OW48698   6.931   3.771   0.212
12095SOL    HW248699   7.005   3.815   0.255
12095SOL    HW348700   6.855   3.825   0.234
12095SOL    MW448701   6.931   3.783   0.220
12096SOL     OW48702   6.991   4.546   0.490
12096SOL    HW248703   6.906   4.516   0.460
12096SOL    HW348704   6.983   4.553   0.585
12096SOL    MW448705   6.979   4.544   0.499
12097SOL     OW48706   6.067   5.009   1.221
12097SOL    HW248707   6.079   5.036   1.312
12097SOL    HW348708   6.048   5.090   1.174
12097SOL    MW448709   6.066   5.024   1.226
12098SOL     OW48710   6.351   3.989   1.044
12098SOL    HW248711   6.324   3.991   1.135
12098SOL    HW348712   6.281   3.941   0.999
12098SOL    MW448713   6.339   3.985   1.051
12099SOL     OW48714   6.205   5.481   1.206
12099SOL    HW248715   6.257   5.558   1.183
12099SOL    HW348716   6.214   5.473   1.301
12099SOL    MW448717   6.214   5.488   1.217
12100SOL     OW48718   7.107   5.066   1.438
12100SOL    HW248719   7.092   4.995   1.501
12100SOL    HW348720   7.153   5.024   1.366
12100SOL    MW448721   7.113   5.050   1.438
12101SOL     OW48722   6.181   4.797   1.555
12101SOL    HW248723   6.218   4.802   1.467
12101SOL    HW348724   6.220   4.870   1.602
12101SOL    MW448725   6.191   4.807   1.550
12102SOL     OW48726   6.361   4.840   1.367
12102SOL    HW248727   6.420   4.786   1.420
12102SOL    HW348728   6.376   4.812   1.277
12102SOL    MW448729   6.371   4.829   1.363
12103SOL     OW48730   6.364   4.212   0.216
12103SOL    HW248731   6.437   4.261   0.179
12103SOL    HW348732   6.380   4.121   0.190
12103SOL    MW448733   6.376   4.207   0.209
12104SOL     OW48734   7.172   5.329   1.539
12104SOL    HW248735   7.214   5.314   1.624
12104SOL    HW348736   7.163   5.242   1.501
12104SOL    MW448737   7.176   5.317   1.546
12105SOL     OW48738   6.832   3.808   1.130
12105SOL    HW248739   6.887   3.817   1.052
12105SOL    HW348740   6.887   3.842   1.201
12105SOL    MW448741   6.846   3.813   1.129
12106SOL     OW48742   5.839   4.721   0.314
12106SOL    HW248743   5.776   4.737   0.243
12106SOL    HW348744   5.786   4.684   0.385
12106SOL    MW448745   5.824   4.718   0.314
12107SOL     OW48746   6.195   5.075   0.173
12107SOL    HW248747   6.210   5.051   0.265
12107SOL    HW348748   6.103   5.053   0.157
12107SOL    MW448749   6.185   5.068   0.183
12108SOL     OW48750   6.734   5.306   0.325
12108SOL    HW248751   6.742   5.224   0.276
12108SOL    HW348752   6.653   5.345   0.292
12108SOL    MW448753   6.724   5.301   0.315
12109SOL     OW48754   5.993   5.464   0.894
12109SOL    HW248755   5.997   5.375   0.929
12109SOL    HW348756   6.019   5.455   0.803
12109SOL    MW448757   5.996   5.452   0.886
12110SOL     OW48758   6.610   4.942   1.137
12110SOL    HW248759   6.542   4.876   1.153
12110SOL    HW348760   6.628   4.936   1.044
12110SOL    MW448761   6.603   4.933   1.128
12111SOL     OW48762   5.699   5.217   1.388
12111SOL    HW248763   5.689   5.175   1.474
12111SOL    HW348764   5.620   5.270   1.378
12111SOL    MW448765   5.688   5.218   1.399
12112SOL     OW48766   6.603   4.081   0.958
12112SOL    HW248767   6.533   4.033   1.003
12112SOL    HW348768   6.635   4.144   1.022
12112SOL    MW448769   6.598   4.083   0.972
12113SOL     OW48770   6.254   4.517   1.578
12113SOL    HW248771   6.247   4.612   1.566
12113SOL    HW348772   6.263   4.506   1.673
12113SOL    MW448773   6.255   4.529   1.588
12114SOL     OW48774   5.975   5.032   1.836
12114SOL    HW248775   6.047   5.034   1.773
12114SOL    HW348776   5.945   4.941   1.835
12114SOL    MW448777   5.980   5.021   1.828
12115SOL     OW48778   7.059   3.795   1.303
12115SOL    HW248779   7.130   3.741   1.267
12115SOL    HW348780   7.058   3.774   1.396
12115SOL    MW448781   7.068   3.786   1.311
12116SOL     OW48782   7.259   5.325   1.787
12116SOL    HW248783   7.232   5.322   1.878
12116SOL    HW348784   7.355   5.329   1.790
12116SOL    MW448785   7.269   5.325   1.799
12117SOL     OW48786   6.070   4.187   0.771
12117SOL    HW248787   6.141   4.135   0.734
12117SOL    HW348788   6.056   4.152   0.858
12117SOL    MW448789   6.078   4.176   0.778
12118SOL     OW48790   5.625   5.522   1.843
12118SOL    HW248791   5.675   5.500   1.765
12118SOL    HW348792   5.633   5.617   1.851
12118SOL    MW448793   5.633   5.531   1.834
12119SOL     OW48794   6.386   5.280   0.847
12119SOL    HW248795   6.314   5.217   0.860
12119SOL    HW348796   6.347   5.365   0.865
12119SOL    MW448797   6.370   5.283   0.850
12120SOL     OW48798   6.706   4.128   0.495
12120SOL    HW248799   6.728   4.065   0.427
12120SOL    HW348800   6.611   4.120   0.506
12120SOL    MW448801   6.696   4.119   0.487
12121SOL     OW48802   5.791   3.818   0.427
12121SOL    HW248803   5.862   3.839   0.366
12121SOL    HW348804   5.745   3.746   0.385
12121SOL    MW448805   5.795   3.812   0.413
12122SOL     OW48806   5.622   4.285   1.570
12122SOL    HW248807   5.686   4.351   1.545
12122SOL    HW348808   5.541   4.312   1.527
12122SOL    MW448809   5.620   4.297   1.562
12123SOL     OW48810   7.360   5.192   0.527
12123SOL    HW248811   7.330   5.125   0.588
12123SOL    HW348812   7.454   5.198   0.541
12123SOL    MW448813   7.368   5.184   0.537
12124SOL     OW48814   6.916   4.869   0.457
12124SOL    HW248815   6.888   4.955   0.490
12124SOL    HW348816   6.944   4.885   0.367
12124SOL    MW448817   6.916   4.883   0.449
12125SOL     OW48818   6.578   3.789   0.510
12125SOL    HW248819   6.615   3.848   0.575
12125SOL    HW348820   6.555   3.845   0.436
12125SOL    MW448821   6.579   3.804   0.509
12126SOL     OW48822   7.431   4.671   0.932
12126SOL    HW248823   7.422   4.703   0.843
12126SOL    HW348824   7.384   4.587   0.932
12126SOL    MW448825   7.424   4.664   0.922
12127SOL     OW48826   5.807   4.511   1.511
12127SOL    HW248827   5.828   4.580   1.449
12127SOL    HW348828   5.887   4.458   1.516
12127SOL    MW448829   5.820   4.512   1.505
12128SOL     OW48830   7.343   4.602   0.633
12128SOL    HW248831   7.437   4.591   0.621
12128SOL    HW348832   7.319   4.674   0.574
12128SOL    MW448833   7.353   4.610   0.624
12129SOL     OW48834   5.792   4.526   1.778
12129SOL    HW248835   5.718   4.470   1.804
12129SOL    HW348836   5.787   4.529   1.683
12129SOL    MW448837   5.781   4.519   1.768
12130SOL     OW48838   5.958   3.813   1.228
12130SOL    HW248839   6.001   3.897   1.248
12130SOL    HW348840   6.031   3.751   1.221
12130SOL    MW448841   5.973   3.816   1.229
12131SOL     OW48842   5.999   4.480   0.406
12131SOL    HW248843   5.999   4.575   0.391
12131SOL    HW348844   6.076   4.464   0.460
12131SOL    MW448845   6.009   4.491   0.411
12132SOL     OW48846   6.775   4.339   1.470
12132SOL    HW248847   6.811   4.312   1.386
12132SOL    HW348848   6.688   4.373   1.449
12132SOL    MW448849   6.769   4.340   1.457
12133SOL     OW48850   5.758   4.211   0.695
12133SOL    HW248851   5.820   4.218   0.768
12133SOL    HW348852   5.758   4.118   0.672
12133SOL    MW448853   5.766   4.200   0.702
12134SOL     OW48854   7.305   5.551   0.227
12134SOL    HW248855   7.372   5.584   0.167
12134SOL    HW348856   7.262   5.630   0.261
12134SOL    MW448857   7.307   5.566   0.223
12135SOL     OW48858   6.440   4.472   1.179
12135SOL    HW248859   6.398   4.390   1.155
12135SOL    HW348860   6.441   4.471   1.275
12135SOL    MW448861   6.433   4.461   1.188
12136SOL     OW48862   7.111   5.605   1.578
12136SOL    HW248863   7.114   5.511   1.561
12136SOL    HW348864   7.134   5.613   1.670
12136SOL    MW448865   7.114   5.593   1.588
12137SOL     OW48866   6.244   3.942   1.284
12137SOL    HW248867   6.175   4.005   1.305
12137SOL    HW348868   6.271   3.906   1.369
12137SOL    MW448869   6.238   3.945   1.297
12138SOL     OW48870   5.627   4.783   0.153
12138SOL    HW248871   5.596   4.848   0.216
12138SOL    HW348872   5.576   4.705   0.172
12138SOL    MW448873   5.617   4.780   0.163
12139SOL     OW48874   7.039   3.795   0.901
12139SOL    HW248875   7.127   3.804   0.938
12139SOL    HW348876   7.049   3.736   0.827
12139SOL    MW448877   7.053   3.789   0.895
12140SOL     OW48878   7.071   4.534   0.745
12140SOL    HW248879   7.151   4.549   0.694
12140SOL    HW348880   7.064   4.439   0.751
12140SOL    MW448881   7.080   4.523   0.740
12141SOL     OW48882   6.211   5.583   0.095
12141SOL    HW248883   6.116   5.583   0.087
12141SOL    HW348884   6.227   5.529   0.173
12141SOL    MW448885   6.201   5.577   0.104
12142SOL     OW48886   6.521   4.460   1.442
12142SOL    HW248887   6.590   4.527   1.439
12142SOL    HW348888   6.454   4.498   1.498
12142SOL    MW448889   6.522   4.473   1.449
12143SOL     OW48890   5.939   4.760   1.690
12143SOL    HW248891   5.893   4.676   1.692
12143SOL    HW348892   5.996   4.754   1.614
12143SOL    MW448893   5.941   4.748   1.682
12144SOL     OW48894   7.056   4.403   0.011
12144SOL    HW248895   6.984   4.379  -0.047
12144SOL    HW348896   7.122   4.440  -0.047
12144SOL    MW448897   7.055   4.405  -0.004
12145SOL     OW48898   6.190   5.135   0.691
12145SOL    HW248899   6.255   5.068   0.712
12145SOL    HW348900   6.242   5.212   0.668
12145SOL    MW448901   6.205   5.137   0.690
12146SOL     OW48902   6.451   4.300   0.821
12146SOL    HW248903   6.391   4.318   0.893
12146SOL    HW348904   6.485   4.212   0.840
12146SOL    MW448905   6.447   4.290   0.834
12147SOL     OW48906   7.392   3.799   1.490
12147SOL    HW248907   7.313   3.845   1.518
12147SOL    HW348908   7.427   3.853   1.419
12147SOL    MW448909   7.386   3.812   1.484
12148SOL     OW48910   6.676   4.883   0.840
12148SOL    HW248911   6.768   4.864   0.858
12148SOL    HW348912   6.649   4.813   0.780
12148SOL    MW448913   6.684   4.871   0.834
12149SOL     OW48914   6.469   4.703   0.195
12149SOL    HW248915   6.455   4.615   0.160
12149SOL    HW348916   6.420   4.760   0.136
12149SOL    MW448917   6.461   4.698   0.183
12150SOL     OW48918   6.950   5.121   0.936
12150SOL    HW248919   6.923   5.205   0.901
12150SOL    HW348920   6.910   5.116   1.023
12150SOL    MW448921   6.943   5.130   0.942
12151SOL     OW48922   6.869   5.069   1.204
12151SOL    HW248923   6.880   5.036   1.293
12151SOL    HW348924   6.788   5.028   1.173
12151SOL    MW448925   6.859   5.061   1.210
12152SOL     OW48926   5.882   4.427   0.974
12152SOL    HW248927   5.832   4.426   1.055
12152SOL    HW348928   5.902   4.519   0.958
12152SOL    MW448929   5.878   4.439   0.982
12153SOL     OW48930   6.949   5.191   1.736
12153SOL    HW248931   6.949   5.285   1.752
12153SOL    HW348932   6.994   5.181   1.652
12153SOL    MW448933   6.955   5.201   1.727
12154SOL     OW48934   7.188   3.909   0.297
12154SOL    HW248935   7.181   3.913   0.392
12154SOL    HW348936   7.200   4.000   0.270
12154SOL    MW448937   7.189   3.922   0.305
12155SOL     OW48938   6.477   4.472   0.411
12155SOL    HW248939   6.457   4.458   0.318
12155SOL    HW348940   6.570   4.451   0.418
12155SOL    MW448941   6.487   4.467   0.400
12156SOL     OW48942   5.804   4.095   1.715
12156SOL    HW248943   5.761   4.154   1.652
12156SOL    HW348944   5.872   4.150   1.755
12156SOL    MW448945   5.808   4.110   1.712
12157SOL     OW48946   6.916   4.715   1.260
12157SOL    HW248947   6.979   4.712   1.333
12157SOL    HW348948   6.832   4.733   1.302
12157SOL    MW448949   6.912   4.717   1.275
12158SOL     OW48950   6.460   5.430   0.449
12158SOL    HW248951   6.518   5.501   0.476
12158SOL    HW348952   6.483   5.358   0.507
12158SOL    MW448953   6.471   5.430   0.460
12159SOL     OW48954   7.255   3.892   1.039
12159SOL    HW248955   7.300   3.810   1.058
12159SOL    HW348956   7.275   3.948   1.115
12159SOL    MW448957   7.265   3.888   1.051
12160SOL     OW48958   5.703   3.735   1.138
12160SOL    HW248959   5.694   3.736   1.043
12160SOL    HW348960   5.797   3.747   1.153
12160SOL    MW448961   5.715   3.738   1.129
12161SOL     OW48962   7.340   4.928   0.758
12161SOL    HW248963   7.319   4.874   0.681
12161SOL    HW348964   7.436   4.926   0.762
12161SOL    MW448965   7.349   4.921   0.747
12162SOL     OW48966   6.032   5.073   1.501
12162SOL    HW248967   5.953   5.023   1.524
12162SOL    HW348968   6.102   5.032   1.551
12162SOL    MW448969   6.030   5.061   1.511
12163SOL     OW48970   5.916   3.862   0.184
12163SOL    HW248971   5.845   3.917   0.152
12163SOL    HW348972   5.958   3.828   0.105
12163SOL    MW448973   5.912   3.864   0.170
12164SOL     OW48974   7.040   4.359   1.020
12164SOL    HW248975   6.963   4.405   0.986
12164SOL    HW348976   7.097   4.428   1.054
12164SOL    MW448977   7.037   4.374   1.020
12165SOL     OW48978   5.706   5.218   0.222
12165SOL    HW248979   5.723   5.302   0.264
12165SOL    HW348980   5.741   5.227   0.134
12165SOL    MW448981   5.711   5.231   0.216
12166SOL     OW48982   6.978   5.307   0.439
12166SOL    HW248983   7.041   5.297   0.368
12166SOL    HW348984   6.895   5.327   0.394
12166SOL    MW448985   6.975   5.308   0.424
12167SOL     OW48986   7.341   4.575   2.125
12167SOL    HW248987   7.382   4.517   2.190
12167SOL    HW348988   7.248   4.567   2.142
12167SOL    MW448989   7.335   4.567   2.135
12168SOL     OW48990   7.207   4.507   3.120
12168SOL    HW248991   7.162   4.574   3.171
12168SOL    HW348992   7.295   4.543   3.106
12168SOL    MW448993   7.213   4.520   3.124
12169SOL     OW48994   6.135   4.758   2.354
12169SOL    HW248995   6.225   4.733   2.338
12169SOL    HW348996   6.131   4.851   2.331
12169SOL    MW448997   6.147   4.767   2.349
12170SOL     OW48998   7.251   5.461   2.496
12170SOL    HW248999   7.263   5.407   2.574
12170SOL    HW349000   7.288   5.409   2.425
12170SOL    MW449001   7.257   5.446   2.497
12171SOL     OW49002   6.630   5.346   3.497
12171SOL    HW249003   6.671   5.382   3.418
12171SOL    HW349004   6.665   5.257   3.504
12171SOL    MW449005   6.641   5.339   3.488
12172SOL     OW49006   7.187   4.901   3.101
12172SOL    HW249007   7.108   4.866   3.059
12172SOL    HW349008   7.214   4.973   3.045
12172SOL    MW449009   7.180   4.906   3.088
12173SOL     OW49010   6.419   4.214   2.367
12173SOL    HW249011   6.394   4.302   2.395
12173SOL    HW349012   6.416   4.217   2.271
12173SOL    MW449013   6.415   4.226   2.359
12174SOL     OW49014   5.861   4.242   2.295
12174SOL    HW249015   5.893   4.330   2.277
12174SOL    HW349016   5.849   4.240   2.390
12174SOL    MW449017   5.864   4.254   2.307
12175SOL     OW49018   5.939   4.655   3.196
12175SOL    HW249019   6.002   4.602   3.147
12175SOL    HW349020   5.920   4.729   3.139
12175SOL    MW449021   5.945   4.657   3.183
12176SOL     OW49022   6.260   3.997   2.382
12176SOL    HW249023   6.318   4.073   2.384
12176SOL    HW349024   6.195   4.018   2.315
12176SOL    MW449025   6.259   4.009   2.373
12177SOL     OW49026   6.347   4.924   2.557
12177SOL    HW249027   6.427   4.927   2.609
12177SOL    HW349028   6.375   4.891   2.471
12177SOL    MW449029   6.361   4.920   2.552
12178SOL     OW49030   6.372   5.265   3.460
12178SOL    HW249031   6.456   5.291   3.499
12178SOL    HW349032   6.396   5.209   3.386
12178SOL    MW449033   6.386   5.261   3.455
12179SOL     OW49034   6.124   4.428   2.548
12179SOL    HW249035   6.109   4.348   2.599
12179SOL    HW349036   6.206   4.463   2.582
12179SOL    MW449037   6.132   4.420   2.560
12180SOL     OW49038   6.461   5.114   3.233
12180SOL    HW249039   6.425   5.180   3.173
12180SOL    HW349040   6.389   5.052   3.246
12180SOL    MW449041   6.447   5.114   3.227
12181SOL     OW49042   6.266   4.254   2.925
12181SOL    HW249043   6.172   4.250   2.943
12181SOL    HW349044   6.296   4.163   2.934
12181SOL    MW449045   6.257   4.242   2.928
12182SOL     OW49046   6.012   4.668   2.829
12182SOL    HW249047   5.967   4.675   2.745
12182SOL    HW349048   5.992   4.751   2.873
12182SOL    MW449049   6.004   4.680   2.823
12183SOL     OW49050   5.709   5.514   2.704
12183SOL    HW249051   5.798   5.506   2.739
12183SOL    HW349052   5.673   5.426   2.709
12183SOL    MW449053   5.716   5.501   2.709
12184SOL     OW49054   6.974   4.906   2.073
12184SOL    HW249055   6.892   4.942   2.039
12184SOL    HW349056   7.042   4.949   2.022
12184SOL    MW449057   6.972   4.916   2.061
12185SOL     OW49058   5.973   5.041   2.739
12185SOL    HW249059   5.949   5.094   2.815
12185SOL    HW349060   6.029   5.099   2.687
12185SOL    MW449061   5.977   5.056   2.742
12186SOL     OW49062   6.535   4.685   2.549
12186SOL    HW249063   6.449   4.672   2.589
12186SOL    HW349064   6.588   4.612   2.581
12186SOL    MW449065   6.531   4.674   2.558
12187SOL     OW49066   5.943   5.337   3.334
12187SOL    HW249067   5.851   5.313   3.319
12187SOL    HW349068   5.987   5.254   3.351
12187SOL    MW449069   5.937   5.322   3.333
12188SOL     OW49070   6.526   5.047   2.266
12188SOL    HW249071   6.503   5.109   2.334
12188SOL    HW349072   6.483   4.965   2.292
12188SOL    MW449073   6.518   5.043   2.277
12189SOL     OW49074   7.399   4.048   2.722
12189SOL    HW249075   7.336   4.028   2.791
12189SOL    HW349076   7.389   3.977   2.659
12189SOL    MW449077   7.389   4.035   2.723
12190SOL     OW49078   6.023   4.020   2.234
12190SOL    HW249079   5.997   3.982   2.150
12190SOL    HW349080   5.960   4.090   2.250
12190SOL    MW449081   6.012   4.023   2.225
12191SOL     OW49082   5.858   4.981   2.271
12191SOL    HW249083   5.806   5.049   2.227
12191SOL    HW349084   5.855   4.907   2.211
12191SOL    MW449085   5.850   4.980   2.258
12192SOL     OW49086   6.520   5.444   2.049
12192SOL    HW249087   6.475   5.460   2.132
12192SOL    HW349088   6.451   5.409   1.991
12192SOL    MW449089   6.506   5.441   2.051
12193SOL     OW49090   7.455   4.217   2.024
12193SOL    HW249091   7.364   4.219   2.052
12193SOL    HW349092   7.500   4.279   2.082
12193SOL    MW449093   7.448   4.225   2.034
12194SOL     OW49094   7.200   4.820   2.374
12194SOL    HW249095   7.110   4.820   2.409
12194SOL    HW349096   7.193   4.866   2.291
12194SOL    MW449097   7.187   4.826   2.368
12195SOL     OW49098   7.000   4.455   3.446
12195SOL    HW249099   7.069   4.393   3.423
12195SOL    HW349100   6.925   4.429   3.393
12195SOL    MW449101   7.000   4.442   3.437
12196SOL     OW49102   5.741   5.335   2.998
12196SOL    HW249103   5.724   5.281   3.075
12196SOL    HW349104   5.729   5.425   3.028
12196SOL    MW449105   5.738   5.339   3.012
12197SOL     OW49106   6.736   4.842   3.438
12197SOL    HW249107   6.721   4.935   3.423
12197SOL    HW349108   6.831   4.832   3.438
12197SOL    MW449109   6.745   4.852   3.435
12198SOL     OW49110   6.532   4.266   3.639
12198SOL    HW249111   6.622   4.267   3.606
12198SOL    HW349112   6.491   4.191   3.597
12198SOL    MW449113   6.538   4.256   3.630
12199SOL     OW49114   7.107   4.798   2.766
12199SOL    HW249115   7.110   4.732   2.697
12199SOL    HW349116   7.192   4.841   2.762
12199SOL    MW449117   7.119   4.794   2.757
12200SOL     OW49118   6.727   4.401   2.335
12200SOL    HW249119   6.753   4.425   2.246
12200SOL    HW349120   6.709   4.308   2.331
12200SOL    MW449121   6.729   4.393   2.322
12201SOL     OW49122   7.392   5.021   2.186
12201SOL    HW249123   7.348   5.062   2.261
12201SOL    HW349124   7.449   5.089   2.151
12201SOL    MW449125   7.394   5.035   2.191
12202SOL     OW49126   6.312   4.070   3.589
12202SOL    HW249127   6.322   3.996   3.529
12202SOL    HW349128   6.348   4.039   3.672
12202SOL    MW449129   6.318   4.056   3.591
12203SOL     OW49130   6.048   5.437   2.504
12203SOL    HW249131   6.080   5.525   2.482
12203SOL    HW349132   6.001   5.409   2.426
12203SOL    MW449133   6.047   5.445   2.491
12204SOL     OW49134   7.432   3.799   2.553
12204SOL    HW249135   7.486   3.750   2.615
12204SOL    HW349136   7.375   3.733   2.514
12204SOL    MW449137   7.432   3.783   2.555
12205SOL     OW49138   5.764   5.497   2.081
12205SOL    HW249139   5.793   5.587   2.073
12205SOL    HW349140   5.714   5.480   2.002
12205SOL    MW449141   5.762   5.505   2.070
12206SOL     OW49142   6.551   3.752   2.966
12206SOL    HW249143   6.510   3.830   2.928
12206SOL    HW349144   6.645   3.770   2.961
12206SOL    MW449145   6.557   3.764   2.961
12207SOL     OW49146   7.168   5.305   2.052
12207SOL    HW249147   7.216   5.374   2.098
12207SOL    HW349148   7.089   5.349   2.021
12207SOL    MW449149   7.163   5.319   2.055
12208SOL     OW49150   6.566   4.430   1.996
12208SOL    HW249151   6.568   4.377   1.917
12208SOL    HW349152   6.654   4.467   2.002
12208SOL    MW449153   6.578   4.429   1.985
12209SOL     OW49154   7.180   4.356   2.332
12209SOL    HW249155   7.219   4.356   2.419
12209SOL    HW349156   7.121   4.432   2.332
12209SOL    MW449157   7.177   4.367   2.343
12210SOL     OW49158   6.577   3.860   3.221
12210SOL    HW249159   6.583   3.822   3.134
12210SOL    HW349160   6.566   3.954   3.206
12210SOL    MW449161   6.578   3.868   3.209
12211SOL     OW49162   6.666   4.349   3.055
12211SOL    HW249163   6.741   4.378   3.002
12211SOL    HW349164   6.598   4.414   3.039
12211SOL    MW449165   6.667   4.361   3.045
12212SOL     OW49166   7.216   4.317   3.332
12212SOL    HW249167   7.197   4.226   3.311
12212SOL    HW349168   7.194   4.366   3.253
12212SOL    MW449169   7.211   4.310   3.319
12213SOL     OW49170   7.358   5.411   3.236
12213SOL    HW249171   7.286   5.373   3.287
12213SOL    HW349172   7.375   5.496   3.277
12213SOL    MW449173   7.352   5.416   3.248
12214SOL     OW49174   6.663   4.055   3.438
12214SOL    HW249175   6.629   4.094   3.357
12214SOL    HW349176   6.641   3.963   3.431
12214SOL    MW449177   6.656   4.048   3.428
12215SOL     OW49178   7.072   4.869   3.514
12215SOL    HW249179   7.154   4.910   3.544
12215SOL    HW349180   7.035   4.831   3.594
12215SOL    MW449181   7.078   4.870   3.529
12216SOL     OW49182   7.367   4.242   2.498
12216SOL    HW249183   7.456   4.211   2.515
12216SOL    HW349184   7.310   4.182   2.546
12216SOL    MW449185   7.370   4.230   2.507
12217SOL     OW49186   5.793   3.956   2.527
12217SOL    HW249187   5.784   3.896   2.453
12217SOL    HW349188   5.726   3.927   2.590
12217SOL    MW449189   5.783   3.943   2.525
12218SOL     OW49190   6.736   5.049   2.088
12218SOL    HW249191   6.686   5.051   2.170
12218SOL    HW349192   6.670   5.067   2.020
12218SOL    MW449193   6.722   5.051   2.090
12219SOL     OW49194   5.740   4.129   2.890
12219SOL    HW249195   5.712   4.220   2.899
12219SOL    HW349196   5.677   4.090   2.829
12219SOL    MW449197   5.727   4.135   2.884
12220SOL     OW49198   6.199   5.467   2.196
12220SOL    HW249199   6.120   5.425   2.229
12220SOL    HW349200   6.265   5.450   2.263
12220SOL    MW449201   6.198   5.459   2.209
12221SOL     OW49202   7.327   4.987   3.593
12221SOL    HW249203   7.377   4.913   3.625
12221SOL    HW349204   7.273   5.014   3.668
12221SOL    MW449205   7.327   4.981   3.606
12222SOL     OW49206   6.335   4.882   1.903
12222SOL    HW249207   6.257   4.828   1.890
12222SOL    HW349208   6.306   4.955   1.956
12222SOL    MW449209   6.321   4.884   1.908
12223SOL     OW49210   7.461   4.622   3.095
12223SOL    HW249211   7.477   4.660   3.008
12223SOL    HW349212   7.495   4.688   3.156
12223SOL    MW449213   7.468   4.635   3.091
12224SOL     OW49214   7.253   5.331   2.764
12224SOL    HW249215   7.282   5.398   2.825
12224SOL    HW349216   7.234   5.255   2.819
12224SOL    MW449217   7.255   5.331   2.779
12225SOL     OW49218   6.916   5.398   1.971
12225SOL    HW249219   6.842   5.361   2.021
12225SOL    HW349220   6.924   5.488   2.004
12225SOL    MW449221   6.907   5.405   1.983
12226SOL     OW49222   5.724   4.404   3.060
12226SOL    HW249223   5.786   4.434   3.126
12226SOL    HW349224   5.658   4.473   3.054
12226SOL    MW449225   5.723   4.417   3.067
12227SOL     OW49226   7.140   5.072   1.913
12227SOL    HW249227   7.087   5.121   1.849
12227SOL    HW349228   7.171   5.138   1.974
12227SOL    MW449229   7.138   5.086   1.911
12228SOL     OW49230   6.365   3.961   1.968
12228SOL    HW249231   6.313   3.881   1.956
12228SOL    HW349232   6.452   3.938   1.936
12228SOL    MW449233   6.368   3.947   1.962
12229SOL     OW49234   5.819   5.513   3.512
12229SOL    HW249235   5.793   5.581   3.450
12229SOL    HW349236   5.867   5.450   3.460
12229SOL    MW449237   5.821   5.513   3.498
12230SOL     OW49238   5.871   4.832   3.019
12230SOL    HW249239   5.924   4.907   3.044
12230SOL    HW349240   5.790   4.870   2.985
12230SOL    MW449241   5.867   4.847   3.019
12231SOL     OW49242   6.411   4.736   3.007
12231SOL    HW249243   6.439   4.645   3.019
12231SOL    HW349244   6.340   4.730   2.943
12231SOL    MW449245   6.404   4.724   3.002
12232SOL     OW49246   5.726   4.601   2.425
12232SOL    HW249247   5.817   4.616   2.452
12232SOL    HW349248   5.729   4.522   2.371
12232SOL    MW449249   5.738   4.593   2.423
12233SOL     OW49250   5.962   4.309   3.679
12233SOL    HW249251   5.909   4.389   3.686
12233SOL    HW349252   6.032   4.321   3.744
12233SOL    MW449253   5.964   4.322   3.687
12234SOL     OW49254   6.348   3.859   3.386
12234SOL    HW249255   6.325   3.767   3.388
12234SOL    HW349256   6.434   3.861   3.343
12234SOL    MW449257   6.355   3.849   3.382
12235SOL     OW49258   6.032   4.383   3.425
12235SOL    HW249259   6.112   4.433   3.411
12235SOL    HW349260   6.023   4.377   3.520
12235SOL    MW449261   6.041   4.389   3.435
12236SOL     OW49262   6.353   5.533   2.799
12236SOL    HW249263   6.442   5.548   2.829
12236SOL    HW349264   6.348   5.580   2.715
12236SOL    MW449265   6.363   5.541   2.792
12237SOL     OW49266   7.009   3.908   3.696
12237SOL    HW249267   7.065   3.835   3.722
12237SOL    HW349268   6.979   3.946   3.778
12237SOL    MW449269   7.013   3.903   3.709
12238SOL     OW49270   5.734   5.213   2.464
12238SOL    HW249271   5.706   5.252   2.546
12238SOL    HW349272   5.754   5.122   2.486
12238SOL    MW449273   5.732   5.205   2.477
12239SOL     OW49274   6.567   5.256   2.499
12239SOL    HW249275   6.650   5.210   2.483
12239SOL    HW349276   6.557   5.255   2.595
12239SOL    MW449277   6.577   5.249   2.509
12240SOL     OW49278   7.399   4.401   2.813
12240SOL    HW249279   7.488   4.431   2.795
12240SOL    HW349280   7.379   4.341   2.742
12240SOL    MW449281   7.408   4.398   2.802
12241SOL     OW49282   7.250   4.580   3.693
12241SOL    HW249283   7.305   4.504   3.674
12241SOL    HW349284   7.252   4.588   3.788
12241SOL    MW449285   7.258   4.571   3.701
12242SOL     OW49286   6.300   5.313   1.904
12242SOL    HW249287   6.240   5.382   1.874
12242SOL    HW349288   6.245   5.255   1.957
12242SOL    MW449289   6.284   5.315   1.906
12243SOL     OW49290   6.738   3.958   2.127
12243SOL    HW249291   6.671   3.934   2.064
12243SOL    HW349292   6.803   4.007   2.076
12243SOL    MW449293   6.738   3.960   2.112
12244SOL     OW49294   6.545   4.142   3.212
12244SOL    HW249295   6.464   4.183   3.240
12244SOL    HW349296   6.592   4.210   3.164
12244SOL    MW449297   6.540   4.157   3.210
12245SOL     OW49298   6.805   4.480   2.835
12245SOL    HW249299   6.818   4.574   2.845
12245SOL    HW349300   6.766   4.470   2.749
12245SOL    MW449301   6.801   4.491   2.825
12246SOL     OW49302   6.257   4.675   2.639
12246SOL    HW249303   6.168   4.666   2.672
12246SOL    HW349304   6.261   4.765   2.607
12246SOL    MW449305   6.246   4.686   2.639
12247SOL     OW49306   7.056   4.258   2.634
12247SOL    HW249307   7.001   4.179   2.633
12247SOL    HW349308   7.038   4.299   2.718
12247SOL    MW449309   7.046   4.253   2.643
12248SOL     OW49310   6.027   3.945   3.451
12248SOL    HW249311   5.948   3.963   3.503
12248SOL    HW349312   6.022   4.007   3.378
12248SOL    MW449313   6.017   3.955   3.448
12249SOL     OW49314   6.675   4.462   2.591
12249SOL    HW249315   6.612   4.394   2.615
12249SOL    HW349316   6.695   4.443   2.499
12249SOL    MW449317   6.669   4.449   2.583
12250SOL     OW49318   5.931   5.357   2.293
12250SOL    HW249319   5.892   5.404   2.219
12250SOL    HW349320   5.865   5.292   2.318
12250SOL    MW449321   5.918   5.355   2.287
12251SOL     OW49322   6.423   4.766   2.317
12251SOL    HW249323   6.425   4.740   2.224
12251SOL    HW349324   6.481   4.703   2.360
12251SOL    MW449325   6.431   4.755   2.311
12252SOL     OW49326   6.976   5.326   3.089
12252SOL    HW249327   6.901   5.372   3.127
12252SOL    HW349328   6.958   5.233   3.106
12252SOL    MW449329   6.965   5.320   3.097
12253SOL     OW49330   6.980   5.534   2.519
12253SOL    HW249331   6.923   5.487   2.458
12253SOL    HW349332   7.066   5.495   2.506
12253SOL    MW449333   6.983   5.525   2.509
12254SOL     OW49334   6.933   4.010   2.650
12254SOL    HW249335   6.961   3.942   2.711
12254SOL    HW349336   6.847   3.981   2.620
12254SOL    MW449337   6.926   3.997   2.654
12255SOL     OW49338   5.738   4.944   2.584
12255SOL    HW249339   5.802   4.976   2.647
12255SOL    HW349340   5.787   4.880   2.532
12255SOL    MW449341   5.753   4.940   2.585
12256SOL     OW49342   6.238   5.020   3.566
12256SOL    HW249343   6.286   5.103   3.553
12256SOL    HW349344   6.295   4.968   3.622
12256SOL    MW449345   6.252   5.024   3.572
12257SOL     OW49346   5.814   5.262   3.706
12257SOL    HW249347   5.870   5.186   3.721
12257SOL    HW349348   5.763   5.240   3.628
12257SOL    MW449349   5.814   5.249   3.697
12258SOL     OW49350   6.913   4.114   1.985
12258SOL    HW249351   6.886   4.180   1.921
12258SOL    HW349352   6.983   4.157   2.035
12258SOL    MW449353   6.918   4.127   1.982
12259SOL     OW49354   6.581   3.819   1.922
12259SOL    HW249355   6.637   3.811   1.844
12259SOL    HW349356   6.558   3.729   1.944
12259SOL    MW449357   6.586   3.806   1.915
12260SOL     OW49358   7.086   4.670   2.127
12260SOL    HW249359   7.053   4.759   2.117
12260SOL    HW349360   7.051   4.641   2.212
12260SOL    MW449361   7.076   4.679   2.138
12261SOL     OW49362   6.699   5.099   3.315
12261SOL    HW249363   6.610   5.105   3.283
12261SOL    HW349364   6.743   5.178   3.283
12261SOL    MW449365   6.694   5.109   3.307
12262SOL     OW49366   5.992   3.767   3.657
12262SOL    HW249367   5.920   3.732   3.605
12262SOL    HW349368   6.050   3.808   3.592
12262SOL    MW449369   5.990   3.768   3.642
12263SOL     OW49370   6.016   5.257   2.956
12263SOL    HW249371   6.061   5.319   3.013
12263SOL    HW349372   5.923   5.276   2.969
12263SOL    MW449373   6.009   5.267   2.963
12264SOL     OW49374   7.456   4.786   3.310
12264SOL    HW249375   7.371   4.799   3.269
12264SOL    HW349376   7.436   4.750   3.397
12264SOL    MW449377   7.443   4.782   3.315
12265SOL     OW49378   6.438   5.325   3.064
12265SOL    HW249379   6.462   5.314   2.973
12265SOL    HW349380   6.361   5.382   3.062
12265SOL    MW449381   6.430   5.330   3.053
12266SOL     OW49382   6.080   4.708   1.919
12266SOL    HW249383   6.003   4.721   1.975
12266SOL    HW349384   6.044   4.672   1.838
12266SOL    MW449385   6.066   4.704   1.916
12267SOL     OW49386   6.733   4.681   2.162
12267SOL    HW249387   6.643   4.702   2.137
12267SOL    HW349388   6.760   4.754   2.218
12267SOL    MW449389   6.725   4.693   2.165
12268SOL     OW49390   6.233   5.030   2.854
12268SOL    HW249391   6.226   5.009   2.948
12268SOL    HW349392   6.151   4.998   2.817
12268SOL    MW449393   6.221   5.024   2.861
12269SOL     OW49394   7.097   4.040   3.256
12269SOL    HW249395   7.044   4.042   3.336
12269SOL    HW349396   7.082   3.953   3.219
12269SOL    MW449397   7.089   4.030   3.261
12270SOL     OW49398   7.433   3.964   3.129
12270SOL    HW249399   7.414   4.031   3.064
12270SOL    HW349400   7.490   3.902   3.084
12270SOL    MW449401   7.437   3.965   3.115
12271SOL     OW49402   5.679   5.122   3.517
12271SOL    HW249403   5.723   5.055   3.463
12271SOL    HW349404   5.594   5.084   3.537
12271SOL    MW449405   5.674   5.108   3.513
12272SOL     OW49406   6.362   3.797   2.569
12272SOL    HW249407   6.291   3.858   2.551
12272SOL    HW349408   6.413   3.794   2.488
12272SOL    MW449409   6.358   3.803   2.556
12273SOL     OW49410   6.120   5.037   2.318
12273SOL    HW249411   6.113   5.069   2.408
12273SOL    HW349412   6.030   5.021   2.290
12273SOL    MW449413   6.108   5.039   2.325
12274SOL     OW49414   6.715   5.430   3.227
12274SOL    HW249415   6.635   5.415   3.177
12274SOL    HW349416   6.722   5.525   3.234
12274SOL    MW449417   6.706   5.441   3.221
12275SOL     OW49418   6.829   5.395   2.717
12275SOL    HW249419   6.876   5.468   2.676
12275SOL    HW349420   6.750   5.434   2.753
12275SOL    MW449421   6.824   5.410   2.716
12276SOL     OW49422   7.237   5.490   2.992
12276SOL    HW249423   7.280   5.460   3.072
12276SOL    HW349424   7.156   5.438   2.989
12276SOL    MW449425   7.232   5.479   3.002
12277SOL     OW49426   6.322   4.454   3.699
12277SOL    HW249427   6.392   4.396   3.671
12277SOL    HW349428   6.265   4.399   3.754
12277SOL    MW449429   6.324   4.441   3.703
12278SOL     OW49430   7.109   4.666   3.332
12278SOL    HW249431   7.114   4.719   3.412
12278SOL    HW349432   7.071   4.583   3.360
12278SOL    MW449433   7.105   4.661   3.347
12279SOL     OW49434   6.749   3.801   3.578
12279SOL    HW249435   6.744   3.708   3.559
12279SOL    HW349436   6.832   3.812   3.624
12279SOL    MW449437   6.757   3.790   3.582
12280SOL     OW49438   6.123   4.321   2.032
12280SOL    HW249439   6.089   4.377   2.102
12280SOL    HW349440   6.194   4.271   2.072
12280SOL    MW449441   6.129   4.322   2.046
12281SOL     OW49442   7.219   5.072   2.854
12281SOL    HW249443   7.254   5.054   2.767
12281SOL    HW349444   7.124   5.073   2.841
12281SOL    MW449445   7.211   5.069   2.841
12282SOL     OW49446   6.648   4.720   3.223
12282SOL    HW249447   6.691   4.755   3.301
12282SOL    HW349448   6.631   4.797   3.169
12282SOL    MW449449   6.651   4.735   3.226
12283SOL     OW49450   7.179   4.207   2.096
12283SOL    HW249451   7.171   4.278   2.033
12283SOL    HW349452   7.197   4.251   2.179
12283SOL    MW449453   7.180   4.221   2.098
12284SOL     OW49454   6.039   3.862   2.525
12284SOL    HW249455   6.089   3.905   2.456
12284SOL    HW349456   5.954   3.906   2.525
12284SOL    MW449457   6.036   3.875   2.516
12285SOL     OW49458   5.798   4.924   3.385
12285SOL    HW249459   5.826   4.877   3.463
12285SOL    HW349460   5.719   4.879   3.356
12285SOL    MW449461   5.791   4.913   3.391
12286SOL     OW49462   6.306   4.251   3.352
12286SOL    HW249463   6.278   4.339   3.376
12286SOL    HW349464   6.275   4.195   3.423
12286SOL    MW449465   6.298   4.254   3.364
12287SOL     OW49466   6.848   4.469   2.071
12287SOL    HW249467   6.895   4.487   1.990
12287SOL    HW349468   6.814   4.553   2.099
12287SOL    MW449469   6.850   4.483   2.064
12288SOL     OW49470   5.961   4.647   2.565
12288SOL    HW249471   6.019   4.703   2.513
12288SOL    HW349472   6.005   4.562   2.567
12288SOL    MW449473   5.974   4.644   2.558
12289SOL     OW49474   7.101   3.999   2.402
12289SOL    HW249475   7.023   3.949   2.427
12289SOL    HW349476   7.072   4.090   2.402
12289SOL    MW449477   7.087   4.003   2.405
12290SOL     OW49478   6.687   3.961   2.561
12290SOL    HW249479   6.707   4.036   2.505
12290SOL    HW349480   6.667   4.000   2.646
12290SOL    MW449481   6.688   3.977   2.565
12291SOL     OW49482   6.583   5.211   1.893
12291SOL    HW249483   6.610   5.289   1.845
12291SOL    HW349484   6.490   5.226   1.912
12291SOL    MW449485   6.574   5.224   1.889
12292SOL     OW49486   7.447   4.734   3.580
12292SOL    HW249487   7.360   4.714   3.616
12292SOL    HW349488   7.501   4.660   3.605
12292SOL    MW449489   7.442   4.723   3.588
12293SOL     OW49490   5.668   5.247   2.737
12293SOL    HW249491   5.700   5.251   2.828
12293SOL    HW349492   5.573   5.255   2.745
12293SOL    MW449493   5.660   5.250   2.750
12294SOL     OW49494   5.623   4.373   2.284
12294SOL    HW249495   5.563   4.345   2.354
12294SOL    HW349496   5.697   4.313   2.290
12294SOL    MW449497   5.625   4.362   2.293
12295SOL     OW49498   7.191   5.585   3.718
12295SOL    HW249499   7.236   5.509   3.683
12295SOL    HW349500   7.229   5.598   3.805
12295SOL    MW449501   7.201   5.578   3.724
12296SOL     OW49502   6.791   5.104   2.444
12296SOL    HW249503   6.814   5.055   2.522
12296SOL    HW349504   6.872   5.146   2.416
12296SOL    MW449505   6.804   5.104   2.451
12297SOL     OW49506   6.049   4.112   3.173
12297SOL    HW249507   6.082   4.193   3.213
12297SOL    HW349508   6.022   4.138   3.085
12297SOL    MW449509   6.048   4.126   3.167
12298SOL     OW49510   6.003   4.079   2.909
12298SOL    HW249511   6.033   3.993   2.880
12298SOL    HW349512   5.908   4.072   2.912
12298SOL    MW449513   5.995   4.068   2.907
12299SOL     OW49514   6.832   4.288   3.600
12299SOL    HW249515   6.884   4.223   3.553
12299SOL    HW349516   6.790   4.339   3.530
12299SOL    MW449517   6.833   4.285   3.583
12300SOL     OW49518   6.931   4.083   3.461
12300SOL    HW249519   6.838   4.067   3.448
12300SOL    HW349520   6.957   4.021   3.529
12300SOL    MW449521   6.921   4.073   3.468
12301SOL     OW49522   6.146   3.857   2.800
12301SOL    HW249523   6.156   3.766   2.826
12301SOL    HW349524   6.102   3.853   2.715
12301SOL    MW449525   6.142   3.845   2.792
12302SOL     OW49526   6.240   5.472   3.346
12302SOL    HW249527   6.157   5.457   3.391
12302SOL    HW349528   6.299   5.405   3.381
12302SOL    MW449529   6.238   5.462   3.356
12303SOL     OW49530   7.297   4.179   2.971
12303SOL    HW249531   7.230   4.212   3.031
12303SOL    HW349532   7.340   4.257   2.937
12303SOL    MW449533   7.295   4.194   2.975
12304SOL     OW49534   7.475   4.899   2.941
12304SOL    HW249535   7.468   4.839   2.866
12304SOL    HW349536   7.401   4.959   2.930
12304SOL    MW449537   7.465   4.899   2.930
12305SOL     OW49538   6.857   4.761   2.859
12305SOL    HW249539   6.871   4.733   2.950
12305SOL    HW349540   6.943   4.792   2.831
12305SOL    MW449541   6.870   4.762   2.868
12306SOL     OW49542   6.940   4.256   3.138
12306SOL    HW249543   6.961   4.257   3.045
12306SOL    HW349544   6.985   4.178   3.171
12306SOL    MW449545   6.947   4.246   3.130
12307SOL     OW49546   7.433   4.387   3.680
12307SOL    HW249547   7.470   4.332   3.749
12307SOL    HW349548   7.458   4.344   3.598
12307SOL    MW449549   7.440   4.375   3.679
12308SOL     OW49550   6.980   4.685   3.731
12308SOL    HW249551   7.046   4.633   3.685
12308SOL    HW349552   7.000   4.672   3.824
12308SOL    MW449553   6.991   4.676   3.738
12309SOL     OW49554   6.931   3.771   2.080
12309SOL    HW249555   7.005   3.815   2.123
12309SOL    HW349556   6.855   3.825   2.102
12309SOL    MW449557   6.931   3.783   2.088
12310SOL     OW49558   6.991   4.546   2.358
12310SOL    HW249559   6.906   4.516   2.328
12310SOL    HW349560   6.983   4.553   2.453
12310SOL    MW449561   6.979   4.544   2.367
12311SOL     OW49562   6.067   5.009   3.089
12311SOL    HW249563   6.079   5.036   3.180
12311SOL    HW349564   6.048   5.090   3.042
12311SOL    MW449565   6.066   5.024   3.094
12312SOL     OW49566   6.351   3.989   2.912
12312SOL    HW249567   6.324   3.991   3.003
12312SOL    HW349568   6.281   3.941   2.867
12312SOL    MW449569   6.339   3.985   2.919
12313SOL     OW49570   6.205   5.481   3.074
12313SOL    HW249571   6.257   5.558   3.051
12313SOL    HW349572   6.214   5.473   3.169
12313SOL    MW449573   6.214   5.488   3.085
12314SOL     OW49574   7.107   5.066   3.306
12314SOL    HW249575   7.092   4.995   3.369
12314SOL    HW349576   7.153   5.024   3.234
12314SOL    MW449577   7.113   5.050   3.306
12315SOL     OW49578   6.181   4.797   3.423
12315SOL    HW249579   6.218   4.802   3.335
12315SOL    HW349580   6.220   4.870   3.470
12315SOL    MW449581   6.191   4.807   3.418
12316SOL     OW49582   6.361   4.840   3.235
12316SOL    HW249583   6.420   4.786   3.288
12316SOL    HW349584   6.376   4.812   3.145
12316SOL    MW449585   6.371   4.829   3.231
12317SOL     OW49586   6.364   4.212   2.084
12317SOL    HW249587   6.437   4.261   2.047
12317SOL    HW349588   6.380   4.121   2.058
12317SOL    MW449589   6.376   4.207   2.077
12318SOL     OW49590   7.172   5.329   3.407
12318SOL    HW249591   7.214   5.314   3.492
12318SOL    HW349592   7.163   5.242   3.369
12318SOL    MW449593   7.176   5.317   3.414
12319SOL     OW49594   6.832   3.808   2.998
12319SOL    HW249595   6.887   3.817   2.920
12319SOL    HW349596   6.887   3.842   3.069
12319SOL    MW449597   6.846   3.813   2.997
12320SOL     OW49598   5.839   4.721   2.182
12320SOL    HW249599   5.776   4.737   2.111
12320SOL    HW349600   5.786   4.684   2.253
12320SOL    MW449601   5.824   4.718   2.182
12321SOL     OW49602   6.195   5.075   2.041
12321SOL    HW249603   6.210   5.051   2.133
12321SOL    HW349604   6.103   5.053   2.025
12321SOL    MW449605   6.185   5.068   2.051
12322SOL     OW49606   6.734   5.306   2.193
12322SOL    HW249607   6.742   5.224   2.144
12322SOL    HW349608   6.653   5.345   2.160
12322SOL    MW449609   6.724   5.301   2.183
12323SOL     OW49610   5.993   5.464   2.762
12323SOL    HW249611   5.997   5.375   2.797
12323SOL    HW349612   6.019   5.455   2.671
12323SOL    MW449613   5.996   5.452   2.754
12324SOL     OW49614   6.610   4.942   3.005
12324SOL    HW249615   6.542   4.876   3.021
12324SOL    HW349616   6.628   4.936   2.912
12324SOL    MW449617   6.603   4.933   2.996
12325SOL     OW49618   5.699   5.217   3.256
12325SOL    HW249619   5.689   5.175   3.342
12325SOL    HW349620   5.620   5.270   3.246
12325SOL    MW449621   5.688   5.218   3.267
12326SOL     OW49622   6.603   4.081   2.826
12326SOL    HW249623   6.533   4.033   2.871
12326SOL    HW349624   6.635   4.144   2.890
12326SOL    MW449625   6.598   4.083   2.840
12327SOL     OW49626   6.254   4.517   3.446
12327SOL    HW249627   6.247   4.612   3.434
12327SOL    HW349628   6.263   4.506   3.541
12327SOL    MW449629   6.255   4.529   3.456
12328SOL     OW49630   5.975   5.032   3.704
12328SOL    HW249631   6.047   5.034   3.641
12328SOL    HW349632   5.945   4.941   3.703
12328SOL    MW449633   5.980   5.021   3.696
12329SOL     OW49634   7.059   3.795   3.171
12329SOL    HW249635   7.130   3.741   3.135
12329SOL    HW349636   7.058   3.774   3.264
12329SOL    MW449637   7.068   3.786   3.179
12330SOL     OW49638   7.259   5.325   3.655
12330SOL    HW249639   7.232   5.322   3.746
12330SOL    HW349640   7.355   5.329   3.658
12330SOL    MW449641   7.269   5.325   3.667
12331SOL     OW49642   6.070   4.187   2.639
12331SOL    HW249643   6.141   4.135   2.602
12331SOL    HW349644   6.056   4.152   2.726
12331SOL    MW449645   6.078   4.176   2.646
12332SOL     OW49646   5.625   5.522   3.711
12332SOL    HW249647   5.675   5.500   3.633
12332SOL    HW349648   5.633   5.617   3.719
12332SOL    MW449649   5.633   5.531   3.702
12333SOL     OW49650   6.386   5.280   2.715
12333SOL    HW249651   6.314   5.217   2.728
12333SOL    HW349652   6.347   5.365   2.733
12333SOL    MW449653   6.370   5.283   2.718
12334SOL     OW49654   6.706   4.128   2.363
12334SOL    HW249655   6.728   4.065   2.295
12334SOL    HW349656   6.611   4.120   2.374
12334SOL    MW449657   6.696   4.119   2.355
12335SOL     OW49658   5.791   3.818   2.295
12335SOL    HW249659   5.862   3.839   2.234
12335SOL    HW349660   5.745   3.746   2.253
12335SOL    MW449661   5.795   3.812   2.281
12336SOL     OW49662   5.622   4.285   3.438
12336SOL    HW249663   5.686   4.351   3.413
12336SOL    HW349664   5.541   4.312   3.395
12336SOL    MW449665   5.620   4.297   3.430
12337SOL     OW49666   7.360   5.192   2.395
12337SOL    HW249667   7.330   5.125   2.456
12337SOL    HW349668   7.454   5.198   2.409
12337SOL    MW449669   7.368   5.184   2.405
12338SOL     OW49670   6.916   4.869   2.325
12338SOL    HW249671   6.888   4.955   2.358
12338SOL    HW349672   6.944   4.885   2.235
12338SOL    MW449673   6.916   4.883   2.317
12339SOL     OW49674   6.578   3.789   2.378
12339SOL    HW249675   6.615   3.848   2.443
12339SOL    HW349676   6.555   3.845   2.304
12339SOL    MW449677   6.579   3.804   2.377
12340SOL     OW49678   7.431   4.671   2.800
12340SOL    HW249679   7.422   4.703   2.711
12340SOL    HW349680   7.384   4.587   2.800
12340SOL    MW449681   7.424   4.664   2.790
12341SOL     OW49682   5.807   4.511   3.379
12341SOL    HW249683   5.828   4.580   3.317
12341SOL    HW349684   5.887   4.458   3.384
12341SOL    MW449685   5.820   4.512   3.373
12342SOL     OW49686   7.343   4.602   2.501
12342SOL    HW249687   7.437   4.591   2.489
12342SOL    HW349688   7.319   4.674   2.442
12342SOL    MW449689   7.353   4.610   2.492
12343SOL     OW49690   5.792   4.526   3.646
12343SOL    HW249691   5.718   4.470   3.672
12343SOL    HW349692   5.787   4.529   3.551
12343SOL    MW449693   5.781   4.519   3.636
12344SOL     OW49694   5.958   3.813   3.096
12344SOL    HW249695   6.001   3.897   3.116
12344SOL    HW349696   6.031   3.751   3.089
12344SOL    MW449697   5.973   3.816   3.097
12345SOL     OW49698   5.999   4.480   2.274
12345SOL    HW249699   5.999   4.575   2.259
12345SOL    HW349700   6.076   4.464   2.328
12345SOL    MW449701   6.009   4.491   2.279
12346SOL     OW49702   6.775   4.339   3.338
12346SOL    HW249703   6.811   4.312   3.254
12346SOL    HW349704   6.688   4.373   3.317
12346SOL    MW449705   6.769   4.340   3.325
12347SOL     OW49706   5.758   4.211   2.563
12347SOL    HW249707   5.820   4.218   2.636
12347SOL    HW349708   5.758   4.118   2.540
12347SOL    MW449709   5.766   4.200   2.570
12348SOL     OW49710   7.305   5.551   2.095
12348SOL    HW249711   7.372   5.584   2.035
12348SOL    HW349712   7.262   5.630   2.129
12348SOL    MW449713   7.307   5.566   2.091
12349SOL     OW49714   6.440   4.472   3.047
12349SOL    HW249715   6.398   4.390   3.023
12349SOL    HW349716   6.441   4.471   3.143
12349SOL    MW449717   6.433   4.461   3.056
12350SOL     OW49718   7.111   5.605   3.446
12350SOL    HW249719   7.114   5.511   3.429
12350SOL    HW349720   7.134   5.613   3.538
12350SOL    MW449721   7.114   5.593   3.456
12351SOL     OW49722   6.244   3.942   3.152
12351SOL    HW249723   6.175   4.005   3.173
12351SOL    HW349724   6.271   3.906   3.237
12351SOL    MW449725   6.238   3.945   3.165
12352SOL     OW49726   5.627   4.783   2.021
12352SOL    HW249727   5.596   4.848   2.084
12352SOL    HW349728   5.576   4.705   2.040
12352SOL    MW449729   5.617   4.780   2.031
12353SOL     OW49730   7.039   3.795   2.769
12353SOL    HW249731   7.127   3.804   2.806
12353SOL    HW349732   7.049   3.736   2.695
12353SOL    MW449733   7.053   3.789   2.763
12354SOL     OW49734   7.071   4.534   2.613
12354SOL    HW249735   7.151   4.549   2.562
12354SOL    HW349736   7.064   4.439   2.619
12354SOL    MW449737   7.080   4.523   2.608
12355SOL     OW49738   6.211   5.583   1.963
12355SOL    HW249739   6.116   5.583   1.955
12355SOL    HW349740   6.227   5.529   2.041
12355SOL    MW449741   6.201   5.577   1.972
12356SOL     OW49742   6.521   4.460   3.310
12356SOL    HW249743   6.590   4.527   3.307
12356SOL    HW349744   6.454   4.498   3.366
12356SOL    MW449745   6.522   4.473   3.317
12357SOL     OW49746   5.939   4.760   3.558
12357SOL    HW249747   5.893   4.676   3.560
12357SOL    HW349748   5.996   4.754   3.482
12357SOL    MW449749   5.941   4.748   3.550
12358SOL     OW49750   7.056   4.403   1.879
12358SOL    HW249751   6.984   4.379   1.821
12358SOL    HW349752   7.122   4.440   1.821
12358SOL    MW449753   7.055   4.405   1.864
12359SOL     OW49754   6.190   5.135   2.559
12359SOL    HW249755   6.255   5.068   2.580
12359SOL    HW349756   6.242   5.212   2.536
12359SOL    MW449757   6.205   5.137   2.558
12360SOL     OW49758   6.451   4.300   2.689
12360SOL    HW249759   6.391   4.318   2.761
12360SOL    HW349760   6.485   4.212   2.708
12360SOL    MW449761   6.447   4.290   2.702
12361SOL     OW49762   7.392   3.799   3.358
12361SOL    HW249763   7.313   3.845   3.386
12361SOL    HW349764   7.427   3.853   3.287
12361SOL    MW449765   7.386   3.812   3.352
12362SOL     OW49766   6.676   4.883   2.708
12362SOL    HW249767   6.768   4.864   2.726
12362SOL    HW349768   6.649   4.813   2.648
12362SOL    MW449769   6.684   4.871   2.702
12363SOL     OW49770   6.469   4.703   2.063
12363SOL    HW249771   6.455   4.615   2.028
12363SOL    HW349772   6.420   4.760   2.004
12363SOL    MW449773   6.461   4.698   2.051
12364SOL     OW49774   6.950   5.121   2.804
12364SOL    HW249775   6.923   5.205   2.769
12364SOL    HW349776   6.910   5.116   2.891
12364SOL    MW449777   6.943   5.130   2.810
12365SOL     OW49778   6.869   5.069   3.072
12365SOL    HW249779   6.880   5.036   3.161
12365SOL    HW349780   6.788   5.028   3.041
12365SOL    MW449781   6.859   5.061   3.078
12366SOL     OW49782   5.882   4.427   2.842
12366SOL    HW249783   5.832   4.426   2.923
12366SOL    HW349784   5.902   4.519   2.826
12366SOL    MW449785   5.878   4.439   2.850
12367SOL     OW49786   6.949   5.191   3.604
12367SOL    HW249787   6.949   5.285   3.620
12367SOL    HW349788   6.994   5.181   3.520
12367SOL    MW449789   6.955   5.201   3.595
12368SOL     OW49790   7.188   3.909   2.165
12368SOL    HW249791   7.181   3.913   2.260
12368SOL    HW349792   7.200   4.000   2.138
12368SOL    MW449793   7.189   3.922   2.173
12369SOL     OW49794   6.477   4.472   2.279
12369SOL    HW249795   6.457   4.458   2.186
12369SOL    HW349796   6.570   4.451   2.286
12369SOL    MW449797   6.487   4.467   2.268
12370SOL     OW49798   5.804   4.095   3.583
12370SOL    HW249799   5.761   4.154   3.520
12370SOL    HW349800   5.872   4.150   3.623
12370SOL    MW449801   5.808   4.110   3.580
12371SOL     OW49802   6.916   4.715   3.128
12371SOL    HW249803   6.979   4.712   3.201
12371SOL    HW349804   6.832   4.733   3.170
12371SOL    MW449805   6.912   4.717   3.143
12372SOL     OW49806   6.460   5.430   2.317
12372SOL    HW249807   6.518   5.501   2.344
12372SOL    HW349808   6.483   5.358   2.375
12372SOL    MW449809   6.471   5.430   2.328
12373SOL     OW49810   7.255   3.892   2.907
12373SOL    HW249811   7.300   3.810   2.926
12373SOL    HW349812   7.275   3.948   2.983
12373SOL    MW449813   7.265   3.888   2.919
12374SOL     OW49814   5.703   3.735   3.006
12374SOL    HW249815   5.694   3.736   2.911
12374SOL    HW349816   5.797   3.747   3.021
12374SOL    MW449817   5.715   3.738   2.997
12375SOL     OW49818   7.340   4.928   2.626
12375SOL    HW249819   7.319   4.874   2.549
12375SOL    HW349820   7.436   4.926   2.630
12375SOL    MW449821   7.349   4.921   2.615
12376SOL     OW49822   6.032   5.073   3.369
12376SOL    HW249823   5.953   5.023   3.392
12376SOL    HW349824   6.102   5.032   3.419
12376SOL    MW449825   6.030   5.061   3.379
12377SOL     OW49826   5.916   3.862   2.052
12377SOL    HW249827   5.845   3.917   2.020
12377SOL    HW349828   5.958   3.828   1.973
12377SOL    MW449829   5.912   3.864   2.038
12378SOL     OW49830   7.040   4.359   2.888
12378SOL    HW249831   6.963   4.405   2.854
12378SOL    HW349832   7.097   4.428   2.922
12378SOL    MW449833   7.037   4.374   2.888
12379SOL     OW49834   5.672   3.961   1.901
12379SOL    HW249835   5.639   4.040   1.945
12379SOL    HW349836   5.727   3.994   1.830
12379SOL    MW449837   5.675   3.975   1.898
12380SOL     OW49838   5.706   5.218   2.090
12380SOL    HW249839   5.723   5.302   2.132
12380SOL    HW349840   5.741   5.227   2.002
12380SOL    MW449841   5.711   5.231   2.084
12381SOL     OW49842   6.978   5.307   2.307
12381SOL    HW249843   7.041   5.297   2.236
12381SOL    HW349844   6.895   5.327   2.262
12381SOL    MW449845   6.975   5.308   2.292
12382SOL     OW49846   7.341   4.575   3.993
12382SOL    HW249847   7.382   4.517   4.058
12382SOL    HW349848   7.248   4.567   4.010
12382SOL    MW449849   7.335   4.567   4.003
12383SOL     OW49850   7.207   4.507   4.988
12383SOL    HW249851   7.162   4.574   5.039
12383SOL    HW349852   7.295   4.543   4.974
12383SOL    MW449853   7.213   4.520   4.992
12384SOL     OW49854   6.135   4.758   4.222
12384SOL    HW249855   6.225   4.733   4.206
12384SOL    HW349856   6.131   4.851   4.199
12384SOL    MW449857   6.147   4.767   4.217
12385SOL     OW49858   7.251   5.461   4.364
12385SOL    HW249859   7.263   5.407   4.442
12385SOL    HW349860   7.288   5.409   4.293
12385SOL    MW449861   7.257   5.446   4.365
12386SOL     OW49862   6.630   5.346   5.365
12386SOL    HW249863   6.671   5.382   5.286
12386SOL    HW349864   6.665   5.257   5.372
12386SOL    MW449865   6.641   5.339   5.356
12387SOL     OW49866   7.187   4.901   4.969
12387SOL    HW249867   7.108   4.866   4.927
12387SOL    HW349868   7.214   4.973   4.913
12387SOL    MW449869   7.180   4.906   4.956
12388SOL     OW49870   6.419   4.214   4.235
12388SOL    HW249871   6.394   4.302   4.263
12388SOL    HW349872   6.416   4.217   4.139
12388SOL    MW449873   6.415   4.226   4.227
12389SOL     OW49874   5.861   4.242   4.163
12389SOL    HW249875   5.893   4.330   4.145
12389SOL    HW349876   5.849   4.240   4.258
12389SOL    MW449877   5.864   4.254   4.175
12390SOL     OW49878   5.939   4.655   5.064
12390SOL    HW249879   6.002   4.602   5.015
12390SOL    HW349880   5.920   4.729   5.007
12390SOL    MW449881   5.945   4.657   5.051
12391SOL     OW49882   6.260   3.997   4.250
12391SOL    HW249883   6.318   4.073   4.252
12391SOL    HW349884   6.195   4.018   4.183
12391SOL    MW449885   6.259   4.009   4.241
12392SOL     OW49886   6.347   4.924   4.425
12392SOL    HW249887   6.427   4.927   4.477
12392SOL    HW349888   6.375   4.891   4.339
12392SOL    MW449889   6.361   4.920   4.420
12393SOL     OW49890   6.372   5.265   5.328
12393SOL    HW249891   6.456   5.291   5.367
12393SOL    HW349892   6.396   5.209   5.254
12393SOL    MW449893   6.386   5.261   5.323
12394SOL     OW49894   6.124   4.428   4.416
12394SOL    HW249895   6.109   4.348   4.467
12394SOL    HW349896   6.206   4.463   4.450
12394SOL    MW449897   6.132   4.420   4.428
12395SOL     OW49898   6.461   5.114   5.101
12395SOL    HW249899   6.425   5.180   5.041
12395SOL    HW349900   6.389   5.052   5.114
12395SOL    MW449901   6.447   5.114   5.095
12396SOL     OW49902   6.266   4.254   4.793
12396SOL    HW249903   6.172   4.250   4.811
12396SOL    HW349904   6.296   4.163   4.802
12396SOL    MW449905   6.257   4.242   4.796
12397SOL     OW49906   6.012   4.668   4.697
12397SOL    HW249907   5.967   4.675   4.613
12397SOL    HW349908   5.992   4.751   4.741
12397SOL    MW449909   6.004   4.680   4.691
12398SOL     OW49910   5.709   5.514   4.572
12398SOL    HW249911   5.798   5.506   4.607
12398SOL    HW349912   5.673   5.426   4.577
12398SOL    MW449913   5.716   5.501   4.577
12399SOL     OW49914   6.974   4.906   3.941
12399SOL    HW249915   6.892   4.942   3.907
12399SOL    HW349916   7.042   4.949   3.890
12399SOL    MW449917   6.972   4.916   3.929
12400SOL     OW49918   5.973   5.041   4.607
12400SOL    HW249919   5.949   5.094   4.683
12400SOL    HW349920   6.029   5.099   4.555
12400SOL    MW449921   5.977   5.056   4.610
12401SOL     OW49922   6.535   4.685   4.417
12401SOL    HW249923   6.449   4.672   4.457
12401SOL    HW349924   6.588   4.612   4.449
12401SOL    MW449925   6.531   4.674   4.426
12402SOL     OW49926   5.943   5.337   5.202
12402SOL    HW249927   5.851   5.313   5.187
12402SOL    HW349928   5.987   5.254   5.219
12402SOL    MW449929   5.937   5.322   5.201
12403SOL     OW49930   6.526   5.047   4.134
12403SOL    HW249931   6.503   5.109   4.202
12403SOL    HW349932   6.483   4.965   4.160
12403SOL    MW449933   6.518   5.043   4.145
12404SOL     OW49934   7.399   4.048   4.590
12404SOL    HW249935   7.336   4.028   4.659
12404SOL    HW349936   7.389   3.977   4.527
12404SOL    MW449937   7.389   4.035   4.591
12405SOL     OW49938   6.023   4.020   4.102
12405SOL    HW249939   5.997   3.982   4.018
12405SOL    HW349940   5.960   4.090   4.118
12405SOL    MW449941   6.012   4.023   4.093
12406SOL     OW49942   5.858   4.981   4.139
12406SOL    HW249943   5.806   5.049   4.095
12406SOL    HW349944   5.855   4.907   4.079
12406SOL    MW449945   5.850   4.980   4.126
12407SOL     OW49946   6.520   5.444   3.917
12407SOL    HW249947   6.475   5.460   4.000
12407SOL    HW349948   6.451   5.409   3.859
12407SOL    MW449949   6.506   5.441   3.919
12408SOL     OW49950   7.455   4.217   3.892
12408SOL    HW249951   7.364   4.219   3.920
12408SOL    HW349952   7.500   4.279   3.950
12408SOL    MW449953   7.448   4.225   3.902
12409SOL     OW49954   7.200   4.820   4.242
12409SOL    HW249955   7.110   4.820   4.277
12409SOL    HW349956   7.193   4.866   4.159
12409SOL    MW449957   7.187   4.826   4.236
12410SOL     OW49958   7.000   4.455   5.314
12410SOL    HW249959   7.069   4.393   5.291
12410SOL    HW349960   6.925   4.429   5.261
12410SOL    MW449961   7.000   4.442   5.305
12411SOL     OW49962   5.741   5.335   4.866
12411SOL    HW249963   5.724   5.281   4.943
12411SOL    HW349964   5.729   5.425   4.896
12411SOL    MW449965   5.738   5.339   4.880
12412SOL     OW49966   6.736   4.842   5.306
12412SOL    HW249967   6.721   4.935   5.291
12412SOL    HW349968   6.831   4.832   5.306
12412SOL    MW449969   6.745   4.852   5.303
12413SOL     OW49970   6.532   4.266   5.507
12413SOL    HW249971   6.622   4.267   5.474
12413SOL    HW349972   6.491   4.191   5.465
12413SOL    MW449973   6.538   4.256   5.498
12414SOL     OW49974   7.107   4.798   4.634
12414SOL    HW249975   7.110   4.732   4.565
12414SOL    HW349976   7.192   4.841   4.630
12414SOL    MW449977   7.119   4.794   4.625
12415SOL     OW49978   6.727   4.401   4.203
12415SOL    HW249979   6.753   4.425   4.114
12415SOL    HW349980   6.709   4.308   4.199
12415SOL    MW449981   6.729   4.393   4.190
12416SOL     OW49982   7.392   5.021   4.054
12416SOL    HW249983   7.348   5.062   4.129
12416SOL    HW349984   7.449   5.089   4.019
12416SOL    MW449985   7.394   5.035   4.059
12417SOL     OW49986   6.312   4.070   5.457
12417SOL    HW249987   6.322   3.996   5.397
12417SOL    HW349988   6.348   4.039   5.540
12417SOL    MW449989   6.318   4.056   5.459
12418SOL     OW49990   6.048   5.437   4.372
12418SOL    HW249991   6.080   5.525   4.350
12418SOL    HW349992   6.001   5.409   4.294
12418SOL    MW449993   6.047   5.445   4.359
12419SOL     OW49994   7.432   3.799   4.421
12419SOL    HW249995   7.486   3.750   4.483
12419SOL    HW349996   7.375   3.733   4.382
12419SOL    MW449997   7.432   3.783   4.423
12420SOL     OW49998   5.764   5.497   3.949
12420SOL    HW249999   5.793   5.587   3.941
12420SOL    HW350000   5.714   5.480   3.870
12420SOL    MW450001   5.762   5.505   3.938
12421SOL     OW50002   6.551   3.752   4.834
12421SOL    HW250003   6.510   3.830   4.796
12421SOL    HW350004   6.645   3.770   4.829
12421SOL    MW450005   6.557   3.764   4.829
12422SOL     OW50006   7.168   5.305   3.920
12422SOL    HW250007   7.216   5.374   3.966
12422SOL    HW350008   7.089   5.349   3.889
12422SOL    MW450009   7.163   5.319   3.923
12423SOL     OW50010   6.566   4.430   3.864
12423SOL    HW250011   6.568   4.377   3.785
12423SOL    HW350012   6.654   4.467   3.870
12423SOL    MW450013   6.578   4.429   3.853
12424SOL     OW50014   7.180   4.356   4.200
12424SOL    HW250015   7.219   4.356   4.287
12424SOL    HW350016   7.121   4.432   4.200
12424SOL    MW450017   7.177   4.367   4.211
12425SOL     OW50018   6.497   4.723   5.329
12425SOL    HW250019   6.474   4.703   5.419
12425SOL    HW350020   6.582   4.767   5.334
12425SOL    MW450021   6.504   4.726   5.341
12426SOL     OW50022   6.577   3.860   5.089
12426SOL    HW250023   6.583   3.822   5.002
12426SOL    HW350024   6.566   3.954   5.074
12426SOL    MW450025   6.578   3.868   5.077
12427SOL     OW50026   6.666   4.349   4.923
12427SOL    HW250027   6.741   4.378   4.870
12427SOL    HW350028   6.598   4.414   4.907
12427SOL    MW450029   6.667   4.361   4.913
12428SOL     OW50030   7.216   4.317   5.200
12428SOL    HW250031   7.197   4.226   5.179
12428SOL    HW350032   7.194   4.366   5.121
12428SOL    MW450033   7.211   4.310   5.187
12429SOL     OW50034   7.358   5.411   5.104
12429SOL    HW250035   7.286   5.373   5.155
12429SOL    HW350036   7.375   5.496   5.145
12429SOL    MW450037   7.352   5.416   5.116
12430SOL     OW50038   6.663   4.055   5.306
12430SOL    HW250039   6.629   4.094   5.225
12430SOL    HW350040   6.641   3.963   5.299
12430SOL    MW450041   6.656   4.048   5.296
12431SOL     OW50042   7.072   4.869   5.382
12431SOL    HW250043   7.154   4.910   5.412
12431SOL    HW350044   7.035   4.831   5.462
12431SOL    MW450045   7.078   4.870   5.397
12432SOL     OW50046   7.367   4.242   4.366
12432SOL    HW250047   7.456   4.211   4.383
12432SOL    HW350048   7.310   4.182   4.414
12432SOL    MW450049   7.370   4.230   4.375
12433SOL     OW50050   5.793   3.956   4.395
12433SOL    HW250051   5.784   3.896   4.321
12433SOL    HW350052   5.726   3.927   4.458
12433SOL    MW450053   5.783   3.943   4.393
12434SOL     OW50054   6.736   5.049   3.956
12434SOL    HW250055   6.686   5.051   4.038
12434SOL    HW350056   6.670   5.067   3.888
12434SOL    MW450057   6.722   5.051   3.958
12435SOL     OW50058   5.740   4.129   4.758
12435SOL    HW250059   5.712   4.220   4.767
12435SOL    HW350060   5.677   4.090   4.697
12435SOL    MW450061   5.727   4.135   4.752
12436SOL     OW50062   6.199   5.467   4.064
12436SOL    HW250063   6.120   5.425   4.097
12436SOL    HW350064   6.265   5.450   4.131
12436SOL    MW450065   6.198   5.459   4.077
12437SOL     OW50066   7.327   4.987   5.461
12437SOL    HW250067   7.377   4.913   5.493
12437SOL    HW350068   7.273   5.014   5.536
12437SOL    MW450069   7.327   4.981   5.474
12438SOL     OW50070   6.335   4.882   3.771
12438SOL    HW250071   6.257   4.828   3.758
12438SOL    HW350072   6.306   4.955   3.824
12438SOL    MW450073   6.321   4.884   3.776
12439SOL     OW50074   7.461   4.622   4.963
12439SOL    HW250075   7.477   4.660   4.876
12439SOL    HW350076   7.495   4.688   5.024
12439SOL    MW450077   7.468   4.635   4.959
12440SOL     OW50078   7.253   5.331   4.632
12440SOL    HW250079   7.282   5.398   4.693
12440SOL    HW350080   7.234   5.255   4.687
12440SOL    MW450081   7.255   5.331   4.647
12441SOL     OW50082   6.916   5.398   3.839
12441SOL    HW250083   6.842   5.361   3.889
12441SOL    HW350084   6.924   5.488   3.872
12441SOL    MW450085   6.907   5.405   3.851
12442SOL     OW50086   5.724   4.404   4.928
12442SOL    HW250087   5.786   4.434   4.994
12442SOL    HW350088   5.658   4.473   4.922
12442SOL    MW450089   5.723   4.417   4.935
12443SOL     OW50090   7.140   5.072   3.781
12443SOL    HW250091   7.087   5.121   3.717
12443SOL    HW350092   7.171   5.138   3.842
12443SOL    MW450093   7.138   5.086   3.779
12444SOL     OW50094   6.365   3.961   3.836
12444SOL    HW250095   6.313   3.881   3.824
12444SOL    HW350096   6.452   3.938   3.804
12444SOL    MW450097   6.368   3.947   3.830
12445SOL     OW50098   5.819   5.513   5.380
12445SOL    HW250099   5.793   5.581   5.318
12445SOL    HW350100   5.867   5.450   5.328
12445SOL    MW450101   5.821   5.513   5.366
12446SOL     OW50102   5.871   4.832   4.887
12446SOL    HW250103   5.924   4.907   4.912
12446SOL    HW350104   5.790   4.870   4.853
12446SOL    MW450105   5.867   4.847   4.887
12447SOL     OW50106   6.411   4.736   4.875
12447SOL    HW250107   6.439   4.645   4.887
12447SOL    HW350108   6.340   4.730   4.811
12447SOL    MW450109   6.404   4.724   4.870
12448SOL     OW50110   5.726   4.601   4.293
12448SOL    HW250111   5.817   4.616   4.320
12448SOL    HW350112   5.729   4.522   4.239
12448SOL    MW450113   5.738   4.593   4.291
12449SOL     OW50114   5.962   4.309   5.547
12449SOL    HW250115   5.909   4.389   5.554
12449SOL    HW350116   6.032   4.321   5.612
12449SOL    MW450117   5.964   4.322   5.555
12450SOL     OW50118   6.348   3.859   5.254
12450SOL    HW250119   6.325   3.767   5.256
12450SOL    HW350120   6.434   3.861   5.211
12450SOL    MW450121   6.355   3.849   5.250
12451SOL     OW50122   6.032   4.383   5.293
12451SOL    HW250123   6.112   4.433   5.279
12451SOL    HW350124   6.023   4.377   5.388
12451SOL    MW450125   6.041   4.389   5.303
12452SOL     OW50126   6.353   5.533   4.667
12452SOL    HW250127   6.442   5.548   4.697
12452SOL    HW350128   6.348   5.580   4.583
12452SOL    MW450129   6.363   5.541   4.660
12453SOL     OW50130   7.009   3.908   5.564
12453SOL    HW250131   7.065   3.835   5.590
12453SOL    HW350132   6.979   3.946   5.646
12453SOL    MW450133   7.013   3.903   5.577
12454SOL     OW50134   5.734   5.213   4.332
12454SOL    HW250135   5.706   5.252   4.414
12454SOL    HW350136   5.754   5.122   4.354
12454SOL    MW450137   5.732   5.205   4.345
12455SOL     OW50138   6.567   5.256   4.367
12455SOL    HW250139   6.650   5.210   4.351
12455SOL    HW350140   6.557   5.255   4.463
12455SOL    MW450141   6.577   5.249   4.377
12456SOL     OW50142   7.399   4.401   4.681
12456SOL    HW250143   7.488   4.431   4.663
12456SOL    HW350144   7.379   4.341   4.610
12456SOL    MW450145   7.408   4.398   4.670
12457SOL     OW50146   7.250   4.580   5.561
12457SOL    HW250147   7.305   4.504   5.542
12457SOL    HW350148   7.252   4.588   5.656
12457SOL    MW450149   7.258   4.571   5.569
12458SOL     OW50150   6.300   5.313   3.772
12458SOL    HW250151   6.240   5.382   3.742
12458SOL    HW350152   6.245   5.255   3.825
12458SOL    MW450153   6.284   5.315   3.774
12459SOL     OW50154   6.738   3.958   3.995
12459SOL    HW250155   6.671   3.934   3.932
12459SOL    HW350156   6.803   4.007   3.944
12459SOL    MW450157   6.738   3.960   3.980
12460SOL     OW50158   6.545   4.142   5.080
12460SOL    HW250159   6.464   4.183   5.108
12460SOL    HW350160   6.592   4.210   5.032
12460SOL    MW450161   6.540   4.157   5.078
12461SOL     OW50162   6.805   4.480   4.703
12461SOL    HW250163   6.818   4.574   4.713
12461SOL    HW350164   6.766   4.470   4.617
12461SOL    MW450165   6.801   4.491   4.693
12462SOL     OW50166   6.257   4.675   4.507
12462SOL    HW250167   6.168   4.666   4.540
12462SOL    HW350168   6.261   4.765   4.475
12462SOL    MW450169   6.246   4.686   4.507
12463SOL     OW50170   7.056   4.258   4.502
12463SOL    HW250171   7.001   4.179   4.501
12463SOL    HW350172   7.038   4.299   4.586
12463SOL    MW450173   7.046   4.253   4.511
12464SOL     OW50174   6.027   3.945   5.319
12464SOL    HW250175   5.948   3.963   5.371
12464SOL    HW350176   6.022   4.007   5.246
12464SOL    MW450177   6.017   3.955   5.316
12465SOL     OW50178   6.675   4.462   4.459
12465SOL    HW250179   6.612   4.394   4.483
12465SOL    HW350180   6.695   4.443   4.367
12465SOL    MW450181   6.669   4.449   4.451
12466SOL     OW50182   5.931   5.357   4.161
12466SOL    HW250183   5.892   5.404   4.087
12466SOL    HW350184   5.865   5.292   4.186
12466SOL    MW450185   5.918   5.355   4.155
12467SOL     OW50186   6.423   4.766   4.185
12467SOL    HW250187   6.425   4.740   4.092
12467SOL    HW350188   6.481   4.703   4.228
12467SOL    MW450189   6.431   4.755   4.179
12468SOL     OW50190   6.976   5.326   4.957
12468SOL    HW250191   6.901   5.372   4.995
12468SOL    HW350192   6.958   5.233   4.974
12468SOL    MW450193   6.965   5.320   4.965
12469SOL     OW50194   6.980   5.534   4.387
12469SOL    HW250195   6.923   5.487   4.326
12469SOL    HW350196   7.066   5.495   4.374
12469SOL    MW450197   6.983   5.525   4.377
12470SOL     OW50198   6.933   4.010   4.518
12470SOL    HW250199   6.961   3.942   4.579
12470SOL    HW350200   6.847   3.981   4.488
12470SOL    MW450201   6.926   3.997   4.522
12471SOL     OW50202   5.738   4.944   4.452
12471SOL    HW250203   5.802   4.976   4.515
12471SOL    HW350204   5.787   4.880   4.400
12471SOL    MW450205   5.753   4.940   4.453
12472SOL     OW50206   6.238   5.020   5.434
12472SOL    HW250207   6.286   5.103   5.421
12472SOL    HW350208   6.295   4.968   5.490
12472SOL    MW450209   6.252   5.024   5.440
12473SOL     OW50210   5.814   5.262   5.574
12473SOL    HW250211   5.870   5.186   5.589
12473SOL    HW350212   5.763   5.240   5.496
12473SOL    MW450213   5.814   5.249   5.565
12474SOL     OW50214   6.913   4.114   3.853
12474SOL    HW250215   6.886   4.180   3.789
12474SOL    HW350216   6.983   4.157   3.903
12474SOL    MW450217   6.918   4.127   3.850
12475SOL     OW50218   6.581   3.819   3.790
12475SOL    HW250219   6.637   3.811   3.712
12475SOL    HW350220   6.558   3.729   3.812
12475SOL    MW450221   6.586   3.806   3.783
12476SOL     OW50222   7.086   4.670   3.995
12476SOL    HW250223   7.053   4.759   3.985
12476SOL    HW350224   7.051   4.641   4.080
12476SOL    MW450225   7.076   4.679   4.006
12477SOL     OW50226   6.699   5.099   5.183
12477SOL    HW250227   6.610   5.105   5.151
12477SOL    HW350228   6.743   5.178   5.151
12477SOL    MW450229   6.694   5.109   5.175
12478SOL     OW50230   5.992   3.767   5.525
12478SOL    HW250231   5.920   3.732   5.473
12478SOL    HW350232   6.050   3.808   5.460
12478SOL    MW450233   5.990   3.768   5.510
12479SOL     OW50234   6.016   5.257   4.824
12479SOL    HW250235   6.061   5.319   4.881
12479SOL    HW350236   5.923   5.276   4.837
12479SOL    MW450237   6.009   5.267   4.831
12480SOL     OW50238   7.456   4.786   5.178
12480SOL    HW250239   7.371   4.799   5.137
12480SOL    HW350240   7.436   4.750   5.265
12480SOL    MW450241   7.443   4.782   5.183
12481SOL     OW50242   6.438   5.325   4.932
12481SOL    HW250243   6.462   5.314   4.841
12481SOL    HW350244   6.361   5.382   4.930
12481SOL    MW450245   6.430   5.330   4.921
12482SOL     OW50246   6.080   4.708   3.787
12482SOL    HW250247   6.003   4.721   3.843
12482SOL    HW350248   6.044   4.672   3.706
12482SOL    MW450249   6.066   4.704   3.784
12483SOL     OW50250   6.733   4.681   4.030
12483SOL    HW250251   6.643   4.702   4.005
12483SOL    HW350252   6.760   4.754   4.086
12483SOL    MW450253   6.725   4.693   4.033
12484SOL     OW50254   6.233   5.030   4.722
12484SOL    HW250255   6.226   5.009   4.816
12484SOL    HW350256   6.151   4.998   4.685
12484SOL    MW450257   6.221   5.024   4.729
12485SOL     OW50258   7.097   4.040   5.124
12485SOL    HW250259   7.044   4.042   5.204
12485SOL    HW350260   7.082   3.953   5.087
12485SOL    MW450261   7.089   4.030   5.129
12486SOL     OW50262   7.433   3.964   4.997
12486SOL    HW250263   7.414   4.031   4.932
12486SOL    HW350264   7.490   3.902   4.952
12486SOL    MW450265   7.437   3.965   4.983
12487SOL     OW50266   5.679   5.122   5.385
12487SOL    HW250267   5.723   5.055   5.331
12487SOL    HW350268   5.594   5.084   5.405
12487SOL    MW450269   5.674   5.108   5.381
12488SOL     OW50270   6.362   3.797   4.437
12488SOL    HW250271   6.291   3.858   4.419
12488SOL    HW350272   6.413   3.794   4.356
12488SOL    MW450273   6.358   3.803   4.424
12489SOL     OW50274   6.120   5.037   4.186
12489SOL    HW250275   6.113   5.069   4.276
12489SOL    HW350276   6.030   5.021   4.158
12489SOL    MW450277   6.108   5.039   4.193
12490SOL     OW50278   6.715   5.430   5.095
12490SOL    HW250279   6.635   5.415   5.045
12490SOL    HW350280   6.722   5.525   5.102
12490SOL    MW450281   6.706   5.441   5.089
12491SOL     OW50282   6.829   5.395   4.585
12491SOL    HW250283   6.876   5.468   4.544
12491SOL    HW350284   6.750   5.434   4.621
12491SOL    MW450285   6.824   5.410   4.584
12492SOL     OW50286   7.237   5.490   4.860
12492SOL    HW250287   7.280   5.460   4.940
12492SOL    HW350288   7.156   5.438   4.857
12492SOL    MW450289   7.232   5.479   4.870
12493SOL     OW50290   6.322   4.454   5.567
12493SOL    HW250291   6.392   4.396   5.539
12493SOL    HW350292   6.265   4.399   5.622
12493SOL    MW450293   6.324   4.441   5.571
12494SOL     OW50294   7.109   4.666   5.200
12494SOL    HW250295   7.114   4.719   5.280
12494SOL    HW350296   7.071   4.583   5.228
12494SOL    MW450297   7.105   4.661   5.215
12495SOL     OW50298   6.749   3.801   5.446
12495SOL    HW250299   6.744   3.708   5.427
12495SOL    HW350300   6.832   3.812   5.492
12495SOL    MW450301   6.757   3.790   5.450
12496SOL     OW50302   7.219   5.072   4.722
12496SOL    HW250303   7.254   5.054   4.635
12496SOL    HW350304   7.124   5.073   4.709
12496SOL    MW450305   7.211   5.069   4.709
12497SOL     OW50306   6.648   4.720   5.091
12497SOL    HW250307   6.691   4.755   5.169
12497SOL    HW350308   6.631   4.797   5.037
12497SOL    MW450309   6.651   4.735   5.094
12498SOL     OW50310   7.179   4.207   3.964
12498SOL    HW250311   7.171   4.278   3.901
12498SOL    HW350312   7.197   4.251   4.047
12498SOL    MW450313   7.180   4.221   3.966
12499SOL     OW50314   6.039   3.862   4.393
12499SOL    HW250315   6.089   3.905   4.324
12499SOL    HW350316   5.954   3.906   4.393
12499SOL    MW450317   6.036   3.875   4.384
12500SOL     OW50318   5.798   4.924   5.253
12500SOL    HW250319   5.826   4.877   5.331
12500SOL    HW350320   5.719   4.879   5.224
12500SOL    MW450321   5.791   4.913   5.259
12501SOL     OW50322   6.306   4.251   5.220
12501SOL    HW250323   6.278   4.339   5.244
12501SOL    HW350324   6.275   4.195   5.291
12501SOL    MW450325   6.298   4.254   5.232
12502SOL     OW50326   6.848   4.469   3.939
12502SOL    HW250327   6.895   4.487   3.858
12502SOL    HW350328   6.814   4.553   3.967
12502SOL    MW450329   6.850   4.483   3.932
12503SOL     OW50330   5.961   4.647   4.433
12503SOL    HW250331   6.019   4.703   4.381
12503SOL    HW350332   6.005   4.562   4.435
12503SOL    MW450333   5.974   4.644   4.426
12504SOL     OW50334   7.101   3.999   4.270
12504SOL    HW250335   7.023   3.949   4.295
12504SOL    HW350336   7.072   4.090   4.270
12504SOL    MW450337   7.087   4.003   4.273
12505SOL     OW50338   6.687   3.961   4.429
12505SOL    HW250339   6.707   4.036   4.373
12505SOL    HW350340   6.667   4.000   4.514
12505SOL    MW450341   6.688   3.977   4.433
12506SOL     OW50342   6.583   5.211   3.761
12506SOL    HW250343   6.610   5.289   3.713
12506SOL    HW350344   6.490   5.226   3.780
12506SOL    MW450345   6.574   5.224   3.757
12507SOL     OW50346   7.447   4.734   5.448
12507SOL    HW250347   7.360   4.714   5.484
12507SOL    HW350348   7.501   4.660   5.473
12507SOL    MW450349   7.442   4.723   5.456
12508SOL     OW50350   5.668   5.247   4.605
12508SOL    HW250351   5.700   5.251   4.696
12508SOL    HW350352   5.573   5.255   4.613
12508SOL    MW450353   5.660   5.250   4.618
12509SOL     OW50354   5.623   4.373   4.152
12509SOL    HW250355   5.563   4.345   4.222
12509SOL    HW350356   5.697   4.313   4.158
12509SOL    MW450357   5.625   4.362   4.161
12510SOL     OW50358   7.191   5.585   5.586
12510SOL    HW250359   7.236   5.509   5.551
12510SOL    HW350360   7.229   5.598   5.673
12510SOL    MW450361   7.201   5.578   5.592
12511SOL     OW50362   6.791   5.104   4.312
12511SOL    HW250363   6.814   5.055   4.390
12511SOL    HW350364   6.872   5.146   4.284
12511SOL    MW450365   6.804   5.104   4.319
12512SOL     OW50366   6.049   4.112   5.041
12512SOL    HW250367   6.082   4.193   5.081
12512SOL    HW350368   6.022   4.138   4.953
12512SOL    MW450369   6.048   4.126   5.035
12513SOL     OW50370   6.003   4.079   4.777
12513SOL    HW250371   6.033   3.993   4.748
12513SOL    HW350372   5.908   4.072   4.780
12513SOL    MW450373   5.995   4.068   4.775
12514SOL     OW50374   6.832   4.288   5.468
12514SOL    HW250375   6.884   4.223   5.421
12514SOL    HW350376   6.790   4.339   5.398
12514SOL    MW450377   6.833   4.285   5.451
12515SOL     OW50378   6.931   4.083   5.329
12515SOL    HW250379   6.838   4.067   5.316
12515SOL    HW350380   6.957   4.021   5.397
12515SOL    MW450381   6.921   4.073   5.336
12516SOL     OW50382   6.146   3.857   4.668
12516SOL    HW250383   6.156   3.766   4.694
12516SOL    HW350384   6.102   3.853   4.583
12516SOL    MW450385   6.142   3.845   4.660
12517SOL     OW50386   6.240   5.472   5.214
12517SOL    HW250387   6.157   5.457   5.259
12517SOL    HW350388   6.299   5.405   5.249
12517SOL    MW450389   6.238   5.462   5.224
12518SOL     OW50390   7.297   4.179   4.839
12518SOL    HW250391   7.230   4.212   4.899
12518SOL    HW350392   7.340   4.257   4.805
12518SOL    MW450393   7.295   4.194   4.843
12519SOL     OW50394   7.475   4.899   4.809
12519SOL    HW250395   7.468   4.839   4.734
12519SOL    HW350396   7.401   4.959   4.798
12519SOL    MW450397   7.465   4.899   4.798
12520SOL     OW50398   6.857   4.761   4.727
12520SOL    HW250399   6.871   4.733   4.818
12520SOL    HW350400   6.943   4.792   4.699
12520SOL    MW450401   6.870   4.762   4.736
12521SOL     OW50402   6.940   4.256   5.006
12521SOL    HW250403   6.961   4.257   4.913
12521SOL    HW350404   6.985   4.178   5.039
12521SOL    MW450405   6.947   4.246   4.998
12522SOL     OW50406   7.433   4.387   5.548
12522SOL    HW250407   7.470   4.332   5.617
12522SOL    HW350408   7.458   4.344   5.466
12522SOL    MW450409   7.440   4.375   5.547
12523SOL     OW50410   6.980   4.685   5.600
12523SOL    HW250411   7.046   4.633   5.554
12523SOL    HW350412   7.000   4.672   5.693
12523SOL    MW450413   6.991   4.676   5.607
12524SOL     OW50414   6.931   3.771   3.948
12524SOL    HW250415   7.005   3.815   3.991
12524SOL    HW350416   6.855   3.825   3.970
12524SOL    MW450417   6.931   3.783   3.956
12525SOL     OW50418   6.991   4.546   4.226
12525SOL    HW250419   6.906   4.516   4.196
12525SOL    HW350420   6.983   4.553   4.321
12525SOL    MW450421   6.979   4.544   4.235
12526SOL     OW50422   6.067   5.009   4.957
12526SOL    HW250423   6.079   5.036   5.048
12526SOL    HW350424   6.048   5.090   4.910
12526SOL    MW450425   6.066   5.024   4.962
12527SOL     OW50426   6.351   3.989   4.780
12527SOL    HW250427   6.324   3.991   4.871
12527SOL    HW350428   6.281   3.941   4.735
12527SOL    MW450429   6.339   3.985   4.787
12528SOL     OW50430   6.205   5.481   4.942
12528SOL    HW250431   6.257   5.558   4.919
12528SOL    HW350432   6.214   5.473   5.037
12528SOL    MW450433   6.214   5.488   4.953
12529SOL     OW50434   7.107   5.066   5.174
12529SOL    HW250435   7.092   4.995   5.237
12529SOL    HW350436   7.153   5.024   5.102
12529SOL    MW450437   7.113   5.050   5.174
12530SOL     OW50438   6.181   4.797   5.291
12530SOL    HW250439   6.218   4.802   5.203
12530SOL    HW350440   6.220   4.870   5.338
12530SOL    MW450441   6.191   4.807   5.286
12531SOL     OW50442   6.361   4.840   5.103
12531SOL    HW250443   6.420   4.786   5.156
12531SOL    HW350444   6.376   4.812   5.013
12531SOL    MW450445   6.371   4.829   5.099
12532SOL     OW50446   6.364   4.212   3.952
12532SOL    HW250447   6.437   4.261   3.915
12532SOL    HW350448   6.380   4.121   3.926
12532SOL    MW450449   6.376   4.207   3.945
12533SOL     OW50450   7.172   5.329   5.275
12533SOL    HW250451   7.214   5.314   5.360
12533SOL    HW350452   7.163   5.242   5.237
12533SOL    MW450453   7.176   5.317   5.282
12534SOL     OW50454   6.832   3.808   4.866
12534SOL    HW250455   6.887   3.817   4.788
12534SOL    HW350456   6.887   3.842   4.937
12534SOL    MW450457   6.846   3.813   4.865
12535SOL     OW50458   5.839   4.721   4.050
12535SOL    HW250459   5.776   4.737   3.979
12535SOL    HW350460   5.786   4.684   4.121
12535SOL    MW450461   5.824   4.718   4.050
12536SOL     OW50462   6.195   5.075   3.909
12536SOL    HW250463   6.210   5.051   4.001
12536SOL    HW350464   6.103   5.053   3.893
12536SOL    MW450465   6.185   5.068   3.919
12537SOL     OW50466   6.734   5.306   4.061
12537SOL    HW250467   6.742   5.224   4.012
12537SOL    HW350468   6.653   5.345   4.028
12537SOL    MW450469   6.724   5.301   4.051
12538SOL     OW50470   5.993   5.464   4.630
12538SOL    HW250471   5.997   5.375   4.665
12538SOL    HW350472   6.019   5.455   4.539
12538SOL    MW450473   5.996   5.452   4.622
12539SOL     OW50474   6.610   4.942   4.873
12539SOL    HW250475   6.542   4.876   4.889
12539SOL    HW350476   6.628   4.936   4.780
12539SOL    MW450477   6.603   4.933   4.864
12540SOL     OW50478   5.699   5.217   5.124
12540SOL    HW250479   5.689   5.175   5.210
12540SOL    HW350480   5.620   5.270   5.114
12540SOL    MW450481   5.688   5.218   5.135
12541SOL     OW50482   6.603   4.081   4.694
12541SOL    HW250483   6.533   4.033   4.739
12541SOL    HW350484   6.635   4.144   4.758
12541SOL    MW450485   6.598   4.083   4.708
12542SOL     OW50486   6.254   4.517   5.314
12542SOL    HW250487   6.247   4.612   5.302
12542SOL    HW350488   6.263   4.506   5.409
12542SOL    MW450489   6.255   4.529   5.324
12543SOL     OW50490   5.975   5.032   5.572
12543SOL    HW250491   6.047   5.034   5.509
12543SOL    HW350492   5.945   4.941   5.571
12543SOL    MW450493   5.980   5.021   5.564
12544SOL     OW50494   7.059   3.795   5.039
12544SOL    HW250495   7.130   3.741   5.003
12544SOL    HW350496   7.058   3.774   5.132
12544SOL    MW450497   7.068   3.786   5.047
12545SOL     OW50498   7.259   5.325   5.523
12545SOL    HW250499   7.232   5.322   5.614
12545SOL    HW350500   7.355   5.329   5.526
12545SOL    MW450501   7.269   5.325   5.535
12546SOL     OW50502   6.070   4.187   4.507
12546SOL    HW250503   6.141   4.135   4.470
12546SOL    HW350504   6.056   4.152   4.594
12546SOL    MW450505   6.078   4.176   4.514
12547SOL     OW50506   5.625   5.522   5.579
12547SOL    HW250507   5.675   5.500   5.501
12547SOL    HW350508   5.633   5.617   5.587
12547SOL    MW450509   5.633   5.531   5.570
12548SOL     OW50510   6.386   5.280   4.583
12548SOL    HW250511   6.314   5.217   4.596
12548SOL    HW350512   6.347   5.365   4.601
12548SOL    MW450513   6.370   5.283   4.586
12549SOL     OW50514   6.706   4.128   4.231
12549SOL    HW250515   6.728   4.065   4.163
12549SOL    HW350516   6.611   4.120   4.242
12549SOL    MW450517   6.696   4.119   4.223
12550SOL     OW50518   5.791   3.818   4.163
12550SOL    HW250519   5.862   3.839   4.102
12550SOL    HW350520   5.745   3.746   4.121
12550SOL    MW450521   5.795   3.812   4.149
12551SOL     OW50522   5.622   4.285   5.306
12551SOL    HW250523   5.686   4.351   5.281
12551SOL    HW350524   5.541   4.312   5.263
12551SOL    MW450525   5.620   4.297   5.298
12552SOL     OW50526   7.360   5.192   4.263
12552SOL    HW250527   7.330   5.125   4.324
12552SOL    HW350528   7.454   5.198   4.277
12552SOL    MW450529   7.368   5.184   4.273
12553SOL     OW50530   6.916   4.869   4.193
12553SOL    HW250531   6.888   4.955   4.226
12553SOL    HW350532   6.944   4.885   4.103
12553SOL    MW450533   6.916   4.883   4.185
12554SOL     OW50534   6.578   3.789   4.246
12554SOL    HW250535   6.615   3.848   4.311
12554SOL    HW350536   6.555   3.845   4.172
12554SOL    MW450537   6.579   3.804   4.245
12555SOL     OW50538   7.431   4.671   4.668
12555SOL    HW250539   7.422   4.703   4.579
12555SOL    HW350540   7.384   4.587   4.668
12555SOL    MW450541   7.424   4.664   4.658
12556SOL     OW50542   5.807   4.511   5.247
12556SOL    HW250543   5.828   4.580   5.185
12556SOL    HW350544   5.887   4.458   5.252
12556SOL    MW450545   5.820   4.512   5.241
12557SOL     OW50546   5.792   4.526   5.514
12557SOL    HW250547   5.718   4.470   5.540
12557SOL    HW350548   5.787   4.529   5.419
12557SOL    MW450549   5.781   4.519   5.504
12558SOL     OW50550   5.958   3.813   4.964
12558SOL    HW250551   6.001   3.897   4.984
12558SOL    HW350552   6.031   3.751   4.957
12558SOL    MW450553   5.973   3.816   4.965
12559SOL     OW50554   5.999   4.480   4.142
12559SOL    HW250555   5.999   4.575   4.127
12559SOL    HW350556   6.076   4.464   4.196
12559SOL    MW450557   6.009   4.491   4.147
12560SOL     OW50558   6.775   4.339   5.206
12560SOL    HW250559   6.811   4.312   5.122
12560SOL    HW350560   6.688   4.373   5.185
12560SOL    MW450561   6.769   4.340   5.193
12561SOL     OW50562   5.758   4.211   4.431
12561SOL    HW250563   5.820   4.218   4.504
12561SOL    HW350564   5.758   4.118   4.408
12561SOL    MW450565   5.766   4.200   4.438
12562SOL     OW50566   7.305   5.551   3.963
12562SOL    HW250567   7.372   5.584   3.903
12562SOL    HW350568   7.262   5.630   3.997
12562SOL    MW450569   7.307   5.566   3.959
12563SOL     OW50570   6.440   4.472   4.915
12563SOL    HW250571   6.398   4.390   4.891
12563SOL    HW350572   6.441   4.471   5.011
12563SOL    MW450573   6.433   4.461   4.924
12564SOL     OW50574   7.111   5.605   5.314
12564SOL    HW250575   7.114   5.511   5.297
12564SOL    HW350576   7.134   5.613   5.406
12564SOL    MW450577   7.114   5.593   5.324
12565SOL     OW50578   6.244   3.942   5.020
12565SOL    HW250579   6.175   4.005   5.041
12565SOL    HW350580   6.271   3.906   5.105
12565SOL    MW450581   6.238   3.945   5.033
12566SOL     OW50582   5.627   4.783   3.889
12566SOL    HW250583   5.596   4.848   3.952
12566SOL    HW350584   5.576   4.705   3.908
12566SOL    MW450585   5.617   4.780   3.899
12567SOL     OW50586   7.039   3.795   4.637
12567SOL    HW250587   7.127   3.804   4.674
12567SOL    HW350588   7.049   3.736   4.563
12567SOL    MW450589   7.053   3.789   4.631
12568SOL     OW50590   7.071   4.534   4.481
12568SOL    HW250591   7.151   4.549   4.430
12568SOL    HW350592   7.064   4.439   4.487
12568SOL    MW450593   7.080   4.523   4.476
12569SOL     OW50594   6.211   5.583   3.831
12569SOL    HW250595   6.116   5.583   3.823
12569SOL    HW350596   6.227   5.529   3.909
12569SOL    MW450597   6.201   5.577   3.840
12570SOL     OW50598   6.521   4.460   5.178
12570SOL    HW250599   6.590   4.527   5.175
12570SOL    HW350600   6.454   4.498   5.234
12570SOL    MW450601   6.522   4.473   5.185
12571SOL     OW50602   5.939   4.760   5.426
12571SOL    HW250603   5.893   4.676   5.428
12571SOL    HW350604   5.996   4.754   5.350
12571SOL    MW450605   5.941   4.748   5.418
12572SOL     OW50606   7.056   4.403   3.747
12572SOL    HW250607   6.984   4.379   3.689
12572SOL    HW350608   7.122   4.440   3.689
12572SOL    MW450609   7.055   4.405   3.732
12573SOL     OW50610   6.190   5.135   4.427
12573SOL    HW250611   6.255   5.068   4.448
12573SOL    HW350612   6.242   5.212   4.404
12573SOL    MW450613   6.205   5.137   4.426
12574SOL     OW50614   6.451   4.300   4.557
12574SOL    HW250615   6.391   4.318   4.629
12574SOL    HW350616   6.485   4.212   4.576
12574SOL    MW450617   6.447   4.290   4.570
12575SOL     OW50618   7.392   3.799   5.226
12575SOL    HW250619   7.313   3.845   5.254
12575SOL    HW350620   7.427   3.853   5.155
12575SOL    MW450621   7.386   3.812   5.220
12576SOL     OW50622   6.676   4.883   4.576
12576SOL    HW250623   6.768   4.864   4.594
12576SOL    HW350624   6.649   4.813   4.516
12576SOL    MW450625   6.684   4.871   4.570
12577SOL     OW50626   6.469   4.703   3.931
12577SOL    HW250627   6.455   4.615   3.896
12577SOL    HW350628   6.420   4.760   3.872
12577SOL    MW450629   6.461   4.698   3.919
12578SOL     OW50630   6.950   5.121   4.672
12578SOL    HW250631   6.923   5.205   4.637
12578SOL    HW350632   6.910   5.116   4.759
12578SOL    MW450633   6.943   5.130   4.678
12579SOL     OW50634   6.869   5.069   4.940
12579SOL    HW250635   6.880   5.036   5.029
12579SOL    HW350636   6.788   5.028   4.909
12579SOL    MW450637   6.859   5.061   4.946
12580SOL     OW50638   5.882   4.427   4.710
12580SOL    HW250639   5.832   4.426   4.791
12580SOL    HW350640   5.902   4.519   4.694
12580SOL    MW450641   5.878   4.439   4.718
12581SOL     OW50642   6.949   5.191   5.472
12581SOL    HW250643   6.949   5.285   5.488
12581SOL    HW350644   6.994   5.181   5.388
12581SOL    MW450645   6.955   5.201   5.463
12582SOL     OW50646   7.188   3.909   4.033
12582SOL    HW250647   7.181   3.913   4.128
12582SOL    HW350648   7.200   4.000   4.006
12582SOL    MW450649   7.189   3.922   4.041
12583SOL     OW50650   6.477   4.472   4.147
12583SOL    HW250651   6.457   4.458   4.054
12583SOL    HW350652   6.570   4.451   4.154
12583SOL    MW450653   6.487   4.467   4.136
12584SOL     OW50654   5.804   4.095   5.451
12584SOL    HW250655   5.761   4.154   5.388
12584SOL    HW350656   5.872   4.150   5.491
12584SOL    MW450657   5.808   4.110   5.448
12585SOL     OW50658   6.916   4.715   4.996
12585SOL    HW250659   6.979   4.712   5.069
12585SOL    HW350660   6.832   4.733   5.038
12585SOL    MW450661   6.912   4.717   5.011
12586SOL     OW50662   6.460   5.430   4.185
12586SOL    HW250663   6.518   5.501   4.212
12586SOL    HW350664   6.483   5.358   4.243
12586SOL    MW450665   6.471   5.430   4.196
12587SOL     OW50666   7.255   3.892   4.775
12587SOL    HW250667   7.300   3.810   4.794
12587SOL    HW350668   7.275   3.948   4.851
12587SOL    MW450669   7.265   3.888   4.787
12588SOL     OW50670   5.703   3.735   4.874
12588SOL    HW250671   5.694   3.736   4.779
12588SOL    HW350672   5.797   3.747   4.889
12588SOL    MW450673   5.715   3.738   4.865
12589SOL     OW50674   7.340   4.928   4.494
12589SOL    HW250675   7.319   4.874   4.417
12589SOL    HW350676   7.436   4.926   4.498
12589SOL    MW450677   7.349   4.921   4.483
12590SOL     OW50678   6.032   5.073   5.237
12590SOL    HW250679   5.953   5.023   5.260
12590SOL    HW350680   6.102   5.032   5.287
12590SOL    MW450681   6.030   5.061   5.247
12591SOL     OW50682   5.916   3.862   3.920
12591SOL    HW250683   5.845   3.917   3.888
12591SOL    HW350684   5.958   3.828   3.841
12591SOL    MW450685   5.912   3.864   3.906
12592SOL     OW50686   7.040   4.359   4.756
12592SOL    HW250687   6.963   4.405   4.722
12592SOL    HW350688   7.097   4.428   4.790
12592SOL    MW450689   7.037   4.374   4.756
12593SOL     OW50690   5.672   3.961   3.769
12593SOL    HW250691   5.639   4.040   3.813
12593SOL    HW350692   5.727   3.994   3.698
12593SOL    MW450693   5.675   3.975   3.766
12594SOL     OW50694   5.706   5.218   3.958
12594SOL    HW250695   5.723   5.302   4.000
12594SOL    HW350696   5.741   5.227   3.870
12594SOL    MW450697   5.711   5.231   3.952
12595SOL     OW50698   6.978   5.307   4.175
12595SOL    HW250699   7.041   5.297   4.104
12595SOL    HW350700   6.895   5.327   4.130
12595SOL    MW450701   6.975   5.308   4.160
12596SOL     OW50702   7.341   4.575   5.862
12596SOL    HW250703   7.382   4.517   5.927
12596SOL    HW350704   7.248   4.567   5.879
12596SOL    MW450705   7.335   4.567   5.872
12597SOL     OW50706   7.207   4.507   6.857
12597SOL    HW250707   7.162   4.574   6.908
12597SOL    HW350708   7.295   4.543   6.843
12597SOL    MW450709   7.213   4.520   6.861
12598SOL     OW50710   6.135   4.758   6.091
12598SOL    HW250711   6.225   4.733   6.075
12598SOL    HW350712   6.131   4.851   6.068
12598SOL    MW450713   6.147   4.767   6.086
12599SOL     OW50714   7.251   5.461   6.233
12599SOL    HW250715   7.263   5.407   6.311
12599SOL    HW350716   7.288   5.409   6.162
12599SOL    MW450717   7.257   5.446   6.234
12600SOL     OW50718   6.630   5.346   7.234
12600SOL    HW250719   6.671   5.382   7.155
12600SOL    HW350720   6.665   5.257   7.241
12600SOL    MW450721   6.641   5.339   7.225
12601SOL     OW50722   7.187   4.901   6.838
12601SOL    HW250723   7.108   4.866   6.796
12601SOL    HW350724   7.214   4.973   6.782
12601SOL    MW450725   7.180   4.906   6.825
12602SOL     OW50726   6.419   4.214   6.104
12602SOL    HW250727   6.394   4.302   6.132
12602SOL    HW350728   6.416   4.217   6.008
12602SOL    MW450729   6.415   4.226   6.096
12603SOL     OW50730   5.861   4.242   6.032
12603SOL    HW250731   5.893   4.330   6.014
12603SOL    HW350732   5.849   4.240   6.127
12603SOL    MW450733   5.864   4.254   6.044
12604SOL     OW50734   5.939   4.655   6.933
12604SOL    HW250735   6.002   4.602   6.884
12604SOL    HW350736   5.920   4.729   6.876
12604SOL    MW450737   5.945   4.657   6.920
12605SOL     OW50738   6.260   3.997   6.119
12605SOL    HW250739   6.318   4.073   6.121
12605SOL    HW350740   6.195   4.018   6.052
12605SOL    MW450741   6.259   4.009   6.110
12606SOL     OW50742   6.347   4.924   6.294
12606SOL    HW250743   6.427   4.927   6.346
12606SOL    HW350744   6.375   4.891   6.208
12606SOL    MW450745   6.361   4.920   6.289
12607SOL     OW50746   6.372   5.265   7.197
12607SOL    HW250747   6.456   5.291   7.236
12607SOL    HW350748   6.396   5.209   7.123
12607SOL    MW450749   6.386   5.261   7.192
12608SOL     OW50750   6.124   4.428   6.285
12608SOL    HW250751   6.109   4.348   6.336
12608SOL    HW350752   6.206   4.463   6.319
12608SOL    MW450753   6.132   4.420   6.297
12609SOL     OW50754   6.461   5.114   6.970
12609SOL    HW250755   6.425   5.180   6.910
12609SOL    HW350756   6.389   5.052   6.983
12609SOL    MW450757   6.447   5.114   6.964
12610SOL     OW50758   6.266   4.254   6.662
12610SOL    HW250759   6.172   4.250   6.680
12610SOL    HW350760   6.296   4.163   6.671
12610SOL    MW450761   6.257   4.242   6.665
12611SOL     OW50762   6.012   4.668   6.566
12611SOL    HW250763   5.967   4.675   6.482
12611SOL    HW350764   5.992   4.751   6.610
12611SOL    MW450765   6.004   4.680   6.560
12612SOL     OW50766   5.709   5.514   6.441
12612SOL    HW250767   5.798   5.506   6.476
12612SOL    HW350768   5.673   5.426   6.446
12612SOL    MW450769   5.716   5.501   6.446
12613SOL     OW50770   6.974   4.906   5.810
12613SOL    HW250771   6.892   4.942   5.776
12613SOL    HW350772   7.042   4.949   5.759
12613SOL    MW450773   6.972   4.916   5.798
12614SOL     OW50774   5.973   5.041   6.476
12614SOL    HW250775   5.949   5.094   6.552
12614SOL    HW350776   6.029   5.099   6.424
12614SOL    MW450777   5.977   5.056   6.479
12615SOL     OW50778   6.535   4.685   6.286
12615SOL    HW250779   6.449   4.672   6.326
12615SOL    HW350780   6.588   4.612   6.318
12615SOL    MW450781   6.531   4.674   6.295
12616SOL     OW50782   5.943   5.337   7.071
12616SOL    HW250783   5.851   5.313   7.056
12616SOL    HW350784   5.987   5.254   7.088
12616SOL    MW450785   5.937   5.322   7.070
12617SOL     OW50786   6.526   5.047   6.003
12617SOL    HW250787   6.503   5.109   6.071
12617SOL    HW350788   6.483   4.965   6.029
12617SOL    MW450789   6.518   5.043   6.014
12618SOL     OW50790   7.399   4.048   6.459
12618SOL    HW250791   7.336   4.028   6.528
12618SOL    HW350792   7.389   3.977   6.396
12618SOL    MW450793   7.389   4.035   6.460
12619SOL     OW50794   6.023   4.020   5.971
12619SOL    HW250795   5.997   3.982   5.887
12619SOL    HW350796   5.960   4.090   5.987
12619SOL    MW450797   6.012   4.023   5.962
12620SOL     OW50798   5.858   4.981   6.008
12620SOL    HW250799   5.806   5.049   5.964
12620SOL    HW350800   5.855   4.907   5.948
12620SOL    MW450801   5.850   4.980   5.995
12621SOL     OW50802   6.520   5.444   5.786
12621SOL    HW250803   6.475   5.460   5.869
12621SOL    HW350804   6.451   5.409   5.728
12621SOL    MW450805   6.506   5.441   5.788
12622SOL     OW50806   7.455   4.217   5.761
12622SOL    HW250807   7.364   4.219   5.789
12622SOL    HW350808   7.500   4.279   5.819
12622SOL    MW450809   7.448   4.225   5.771
12623SOL     OW50810   7.200   4.820   6.111
12623SOL    HW250811   7.110   4.820   6.146
12623SOL    HW350812   7.193   4.866   6.028
12623SOL    MW450813   7.187   4.826   6.105
12624SOL     OW50814   7.000   4.455   7.183
12624SOL    HW250815   7.069   4.393   7.160
12624SOL    HW350816   6.925   4.429   7.130
12624SOL    MW450817   7.000   4.442   7.174
12625SOL     OW50818   5.741   5.335   6.735
12625SOL    HW250819   5.724   5.281   6.812
12625SOL    HW350820   5.729   5.425   6.765
12625SOL    MW450821   5.738   5.339   6.749
12626SOL     OW50822   6.736   4.842   7.175
12626SOL    HW250823   6.721   4.935   7.160
12626SOL    HW350824   6.831   4.832   7.175
12626SOL    MW450825   6.745   4.852   7.172
12627SOL     OW50826   6.532   4.266   7.376
12627SOL    HW250827   6.622   4.267   7.343
12627SOL    HW350828   6.491   4.191   7.334
12627SOL    MW450829   6.538   4.256   7.367
12628SOL     OW50830   7.107   4.798   6.503
12628SOL    HW250831   7.110   4.732   6.434
12628SOL    HW350832   7.192   4.841   6.499
12628SOL    MW450833   7.119   4.794   6.494
12629SOL     OW50834   6.727   4.401   6.072
12629SOL    HW250835   6.753   4.425   5.983
12629SOL    HW350836   6.709   4.308   6.068
12629SOL    MW450837   6.729   4.393   6.059
12630SOL     OW50838   7.392   5.021   5.923
12630SOL    HW250839   7.348   5.062   5.998
12630SOL    HW350840   7.449   5.089   5.888
12630SOL    MW450841   7.394   5.035   5.928
12631SOL     OW50842   6.312   4.070   7.326
12631SOL    HW250843   6.322   3.996   7.266
12631SOL    HW350844   6.348   4.039   7.409
12631SOL    MW450845   6.318   4.056   7.328
12632SOL     OW50846   6.048   5.437   6.241
12632SOL    HW250847   6.080   5.525   6.219
12632SOL    HW350848   6.001   5.409   6.163
12632SOL    MW450849   6.047   5.445   6.228
12633SOL     OW50850   7.432   3.799   6.290
12633SOL    HW250851   7.486   3.750   6.352
12633SOL    HW350852   7.375   3.733   6.251
12633SOL    MW450853   7.432   3.783   6.292
12634SOL     OW50854   5.764   5.497   5.818
12634SOL    HW250855   5.793   5.587   5.810
12634SOL    HW350856   5.714   5.480   5.739
12634SOL    MW450857   5.762   5.505   5.807
12635SOL     OW50858   6.551   3.752   6.703
12635SOL    HW250859   6.510   3.830   6.665
12635SOL    HW350860   6.645   3.770   6.698
12635SOL    MW450861   6.557   3.764   6.698
12636SOL     OW50862   7.168   5.305   5.789
12636SOL    HW250863   7.216   5.374   5.835
12636SOL    HW350864   7.089   5.349   5.758
12636SOL    MW450865   7.163   5.319   5.792
12637SOL     OW50866   6.566   4.430   5.733
12637SOL    HW250867   6.568   4.377   5.654
12637SOL    HW350868   6.654   4.467   5.739
12637SOL    MW450869   6.578   4.429   5.722
12638SOL     OW50870   7.180   4.356   6.069
12638SOL    HW250871   7.219   4.356   6.156
12638SOL    HW350872   7.121   4.432   6.069
12638SOL    MW450873   7.177   4.367   6.080
12639SOL     OW50874   6.497   4.723   7.198
12639SOL    HW250875   6.474   4.703   7.288
12639SOL    HW350876   6.582   4.767   7.203
12639SOL    MW450877   6.504   4.726   7.210
12640SOL     OW50878   6.577   3.860   6.958
12640SOL    HW250879   6.583   3.822   6.871
12640SOL    HW350880   6.566   3.954   6.943
12640SOL    MW450881   6.578   3.868   6.946
12641SOL     OW50882   6.666   4.349   6.792
12641SOL    HW250883   6.741   4.378   6.739
12641SOL    HW350884   6.598   4.414   6.776
12641SOL    MW450885   6.667   4.361   6.782
12642SOL     OW50886   7.216   4.317   7.069
12642SOL    HW250887   7.197   4.226   7.048
12642SOL    HW350888   7.194   4.366   6.990
12642SOL    MW450889   7.211   4.310   7.056
12643SOL     OW50890   7.358   5.411   6.973
12643SOL    HW250891   7.286   5.373   7.024
12643SOL    HW350892   7.375   5.496   7.014
12643SOL    MW450893   7.352   5.416   6.985
12644SOL     OW50894   6.663   4.055   7.175
12644SOL    HW250895   6.629   4.094   7.094
12644SOL    HW350896   6.641   3.963   7.168
12644SOL    MW450897   6.656   4.048   7.165
12645SOL     OW50898   7.072   4.869   7.251
12645SOL    HW250899   7.154   4.910   7.281
12645SOL    HW350900   7.035   4.831   7.331
12645SOL    MW450901   7.078   4.870   7.266
12646SOL     OW50902   7.367   4.242   6.235
12646SOL    HW250903   7.456   4.211   6.252
12646SOL    HW350904   7.310   4.182   6.283
12646SOL    MW450905   7.370   4.230   6.244
12647SOL     OW50906   5.793   3.956   6.264
12647SOL    HW250907   5.784   3.896   6.190
12647SOL    HW350908   5.726   3.927   6.327
12647SOL    MW450909   5.783   3.943   6.262
12648SOL     OW50910   6.736   5.049   5.825
12648SOL    HW250911   6.686   5.051   5.907
12648SOL    HW350912   6.670   5.067   5.757
12648SOL    MW450913   6.722   5.051   5.827
12649SOL     OW50914   5.740   4.129   6.627
12649SOL    HW250915   5.712   4.220   6.636
12649SOL    HW350916   5.677   4.090   6.566
12649SOL    MW450917   5.727   4.135   6.621
12650SOL     OW50918   6.199   5.467   5.933
12650SOL    HW250919   6.120   5.425   5.966
12650SOL    HW350920   6.265   5.450   6.000
12650SOL    MW450921   6.198   5.459   5.946
12651SOL     OW50922   7.327   4.987   7.330
12651SOL    HW250923   7.377   4.913   7.362
12651SOL    HW350924   7.273   5.014   7.405
12651SOL    MW450925   7.327   4.981   7.343
12652SOL     OW50926   6.335   4.882   5.640
12652SOL    HW250927   6.257   4.828   5.627
12652SOL    HW350928   6.306   4.955   5.693
12652SOL    MW450929   6.321   4.884   5.645
12653SOL     OW50930   7.461   4.622   6.832
12653SOL    HW250931   7.477   4.660   6.745
12653SOL    HW350932   7.495   4.688   6.893
12653SOL    MW450933   7.468   4.635   6.828
12654SOL     OW50934   7.253   5.331   6.501
12654SOL    HW250935   7.282   5.398   6.562
12654SOL    HW350936   7.234   5.255   6.556
12654SOL    MW450937   7.255   5.331   6.516
12655SOL     OW50938   6.916   5.398   5.708
12655SOL    HW250939   6.842   5.361   5.758
12655SOL    HW350940   6.924   5.488   5.741
12655SOL    MW450941   6.907   5.405   5.720
12656SOL     OW50942   5.724   4.404   6.797
12656SOL    HW250943   5.786   4.434   6.863
12656SOL    HW350944   5.658   4.473   6.791
12656SOL    MW450945   5.723   4.417   6.804
12657SOL     OW50946   7.140   5.072   5.650
12657SOL    HW250947   7.087   5.121   5.586
12657SOL    HW350948   7.171   5.138   5.711
12657SOL    MW450949   7.138   5.086   5.648
12658SOL     OW50950   6.365   3.961   5.705
12658SOL    HW250951   6.313   3.881   5.693
12658SOL    HW350952   6.452   3.938   5.673
12658SOL    MW450953   6.368   3.947   5.699
12659SOL     OW50954   5.819   5.513   7.249
12659SOL    HW250955   5.793   5.581   7.187
12659SOL    HW350956   5.867   5.450   7.197
12659SOL    MW450957   5.821   5.513   7.235
12660SOL     OW50958   5.871   4.832   6.756
12660SOL    HW250959   5.924   4.907   6.781
12660SOL    HW350960   5.790   4.870   6.722
12660SOL    MW450961   5.867   4.847   6.756
12661SOL     OW50962   6.411   4.736   6.744
12661SOL    HW250963   6.439   4.645   6.756
12661SOL    HW350964   6.340   4.730   6.680
12661SOL    MW450965   6.404   4.724   6.739
12662SOL     OW50966   5.726   4.601   6.162
12662SOL    HW250967   5.817   4.616   6.189
12662SOL    HW350968   5.729   4.522   6.108
12662SOL    MW450969   5.738   4.593   6.160
12663SOL     OW50970   5.962   4.309   7.416
12663SOL    HW250971   5.909   4.389   7.423
12663SOL    HW350972   6.032   4.321   7.481
12663SOL    MW450973   5.964   4.322   7.424
12664SOL     OW50974   6.348   3.859   7.123
12664SOL    HW250975   6.325   3.767   7.125
12664SOL    HW350976   6.434   3.861   7.080
12664SOL    MW450977   6.355   3.849   7.119
12665SOL     OW50978   6.032   4.383   7.162
12665SOL    HW250979   6.112   4.433   7.148
12665SOL    HW350980   6.023   4.377   7.257
12665SOL    MW450981   6.041   4.389   7.172
12666SOL     OW50982   6.353   5.533   6.536
12666SOL    HW250983   6.442   5.548   6.566
12666SOL    HW350984   6.348   5.580   6.452
12666SOL    MW450985   6.363   5.541   6.529
12667SOL     OW50986   7.009   3.908   7.433
12667SOL    HW250987   7.065   3.835   7.459
12667SOL    HW350988   6.979   3.946   7.515
12667SOL    MW450989   7.013   3.903   7.446
12668SOL     OW50990   5.734   5.213   6.201
12668SOL    HW250991   5.706   5.252   6.283
12668SOL    HW350992   5.754   5.122   6.223
12668SOL    MW450993   5.732   5.205   6.214
12669SOL     OW50994   6.567   5.256   6.236
12669SOL    HW250995   6.650   5.210   6.220
12669SOL    HW350996   6.557   5.255   6.332
12669SOL    MW450997   6.577   5.249   6.246
12670SOL     OW50998   7.399   4.401   6.550
12670SOL    HW250999   7.488   4.431   6.532
12670SOL    HW351000   7.379   4.341   6.479
12670SOL    MW451001   7.408   4.398   6.539
12671SOL     OW51002   7.250   4.580   7.430
12671SOL    HW251003   7.305   4.504   7.411
12671SOL    HW351004   7.252   4.588   7.525
12671SOL    MW451005   7.258   4.571   7.438
12672SOL     OW51006   6.300   5.313   5.641
12672SOL    HW251007   6.240   5.382   5.611
12672SOL    HW351008   6.245   5.255   5.694
12672SOL    MW451009   6.284   5.315   5.643
12673SOL     OW51010   6.738   3.958   5.864
12673SOL    HW251011   6.671   3.934   5.801
12673SOL    HW351012   6.803   4.007   5.813
12673SOL    MW451013   6.738   3.960   5.849
12674SOL     OW51014   6.545   4.142   6.949
12674SOL    HW251015   6.464   4.183   6.977
12674SOL    HW351016   6.592   4.210   6.901
12674SOL    MW451017   6.540   4.157   6.947
12675SOL     OW51018   6.805   4.480   6.572
12675SOL    HW251019   6.818   4.574   6.582
12675SOL    HW351020   6.766   4.470   6.486
12675SOL    MW451021   6.801   4.491   6.562
12676SOL     OW51022   6.257   4.675   6.376
12676SOL    HW251023   6.168   4.666   6.409
12676SOL    HW351024   6.261   4.765   6.344
12676SOL    MW451025   6.246   4.686   6.376
12677SOL     OW51026   7.056   4.258   6.371
12677SOL    HW251027   7.001   4.179   6.370
12677SOL    HW351028   7.038   4.299   6.455
12677SOL    MW451029   7.046   4.253   6.380
12678SOL     OW51030   6.027   3.945   7.188
12678SOL    HW251031   5.948   3.963   7.240
12678SOL    HW351032   6.022   4.007   7.115
12678SOL    MW451033   6.017   3.955   7.185
12679SOL     OW51034   6.675   4.462   6.328
12679SOL    HW251035   6.612   4.394   6.352
12679SOL    HW351036   6.695   4.443   6.236
12679SOL    MW451037   6.669   4.449   6.320
12680SOL     OW51038   5.931   5.357   6.030
12680SOL    HW251039   5.892   5.404   5.956
12680SOL    HW351040   5.865   5.292   6.055
12680SOL    MW451041   5.918   5.355   6.024
12681SOL     OW51042   6.423   4.766   6.054
12681SOL    HW251043   6.425   4.740   5.961
12681SOL    HW351044   6.481   4.703   6.097
12681SOL    MW451045   6.431   4.755   6.048
12682SOL     OW51046   6.976   5.326   6.826
12682SOL    HW251047   6.901   5.372   6.864
12682SOL    HW351048   6.958   5.233   6.843
12682SOL    MW451049   6.965   5.320   6.834
12683SOL     OW51050   6.980   5.534   6.256
12683SOL    HW251051   6.923   5.487   6.195
12683SOL    HW351052   7.066   5.495   6.243
12683SOL    MW451053   6.983   5.525   6.246
12684SOL     OW51054   6.933   4.010   6.387
12684SOL    HW251055   6.961   3.942   6.448
12684SOL    HW351056   6.847   3.981   6.357
12684SOL    MW451057   6.926   3.997   6.391
12685SOL     OW51058   5.738   4.944   6.321
12685SOL    HW251059   5.802   4.976   6.384
12685SOL    HW351060   5.787   4.880   6.269
12685SOL    MW451061   5.753   4.940   6.322
12686SOL     OW51062   5.814   5.262   7.443
12686SOL    HW251063   5.870   5.186   7.458
12686SOL    HW351064   5.763   5.240   7.365
12686SOL    MW451065   5.814   5.249   7.434
12687SOL     OW51066   6.913   4.114   5.722
12687SOL    HW251067   6.886   4.180   5.658
12687SOL    HW351068   6.983   4.157   5.772
12687SOL    MW451069   6.918   4.127   5.719
12688SOL     OW51070   6.581   3.819   5.659
12688SOL    HW251071   6.637   3.811   5.581
12688SOL    HW351072   6.558   3.729   5.681
12688SOL    MW451073   6.586   3.806   5.652
12689SOL     OW51074   7.086   4.670   5.864
12689SOL    HW251075   7.053   4.759   5.854
12689SOL    HW351076   7.051   4.641   5.949
12689SOL    MW451077   7.076   4.679   5.875
12690SOL     OW51078   6.699   5.099   7.052
12690SOL    HW251079   6.610   5.105   7.020
12690SOL    HW351080   6.743   5.178   7.020
12690SOL    MW451081   6.694   5.109   7.044
12691SOL     OW51082   6.016   5.257   6.693
12691SOL    HW251083   6.061   5.319   6.750
12691SOL    HW351084   5.923   5.276   6.706
12691SOL    MW451085   6.009   5.267   6.700
12692SOL     OW51086   7.456   4.786   7.047
12692SOL    HW251087   7.371   4.799   7.006
12692SOL    HW351088   7.436   4.750   7.134
12692SOL    MW451089   7.443   4.782   7.052
12693SOL     OW51090   6.438   5.325   6.801
12693SOL    HW251091   6.462   5.314   6.710
12693SOL    HW351092   6.361   5.382   6.799
12693SOL    MW451093   6.430   5.330   6.790
12694SOL     OW51094   6.080   4.708   5.656
12694SOL    HW251095   6.003   4.721   5.712
12694SOL    HW351096   6.044   4.672   5.575
12694SOL    MW451097   6.066   4.704   5.653
12695SOL     OW51098   6.733   4.681   5.899
12695SOL    HW251099   6.643   4.702   5.874
12695SOL    HW351100   6.760   4.754   5.955
12695SOL    MW451101   6.725   4.693   5.902
12696SOL     OW51102   6.233   5.030   6.591
12696SOL    HW251103   6.226   5.009   6.685
12696SOL    HW351104   6.151   4.998   6.554
12696SOL    MW451105   6.221   5.024   6.598
12697SOL     OW51106   7.097   4.040   6.993
12697SOL    HW251107   7.044   4.042   7.073
12697SOL    HW351108   7.082   3.953   6.956
12697SOL    MW451109   7.089   4.030   6.998
12698SOL     OW51110   7.433   3.964   6.866
12698SOL    HW251111   7.414   4.031   6.801
12698SOL    HW351112   7.490   3.902   6.821
12698SOL    MW451113   7.437   3.965   6.852
12699SOL     OW51114   5.679   5.122   7.254
12699SOL    HW251115   5.723   5.055   7.200
12699SOL    HW351116   5.594   5.084   7.274
12699SOL    MW451117   5.674   5.108   7.250
12700SOL     OW51118   6.362   3.797   6.306
12700SOL    HW251119   6.291   3.858   6.288
12700SOL    HW351120   6.413   3.794   6.225
12700SOL    MW451121   6.358   3.803   6.293
12701SOL     OW51122   6.120   5.037   6.055
12701SOL    HW251123   6.113   5.069   6.145
12701SOL    HW351124   6.030   5.021   6.027
12701SOL    MW451125   6.108   5.039   6.062
12702SOL     OW51126   6.715   5.430   6.964
12702SOL    HW251127   6.635   5.415   6.914
12702SOL    HW351128   6.722   5.525   6.971
12702SOL    MW451129   6.706   5.441   6.958
12703SOL     OW51130   6.829   5.395   6.454
12703SOL    HW251131   6.876   5.468   6.413
12703SOL    HW351132   6.750   5.434   6.490
12703SOL    MW451133   6.824   5.410   6.453
12704SOL     OW51134   7.237   5.490   6.729
12704SOL    HW251135   7.280   5.460   6.809
12704SOL    HW351136   7.156   5.438   6.726
12704SOL    MW451137   7.232   5.479   6.739
12705SOL     OW51138   6.322   4.454   7.436
12705SOL    HW251139   6.392   4.396   7.408
12705SOL    HW351140   6.265   4.399   7.491
12705SOL    MW451141   6.324   4.441   7.440
12706SOL     OW51142   7.109   4.666   7.069
12706SOL    HW251143   7.114   4.719   7.149
12706SOL    HW351144   7.071   4.583   7.097
12706SOL    MW451145   7.105   4.661   7.084
12707SOL     OW51146   6.749   3.801   7.315
12707SOL    HW251147   6.744   3.708   7.296
12707SOL    HW351148   6.832   3.812   7.361
12707SOL    MW451149   6.757   3.790   7.319
12708SOL     OW51150   6.123   4.321   5.769
12708SOL    HW251151   6.089   4.377   5.839
12708SOL    HW351152   6.194   4.271   5.809
12708SOL    MW451153   6.129   4.322   5.783
12709SOL     OW51154   7.219   5.072   6.591
12709SOL    HW251155   7.254   5.054   6.504
12709SOL    HW351156   7.124   5.073   6.578
12709SOL    MW451157   7.211   5.069   6.578
12710SOL     OW51158   6.648   4.720   6.960
12710SOL    HW251159   6.691   4.755   7.038
12710SOL    HW351160   6.631   4.797   6.906
12710SOL    MW451161   6.651   4.735   6.963
12711SOL     OW51162   7.179   4.207   5.833
12711SOL    HW251163   7.171   4.278   5.770
12711SOL    HW351164   7.197   4.251   5.916
12711SOL    MW451165   7.180   4.221   5.835
12712SOL     OW51166   6.039   3.862   6.262
12712SOL    HW251167   6.089   3.905   6.193
12712SOL    HW351168   5.954   3.906   6.262
12712SOL    MW451169   6.036   3.875   6.253
12713SOL     OW51170   5.798   4.924   7.122
12713SOL    HW251171   5.826   4.877   7.200
12713SOL    HW351172   5.719   4.879   7.093
12713SOL    MW451173   5.791   4.913   7.128
12714SOL     OW51174   6.306   4.251   7.089
12714SOL    HW251175   6.278   4.339   7.113
12714SOL    HW351176   6.275   4.195   7.160
12714SOL    MW451177   6.298   4.254   7.101
12715SOL     OW51178   6.848   4.469   5.808
12715SOL    HW251179   6.895   4.487   5.727
12715SOL    HW351180   6.814   4.553   5.836
12715SOL    MW451181   6.850   4.483   5.801
12716SOL     OW51182   5.961   4.647   6.302
12716SOL    HW251183   6.019   4.703   6.250
12716SOL    HW351184   6.005   4.562   6.304
12716SOL    MW451185   5.974   4.644   6.295
12717SOL     OW51186   7.101   3.999   6.139
12717SOL    HW251187   7.023   3.949   6.164
12717SOL    HW351188   7.072   4.090   6.139
12717SOL    MW451189   7.087   4.003   6.142
12718SOL     OW51190   6.687   3.961   6.298
12718SOL    HW251191   6.707   4.036   6.242
12718SOL    HW351192   6.667   4.000   6.383
12718SOL    MW451193   6.688   3.977   6.302
12719SOL     OW51194   6.583   5.211   5.630
12719SOL    HW251195   6.610   5.289   5.582
12719SOL    HW351196   6.490   5.226   5.649
12719SOL    MW451197   6.574   5.224   5.626
12720SOL     OW51198   7.447   4.734   7.317
12720SOL    HW251199   7.360   4.714   7.353
12720SOL    HW351200   7.501   4.660   7.342
12720SOL    MW451201   7.442   4.723   7.325
12721SOL     OW51202   5.668   5.247   6.474
12721SOL    HW251203   5.700   5.251   6.565
12721SOL    HW351204   5.573   5.255   6.482
12721SOL    MW451205   5.660   5.250   6.487
12722SOL     OW51206   5.623   4.373   6.021
12722SOL    HW251207   5.563   4.345   6.091
12722SOL    HW351208   5.697   4.313   6.027
12722SOL    MW451209   5.625   4.362   6.030
12723SOL     OW51210   7.191   5.585   7.455
12723SOL    HW251211   7.236   5.509   7.420
12723SOL    HW351212   7.229   5.598   7.542
12723SOL    MW451213   7.201   5.578   7.461
12724SOL     OW51214   6.791   5.104   6.181
12724SOL    HW251215   6.814   5.055   6.259
12724SOL    HW351216   6.872   5.146   6.153
12724SOL    MW451217   6.804   5.104   6.188
12725SOL     OW51218   6.049   4.112   6.910
12725SOL    HW251219   6.082   4.193   6.950
12725SOL    HW351220   6.022   4.138   6.822
12725SOL    MW451221   6.048   4.126   6.904
12726SOL     OW51222   6.003   4.079   6.646
12726SOL    HW251223   6.033   3.993   6.617
12726SOL    HW351224   5.908   4.072   6.649
12726SOL    MW451225   5.995   4.068   6.644
12727SOL     OW51226   6.832   4.288   7.337
12727SOL    HW251227   6.884   4.223   7.290
12727SOL    HW351228   6.790   4.339   7.267
12727SOL    MW451229   6.833   4.285   7.320
12728SOL     OW51230   6.931   4.083   7.198
12728SOL    HW251231   6.838   4.067   7.185
12728SOL    HW351232   6.957   4.021   7.266
12728SOL    MW451233   6.921   4.073   7.205
12729SOL     OW51234   6.146   3.857   6.537
12729SOL    HW251235   6.156   3.766   6.563
12729SOL    HW351236   6.102   3.853   6.452
12729SOL    MW451237   6.142   3.845   6.529
12730SOL     OW51238   6.240   5.472   7.083
12730SOL    HW251239   6.157   5.457   7.128
12730SOL    HW351240   6.299   5.405   7.118
12730SOL    MW451241   6.238   5.462   7.093
12731SOL     OW51242   7.297   4.179   6.708
12731SOL    HW251243   7.230   4.212   6.768
12731SOL    HW351244   7.340   4.257   6.674
12731SOL    MW451245   7.295   4.194   6.712
12732SOL     OW51246   7.475   4.899   6.678
12732SOL    HW251247   7.468   4.839   6.603
12732SOL    HW351248   7.401   4.959   6.667
12732SOL    MW451249   7.465   4.899   6.667
12733SOL     OW51250   6.857   4.761   6.596
12733SOL    HW251251   6.871   4.733   6.687
12733SOL    HW351252   6.943   4.792   6.568
12733SOL    MW451253   6.870   4.762   6.605
12734SOL     OW51254   6.940   4.256   6.875
12734SOL    HW251255   6.961   4.257   6.782
12734SOL    HW351256   6.985   4.178   6.908
12734SOL    MW451257   6.947   4.246   6.867
12735SOL     OW51258   7.433   4.387   7.417
12735SOL    HW251259   7.470   4.332   7.486
12735SOL    HW351260   7.458   4.344   7.335
12735SOL    MW451261   7.440   4.375   7.416
12736SOL     OW51262   6.980   4.685   7.468
12736SOL    HW251263   7.046   4.633   7.422
12736SOL    HW351264   7.000   4.672   7.561
12736SOL    MW451265   6.991   4.676   7.475
12737SOL     OW51266   6.931   3.771   5.817
12737SOL    HW251267   7.005   3.815   5.860
12737SOL    HW351268   6.855   3.825   5.839
12737SOL    MW451269   6.931   3.783   5.825
12738SOL     OW51270   6.991   4.546   6.095
12738SOL    HW251271   6.906   4.516   6.065
12738SOL    HW351272   6.983   4.553   6.190
12738SOL    MW451273   6.979   4.544   6.104
12739SOL     OW51274   6.067   5.009   6.826
12739SOL    HW251275   6.079   5.036   6.917
12739SOL    HW351276   6.048   5.090   6.779
12739SOL    MW451277   6.066   5.024   6.831
12740SOL     OW51278   6.351   3.989   6.649
12740SOL    HW251279   6.324   3.991   6.740
12740SOL    HW351280   6.281   3.941   6.604
12740SOL    MW451281   6.339   3.985   6.656
12741SOL     OW51282   6.205   5.481   6.811
12741SOL    HW251283   6.257   5.558   6.788
12741SOL    HW351284   6.214   5.473   6.906
12741SOL    MW451285   6.214   5.488   6.822
12742SOL     OW51286   7.107   5.066   7.043
12742SOL    HW251287   7.092   4.995   7.106
12742SOL    HW351288   7.153   5.024   6.971
12742SOL    MW451289   7.113   5.050   7.043
12743SOL     OW51290   6.181   4.797   7.160
12743SOL    HW251291   6.218   4.802   7.072
12743SOL    HW351292   6.220   4.870   7.207
12743SOL    MW451293   6.191   4.807   7.155
12744SOL     OW51294   6.361   4.840   6.972
12744SOL    HW251295   6.420   4.786   7.025
12744SOL    HW351296   6.376   4.812   6.882
12744SOL    MW451297   6.371   4.829   6.968
12745SOL     OW51298   6.364   4.212   5.821
12745SOL    HW251299   6.437   4.261   5.784
12745SOL    HW351300   6.380   4.121   5.795
12745SOL    MW451301   6.376   4.207   5.814
12746SOL     OW51302   7.172   5.329   7.144
12746SOL    HW251303   7.214   5.314   7.229
12746SOL    HW351304   7.163   5.242   7.106
12746SOL    MW451305   7.176   5.317   7.151
12747SOL     OW51306   6.832   3.808   6.735
12747SOL    HW251307   6.887   3.817   6.657
12747SOL    HW351308   6.887   3.842   6.806
12747SOL    MW451309   6.846   3.813   6.734
12748SOL     OW51310   5.839   4.721   5.919
12748SOL    HW251311   5.776   4.737   5.848
12748SOL    HW351312   5.786   4.684   5.990
12748SOL    MW451313   5.824   4.718   5.919
12749SOL     OW51314   6.195   5.075   5.778
12749SOL    HW251315   6.210   5.051   5.870
12749SOL    HW351316   6.103   5.053   5.762
12749SOL    MW451317   6.185   5.068   5.788
12750SOL     OW51318   6.734   5.306   5.930
12750SOL    HW251319   6.742   5.224   5.881
12750SOL    HW351320   6.653   5.345   5.897
12750SOL    MW451321   6.724   5.301   5.920
12751SOL     OW51322   5.993   5.464   6.499
12751SOL    HW251323   5.997   5.375   6.534
12751SOL    HW351324   6.019   5.455   6.408
12751SOL    MW451325   5.996   5.452   6.491
12752SOL     OW51326   6.610   4.942   6.742
12752SOL    HW251327   6.542   4.876   6.758
12752SOL    HW351328   6.628   4.936   6.649
12752SOL    MW451329   6.603   4.933   6.733
12753SOL     OW51330   5.699   5.217   6.993
12753SOL    HW251331   5.689   5.175   7.079
12753SOL    HW351332   5.620   5.270   6.983
12753SOL    MW451333   5.688   5.218   7.004
12754SOL     OW51334   6.603   4.081   6.563
12754SOL    HW251335   6.533   4.033   6.608
12754SOL    HW351336   6.635   4.144   6.627
12754SOL    MW451337   6.598   4.083   6.577
12755SOL     OW51338   6.254   4.517   7.183
12755SOL    HW251339   6.247   4.612   7.171
12755SOL    HW351340   6.263   4.506   7.278
12755SOL    MW451341   6.255   4.529   7.193
12756SOL     OW51342   5.975   5.032   7.441
12756SOL    HW251343   6.047   5.034   7.378
12756SOL    HW351344   5.945   4.941   7.440
12756SOL    MW451345   5.980   5.021   7.433
12757SOL     OW51346   7.059   3.795   6.908
12757SOL    HW251347   7.130   3.741   6.872
12757SOL    HW351348   7.058   3.774   7.001
12757SOL    MW451349   7.068   3.786   6.916
12758SOL     OW51350   7.259   5.325   7.392
12758SOL    HW251351   7.232   5.322   7.483
12758SOL    HW351352   7.355   5.329   7.395
12758SOL    MW451353   7.269   5.325   7.404
12759SOL     OW51354   6.070   4.187   6.376
12759SOL    HW251355   6.141   4.135   6.339
12759SOL    HW351356   6.056   4.152   6.463
12759SOL    MW451357   6.078   4.176   6.383
12760SOL     OW51358   5.625   5.522   7.448
12760SOL    HW251359   5.675   5.500   7.370
12760SOL    HW351360   5.633   5.617   7.456
12760SOL    MW451361   5.633   5.531   7.439
12761SOL     OW51362   6.386   5.280   6.452
12761SOL    HW251363   6.314   5.217   6.465
12761SOL    HW351364   6.347   5.365   6.470
12761SOL    MW451365   6.370   5.283   6.455
12762SOL     OW51366   6.706   4.128   6.100
12762SOL    HW251367   6.728   4.065   6.032
12762SOL    HW351368   6.611   4.120   6.111
12762SOL    MW451369   6.696   4.119   6.092
12763SOL     OW51370   5.791   3.818   6.032
12763SOL    HW251371   5.862   3.839   5.971
12763SOL    HW351372   5.745   3.746   5.990
12763SOL    MW451373   5.795   3.812   6.018
12764SOL     OW51374   5.622   4.285   7.175
12764SOL    HW251375   5.686   4.351   7.150
12764SOL    HW351376   5.541   4.312   7.132
12764SOL    MW451377   5.620   4.297   7.167
12765SOL     OW51378   7.360   5.192   6.132
12765SOL    HW251379   7.330   5.125   6.193
12765SOL    HW351380   7.454   5.198   6.146
12765SOL    MW451381   7.368   5.184   6.142
12766SOL     OW51382   6.916   4.869   6.062
12766SOL    HW251383   6.888   4.955   6.095
12766SOL    HW351384   6.944   4.885   5.972
12766SOL    MW451385   6.916   4.883   6.054
12767SOL     OW51386   6.578   3.789   6.115
12767SOL    HW251387   6.615   3.848   6.180
12767SOL    HW351388   6.555   3.845   6.041
12767SOL    MW451389   6.579   3.804   6.114
12768SOL     OW51390   7.431   4.671   6.537
12768SOL    HW251391   7.422   4.703   6.448
12768SOL    HW351392   7.384   4.587   6.537
12768SOL    MW451393   7.424   4.664   6.527
12769SOL     OW51394   5.807   4.511   7.116
12769SOL    HW251395   5.828   4.580   7.054
12769SOL    HW351396   5.887   4.458   7.121
12769SOL    MW451397   5.820   4.512   7.110
12770SOL     OW51398   7.343   4.602   6.238
12770SOL    HW251399   7.437   4.591   6.226
12770SOL    HW351400   7.319   4.674   6.179
12770SOL    MW451401   7.353   4.610   6.229
12771SOL     OW51402   5.792   4.526   7.383
12771SOL    HW251403   5.718   4.470   7.409
12771SOL    HW351404   5.787   4.529   7.288
12771SOL    MW451405   5.781   4.519   7.373
12772SOL     OW51406   5.958   3.813   6.833
12772SOL    HW251407   6.001   3.897   6.853
12772SOL    HW351408   6.031   3.751   6.826
12772SOL    MW451409   5.973   3.816   6.834
12773SOL     OW51410   5.999   4.480   6.011
12773SOL    HW251411   5.999   4.575   5.996
12773SOL    HW351412   6.076   4.464   6.065
12773SOL    MW451413   6.009   4.491   6.016
12774SOL     OW51414   6.775   4.339   7.075
12774SOL    HW251415   6.811   4.312   6.991
12774SOL    HW351416   6.688   4.373   7.054
12774SOL    MW451417   6.769   4.340   7.062
12775SOL     OW51418   5.758   4.211   6.300
12775SOL    HW251419   5.820   4.218   6.373
12775SOL    HW351420   5.758   4.118   6.277
12775SOL    MW451421   5.766   4.200   6.307
12776SOL     OW51422   7.305   5.551   5.832
12776SOL    HW251423   7.372   5.584   5.772
12776SOL    HW351424   7.262   5.630   5.866
12776SOL    MW451425   7.307   5.566   5.828
12777SOL     OW51426   6.440   4.472   6.784
12777SOL    HW251427   6.398   4.390   6.760
12777SOL    HW351428   6.441   4.471   6.880
12777SOL    MW451429   6.433   4.461   6.793
12778SOL     OW51430   7.111   5.605   7.183
12778SOL    HW251431   7.114   5.511   7.166
12778SOL    HW351432   7.134   5.613   7.275
12778SOL    MW451433   7.114   5.593   7.193
12779SOL     OW51434   6.244   3.942   6.889
12779SOL    HW251435   6.175   4.005   6.910
12779SOL    HW351436   6.271   3.906   6.974
12779SOL    MW451437   6.238   3.945   6.902
12780SOL     OW51438   5.627   4.783   5.758
12780SOL    HW251439   5.596   4.848   5.821
12780SOL    HW351440   5.576   4.705   5.777
12780SOL    MW451441   5.617   4.780   5.768
12781SOL     OW51442   7.039   3.795   6.506
12781SOL    HW251443   7.127   3.804   6.543
12781SOL    HW351444   7.049   3.736   6.432
12781SOL    MW451445   7.053   3.789   6.500
12782SOL     OW51446   7.071   4.534   6.350
12782SOL    HW251447   7.151   4.549   6.299
12782SOL    HW351448   7.064   4.439   6.356
12782SOL    MW451449   7.080   4.523   6.345
12783SOL     OW51450   6.211   5.583   5.700
12783SOL    HW251451   6.116   5.583   5.692
12783SOL    HW351452   6.227   5.529   5.778
12783SOL    MW451453   6.201   5.577   5.709
12784SOL     OW51454   6.521   4.460   7.047
12784SOL    HW251455   6.590   4.527   7.044
12784SOL    HW351456   6.454   4.498   7.103
12784SOL    MW451457   6.522   4.473   7.054
12785SOL     OW51458   5.939   4.760   7.295
12785SOL    HW251459   5.893   4.676   7.297
12785SOL    HW351460   5.996   4.754   7.219
12785SOL    MW451461   5.941   4.748   7.287
12786SOL     OW51462   7.056   4.403   5.615
12786SOL    HW251463   6.984   4.379   5.557
12786SOL    HW351464   7.122   4.440   5.557
12786SOL    MW451465   7.055   4.405   5.600
12787SOL     OW51466   6.190   5.135   6.296
12787SOL    HW251467   6.255   5.068   6.317
12787SOL    HW351468   6.242   5.212   6.273
12787SOL    MW451469   6.205   5.137   6.295
12788SOL     OW51470   6.451   4.300   6.426
12788SOL    HW251471   6.391   4.318   6.498
12788SOL    HW351472   6.485   4.212   6.445
12788SOL    MW451473   6.447   4.290   6.439
12789SOL     OW51474   7.392   3.799   7.095
12789SOL    HW251475   7.313   3.845   7.123
12789SOL    HW351476   7.427   3.853   7.024
12789SOL    MW451477   7.386   3.812   7.089
12790SOL     OW51478   6.676   4.883   6.445
12790SOL    HW251479   6.768   4.864   6.463
12790SOL    HW351480   6.649   4.813   6.385
12790SOL    MW451481   6.684   4.871   6.439
12791SOL     OW51482   6.469   4.703   5.800
12791SOL    HW251483   6.455   4.615   5.765
12791SOL    HW351484   6.420   4.760   5.741
12791SOL    MW451485   6.461   4.698   5.788
12792SOL     OW51486   6.950   5.121   6.541
12792SOL    HW251487   6.923   5.205   6.506
12792SOL    HW351488   6.910   5.116   6.628
12792SOL    MW451489   6.943   5.130   6.547
12793SOL     OW51490   6.869   5.069   6.809
12793SOL    HW251491   6.880   5.036   6.898
12793SOL    HW351492   6.788   5.028   6.778
12793SOL    MW451493   6.859   5.061   6.815
12794SOL     OW51494   5.882   4.427   6.579
12794SOL    HW251495   5.832   4.426   6.660
12794SOL    HW351496   5.902   4.519   6.563
12794SOL    MW451497   5.878   4.439   6.587
12795SOL     OW51498   6.949   5.191   7.341
12795SOL    HW251499   6.949   5.285   7.357
12795SOL    HW351500   6.994   5.181   7.257
12795SOL    MW451501   6.955   5.201   7.332
12796SOL     OW51502   7.188   3.909   5.902
12796SOL    HW251503   7.181   3.913   5.997
12796SOL    HW351504   7.200   4.000   5.875
12796SOL    MW451505   7.189   3.922   5.910
12797SOL     OW51506   6.477   4.472   6.016
12797SOL    HW251507   6.457   4.458   5.923
12797SOL    HW351508   6.570   4.451   6.023
12797SOL    MW451509   6.487   4.467   6.005
12798SOL     OW51510   5.804   4.095   7.320
12798SOL    HW251511   5.761   4.154   7.257
12798SOL    HW351512   5.872   4.150   7.360
12798SOL    MW451513   5.808   4.110   7.317
12799SOL     OW51514   6.916   4.715   6.865
12799SOL    HW251515   6.979   4.712   6.938
12799SOL    HW351516   6.832   4.733   6.907
12799SOL    MW451517   6.912   4.717   6.880
12800SOL     OW51518   6.460   5.430   6.054
12800SOL    HW251519   6.518   5.501   6.081
12800SOL    HW351520   6.483   5.358   6.112
12800SOL    MW451521   6.471   5.430   6.065
12801SOL     OW51522   5.703   3.735   6.743
12801SOL    HW251523   5.694   3.736   6.648
12801SOL    HW351524   5.797   3.747   6.758
12801SOL    MW451525   5.715   3.738   6.734
12802SOL     OW51526   7.340   4.928   6.363
12802SOL    HW251527   7.319   4.874   6.286
12802SOL    HW351528   7.436   4.926   6.367
12802SOL    MW451529   7.349   4.921   6.352
12803SOL     OW51530   6.032   5.073   7.106
12803SOL    HW251531   5.953   5.023   7.129
12803SOL    HW351532   6.102   5.032   7.156
12803SOL    MW451533   6.030   5.061   7.116
12804SOL     OW51534   5.916   3.862   5.789
12804SOL    HW251535   5.845   3.917   5.757
12804SOL    HW351536   5.958   3.828   5.710
12804SOL    MW451537   5.912   3.864   5.775
12805SOL     OW51538   7.040   4.359   6.625
12805SOL    HW251539   6.963   4.405   6.591
12805SOL    HW351540   7.097   4.428   6.659
12805SOL    MW451541   7.037   4.374   6.625
12806SOL     OW51542   5.672   3.961   5.638
12806SOL    HW251543   5.639   4.040   5.682
12806SOL    HW351544   5.727   3.994   5.567
12806SOL    MW451545   5.675   3.975   5.635
12807SOL     OW51546   5.706   5.218   5.827
12807SOL    HW251547   5.723   5.302   5.869
12807SOL    HW351548   5.741   5.227   5.739
12807SOL    MW451549   5.711   5.231   5.821
12808SOL     OW51550   6.978   5.307   6.044
12808SOL    HW251551   7.041   5.297   5.973
12808SOL    HW351552   6.895   5.327   5.999
12808SOL    MW451553   6.975   5.308   6.029
12809SOL     OW51554   7.341   6.444   0.257
12809SOL    HW251555   7.382   6.386   0.322
12809SOL    HW351556   7.248   6.436   0.274
12809SOL    MW451557   7.335   6.436   0.267
12810SOL     OW51558   7.207   6.376   1.252
12810SOL    HW251559   7.162   6.443   1.303
12810SOL    HW351560   7.295   6.412   1.238
12810SOL    MW451561   7.213   6.389   1.256
12811SOL     OW51562   6.135   6.627   0.486
12811SOL    HW251563   6.225   6.602   0.470
12811SOL    HW351564   6.131   6.720   0.463
12811SOL    MW451565   6.147   6.636   0.481
12812SOL     OW51566   7.251   7.330   0.628
12812SOL    HW251567   7.263   7.276   0.706
12812SOL    HW351568   7.288   7.278   0.557
12812SOL    MW451569   7.257   7.315   0.629
12813SOL     OW51570   6.630   7.215   1.629
12813SOL    HW251571   6.671   7.251   1.550
12813SOL    HW351572   6.665   7.126   1.636
12813SOL    MW451573   6.641   7.208   1.620
12814SOL     OW51574   7.187   6.770   1.233
12814SOL    HW251575   7.108   6.735   1.191
12814SOL    HW351576   7.214   6.842   1.177
12814SOL    MW451577   7.180   6.775   1.220
12815SOL     OW51578   6.419   6.083   0.499
12815SOL    HW251579   6.394   6.171   0.527
12815SOL    HW351580   6.416   6.086   0.403
12815SOL    MW451581   6.415   6.095   0.491
12816SOL     OW51582   5.861   6.111   0.427
12816SOL    HW251583   5.893   6.199   0.409
12816SOL    HW351584   5.849   6.109   0.522
12816SOL    MW451585   5.864   6.123   0.439
12817SOL     OW51586   5.939   6.524   1.328
12817SOL    HW251587   6.002   6.471   1.279
12817SOL    HW351588   5.920   6.598   1.271
12817SOL    MW451589   5.945   6.526   1.315
12818SOL     OW51590   6.260   5.866   0.514
12818SOL    HW251591   6.318   5.942   0.516
12818SOL    HW351592   6.195   5.887   0.447
12818SOL    MW451593   6.259   5.878   0.505
12819SOL     OW51594   6.347   6.793   0.689
12819SOL    HW251595   6.427   6.796   0.741
12819SOL    HW351596   6.375   6.760   0.603
12819SOL    MW451597   6.361   6.789   0.684
12820SOL     OW51598   6.372   7.134   1.592
12820SOL    HW251599   6.456   7.160   1.631
12820SOL    HW351600   6.396   7.078   1.518
12820SOL    MW451601   6.386   7.130   1.587
12821SOL     OW51602   6.124   6.297   0.680
12821SOL    HW251603   6.109   6.217   0.731
12821SOL    HW351604   6.206   6.332   0.714
12821SOL    MW451605   6.132   6.289   0.692
12822SOL     OW51606   6.461   6.983   1.365
12822SOL    HW251607   6.425   7.049   1.305
12822SOL    HW351608   6.389   6.921   1.378
12822SOL    MW451609   6.447   6.983   1.359
12823SOL     OW51610   6.266   6.123   1.057
12823SOL    HW251611   6.172   6.119   1.075
12823SOL    HW351612   6.296   6.032   1.066
12823SOL    MW451613   6.257   6.111   1.060
12824SOL     OW51614   6.012   6.537   0.961
12824SOL    HW251615   5.967   6.544   0.877
12824SOL    HW351616   5.992   6.620   1.005
12824SOL    MW451617   6.004   6.549   0.955
12825SOL     OW51618   5.709   7.383   0.836
12825SOL    HW251619   5.798   7.375   0.871
12825SOL    HW351620   5.673   7.295   0.841
12825SOL    MW451621   5.716   7.370   0.841
12826SOL     OW51622   6.974   6.775   0.205
12826SOL    HW251623   6.892   6.811   0.171
12826SOL    HW351624   7.042   6.818   0.154
12826SOL    MW451625   6.972   6.785   0.193
12827SOL     OW51626   5.973   6.910   0.871
12827SOL    HW251627   5.949   6.963   0.947
12827SOL    HW351628   6.029   6.968   0.819
12827SOL    MW451629   5.977   6.925   0.874
12828SOL     OW51630   6.535   6.554   0.681
12828SOL    HW251631   6.449   6.541   0.721
12828SOL    HW351632   6.588   6.481   0.713
12828SOL    MW451633   6.531   6.543   0.690
12829SOL     OW51634   5.943   7.206   1.466
12829SOL    HW251635   5.851   7.182   1.451
12829SOL    HW351636   5.987   7.123   1.483
12829SOL    MW451637   5.937   7.191   1.465
12830SOL     OW51638   6.526   6.916   0.398
12830SOL    HW251639   6.503   6.978   0.466
12830SOL    HW351640   6.483   6.834   0.424
12830SOL    MW451641   6.518   6.912   0.409
12831SOL     OW51642   7.399   5.917   0.854
12831SOL    HW251643   7.336   5.897   0.923
12831SOL    HW351644   7.389   5.846   0.791
12831SOL    MW451645   7.389   5.904   0.855
12832SOL     OW51646   6.023   5.889   0.366
12832SOL    HW251647   5.997   5.851   0.282
12832SOL    HW351648   5.960   5.959   0.382
12832SOL    MW451649   6.012   5.892   0.357
12833SOL     OW51650   5.858   6.850   0.403
12833SOL    HW251651   5.806   6.918   0.359
12833SOL    HW351652   5.855   6.776   0.343
12833SOL    MW451653   5.850   6.849   0.390
12834SOL     OW51654   6.520   7.313   0.181
12834SOL    HW251655   6.475   7.329   0.264
12834SOL    HW351656   6.451   7.278   0.123
12834SOL    MW451657   6.506   7.310   0.183
12835SOL     OW51658   7.455   6.086   0.156
12835SOL    HW251659   7.364   6.088   0.184
12835SOL    HW351660   7.500   6.148   0.214
12835SOL    MW451661   7.448   6.094   0.166
12836SOL     OW51662   7.200   6.689   0.506
12836SOL    HW251663   7.110   6.689   0.541
12836SOL    HW351664   7.193   6.735   0.423
12836SOL    MW451665   7.187   6.695   0.500
12837SOL     OW51666   7.000   6.324   1.578
12837SOL    HW251667   7.069   6.262   1.555
12837SOL    HW351668   6.925   6.298   1.525
12837SOL    MW451669   7.000   6.311   1.569
12838SOL     OW51670   5.741   7.204   1.130
12838SOL    HW251671   5.724   7.150   1.207
12838SOL    HW351672   5.729   7.294   1.160
12838SOL    MW451673   5.738   7.208   1.144
12839SOL     OW51674   6.736   6.711   1.570
12839SOL    HW251675   6.721   6.804   1.555
12839SOL    HW351676   6.831   6.701   1.570
12839SOL    MW451677   6.745   6.721   1.567
12840SOL     OW51678   6.532   6.135   1.771
12840SOL    HW251679   6.622   6.136   1.738
12840SOL    HW351680   6.491   6.060   1.729
12840SOL    MW451681   6.538   6.125   1.762
12841SOL     OW51682   7.107   6.667   0.898
12841SOL    HW251683   7.110   6.601   0.829
12841SOL    HW351684   7.192   6.710   0.894
12841SOL    MW451685   7.119   6.663   0.889
12842SOL     OW51686   6.727   6.270   0.467
12842SOL    HW251687   6.753   6.294   0.378
12842SOL    HW351688   6.709   6.177   0.463
12842SOL    MW451689   6.729   6.262   0.454
12843SOL     OW51690   7.392   6.890   0.318
12843SOL    HW251691   7.348   6.931   0.393
12843SOL    HW351692   7.449   6.958   0.283
12843SOL    MW451693   7.394   6.904   0.323
12844SOL     OW51694   6.312   5.939   1.721
12844SOL    HW251695   6.322   5.865   1.661
12844SOL    HW351696   6.348   5.908   1.804
12844SOL    MW451697   6.318   5.925   1.723
12845SOL     OW51698   6.048   7.306   0.636
12845SOL    HW251699   6.080   7.394   0.614
12845SOL    HW351700   6.001   7.278   0.558
12845SOL    MW451701   6.047   7.314   0.623
12846SOL     OW51702   7.432   5.668   0.685
12846SOL    HW251703   7.486   5.619   0.747
12846SOL    HW351704   7.375   5.602   0.646
12846SOL    MW451705   7.432   5.652   0.687
12847SOL     OW51706   5.764   7.366   0.213
12847SOL    HW251707   5.793   7.456   0.205
12847SOL    HW351708   5.714   7.349   0.134
12847SOL    MW451709   5.762   7.374   0.202
12848SOL     OW51710   6.551   5.621   1.098
12848SOL    HW251711   6.510   5.699   1.060
12848SOL    HW351712   6.645   5.639   1.093
12848SOL    MW451713   6.557   5.633   1.093
12849SOL     OW51714   7.168   7.174   0.184
12849SOL    HW251715   7.216   7.243   0.230
12849SOL    HW351716   7.089   7.218   0.153
12849SOL    MW451717   7.163   7.188   0.187
12850SOL     OW51718   6.566   6.299   0.128
12850SOL    HW251719   6.568   6.246   0.049
12850SOL    HW351720   6.654   6.336   0.134
12850SOL    MW451721   6.578   6.298   0.117
12851SOL     OW51722   7.180   6.225   0.464
12851SOL    HW251723   7.219   6.225   0.551
12851SOL    HW351724   7.121   6.301   0.464
12851SOL    MW451725   7.177   6.236   0.475
12852SOL     OW51726   6.497   6.592   1.593
12852SOL    HW251727   6.474   6.572   1.683
12852SOL    HW351728   6.582   6.636   1.598
12852SOL    MW451729   6.504   6.595   1.605
12853SOL     OW51730   6.577   5.729   1.353
12853SOL    HW251731   6.583   5.691   1.266
12853SOL    HW351732   6.566   5.823   1.338
12853SOL    MW451733   6.578   5.737   1.341
12854SOL     OW51734   6.666   6.218   1.187
12854SOL    HW251735   6.741   6.247   1.134
12854SOL    HW351736   6.598   6.283   1.171
12854SOL    MW451737   6.667   6.230   1.177
12855SOL     OW51738   7.216   6.186   1.464
12855SOL    HW251739   7.197   6.095   1.443
12855SOL    HW351740   7.194   6.235   1.385
12855SOL    MW451741   7.211   6.179   1.451
12856SOL     OW51742   7.358   7.280   1.368
12856SOL    HW251743   7.286   7.242   1.419
12856SOL    HW351744   7.375   7.365   1.409
12856SOL    MW451745   7.352   7.285   1.380
12857SOL     OW51746   7.072   6.738   1.646
12857SOL    HW251747   7.154   6.779   1.676
12857SOL    HW351748   7.035   6.700   1.726
12857SOL    MW451749   7.078   6.739   1.661
12858SOL     OW51750   7.367   6.111   0.630
12858SOL    HW251751   7.456   6.080   0.647
12858SOL    HW351752   7.310   6.051   0.678
12858SOL    MW451753   7.370   6.099   0.639
12859SOL     OW51754   5.793   5.825   0.659
12859SOL    HW251755   5.784   5.765   0.585
12859SOL    HW351756   5.726   5.796   0.722
12859SOL    MW451757   5.783   5.812   0.657
12860SOL     OW51758   6.736   6.918   0.220
12860SOL    HW251759   6.686   6.920   0.302
12860SOL    HW351760   6.670   6.936   0.152
12860SOL    MW451761   6.722   6.920   0.222
12861SOL     OW51762   5.740   5.998   1.022
12861SOL    HW251763   5.712   6.089   1.031
12861SOL    HW351764   5.677   5.959   0.961
12861SOL    MW451765   5.727   6.004   1.016
12862SOL     OW51766   6.199   7.336   0.328
12862SOL    HW251767   6.120   7.294   0.361
12862SOL    HW351768   6.265   7.319   0.395
12862SOL    MW451769   6.198   7.328   0.341
12863SOL     OW51770   7.327   6.856   1.725
12863SOL    HW251771   7.377   6.782   1.757
12863SOL    HW351772   7.273   6.883   1.800
12863SOL    MW451773   7.327   6.850   1.738
12864SOL     OW51774   6.335   6.751   0.035
12864SOL    HW251775   6.257   6.697   0.022
12864SOL    HW351776   6.306   6.824   0.088
12864SOL    MW451777   6.321   6.753   0.040
12865SOL     OW51778   7.461   6.491   1.227
12865SOL    HW251779   7.477   6.529   1.140
12865SOL    HW351780   7.495   6.557   1.288
12865SOL    MW451781   7.468   6.504   1.223
12866SOL     OW51782   7.253   7.200   0.896
12866SOL    HW251783   7.282   7.267   0.957
12866SOL    HW351784   7.234   7.124   0.951
12866SOL    MW451785   7.255   7.200   0.911
12867SOL     OW51786   6.916   7.267   0.103
12867SOL    HW251787   6.842   7.230   0.153
12867SOL    HW351788   6.924   7.357   0.136
12867SOL    MW451789   6.907   7.274   0.115
12868SOL     OW51790   5.724   6.273   1.192
12868SOL    HW251791   5.786   6.303   1.258
12868SOL    HW351792   5.658   6.342   1.186
12868SOL    MW451793   5.723   6.286   1.199
12869SOL     OW51794   7.140   6.941   0.045
12869SOL    HW251795   7.087   6.990  -0.019
12869SOL    HW351796   7.171   7.007   0.106
12869SOL    MW451797   7.138   6.955   0.043
12870SOL     OW51798   6.365   5.830   0.100
12870SOL    HW251799   6.313   5.750   0.088
12870SOL    HW351800   6.452   5.807   0.068
12870SOL    MW451801   6.368   5.816   0.094
12871SOL     OW51802   5.819   7.382   1.644
12871SOL    HW251803   5.793   7.450   1.582
12871SOL    HW351804   5.867   7.319   1.592
12871SOL    MW451805   5.821   7.382   1.630
12872SOL     OW51806   5.871   6.701   1.151
12872SOL    HW251807   5.924   6.776   1.176
12872SOL    HW351808   5.790   6.739   1.117
12872SOL    MW451809   5.867   6.716   1.151
12873SOL     OW51810   6.411   6.605   1.139
12873SOL    HW251811   6.439   6.514   1.151
12873SOL    HW351812   6.340   6.599   1.075
12873SOL    MW451813   6.404   6.593   1.134
12874SOL     OW51814   5.726   6.470   0.557
12874SOL    HW251815   5.817   6.485   0.584
12874SOL    HW351816   5.729   6.391   0.503
12874SOL    MW451817   5.738   6.462   0.555
12875SOL     OW51818   5.962   6.178   1.811
12875SOL    HW251819   5.909   6.258   1.818
12875SOL    HW351820   6.032   6.190   1.876
12875SOL    MW451821   5.964   6.191   1.819
12876SOL     OW51822   6.348   5.728   1.518
12876SOL    HW251823   6.325   5.636   1.520
12876SOL    HW351824   6.434   5.730   1.475
12876SOL    MW451825   6.355   5.718   1.514
12877SOL     OW51826   6.032   6.252   1.557
12877SOL    HW251827   6.112   6.302   1.543
12877SOL    HW351828   6.023   6.246   1.652
12877SOL    MW451829   6.041   6.258   1.567
12878SOL     OW51830   6.353   7.402   0.931
12878SOL    HW251831   6.442   7.417   0.961
12878SOL    HW351832   6.348   7.449   0.847
12878SOL    MW451833   6.363   7.410   0.924
12879SOL     OW51834   7.009   5.777   1.828
12879SOL    HW251835   7.065   5.704   1.854
12879SOL    HW351836   6.979   5.815   1.910
12879SOL    MW451837   7.013   5.772   1.841
12880SOL     OW51838   5.734   7.082   0.596
12880SOL    HW251839   5.706   7.121   0.678
12880SOL    HW351840   5.754   6.991   0.618
12880SOL    MW451841   5.732   7.074   0.609
12881SOL     OW51842   6.567   7.125   0.631
12881SOL    HW251843   6.650   7.079   0.615
12881SOL    HW351844   6.557   7.124   0.727
12881SOL    MW451845   6.577   7.118   0.641
12882SOL     OW51846   7.399   6.270   0.945
12882SOL    HW251847   7.488   6.300   0.927
12882SOL    HW351848   7.379   6.210   0.874
12882SOL    MW451849   7.408   6.267   0.934
12883SOL     OW51850   7.250   6.449   1.825
12883SOL    HW251851   7.305   6.373   1.806
12883SOL    HW351852   7.252   6.457   1.920
12883SOL    MW451853   7.258   6.440   1.833
12884SOL     OW51854   6.300   7.182   0.036
12884SOL    HW251855   6.240   7.251   0.006
12884SOL    HW351856   6.245   7.124   0.089
12884SOL    MW451857   6.284   7.184   0.038
12885SOL     OW51858   6.738   5.827   0.259
12885SOL    HW251859   6.671   5.803   0.196
12885SOL    HW351860   6.803   5.876   0.208
12885SOL    MW451861   6.738   5.829   0.244
12886SOL     OW51862   6.545   6.011   1.344
12886SOL    HW251863   6.464   6.052   1.372
12886SOL    HW351864   6.592   6.079   1.296
12886SOL    MW451865   6.540   6.026   1.342
12887SOL     OW51866   6.805   6.349   0.967
12887SOL    HW251867   6.818   6.443   0.977
12887SOL    HW351868   6.766   6.339   0.881
12887SOL    MW451869   6.801   6.360   0.957
12888SOL     OW51870   6.257   6.544   0.771
12888SOL    HW251871   6.168   6.535   0.804
12888SOL    HW351872   6.261   6.634   0.739
12888SOL    MW451873   6.246   6.555   0.771
12889SOL     OW51874   7.056   6.127   0.766
12889SOL    HW251875   7.001   6.048   0.765
12889SOL    HW351876   7.038   6.168   0.850
12889SOL    MW451877   7.046   6.122   0.775
12890SOL     OW51878   6.027   5.814   1.583
12890SOL    HW251879   5.948   5.832   1.635
12890SOL    HW351880   6.022   5.876   1.510
12890SOL    MW451881   6.017   5.824   1.580
12891SOL     OW51882   6.675   6.331   0.723
12891SOL    HW251883   6.612   6.263   0.747
12891SOL    HW351884   6.695   6.312   0.631
12891SOL    MW451885   6.669   6.318   0.715
12892SOL     OW51886   5.931   7.226   0.425
12892SOL    HW251887   5.892   7.273   0.351
12892SOL    HW351888   5.865   7.161   0.450
12892SOL    MW451889   5.918   7.224   0.419
12893SOL     OW51890   6.423   6.635   0.449
12893SOL    HW251891   6.425   6.609   0.356
12893SOL    HW351892   6.481   6.572   0.492
12893SOL    MW451893   6.431   6.624   0.443
12894SOL     OW51894   6.976   7.195   1.221
12894SOL    HW251895   6.901   7.241   1.259
12894SOL    HW351896   6.958   7.102   1.238
12894SOL    MW451897   6.965   7.189   1.229
12895SOL     OW51898   6.980   7.403   0.651
12895SOL    HW251899   6.923   7.356   0.590
12895SOL    HW351900   7.066   7.364   0.638
12895SOL    MW451901   6.983   7.394   0.641
12896SOL     OW51902   6.933   5.879   0.782
12896SOL    HW251903   6.961   5.811   0.843
12896SOL    HW351904   6.847   5.850   0.752
12896SOL    MW451905   6.926   5.866   0.786
12897SOL     OW51906   5.738   6.813   0.716
12897SOL    HW251907   5.802   6.845   0.779
12897SOL    HW351908   5.787   6.749   0.664
12897SOL    MW451909   5.753   6.809   0.717
12898SOL     OW51910   5.814   7.131   1.838
12898SOL    HW251911   5.870   7.055   1.853
12898SOL    HW351912   5.763   7.109   1.760
12898SOL    MW451913   5.814   7.118   1.829
12899SOL     OW51914   6.913   5.983   0.117
12899SOL    HW251915   6.886   6.049   0.053
12899SOL    HW351916   6.983   6.026   0.167
12899SOL    MW451917   6.918   5.996   0.114
12900SOL     OW51918   6.581   5.688   0.054
12900SOL    HW251919   6.637   5.680  -0.024
12900SOL    HW351920   6.558   5.598   0.076
12900SOL    MW451921   6.586   5.675   0.047
12901SOL     OW51922   7.086   6.539   0.259
12901SOL    HW251923   7.053   6.628   0.249
12901SOL    HW351924   7.051   6.510   0.344
12901SOL    MW451925   7.076   6.548   0.270
12902SOL     OW51926   5.992   5.636   1.789
12902SOL    HW251927   5.920   5.601   1.737
12902SOL    HW351928   6.050   5.677   1.724
12902SOL    MW451929   5.990   5.637   1.774
12903SOL     OW51930   6.016   7.126   1.088
12903SOL    HW251931   6.061   7.188   1.145
12903SOL    HW351932   5.923   7.145   1.101
12903SOL    MW451933   6.009   7.136   1.095
12904SOL     OW51934   7.456   6.655   1.442
12904SOL    HW251935   7.371   6.668   1.401
12904SOL    HW351936   7.436   6.619   1.529
12904SOL    MW451937   7.443   6.651   1.447
12905SOL     OW51938   6.438   7.194   1.196
12905SOL    HW251939   6.462   7.183   1.105
12905SOL    HW351940   6.361   7.251   1.194
12905SOL    MW451941   6.430   7.199   1.185
12906SOL     OW51942   6.080   6.577   0.051
12906SOL    HW251943   6.003   6.590   0.107
12906SOL    HW351944   6.044   6.541  -0.030
12906SOL    MW451945   6.066   6.573   0.048
12907SOL     OW51946   6.733   6.550   0.294
12907SOL    HW251947   6.643   6.571   0.269
12907SOL    HW351948   6.760   6.623   0.350
12907SOL    MW451949   6.725   6.562   0.297
12908SOL     OW51950   6.233   6.899   0.986
12908SOL    HW251951   6.226   6.878   1.080
12908SOL    HW351952   6.151   6.867   0.949
12908SOL    MW451953   6.221   6.893   0.993
12909SOL     OW51954   7.097   5.909   1.388
12909SOL    HW251955   7.044   5.911   1.468
12909SOL    HW351956   7.082   5.822   1.351
12909SOL    MW451957   7.089   5.899   1.393
12910SOL     OW51958   7.433   5.833   1.261
12910SOL    HW251959   7.414   5.900   1.196
12910SOL    HW351960   7.490   5.771   1.216
12910SOL    MW451961   7.437   5.834   1.247
12911SOL     OW51962   5.679   6.991   1.649
12911SOL    HW251963   5.723   6.924   1.595
12911SOL    HW351964   5.594   6.953   1.669
12911SOL    MW451965   5.674   6.977   1.645
12912SOL     OW51966   6.362   5.666   0.701
12912SOL    HW251967   6.291   5.727   0.683
12912SOL    HW351968   6.413   5.663   0.620
12912SOL    MW451969   6.358   5.672   0.688
12913SOL     OW51970   6.120   6.906   0.450
12913SOL    HW251971   6.113   6.938   0.540
12913SOL    HW351972   6.030   6.890   0.422
12913SOL    MW451973   6.108   6.908   0.457
12914SOL     OW51974   6.715   7.299   1.359
12914SOL    HW251975   6.635   7.284   1.309
12914SOL    HW351976   6.722   7.394   1.366
12914SOL    MW451977   6.706   7.310   1.353
12915SOL     OW51978   6.829   7.264   0.849
12915SOL    HW251979   6.876   7.337   0.808
12915SOL    HW351980   6.750   7.303   0.885
12915SOL    MW451981   6.824   7.279   0.848
12916SOL     OW51982   7.237   7.359   1.124
12916SOL    HW251983   7.280   7.329   1.204
12916SOL    HW351984   7.156   7.307   1.121
12916SOL    MW451985   7.232   7.348   1.134
12917SOL     OW51986   6.322   6.323   1.831
12917SOL    HW251987   6.392   6.265   1.803
12917SOL    HW351988   6.265   6.268   1.886
12917SOL    MW451989   6.324   6.310   1.835
12918SOL     OW51990   7.109   6.535   1.464
12918SOL    HW251991   7.114   6.588   1.544
12918SOL    HW351992   7.071   6.452   1.492
12918SOL    MW451993   7.105   6.530   1.479
12919SOL     OW51994   6.749   5.670   1.710
12919SOL    HW251995   6.744   5.577   1.691
12919SOL    HW351996   6.832   5.681   1.756
12919SOL    MW451997   6.757   5.659   1.714
12920SOL     OW51998   6.123   6.190   0.164
12920SOL    HW251999   6.089   6.246   0.234
12920SOL    HW352000   6.194   6.140   0.204
12920SOL    MW452001   6.129   6.191   0.178
12921SOL     OW52002   7.219   6.941   0.986
12921SOL    HW252003   7.254   6.923   0.899
12921SOL    HW352004   7.124   6.942   0.973
12921SOL    MW452005   7.211   6.938   0.973
12922SOL     OW52006   6.648   6.589   1.355
12922SOL    HW252007   6.691   6.624   1.433
12922SOL    HW352008   6.631   6.666   1.301
12922SOL    MW452009   6.651   6.604   1.358
12923SOL     OW52010   7.179   6.076   0.228
12923SOL    HW252011   7.171   6.147   0.165
12923SOL    HW352012   7.197   6.120   0.311
12923SOL    MW452013   7.180   6.090   0.230
12924SOL     OW52014   6.039   5.731   0.657
12924SOL    HW252015   6.089   5.774   0.588
12924SOL    HW352016   5.954   5.775   0.657
12924SOL    MW452017   6.036   5.744   0.648
12925SOL     OW52018   5.798   6.793   1.517
12925SOL    HW252019   5.826   6.746   1.595
12925SOL    HW352020   5.719   6.748   1.488
12925SOL    MW452021   5.791   6.782   1.523
12926SOL     OW52022   6.306   6.120   1.484
12926SOL    HW252023   6.278   6.208   1.508
12926SOL    HW352024   6.275   6.064   1.555
12926SOL    MW452025   6.298   6.123   1.496
12927SOL     OW52026   6.848   6.338   0.203
12927SOL    HW252027   6.895   6.356   0.122
12927SOL    HW352028   6.814   6.422   0.231
12927SOL    MW452029   6.850   6.352   0.196
12928SOL     OW52030   5.961   6.516   0.697
12928SOL    HW252031   6.019   6.572   0.645
12928SOL    HW352032   6.005   6.431   0.699
12928SOL    MW452033   5.974   6.513   0.690
12929SOL     OW52034   7.101   5.868   0.534
12929SOL    HW252035   7.023   5.818   0.559
12929SOL    HW352036   7.072   5.959   0.534
12929SOL    MW452037   7.087   5.872   0.537
12930SOL     OW52038   6.687   5.830   0.693
12930SOL    HW252039   6.707   5.905   0.637
12930SOL    HW352040   6.667   5.869   0.778
12930SOL    MW452041   6.688   5.846   0.697
12931SOL     OW52042   6.583   7.080   0.025
12931SOL    HW252043   6.610   7.158  -0.023
12931SOL    HW352044   6.490   7.095   0.044
12931SOL    MW452045   6.574   7.093   0.021
12932SOL     OW52046   7.447   6.603   1.712
12932SOL    HW252047   7.360   6.583   1.748
12932SOL    HW352048   7.501   6.529   1.737
12932SOL    MW452049   7.442   6.592   1.720
12933SOL     OW52050   5.668   7.116   0.869
12933SOL    HW252051   5.700   7.120   0.960
12933SOL    HW352052   5.573   7.124   0.877
12933SOL    MW452053   5.660   7.119   0.882
12934SOL     OW52054   5.623   6.242   0.416
12934SOL    HW252055   5.563   6.214   0.486
12934SOL    HW352056   5.697   6.182   0.422
12934SOL    MW452057   5.625   6.231   0.425
12935SOL     OW52058   7.191   7.454   1.850
12935SOL    HW252059   7.236   7.378   1.815
12935SOL    HW352060   7.229   7.467   1.937
12935SOL    MW452061   7.201   7.447   1.856
12936SOL     OW52062   6.791   6.973   0.576
12936SOL    HW252063   6.814   6.924   0.654
12936SOL    HW352064   6.872   7.015   0.548
12936SOL    MW452065   6.804   6.973   0.583
12937SOL     OW52066   6.049   5.981   1.305
12937SOL    HW252067   6.082   6.062   1.345
12937SOL    HW352068   6.022   6.007   1.217
12937SOL    MW452069   6.048   5.995   1.299
12938SOL     OW52070   6.003   5.948   1.041
12938SOL    HW252071   6.033   5.862   1.012
12938SOL    HW352072   5.908   5.941   1.044
12938SOL    MW452073   5.995   5.937   1.039
12939SOL     OW52074   6.832   6.157   1.732
12939SOL    HW252075   6.884   6.092   1.685
12939SOL    HW352076   6.790   6.208   1.662
12939SOL    MW452077   6.833   6.154   1.715
12940SOL     OW52078   6.931   5.952   1.593
12940SOL    HW252079   6.838   5.936   1.580
12940SOL    HW352080   6.957   5.890   1.661
12940SOL    MW452081   6.921   5.942   1.600
12941SOL     OW52082   6.146   5.726   0.932
12941SOL    HW252083   6.156   5.635   0.958
12941SOL    HW352084   6.102   5.722   0.847
12941SOL    MW452085   6.142   5.714   0.924
12942SOL     OW52086   6.240   7.341   1.478
12942SOL    HW252087   6.157   7.326   1.523
12942SOL    HW352088   6.299   7.274   1.513
12942SOL    MW452089   6.238   7.331   1.488
12943SOL     OW52090   7.297   6.048   1.103
12943SOL    HW252091   7.230   6.081   1.163
12943SOL    HW352092   7.340   6.126   1.069
12943SOL    MW452093   7.295   6.063   1.107
12944SOL     OW52094   7.475   6.768   1.073
12944SOL    HW252095   7.468   6.708   0.998
12944SOL    HW352096   7.401   6.828   1.062
12944SOL    MW452097   7.465   6.768   1.062
12945SOL     OW52098   6.857   6.630   0.991
12945SOL    HW252099   6.871   6.602   1.082
12945SOL    HW352100   6.943   6.661   0.963
12945SOL    MW452101   6.870   6.631   1.000
12946SOL     OW52102   6.940   6.125   1.270
12946SOL    HW252103   6.961   6.126   1.177
12946SOL    HW352104   6.985   6.047   1.303
12946SOL    MW452105   6.947   6.115   1.262
12947SOL     OW52106   7.433   6.256   1.812
12947SOL    HW252107   7.470   6.201   1.881
12947SOL    HW352108   7.458   6.213   1.730
12947SOL    MW452109   7.440   6.244   1.811
12948SOL     OW52110   6.980   6.554   1.863
12948SOL    HW252111   7.046   6.502   1.817
12948SOL    HW352112   7.000   6.541   1.956
12948SOL    MW452113   6.991   6.545   1.870
12949SOL     OW52114   6.931   5.640   0.212
12949SOL    HW252115   7.005   5.684   0.255
12949SOL    HW352116   6.855   5.694   0.234
12949SOL    MW452117   6.931   5.652   0.220
12950SOL     OW52118   6.991   6.415   0.490
12950SOL    HW252119   6.906   6.385   0.460
12950SOL    HW352120   6.983   6.422   0.585
12950SOL    MW452121   6.979   6.413   0.499
12951SOL     OW52122   6.067   6.878   1.221
12951SOL    HW252123   6.079   6.905   1.312
12951SOL    HW352124   6.048   6.959   1.174
12951SOL    MW452125   6.066   6.893   1.226
12952SOL     OW52126   6.351   5.858   1.044
12952SOL    HW252127   6.324   5.860   1.135
12952SOL    HW352128   6.281   5.810   0.999
12952SOL    MW452129   6.339   5.854   1.051
12953SOL     OW52130   6.205   7.350   1.206
12953SOL    HW252131   6.257   7.427   1.183
12953SOL    HW352132   6.214   7.342   1.301
12953SOL    MW452133   6.214   7.357   1.217
12954SOL     OW52134   7.107   6.935   1.438
12954SOL    HW252135   7.092   6.864   1.501
12954SOL    HW352136   7.153   6.893   1.366
12954SOL    MW452137   7.113   6.919   1.438
12955SOL     OW52138   6.364   6.081   0.216
12955SOL    HW252139   6.437   6.130   0.179
12955SOL    HW352140   6.380   5.990   0.190
12955SOL    MW452141   6.376   6.076   0.209
12956SOL     OW52142   7.172   7.198   1.539
12956SOL    HW252143   7.214   7.183   1.624
12956SOL    HW352144   7.163   7.111   1.501
12956SOL    MW452145   7.176   7.186   1.546
12957SOL     OW52146   6.832   5.677   1.130
12957SOL    HW252147   6.887   5.686   1.052
12957SOL    HW352148   6.887   5.711   1.201
12957SOL    MW452149   6.846   5.682   1.129
12958SOL     OW52150   5.839   6.590   0.314
12958SOL    HW252151   5.776   6.606   0.243
12958SOL    HW352152   5.786   6.553   0.385
12958SOL    MW452153   5.824   6.587   0.314
12959SOL     OW52154   6.195   6.944   0.173
12959SOL    HW252155   6.210   6.920   0.265
12959SOL    HW352156   6.103   6.922   0.157
12959SOL    MW452157   6.185   6.937   0.183
12960SOL     OW52158   6.734   7.175   0.325
12960SOL    HW252159   6.742   7.093   0.276
12960SOL    HW352160   6.653   7.214   0.292
12960SOL    MW452161   6.724   7.170   0.315
12961SOL     OW52162   5.993   7.333   0.894
12961SOL    HW252163   5.997   7.244   0.929
12961SOL    HW352164   6.019   7.324   0.803
12961SOL    MW452165   5.996   7.321   0.886
12962SOL     OW52166   6.610   6.811   1.137
12962SOL    HW252167   6.542   6.745   1.153
12962SOL    HW352168   6.628   6.805   1.044
12962SOL    MW452169   6.603   6.802   1.128
12963SOL     OW52170   5.699   7.086   1.388
12963SOL    HW252171   5.689   7.044   1.474
12963SOL    HW352172   5.620   7.139   1.378
12963SOL    MW452173   5.688   7.087   1.399
12964SOL     OW52174   6.603   5.950   0.958
12964SOL    HW252175   6.533   5.902   1.003
12964SOL    HW352176   6.635   6.013   1.022
12964SOL    MW452177   6.598   5.952   0.972
12965SOL     OW52178   6.254   6.386   1.578
12965SOL    HW252179   6.247   6.481   1.566
12965SOL    HW352180   6.263   6.375   1.673
12965SOL    MW452181   6.255   6.398   1.588
12966SOL     OW52182   7.059   5.664   1.303
12966SOL    HW252183   7.130   5.610   1.267
12966SOL    HW352184   7.058   5.643   1.396
12966SOL    MW452185   7.068   5.655   1.311
12967SOL     OW52186   7.259   7.194   1.787
12967SOL    HW252187   7.232   7.191   1.878
12967SOL    HW352188   7.355   7.198   1.790
12967SOL    MW452189   7.269   7.194   1.799
12968SOL     OW52190   6.070   6.056   0.771
12968SOL    HW252191   6.141   6.004   0.734
12968SOL    HW352192   6.056   6.021   0.858
12968SOL    MW452193   6.078   6.045   0.778
12969SOL     OW52194   5.625   7.391   1.843
12969SOL    HW252195   5.675   7.369   1.765
12969SOL    HW352196   5.633   7.486   1.851
12969SOL    MW452197   5.633   7.400   1.834
12970SOL     OW52198   6.386   7.149   0.847
12970SOL    HW252199   6.314   7.086   0.860
12970SOL    HW352200   6.347   7.234   0.865
12970SOL    MW452201   6.370   7.152   0.850
12971SOL     OW52202   6.706   5.997   0.495
12971SOL    HW252203   6.728   5.934   0.427
12971SOL    HW352204   6.611   5.989   0.506
12971SOL    MW452205   6.696   5.988   0.487
12972SOL     OW52206   5.791   5.687   0.427
12972SOL    HW252207   5.862   5.708   0.366
12972SOL    HW352208   5.745   5.615   0.385
12972SOL    MW452209   5.795   5.681   0.413
12973SOL     OW52210   5.622   6.154   1.570
12973SOL    HW252211   5.686   6.220   1.545
12973SOL    HW352212   5.541   6.181   1.527
12973SOL    MW452213   5.620   6.166   1.562
12974SOL     OW52214   7.360   7.061   0.527
12974SOL    HW252215   7.330   6.994   0.588
12974SOL    HW352216   7.454   7.067   0.541
12974SOL    MW452217   7.368   7.053   0.537
12975SOL     OW52218   6.916   6.738   0.457
12975SOL    HW252219   6.888   6.824   0.490
12975SOL    HW352220   6.944   6.754   0.367
12975SOL    MW452221   6.916   6.752   0.449
12976SOL     OW52222   6.578   5.658   0.510
12976SOL    HW252223   6.615   5.717   0.575
12976SOL    HW352224   6.555   5.714   0.436
12976SOL    MW452225   6.579   5.673   0.509
12977SOL     OW52226   7.431   6.540   0.932
12977SOL    HW252227   7.422   6.572   0.843
12977SOL    HW352228   7.384   6.456   0.932
12977SOL    MW452229   7.424   6.533   0.922
12978SOL     OW52230   7.343   6.471   0.633
12978SOL    HW252231   7.437   6.460   0.621
12978SOL    HW352232   7.319   6.543   0.574
12978SOL    MW452233   7.353   6.479   0.624
12979SOL     OW52234   5.958   5.682   1.228
12979SOL    HW252235   6.001   5.766   1.248
12979SOL    HW352236   6.031   5.620   1.221
12979SOL    MW452237   5.973   5.685   1.229
12980SOL     OW52238   5.999   6.349   0.406
12980SOL    HW252239   5.999   6.444   0.391
12980SOL    HW352240   6.076   6.333   0.460
12980SOL    MW452241   6.009   6.360   0.411
12981SOL     OW52242   6.775   6.208   1.470
12981SOL    HW252243   6.811   6.181   1.386
12981SOL    HW352244   6.688   6.242   1.449
12981SOL    MW452245   6.769   6.209   1.457
12982SOL     OW52246   5.758   6.080   0.695
12982SOL    HW252247   5.820   6.087   0.768
12982SOL    HW352248   5.758   5.987   0.672
12982SOL    MW452249   5.766   6.069   0.702
12983SOL     OW52250   7.305   7.420   0.227
12983SOL    HW252251   7.372   7.453   0.167
12983SOL    HW352252   7.262   7.499   0.261
12983SOL    MW452253   7.307   7.435   0.223
12984SOL     OW52254   6.440   6.341   1.179
12984SOL    HW252255   6.398   6.259   1.155
12984SOL    HW352256   6.441   6.340   1.275
12984SOL    MW452257   6.433   6.330   1.188
12985SOL     OW52258   7.111   7.474   1.578
12985SOL    HW252259   7.114   7.380   1.561
12985SOL    HW352260   7.134   7.482   1.670
12985SOL    MW452261   7.114   7.462   1.588
12986SOL     OW52262   6.244   5.811   1.284
12986SOL    HW252263   6.175   5.874   1.305
12986SOL    HW352264   6.271   5.775   1.369
12986SOL    MW452265   6.238   5.814   1.297
12987SOL     OW52266   5.627   6.652   0.153
12987SOL    HW252267   5.596   6.717   0.216
12987SOL    HW352268   5.576   6.574   0.172
12987SOL    MW452269   5.617   6.649   0.163
12988SOL     OW52270   7.039   5.664   0.901
12988SOL    HW252271   7.127   5.673   0.938
12988SOL    HW352272   7.049   5.605   0.827
12988SOL    MW452273   7.053   5.658   0.895
12989SOL     OW52274   7.071   6.403   0.745
12989SOL    HW252275   7.151   6.418   0.694
12989SOL    HW352276   7.064   6.308   0.751
12989SOL    MW452277   7.080   6.392   0.740
12990SOL     OW52278   6.211   7.452   0.095
12990SOL    HW252279   6.116   7.452   0.087
12990SOL    HW352280   6.227   7.398   0.173
12990SOL    MW452281   6.201   7.446   0.104
12991SOL     OW52282   6.521   6.329   1.442
12991SOL    HW252283   6.590   6.396   1.439
12991SOL    HW352284   6.454   6.367   1.498
12991SOL    MW452285   6.522   6.342   1.449
12992SOL     OW52286   5.939   6.629   1.690
12992SOL    HW252287   5.893   6.545   1.692
12992SOL    HW352288   5.996   6.623   1.614
12992SOL    MW452289   5.941   6.617   1.682
12993SOL     OW52290   7.056   6.272   0.011
12993SOL    HW252291   6.984   6.248  -0.047
12993SOL    HW352292   7.122   6.309  -0.047
12993SOL    MW452293   7.055   6.274  -0.004
12994SOL     OW52294   6.190   7.004   0.691
12994SOL    HW252295   6.255   6.937   0.712
12994SOL    HW352296   6.242   7.081   0.668
12994SOL    MW452297   6.205   7.006   0.690
12995SOL     OW52298   6.451   6.169   0.821
12995SOL    HW252299   6.391   6.187   0.893
12995SOL    HW352300   6.485   6.081   0.840
12995SOL    MW452301   6.447   6.159   0.834
12996SOL     OW52302   7.392   5.668   1.490
12996SOL    HW252303   7.313   5.714   1.518
12996SOL    HW352304   7.427   5.722   1.419
12996SOL    MW452305   7.386   5.681   1.484
12997SOL     OW52306   6.676   6.752   0.840
12997SOL    HW252307   6.768   6.733   0.858
12997SOL    HW352308   6.649   6.682   0.780
12997SOL    MW452309   6.684   6.740   0.834
12998SOL     OW52310   6.469   6.572   0.195
12998SOL    HW252311   6.455   6.484   0.160
12998SOL    HW352312   6.420   6.629   0.136
12998SOL    MW452313   6.461   6.567   0.183
12999SOL     OW52314   6.950   6.990   0.936
12999SOL    HW252315   6.923   7.074   0.901
12999SOL    HW352316   6.910   6.985   1.023
12999SOL    MW452317   6.943   6.999   0.942
13000SOL     OW52318   6.869   6.938   1.204
13000SOL    HW252319   6.880   6.905   1.293
13000SOL    HW352320   6.788   6.897   1.173
13000SOL    MW452321   6.859   6.930   1.210
13001SOL     OW52322   5.882   6.296   0.974
13001SOL    HW252323   5.832   6.295   1.055
13001SOL    HW352324   5.902   6.388   0.958
13001SOL    MW452325   5.878   6.308   0.982
13002SOL     OW52326   7.188   5.778   0.297
13002SOL    HW252327   7.181   5.782   0.392
13002SOL    HW352328   7.200   5.869   0.270
13002SOL    MW452329   7.189   5.791   0.305
13003SOL     OW52330   6.477   6.341   0.411
13003SOL    HW252331   6.457   6.327   0.318
13003SOL    HW352332   6.570   6.320   0.418
13003SOL    MW452333   6.487   6.336   0.400
13004SOL     OW52334   5.804   5.964   1.715
13004SOL    HW252335   5.761   6.023   1.652
13004SOL    HW352336   5.872   6.019   1.755
13004SOL    MW452337   5.808   5.979   1.712
13005SOL     OW52338   6.916   6.584   1.260
13005SOL    HW252339   6.979   6.581   1.333
13005SOL    HW352340   6.832   6.602   1.302
13005SOL    MW452341   6.912   6.586   1.275
13006SOL     OW52342   6.460   7.299   0.449
13006SOL    HW252343   6.518   7.370   0.476
13006SOL    HW352344   6.483   7.227   0.507
13006SOL    MW452345   6.471   7.299   0.460
13007SOL     OW52346   7.255   5.761   1.039
13007SOL    HW252347   7.300   5.679   1.058
13007SOL    HW352348   7.275   5.817   1.115
13007SOL    MW452349   7.265   5.757   1.051
13008SOL     OW52350   5.703   5.604   1.138
13008SOL    HW252351   5.694   5.605   1.043
13008SOL    HW352352   5.797   5.616   1.153
13008SOL    MW452353   5.715   5.607   1.129
13009SOL     OW52354   7.340   6.797   0.758
13009SOL    HW252355   7.319   6.743   0.681
13009SOL    HW352356   7.436   6.795   0.762
13009SOL    MW452357   7.349   6.790   0.747
13010SOL     OW52358   6.032   6.942   1.501
13010SOL    HW252359   5.953   6.892   1.524
13010SOL    HW352360   6.102   6.901   1.551
13010SOL    MW452361   6.030   6.930   1.511
13011SOL     OW52362   5.916   5.731   0.184
13011SOL    HW252363   5.845   5.786   0.152
13011SOL    HW352364   5.958   5.697   0.105
13011SOL    MW452365   5.912   5.733   0.170
13012SOL     OW52366   7.040   6.228   1.020
13012SOL    HW252367   6.963   6.274   0.986
13012SOL    HW352368   7.097   6.297   1.054
13012SOL    MW452369   7.037   6.243   1.020
13013SOL     OW52370   5.672   5.830   0.033
13013SOL    HW252371   5.639   5.909   0.077
13013SOL    HW352372   5.727   5.863  -0.038
13013SOL    MW452373   5.675   5.844   0.030
13014SOL     OW52374   5.706   7.087   0.222
13014SOL    HW252375   5.723   7.171   0.264
13014SOL    HW352376   5.741   7.096   0.134
13014SOL    MW452377   5.711   7.100   0.216
13015SOL     OW52378   6.978   7.176   0.439
13015SOL    HW252379   7.041   7.166   0.368
13015SOL    HW352380   6.895   7.196   0.394
13015SOL    MW452381   6.975   7.177   0.424
13016SOL     OW52382   7.341   6.444   2.125
13016SOL    HW252383   7.382   6.386   2.190
13016SOL    HW352384   7.248   6.436   2.142
13016SOL    MW452385   7.335   6.436   2.135
13017SOL     OW52386   6.135   6.627   2.354
13017SOL    HW252387   6.225   6.602   2.338
13017SOL    HW352388   6.131   6.720   2.331
13017SOL    MW452389   6.147   6.636   2.349
13018SOL     OW52390   7.251   7.330   2.496
13018SOL    HW252391   7.263   7.276   2.574
13018SOL    HW352392   7.288   7.278   2.425
13018SOL    MW452393   7.257   7.315   2.497
13019SOL     OW52394   6.630   7.215   3.497
13019SOL    HW252395   6.671   7.251   3.418
13019SOL    HW352396   6.665   7.126   3.504
13019SOL    MW452397   6.641   7.208   3.488
13020SOL     OW52398   7.187   6.770   3.101
13020SOL    HW252399   7.108   6.735   3.059
13020SOL    HW352400   7.214   6.842   3.045
13020SOL    MW452401   7.180   6.775   3.088
13021SOL     OW52402   6.419   6.083   2.367
13021SOL    HW252403   6.394   6.171   2.395
13021SOL    HW352404   6.416   6.086   2.271
13021SOL    MW452405   6.415   6.095   2.359
13022SOL     OW52406   5.861   6.111   2.295
13022SOL    HW252407   5.893   6.199   2.277
13022SOL    HW352408   5.849   6.109   2.390
13022SOL    MW452409   5.864   6.123   2.307
13023SOL     OW52410   5.939   6.524   3.196
13023SOL    HW252411   6.002   6.471   3.147
13023SOL    HW352412   5.920   6.598   3.139
13023SOL    MW452413   5.945   6.526   3.183
13024SOL     OW52414   6.260   5.866   2.382
13024SOL    HW252415   6.318   5.942   2.384
13024SOL    HW352416   6.195   5.887   2.315
13024SOL    MW452417   6.259   5.878   2.373
13025SOL     OW52418   6.347   6.793   2.557
13025SOL    HW252419   6.427   6.796   2.609
13025SOL    HW352420   6.375   6.760   2.471
13025SOL    MW452421   6.361   6.789   2.552
13026SOL     OW52422   6.372   7.134   3.460
13026SOL    HW252423   6.456   7.160   3.499
13026SOL    HW352424   6.396   7.078   3.386
13026SOL    MW452425   6.386   7.130   3.455
13027SOL     OW52426   6.124   6.297   2.548
13027SOL    HW252427   6.109   6.217   2.599
13027SOL    HW352428   6.206   6.332   2.582
13027SOL    MW452429   6.132   6.289   2.560
13028SOL     OW52430   6.461   6.983   3.233
13028SOL    HW252431   6.425   7.049   3.173
13028SOL    HW352432   6.389   6.921   3.246
13028SOL    MW452433   6.447   6.983   3.227
13029SOL     OW52434   6.012   6.537   2.829
13029SOL    HW252435   5.967   6.544   2.745
13029SOL    HW352436   5.992   6.620   2.873
13029SOL    MW452437   6.004   6.549   2.823
13030SOL     OW52438   5.709   7.383   2.704
13030SOL    HW252439   5.798   7.375   2.739
13030SOL    HW352440   5.673   7.295   2.709
13030SOL    MW452441   5.716   7.370   2.709
13031SOL     OW52442   5.973   6.910   2.739
13031SOL    HW252443   5.949   6.963   2.815
13031SOL    HW352444   6.029   6.968   2.687
13031SOL    MW452445   5.977   6.925   2.742
13032SOL     OW52446   6.535   6.554   2.549
13032SOL    HW252447   6.449   6.541   2.589
13032SOL    HW352448   6.588   6.481   2.581
13032SOL    MW452449   6.531   6.543   2.558
13033SOL     OW52450   5.943   7.206   3.334
13033SOL    HW252451   5.851   7.182   3.319
13033SOL    HW352452   5.987   7.123   3.351
13033SOL    MW452453   5.937   7.191   3.333
13034SOL     OW52454   6.526   6.916   2.266
13034SOL    HW252455   6.503   6.978   2.334
13034SOL    HW352456   6.483   6.834   2.292
13034SOL    MW452457   6.518   6.912   2.277
13035SOL     OW52458   7.399   5.917   2.722
13035SOL    HW252459   7.336   5.897   2.791
13035SOL    HW352460   7.389   5.846   2.659
13035SOL    MW452461   7.389   5.904   2.723
13036SOL     OW52462   6.023   5.889   2.234
13036SOL    HW252463   5.997   5.851   2.150
13036SOL    HW352464   5.960   5.959   2.250
13036SOL    MW452465   6.012   5.892   2.225
13037SOL     OW52466   6.520   7.313   2.049
13037SOL    HW252467   6.475   7.329   2.132
13037SOL    HW352468   6.451   7.278   1.991
13037SOL    MW452469   6.506   7.310   2.051
13038SOL     OW52470   7.455   6.086   2.024
13038SOL    HW252471   7.364   6.088   2.052
13038SOL    HW352472   7.500   6.148   2.082
13038SOL    MW452473   7.448   6.094   2.034
13039SOL     OW52474   7.200   6.689   2.374
13039SOL    HW252475   7.110   6.689   2.409
13039SOL    HW352476   7.193   6.735   2.291
13039SOL    MW452477   7.187   6.695   2.368
13040SOL     OW52478   7.000   6.324   3.446
13040SOL    HW252479   7.069   6.262   3.423
13040SOL    HW352480   6.925   6.298   3.393
13040SOL    MW452481   7.000   6.311   3.437
13041SOL     OW52482   5.741   7.204   2.998
13041SOL    HW252483   5.724   7.150   3.075
13041SOL    HW352484   5.729   7.294   3.028
13041SOL    MW452485   5.738   7.208   3.012
13042SOL     OW52486   6.736   6.711   3.438
13042SOL    HW252487   6.721   6.804   3.423
13042SOL    HW352488   6.831   6.701   3.438
13042SOL    MW452489   6.745   6.721   3.435
13043SOL     OW52490   6.532   6.135   3.639
13043SOL    HW252491   6.622   6.136   3.606
13043SOL    HW352492   6.491   6.060   3.597
13043SOL    MW452493   6.538   6.125   3.630
13044SOL     OW52494   7.107   6.667   2.766
13044SOL    HW252495   7.110   6.601   2.697
13044SOL    HW352496   7.192   6.710   2.762
13044SOL    MW452497   7.119   6.663   2.757
13045SOL     OW52498   6.727   6.270   2.335
13045SOL    HW252499   6.753   6.294   2.246
13045SOL    HW352500   6.709   6.177   2.331
13045SOL    MW452501   6.729   6.262   2.322
13046SOL     OW52502   7.392   6.890   2.186
13046SOL    HW252503   7.348   6.931   2.261
13046SOL    HW352504   7.449   6.958   2.151
13046SOL    MW452505   7.394   6.904   2.191
13047SOL     OW52506   6.312   5.939   3.589
13047SOL    HW252507   6.322   5.865   3.529
13047SOL    HW352508   6.348   5.908   3.672
13047SOL    MW452509   6.318   5.925   3.591
13048SOL     OW52510   6.048   7.306   2.504
13048SOL    HW252511   6.080   7.394   2.482
13048SOL    HW352512   6.001   7.278   2.426
13048SOL    MW452513   6.047   7.314   2.491
13049SOL     OW52514   7.432   5.668   2.553
13049SOL    HW252515   7.486   5.619   2.615
13049SOL    HW352516   7.375   5.602   2.514
13049SOL    MW452517   7.432   5.652   2.555
13050SOL     OW52518   5.764   7.366   2.081
13050SOL    HW252519   5.793   7.456   2.073
13050SOL    HW352520   5.714   7.349   2.002
13050SOL    MW452521   5.762   7.374   2.070
13051SOL     OW52522   6.551   5.621   2.966
13051SOL    HW252523   6.510   5.699   2.928
13051SOL    HW352524   6.645   5.639   2.961
13051SOL    MW452525   6.557   5.633   2.961
13052SOL     OW52526   7.168   7.174   2.052
13052SOL    HW252527   7.216   7.243   2.098
13052SOL    HW352528   7.089   7.218   2.021
13052SOL    MW452529   7.163   7.188   2.055
13053SOL     OW52530   6.566   6.299   1.996
13053SOL    HW252531   6.568   6.246   1.917
13053SOL    HW352532   6.654   6.336   2.002
13053SOL    MW452533   6.578   6.298   1.985
13054SOL     OW52534   7.180   6.225   2.332
13054SOL    HW252535   7.219   6.225   2.419
13054SOL    HW352536   7.121   6.301   2.332
13054SOL    MW452537   7.177   6.236   2.343
13055SOL     OW52538   6.577   5.729   3.221
13055SOL    HW252539   6.583   5.691   3.134
13055SOL    HW352540   6.566   5.823   3.206
13055SOL    MW452541   6.578   5.737   3.209
13056SOL     OW52542   6.666   6.218   3.055
13056SOL    HW252543   6.741   6.247   3.002
13056SOL    HW352544   6.598   6.283   3.039
13056SOL    MW452545   6.667   6.230   3.045
13057SOL     OW52546   7.216   6.186   3.332
13057SOL    HW252547   7.197   6.095   3.311
13057SOL    HW352548   7.194   6.235   3.253
13057SOL    MW452549   7.211   6.179   3.319
13058SOL     OW52550   7.358   7.280   3.236
13058SOL    HW252551   7.286   7.242   3.287
13058SOL    HW352552   7.375   7.365   3.277
13058SOL    MW452553   7.352   7.285   3.248
13059SOL     OW52554   6.663   5.924   3.438
13059SOL    HW252555   6.629   5.963   3.357
13059SOL    HW352556   6.641   5.832   3.431
13059SOL    MW452557   6.656   5.917   3.428
13060SOL     OW52558   7.072   6.738   3.514
13060SOL    HW252559   7.154   6.779   3.544
13060SOL    HW352560   7.035   6.700   3.594
13060SOL    MW452561   7.078   6.739   3.529
13061SOL     OW52562   7.367   6.111   2.498
13061SOL    HW252563   7.456   6.080   2.515
13061SOL    HW352564   7.310   6.051   2.546
13061SOL    MW452565   7.370   6.099   2.507
13062SOL     OW52566   5.793   5.825   2.527
13062SOL    HW252567   5.784   5.765   2.453
13062SOL    HW352568   5.726   5.796   2.590
13062SOL    MW452569   5.783   5.812   2.525
13063SOL     OW52570   6.736   6.918   2.088
13063SOL    HW252571   6.686   6.920   2.170
13063SOL    HW352572   6.670   6.936   2.020
13063SOL    MW452573   6.722   6.920   2.090
13064SOL     OW52574   7.327   6.856   3.593
13064SOL    HW252575   7.377   6.782   3.625
13064SOL    HW352576   7.273   6.883   3.668
13064SOL    MW452577   7.327   6.850   3.606
13065SOL     OW52578   7.461   6.491   3.095
13065SOL    HW252579   7.477   6.529   3.008
13065SOL    HW352580   7.495   6.557   3.156
13065SOL    MW452581   7.468   6.504   3.091
13066SOL     OW52582   7.253   7.200   2.764
13066SOL    HW252583   7.282   7.267   2.825
13066SOL    HW352584   7.234   7.124   2.819
13066SOL    MW452585   7.255   7.200   2.779
13067SOL     OW52586   6.916   7.267   1.971
13067SOL    HW252587   6.842   7.230   2.021
13067SOL    HW352588   6.924   7.357   2.004
13067SOL    MW452589   6.907   7.274   1.983
13068SOL     OW52590   7.140   6.941   1.913
13068SOL    HW252591   7.087   6.990   1.849
13068SOL    HW352592   7.171   7.007   1.974
13068SOL    MW452593   7.138   6.955   1.911
13069SOL     OW52594   6.365   5.830   1.968
13069SOL    HW252595   6.313   5.750   1.956
13069SOL    HW352596   6.452   5.807   1.936
13069SOL    MW452597   6.368   5.816   1.962
13070SOL     OW52598   5.819   7.382   3.512
13070SOL    HW252599   5.793   7.450   3.450
13070SOL    HW352600   5.867   7.319   3.460
13070SOL    MW452601   5.821   7.382   3.498
13071SOL     OW52602   5.871   6.701   3.019
13071SOL    HW252603   5.924   6.776   3.044
13071SOL    HW352604   5.790   6.739   2.985
13071SOL    MW452605   5.867   6.716   3.019
13072SOL     OW52606   6.411   6.605   3.007
13072SOL    HW252607   6.439   6.514   3.019
13072SOL    HW352608   6.340   6.599   2.943
13072SOL    MW452609   6.404   6.593   3.002
13073SOL     OW52610   5.962   6.178   3.679
13073SOL    HW252611   5.909   6.258   3.686
13073SOL    HW352612   6.032   6.190   3.744
13073SOL    MW452613   5.964   6.191   3.687
13074SOL     OW52614   6.348   5.728   3.386
13074SOL    HW252615   6.325   5.636   3.388
13074SOL    HW352616   6.434   5.730   3.343
13074SOL    MW452617   6.355   5.718   3.382
13075SOL     OW52618   6.032   6.252   3.425
13075SOL    HW252619   6.112   6.302   3.411
13075SOL    HW352620   6.023   6.246   3.520
13075SOL    MW452621   6.041   6.258   3.435
13076SOL     OW52622   6.353   7.402   2.799
13076SOL    HW252623   6.442   7.417   2.829
13076SOL    HW352624   6.348   7.449   2.715
13076SOL    MW452625   6.363   7.410   2.792
13077SOL     OW52626   7.009   5.777   3.696
13077SOL    HW252627   7.065   5.704   3.722
13077SOL    HW352628   6.979   5.815   3.778
13077SOL    MW452629   7.013   5.772   3.709
13078SOL     OW52630   5.734   7.082   2.464
13078SOL    HW252631   5.706   7.121   2.546
13078SOL    HW352632   5.754   6.991   2.486
13078SOL    MW452633   5.732   7.074   2.477
13079SOL     OW52634   6.567   7.125   2.499
13079SOL    HW252635   6.650   7.079   2.483
13079SOL    HW352636   6.557   7.124   2.595
13079SOL    MW452637   6.577   7.118   2.509
13080SOL     OW52638   7.399   6.270   2.813
13080SOL    HW252639   7.488   6.300   2.795
13080SOL    HW352640   7.379   6.210   2.742
13080SOL    MW452641   7.408   6.267   2.802
13081SOL     OW52642   7.250   6.449   3.693
13081SOL    HW252643   7.305   6.373   3.674
13081SOL    HW352644   7.252   6.457   3.788
13081SOL    MW452645   7.258   6.440   3.701
13082SOL     OW52646   6.738   5.827   2.127
13082SOL    HW252647   6.671   5.803   2.064
13082SOL    HW352648   6.803   5.876   2.076
13082SOL    MW452649   6.738   5.829   2.112
13083SOL     OW52650   6.545   6.011   3.212
13083SOL    HW252651   6.464   6.052   3.240
13083SOL    HW352652   6.592   6.079   3.164
13083SOL    MW452653   6.540   6.026   3.210
13084SOL     OW52654   6.805   6.349   2.835
13084SOL    HW252655   6.818   6.443   2.845
13084SOL    HW352656   6.766   6.339   2.749
13084SOL    MW452657   6.801   6.360   2.825
13085SOL     OW52658   6.257   6.544   2.639
13085SOL    HW252659   6.168   6.535   2.672
13085SOL    HW352660   6.261   6.634   2.607
13085SOL    MW452661   6.246   6.555   2.639
13086SOL     OW52662   7.056   6.127   2.634
13086SOL    HW252663   7.001   6.048   2.633
13086SOL    HW352664   7.038   6.168   2.718
13086SOL    MW452665   7.046   6.122   2.643
13087SOL     OW52666   6.027   5.814   3.451
13087SOL    HW252667   5.948   5.832   3.503
13087SOL    HW352668   6.022   5.876   3.378
13087SOL    MW452669   6.017   5.824   3.448
13088SOL     OW52670   6.675   6.331   2.591
13088SOL    HW252671   6.612   6.263   2.615
13088SOL    HW352672   6.695   6.312   2.499
13088SOL    MW452673   6.669   6.318   2.583
13089SOL     OW52674   5.931   7.226   2.293
13089SOL    HW252675   5.892   7.273   2.219
13089SOL    HW352676   5.865   7.161   2.318
13089SOL    MW452677   5.918   7.224   2.287
13090SOL     OW52678   6.423   6.635   2.317
13090SOL    HW252679   6.425   6.609   2.224
13090SOL    HW352680   6.481   6.572   2.360
13090SOL    MW452681   6.431   6.624   2.311
13091SOL     OW52682   6.976   7.195   3.089
13091SOL    HW252683   6.901   7.241   3.127
13091SOL    HW352684   6.958   7.102   3.106
13091SOL    MW452685   6.965   7.189   3.097
13092SOL     OW52686   6.980   7.403   2.519
13092SOL    HW252687   6.923   7.356   2.458
13092SOL    HW352688   7.066   7.364   2.506
13092SOL    MW452689   6.983   7.394   2.509
13093SOL     OW52690   6.933   5.879   2.650
13093SOL    HW252691   6.961   5.811   2.711
13093SOL    HW352692   6.847   5.850   2.620
13093SOL    MW452693   6.926   5.866   2.654
13094SOL     OW52694   5.738   6.813   2.584
13094SOL    HW252695   5.802   6.845   2.647
13094SOL    HW352696   5.787   6.749   2.532
13094SOL    MW452697   5.753   6.809   2.585
13095SOL     OW52698   6.238   6.889   3.566
13095SOL    HW252699   6.286   6.972   3.553
13095SOL    HW352700   6.295   6.837   3.622
13095SOL    MW452701   6.252   6.893   3.572
13096SOL     OW52702   5.814   7.131   3.706
13096SOL    HW252703   5.870   7.055   3.721
13096SOL    HW352704   5.763   7.109   3.628
13096SOL    MW452705   5.814   7.118   3.697
13097SOL     OW52706   6.913   5.983   1.985
13097SOL    HW252707   6.886   6.049   1.921
13097SOL    HW352708   6.983   6.026   2.035
13097SOL    MW452709   6.918   5.996   1.982
13098SOL     OW52710   6.581   5.688   1.922
13098SOL    HW252711   6.637   5.680   1.844
13098SOL    HW352712   6.558   5.598   1.944
13098SOL    MW452713   6.586   5.675   1.915
13099SOL     OW52714   7.086   6.539   2.127
13099SOL    HW252715   7.053   6.628   2.117
13099SOL    HW352716   7.051   6.510   2.212
13099SOL    MW452717   7.076   6.548   2.138
13100SOL     OW52718   6.699   6.968   3.315
13100SOL    HW252719   6.610   6.974   3.283
13100SOL    HW352720   6.743   7.047   3.283
13100SOL    MW452721   6.694   6.978   3.307
13101SOL     OW52722   5.992   5.636   3.657
13101SOL    HW252723   5.920   5.601   3.605
13101SOL    HW352724   6.050   5.677   3.592
13101SOL    MW452725   5.990   5.637   3.642
13102SOL     OW52726   6.016   7.126   2.956
13102SOL    HW252727   6.061   7.188   3.013
13102SOL    HW352728   5.923   7.145   2.969
13102SOL    MW452729   6.009   7.136   2.963
13103SOL     OW52730   7.456   6.655   3.310
13103SOL    HW252731   7.371   6.668   3.269
13103SOL    HW352732   7.436   6.619   3.397
13103SOL    MW452733   7.443   6.651   3.315
13104SOL     OW52734   6.438   7.194   3.064
13104SOL    HW252735   6.462   7.183   2.973
13104SOL    HW352736   6.361   7.251   3.062
13104SOL    MW452737   6.430   7.199   3.053
13105SOL     OW52738   6.733   6.550   2.162
13105SOL    HW252739   6.643   6.571   2.137
13105SOL    HW352740   6.760   6.623   2.218
13105SOL    MW452741   6.725   6.562   2.165
13106SOL     OW52742   6.233   6.899   2.854
13106SOL    HW252743   6.226   6.878   2.948
13106SOL    HW352744   6.151   6.867   2.817
13106SOL    MW452745   6.221   6.893   2.861
13107SOL     OW52746   7.097   5.909   3.256
13107SOL    HW252747   7.044   5.911   3.336
13107SOL    HW352748   7.082   5.822   3.219
13107SOL    MW452749   7.089   5.899   3.261
13108SOL     OW52750   7.433   5.833   3.129
13108SOL    HW252751   7.414   5.900   3.064
13108SOL    HW352752   7.490   5.771   3.084
13108SOL    MW452753   7.437   5.834   3.115
13109SOL     OW52754   5.679   6.991   3.517
13109SOL    HW252755   5.723   6.924   3.463
13109SOL    HW352756   5.594   6.953   3.537
13109SOL    MW452757   5.674   6.977   3.513
13110SOL     OW52758   6.362   5.666   2.569
13110SOL    HW252759   6.291   5.727   2.551
13110SOL    HW352760   6.413   5.663   2.488
13110SOL    MW452761   6.358   5.672   2.556
13111SOL     OW52762   6.120   6.906   2.318
13111SOL    HW252763   6.113   6.938   2.408
13111SOL    HW352764   6.030   6.890   2.290
13111SOL    MW452765   6.108   6.908   2.325
13112SOL     OW52766   6.715   7.299   3.227
13112SOL    HW252767   6.635   7.284   3.177
13112SOL    HW352768   6.722   7.394   3.234
13112SOL    MW452769   6.706   7.310   3.221
13113SOL     OW52770   6.829   7.264   2.717
13113SOL    HW252771   6.876   7.337   2.676
13113SOL    HW352772   6.750   7.303   2.753
13113SOL    MW452773   6.824   7.279   2.716
13114SOL     OW52774   7.237   7.359   2.992
13114SOL    HW252775   7.280   7.329   3.072
13114SOL    HW352776   7.156   7.307   2.989
13114SOL    MW452777   7.232   7.348   3.002
13115SOL     OW52778   6.322   6.323   3.699
13115SOL    HW252779   6.392   6.265   3.671
13115SOL    HW352780   6.265   6.268   3.754
13115SOL    MW452781   6.324   6.310   3.703
13116SOL     OW52782   7.109   6.535   3.332
13116SOL    HW252783   7.114   6.588   3.412
13116SOL    HW352784   7.071   6.452   3.360
13116SOL    MW452785   7.105   6.530   3.347
13117SOL     OW52786   6.749   5.670   3.578
13117SOL    HW252787   6.744   5.577   3.559
13117SOL    HW352788   6.832   5.681   3.624
13117SOL    MW452789   6.757   5.659   3.582
13118SOL     OW52790   6.123   6.190   2.032
13118SOL    HW252791   6.089   6.246   2.102
13118SOL    HW352792   6.194   6.140   2.072
13118SOL    MW452793   6.129   6.191   2.046
13119SOL     OW52794   7.219   6.941   2.854
13119SOL    HW252795   7.254   6.923   2.767
13119SOL    HW352796   7.124   6.942   2.841
13119SOL    MW452797   7.211   6.938   2.841
13120SOL     OW52798   6.648   6.589   3.223
13120SOL    HW252799   6.691   6.624   3.301
13120SOL    HW352800   6.631   6.666   3.169
13120SOL    MW452801   6.651   6.604   3.226
13121SOL     OW52802   7.179   6.076   2.096
13121SOL    HW252803   7.171   6.147   2.033
13121SOL    HW352804   7.197   6.120   2.179
13121SOL    MW452805   7.180   6.090   2.098
13122SOL     OW52806   5.798   6.793   3.385
13122SOL    HW252807   5.826   6.746   3.463
13122SOL    HW352808   5.719   6.748   3.356
13122SOL    MW452809   5.791   6.782   3.391
13123SOL     OW52810   6.306   6.120   3.352
13123SOL    HW252811   6.278   6.208   3.376
13123SOL    HW352812   6.275   6.064   3.423
13123SOL    MW452813   6.298   6.123   3.364
13124SOL     OW52814   6.848   6.338   2.071
13124SOL    HW252815   6.895   6.356   1.990
13124SOL    HW352816   6.814   6.422   2.099
13124SOL    MW452817   6.850   6.352   2.064
13125SOL     OW52818   5.961   6.516   2.565
13125SOL    HW252819   6.019   6.572   2.513
13125SOL    HW352820   6.005   6.431   2.567
13125SOL    MW452821   5.974   6.513   2.558
13126SOL     OW52822   7.101   5.868   2.402
13126SOL    HW252823   7.023   5.818   2.427
13126SOL    HW352824   7.072   5.959   2.402
13126SOL    MW452825   7.087   5.872   2.405
13127SOL     OW52826   6.687   5.830   2.561
13127SOL    HW252827   6.707   5.905   2.505
13127SOL    HW352828   6.667   5.869   2.646
13127SOL    MW452829   6.688   5.846   2.565
13128SOL     OW52830   7.447   6.603   3.580
13128SOL    HW252831   7.360   6.583   3.616
13128SOL    HW352832   7.501   6.529   3.605
13128SOL    MW452833   7.442   6.592   3.588
13129SOL     OW52834   5.668   7.116   2.737
13129SOL    HW252835   5.700   7.120   2.828
13129SOL    HW352836   5.573   7.124   2.745
13129SOL    MW452837   5.660   7.119   2.750
13130SOL     OW52838   7.191   7.454   3.718
13130SOL    HW252839   7.236   7.378   3.683
13130SOL    HW352840   7.229   7.467   3.805
13130SOL    MW452841   7.201   7.447   3.724
13131SOL     OW52842   6.791   6.973   2.444
13131SOL    HW252843   6.814   6.924   2.522
13131SOL    HW352844   6.872   7.015   2.416
13131SOL    MW452845   6.804   6.973   2.451
13132SOL     OW52846   6.049   5.981   3.173
13132SOL    HW252847   6.082   6.062   3.213
13132SOL    HW352848   6.022   6.007   3.085
13132SOL    MW452849   6.048   5.995   3.167
13133SOL     OW52850   6.832   6.157   3.600
13133SOL    HW252851   6.884   6.092   3.553
13133SOL    HW352852   6.790   6.208   3.530
13133SOL    MW452853   6.833   6.154   3.583
13134SOL     OW52854   6.931   5.952   3.461
13134SOL    HW252855   6.838   5.936   3.448
13134SOL    HW352856   6.957   5.890   3.529
13134SOL    MW452857   6.921   5.942   3.468
13135SOL     OW52858   6.240   7.341   3.346
13135SOL    HW252859   6.157   7.326   3.391
13135SOL    HW352860   6.299   7.274   3.381
13135SOL    MW452861   6.238   7.331   3.356
13136SOL     OW52862   7.297   6.048   2.971
13136SOL    HW252863   7.230   6.081   3.031
13136SOL    HW352864   7.340   6.126   2.937
13136SOL    MW452865   7.295   6.063   2.975
13137SOL     OW52866   7.475   6.768   2.941
13137SOL    HW252867   7.468   6.708   2.866
13137SOL    HW352868   7.401   6.828   2.930
13137SOL    MW452869   7.465   6.768   2.930
13138SOL     OW52870   6.857   6.630   2.859
13138SOL    HW252871   6.871   6.602   2.950
13138SOL    HW352872   6.943   6.661   2.831
13138SOL    MW452873   6.870   6.631   2.868
13139SOL     OW52874   6.940   6.125   3.138
13139SOL    HW252875   6.961   6.126   3.045
13139SOL    HW352876   6.985   6.047   3.171
13139SOL    MW452877   6.947   6.115   3.130
13140SOL     OW52878   7.433   6.256   3.680
13140SOL    HW252879   7.470   6.201   3.749
13140SOL    HW352880   7.458   6.213   3.598
13140SOL    MW452881   7.440   6.244   3.679
13141SOL     OW52882   6.980   6.554   3.731
13141SOL    HW252883   7.046   6.502   3.685
13141SOL    HW352884   7.000   6.541   3.824
13141SOL    MW452885   6.991   6.545   3.738
13142SOL     OW52886   6.931   5.640   2.080
13142SOL    HW252887   7.005   5.684   2.123
13142SOL    HW352888   6.855   5.694   2.102
13142SOL    MW452889   6.931   5.652   2.088
13143SOL     OW52890   6.991   6.415   2.358
13143SOL    HW252891   6.906   6.385   2.328
13143SOL    HW352892   6.983   6.422   2.453
13143SOL    MW452893   6.979   6.413   2.367
13144SOL     OW52894   6.067   6.878   3.089
13144SOL    HW252895   6.079   6.905   3.180
13144SOL    HW352896   6.048   6.959   3.042
13144SOL    MW452897   6.066   6.893   3.094
13145SOL     OW52898   6.351   5.858   2.912
13145SOL    HW252899   6.324   5.860   3.003
13145SOL    HW352900   6.281   5.810   2.867
13145SOL    MW452901   6.339   5.854   2.919
13146SOL     OW52902   6.205   7.350   3.074
13146SOL    HW252903   6.257   7.427   3.051
13146SOL    HW352904   6.214   7.342   3.169
13146SOL    MW452905   6.214   7.357   3.085
13147SOL     OW52906   7.107   6.935   3.306
13147SOL    HW252907   7.092   6.864   3.369
13147SOL    HW352908   7.153   6.893   3.234
13147SOL    MW452909   7.113   6.919   3.306
13148SOL     OW52910   6.181   6.666   3.423
13148SOL    HW252911   6.218   6.671   3.335
13148SOL    HW352912   6.220   6.739   3.470
13148SOL    MW452913   6.191   6.676   3.418
13149SOL     OW52914   6.361   6.709   3.235
13149SOL    HW252915   6.420   6.655   3.288
13149SOL    HW352916   6.376   6.681   3.145
13149SOL    MW452917   6.371   6.698   3.231
13150SOL     OW52918   6.364   6.081   2.084
13150SOL    HW252919   6.437   6.130   2.047
13150SOL    HW352920   6.380   5.990   2.058
13150SOL    MW452921   6.376   6.076   2.077
13151SOL     OW52922   7.172   7.198   3.407
13151SOL    HW252923   7.214   7.183   3.492
13151SOL    HW352924   7.163   7.111   3.369
13151SOL    MW452925   7.176   7.186   3.414
13152SOL     OW52926   6.832   5.677   2.998
13152SOL    HW252927   6.887   5.686   2.920
13152SOL    HW352928   6.887   5.711   3.069
13152SOL    MW452929   6.846   5.682   2.997
13153SOL     OW52930   6.734   7.175   2.193
13153SOL    HW252931   6.742   7.093   2.144
13153SOL    HW352932   6.653   7.214   2.160
13153SOL    MW452933   6.724   7.170   2.183
13154SOL     OW52934   5.993   7.333   2.762
13154SOL    HW252935   5.997   7.244   2.797
13154SOL    HW352936   6.019   7.324   2.671
13154SOL    MW452937   5.996   7.321   2.754
13155SOL     OW52938   6.610   6.811   3.005
13155SOL    HW252939   6.542   6.745   3.021
13155SOL    HW352940   6.628   6.805   2.912
13155SOL    MW452941   6.603   6.802   2.996
13156SOL     OW52942   5.699   7.086   3.256
13156SOL    HW252943   5.689   7.044   3.342
13156SOL    HW352944   5.620   7.139   3.246
13156SOL    MW452945   5.688   7.087   3.267
13157SOL     OW52946   6.603   5.950   2.826
13157SOL    HW252947   6.533   5.902   2.871
13157SOL    HW352948   6.635   6.013   2.890
13157SOL    MW452949   6.598   5.952   2.840
13158SOL     OW52950   6.254   6.386   3.446
13158SOL    HW252951   6.247   6.481   3.434
13158SOL    HW352952   6.263   6.375   3.541
13158SOL    MW452953   6.255   6.398   3.456
13159SOL     OW52954   5.975   6.901   3.704
13159SOL    HW252955   6.047   6.903   3.641
13159SOL    HW352956   5.945   6.810   3.703
13159SOL    MW452957   5.980   6.890   3.696
13160SOL     OW52958   7.059   5.664   3.171
13160SOL    HW252959   7.130   5.610   3.135
13160SOL    HW352960   7.058   5.643   3.264
13160SOL    MW452961   7.068   5.655   3.179
13161SOL     OW52962   7.259   7.194   3.655
13161SOL    HW252963   7.232   7.191   3.746
13161SOL    HW352964   7.355   7.198   3.658
13161SOL    MW452965   7.269   7.194   3.667
13162SOL     OW52966   5.625   7.391   3.711
13162SOL    HW252967   5.675   7.369   3.633
13162SOL    HW352968   5.633   7.486   3.719
13162SOL    MW452969   5.633   7.400   3.702
13163SOL     OW52970   6.386   7.149   2.715
13163SOL    HW252971   6.314   7.086   2.728
13163SOL    HW352972   6.347   7.234   2.733
13163SOL    MW452973   6.370   7.152   2.718
13164SOL     OW52974   6.706   5.997   2.363
13164SOL    HW252975   6.728   5.934   2.295
13164SOL    HW352976   6.611   5.989   2.374
13164SOL    MW452977   6.696   5.988   2.355
13165SOL     OW52978   5.791   5.687   2.295
13165SOL    HW252979   5.862   5.708   2.234
13165SOL    HW352980   5.745   5.615   2.253
13165SOL    MW452981   5.795   5.681   2.281
13166SOL     OW52982   5.622   6.154   3.438
13166SOL    HW252983   5.686   6.220   3.413
13166SOL    HW352984   5.541   6.181   3.395
13166SOL    MW452985   5.620   6.166   3.430
13167SOL     OW52986   7.360   7.061   2.395
13167SOL    HW252987   7.330   6.994   2.456
13167SOL    HW352988   7.454   7.067   2.409
13167SOL    MW452989   7.368   7.053   2.405
13168SOL     OW52990   6.916   6.738   2.325
13168SOL    HW252991   6.888   6.824   2.358
13168SOL    HW352992   6.944   6.754   2.235
13168SOL    MW452993   6.916   6.752   2.317
13169SOL     OW52994   6.578   5.658   2.378
13169SOL    HW252995   6.615   5.717   2.443
13169SOL    HW352996   6.555   5.714   2.304
13169SOL    MW452997   6.579   5.673   2.377
13170SOL     OW52998   7.431   6.540   2.800
13170SOL    HW252999   7.422   6.572   2.711
13170SOL    HW353000   7.384   6.456   2.800
13170SOL    MW453001   7.424   6.533   2.790
13171SOL     OW53002   5.807   6.380   3.379
13171SOL    HW253003   5.828   6.449   3.317
13171SOL    HW353004   5.887   6.327   3.384
13171SOL    MW453005   5.820   6.381   3.373
13172SOL     OW53006   7.343   6.471   2.501
13172SOL    HW253007   7.437   6.460   2.489
13172SOL    HW353008   7.319   6.543   2.442
13172SOL    MW453009   7.353   6.479   2.492
13173SOL     OW53010   5.792   6.395   3.646
13173SOL    HW253011   5.718   6.339   3.672
13173SOL    HW353012   5.787   6.398   3.551
13173SOL    MW453013   5.781   6.388   3.636
13174SOL     OW53014   5.958   5.682   3.096
13174SOL    HW253015   6.001   5.766   3.116
13174SOL    HW353016   6.031   5.620   3.089
13174SOL    MW453017   5.973   5.685   3.097
13175SOL     OW53018   6.775   6.208   3.338
13175SOL    HW253019   6.811   6.181   3.254
13175SOL    HW353020   6.688   6.242   3.317
13175SOL    MW453021   6.769   6.209   3.325
13176SOL     OW53022   7.305   7.420   2.095
13176SOL    HW253023   7.372   7.453   2.035
13176SOL    HW353024   7.262   7.499   2.129
13176SOL    MW453025   7.307   7.435   2.091
13177SOL     OW53026   6.440   6.341   3.047
13177SOL    HW253027   6.398   6.259   3.023
13177SOL    HW353028   6.441   6.340   3.143
13177SOL    MW453029   6.433   6.330   3.056
13178SOL     OW53030   7.111   7.474   3.446
13178SOL    HW253031   7.114   7.380   3.429
13178SOL    HW353032   7.134   7.482   3.538
13178SOL    MW453033   7.114   7.462   3.456
13179SOL     OW53034   6.244   5.811   3.152
13179SOL    HW253035   6.175   5.874   3.173
13179SOL    HW353036   6.271   5.775   3.237
13179SOL    MW453037   6.238   5.814   3.165
13180SOL     OW53038   7.039   5.664   2.769
13180SOL    HW253039   7.127   5.673   2.806
13180SOL    HW353040   7.049   5.605   2.695
13180SOL    MW453041   7.053   5.658   2.763
13181SOL     OW53042   7.071   6.403   2.613
13181SOL    HW253043   7.151   6.418   2.562
13181SOL    HW353044   7.064   6.308   2.619
13181SOL    MW453045   7.080   6.392   2.608
13182SOL     OW53046   6.521   6.329   3.310
13182SOL    HW253047   6.590   6.396   3.307
13182SOL    HW353048   6.454   6.367   3.366
13182SOL    MW453049   6.522   6.342   3.317
13183SOL     OW53050   5.939   6.629   3.558
13183SOL    HW253051   5.893   6.545   3.560
13183SOL    HW353052   5.996   6.623   3.482
13183SOL    MW453053   5.941   6.617   3.550
13184SOL     OW53054   7.056   6.272   1.879
13184SOL    HW253055   6.984   6.248   1.821
13184SOL    HW353056   7.122   6.309   1.821
13184SOL    MW453057   7.055   6.274   1.864
13185SOL     OW53058   6.190   7.004   2.559
13185SOL    HW253059   6.255   6.937   2.580
13185SOL    HW353060   6.242   7.081   2.536
13185SOL    MW453061   6.205   7.006   2.558
13186SOL     OW53062   6.451   6.169   2.689
13186SOL    HW253063   6.391   6.187   2.761
13186SOL    HW353064   6.485   6.081   2.708
13186SOL    MW453065   6.447   6.159   2.702
13187SOL     OW53066   7.392   5.668   3.358
13187SOL    HW253067   7.313   5.714   3.386
13187SOL    HW353068   7.427   5.722   3.287
13187SOL    MW453069   7.386   5.681   3.352
13188SOL     OW53070   6.676   6.752   2.708
13188SOL    HW253071   6.768   6.733   2.726
13188SOL    HW353072   6.649   6.682   2.648
13188SOL    MW453073   6.684   6.740   2.702
13189SOL     OW53074   6.469   6.572   2.063
13189SOL    HW253075   6.455   6.484   2.028
13189SOL    HW353076   6.420   6.629   2.004
13189SOL    MW453077   6.461   6.567   2.051
13190SOL     OW53078   6.950   6.990   2.804
13190SOL    HW253079   6.923   7.074   2.769
13190SOL    HW353080   6.910   6.985   2.891
13190SOL    MW453081   6.943   6.999   2.810
13191SOL     OW53082   6.869   6.938   3.072
13191SOL    HW253083   6.880   6.905   3.161
13191SOL    HW353084   6.788   6.897   3.041
13191SOL    MW453085   6.859   6.930   3.078
13192SOL     OW53086   6.949   7.060   3.604
13192SOL    HW253087   6.949   7.154   3.620
13192SOL    HW353088   6.994   7.050   3.520
13192SOL    MW453089   6.955   7.070   3.595
13193SOL     OW53090   7.188   5.778   2.165
13193SOL    HW253091   7.181   5.782   2.260
13193SOL    HW353092   7.200   5.869   2.138
13193SOL    MW453093   7.189   5.791   2.173
13194SOL     OW53094   6.477   6.341   2.279
13194SOL    HW253095   6.457   6.327   2.186
13194SOL    HW353096   6.570   6.320   2.286
13194SOL    MW453097   6.487   6.336   2.268
13195SOL     OW53098   5.804   5.964   3.583
13195SOL    HW253099   5.761   6.023   3.520
13195SOL    HW353100   5.872   6.019   3.623
13195SOL    MW453101   5.808   5.979   3.580
13196SOL     OW53102   6.916   6.584   3.128
13196SOL    HW253103   6.979   6.581   3.201
13196SOL    HW353104   6.832   6.602   3.170
13196SOL    MW453105   6.912   6.586   3.143
13197SOL     OW53106   7.255   5.761   2.907
13197SOL    HW253107   7.300   5.679   2.926
13197SOL    HW353108   7.275   5.817   2.983
13197SOL    MW453109   7.265   5.757   2.919
13198SOL     OW53110   5.703   5.604   3.006
13198SOL    HW253111   5.694   5.605   2.911
13198SOL    HW353112   5.797   5.616   3.021
13198SOL    MW453113   5.715   5.607   2.997
13199SOL     OW53114   7.340   6.797   2.626
13199SOL    HW253115   7.319   6.743   2.549
13199SOL    HW353116   7.436   6.795   2.630
13199SOL    MW453117   7.349   6.790   2.615
13200SOL     OW53118   6.032   6.942   3.369
13200SOL    HW253119   5.953   6.892   3.392
13200SOL    HW353120   6.102   6.901   3.419
13200SOL    MW453121   6.030   6.930   3.379
13201SOL     OW53122   5.916   5.731   2.052
13201SOL    HW253123   5.845   5.786   2.020
13201SOL    HW353124   5.958   5.697   1.973
13201SOL    MW453125   5.912   5.733   2.038
13202SOL     OW53126   7.040   6.228   2.888
13202SOL    HW253127   6.963   6.274   2.854
13202SOL    HW353128   7.097   6.297   2.922
13202SOL    MW453129   7.037   6.243   2.888
13203SOL     OW53130   5.672   5.830   1.901
13203SOL    HW253131   5.639   5.909   1.945
13203SOL    HW353132   5.727   5.863   1.830
13203SOL    MW453133   5.675   5.844   1.898
13204SOL     OW53134   5.706   7.087   2.090
13204SOL    HW253135   5.723   7.171   2.132
13204SOL    HW353136   5.741   7.096   2.002
13204SOL    MW453137   5.711   7.100   2.084
13205SOL     OW53138   6.978   7.176   2.307
13205SOL    HW253139   7.041   7.166   2.236
13205SOL    HW353140   6.895   7.196   2.262
13205SOL    MW453141   6.975   7.177   2.292
13206SOL     OW53142   7.341   6.444   3.993
13206SOL    HW253143   7.382   6.386   4.058
13206SOL    HW353144   7.248   6.436   4.010
13206SOL    MW453145   7.335   6.436   4.003
13207SOL     OW53146   7.207   6.376   4.988
13207SOL    HW253147   7.162   6.443   5.039
13207SOL    HW353148   7.295   6.412   4.974
13207SOL    MW453149   7.213   6.389   4.992
13208SOL     OW53150   6.135   6.627   4.222
13208SOL    HW253151   6.225   6.602   4.206
13208SOL    HW353152   6.131   6.720   4.199
13208SOL    MW453153   6.147   6.636   4.217
13209SOL     OW53154   7.251   7.330   4.364
13209SOL    HW253155   7.263   7.276   4.442
13209SOL    HW353156   7.288   7.278   4.293
13209SOL    MW453157   7.257   7.315   4.365
13210SOL     OW53158   6.630   7.215   5.365
13210SOL    HW253159   6.671   7.251   5.286
13210SOL    HW353160   6.665   7.126   5.372
13210SOL    MW453161   6.641   7.208   5.356
13211SOL     OW53162   7.187   6.770   4.969
13211SOL    HW253163   7.108   6.735   4.927
13211SOL    HW353164   7.214   6.842   4.913
13211SOL    MW453165   7.180   6.775   4.956
13212SOL     OW53166   6.419   6.083   4.235
13212SOL    HW253167   6.394   6.171   4.263
13212SOL    HW353168   6.416   6.086   4.139
13212SOL    MW453169   6.415   6.095   4.227
13213SOL     OW53170   5.861   6.111   4.163
13213SOL    HW253171   5.893   6.199   4.145
13213SOL    HW353172   5.849   6.109   4.258
13213SOL    MW453173   5.864   6.123   4.175
13214SOL     OW53174   5.939   6.524   5.064
13214SOL    HW253175   6.002   6.471   5.015
13214SOL    HW353176   5.920   6.598   5.007
13214SOL    MW453177   5.945   6.526   5.051
13215SOL     OW53178   6.260   5.866   4.250
13215SOL    HW253179   6.318   5.942   4.252
13215SOL    HW353180   6.195   5.887   4.183
13215SOL    MW453181   6.259   5.878   4.241
13216SOL     OW53182   6.347   6.793   4.425
13216SOL    HW253183   6.427   6.796   4.477
13216SOL    HW353184   6.375   6.760   4.339
13216SOL    MW453185   6.361   6.789   4.420
13217SOL     OW53186   6.372   7.134   5.328
13217SOL    HW253187   6.456   7.160   5.367
13217SOL    HW353188   6.396   7.078   5.254
13217SOL    MW453189   6.386   7.130   5.323
13218SOL     OW53190   6.124   6.297   4.416
13218SOL    HW253191   6.109   6.217   4.467
13218SOL    HW353192   6.206   6.332   4.450
13218SOL    MW453193   6.132   6.289   4.428
13219SOL     OW53194   6.461   6.983   5.101
13219SOL    HW253195   6.425   7.049   5.041
13219SOL    HW353196   6.389   6.921   5.114
13219SOL    MW453197   6.447   6.983   5.095
13220SOL     OW53198   6.266   6.123   4.793
13220SOL    HW253199   6.172   6.119   4.811
13220SOL    HW353200   6.296   6.032   4.802
13220SOL    MW453201   6.257   6.111   4.796
13221SOL     OW53202   6.012   6.537   4.697
13221SOL    HW253203   5.967   6.544   4.613
13221SOL    HW353204   5.992   6.620   4.741
13221SOL    MW453205   6.004   6.549   4.691
13222SOL     OW53206   5.709   7.383   4.572
13222SOL    HW253207   5.798   7.375   4.607
13222SOL    HW353208   5.673   7.295   4.577
13222SOL    MW453209   5.716   7.370   4.577
13223SOL     OW53210   6.974   6.775   3.941
13223SOL    HW253211   6.892   6.811   3.907
13223SOL    HW353212   7.042   6.818   3.890
13223SOL    MW453213   6.972   6.785   3.929
13224SOL     OW53214   5.973   6.910   4.607
13224SOL    HW253215   5.949   6.963   4.683
13224SOL    HW353216   6.029   6.968   4.555
13224SOL    MW453217   5.977   6.925   4.610
13225SOL     OW53218   6.535   6.554   4.417
13225SOL    HW253219   6.449   6.541   4.457
13225SOL    HW353220   6.588   6.481   4.449
13225SOL    MW453221   6.531   6.543   4.426
13226SOL     OW53222   5.943   7.206   5.202
13226SOL    HW253223   5.851   7.182   5.187
13226SOL    HW353224   5.987   7.123   5.219
13226SOL    MW453225   5.937   7.191   5.201
13227SOL     OW53226   6.526   6.916   4.134
13227SOL    HW253227   6.503   6.978   4.202
13227SOL    HW353228   6.483   6.834   4.160
13227SOL    MW453229   6.518   6.912   4.145
13228SOL     OW53230   7.399   5.917   4.590
13228SOL    HW253231   7.336   5.897   4.659
13228SOL    HW353232   7.389   5.846   4.527
13228SOL    MW453233   7.389   5.904   4.591
13229SOL     OW53234   6.023   5.889   4.102
13229SOL    HW253235   5.997   5.851   4.018
13229SOL    HW353236   5.960   5.959   4.118
13229SOL    MW453237   6.012   5.892   4.093
13230SOL     OW53238   5.858   6.850   4.139
13230SOL    HW253239   5.806   6.918   4.095
13230SOL    HW353240   5.855   6.776   4.079
13230SOL    MW453241   5.850   6.849   4.126
13231SOL     OW53242   6.520   7.313   3.917
13231SOL    HW253243   6.475   7.329   4.000
13231SOL    HW353244   6.451   7.278   3.859
13231SOL    MW453245   6.506   7.310   3.919
13232SOL     OW53246   7.455   6.086   3.892
13232SOL    HW253247   7.364   6.088   3.920
13232SOL    HW353248   7.500   6.148   3.950
13232SOL    MW453249   7.448   6.094   3.902
13233SOL     OW53250   7.200   6.689   4.242
13233SOL    HW253251   7.110   6.689   4.277
13233SOL    HW353252   7.193   6.735   4.159
13233SOL    MW453253   7.187   6.695   4.236
13234SOL     OW53254   7.000   6.324   5.314
13234SOL    HW253255   7.069   6.262   5.291
13234SOL    HW353256   6.925   6.298   5.261
13234SOL    MW453257   7.000   6.311   5.305
13235SOL     OW53258   5.741   7.204   4.866
13235SOL    HW253259   5.724   7.150   4.943
13235SOL    HW353260   5.729   7.294   4.896
13235SOL    MW453261   5.738   7.208   4.880
13236SOL     OW53262   6.736   6.711   5.306
13236SOL    HW253263   6.721   6.804   5.291
13236SOL    HW353264   6.831   6.701   5.306
13236SOL    MW453265   6.745   6.721   5.303
13237SOL     OW53266   6.532   6.135   5.507
13237SOL    HW253267   6.622   6.136   5.474
13237SOL    HW353268   6.491   6.060   5.465
13237SOL    MW453269   6.538   6.125   5.498
13238SOL     OW53270   7.107   6.667   4.634
13238SOL    HW253271   7.110   6.601   4.565
13238SOL    HW353272   7.192   6.710   4.630
13238SOL    MW453273   7.119   6.663   4.625
13239SOL     OW53274   6.727   6.270   4.203
13239SOL    HW253275   6.753   6.294   4.114
13239SOL    HW353276   6.709   6.177   4.199
13239SOL    MW453277   6.729   6.262   4.190
13240SOL     OW53278   7.392   6.890   4.054
13240SOL    HW253279   7.348   6.931   4.129
13240SOL    HW353280   7.449   6.958   4.019
13240SOL    MW453281   7.394   6.904   4.059
13241SOL     OW53282   6.312   5.939   5.457
13241SOL    HW253283   6.322   5.865   5.397
13241SOL    HW353284   6.348   5.908   5.540
13241SOL    MW453285   6.318   5.925   5.459
13242SOL     OW53286   6.048   7.306   4.372
13242SOL    HW253287   6.080   7.394   4.350
13242SOL    HW353288   6.001   7.278   4.294
13242SOL    MW453289   6.047   7.314   4.359
13243SOL     OW53290   7.432   5.668   4.421
13243SOL    HW253291   7.486   5.619   4.483
13243SOL    HW353292   7.375   5.602   4.382
13243SOL    MW453293   7.432   5.652   4.423
13244SOL     OW53294   5.764   7.366   3.949
13244SOL    HW253295   5.793   7.456   3.941
13244SOL    HW353296   5.714   7.349   3.870
13244SOL    MW453297   5.762   7.374   3.938
13245SOL     OW53298   6.551   5.621   4.834
13245SOL    HW253299   6.510   5.699   4.796
13245SOL    HW353300   6.645   5.639   4.829
13245SOL    MW453301   6.557   5.633   4.829
13246SOL     OW53302   7.168   7.174   3.920
13246SOL    HW253303   7.216   7.243   3.966
13246SOL    HW353304   7.089   7.218   3.889
13246SOL    MW453305   7.163   7.188   3.923
13247SOL     OW53306   6.566   6.299   3.864
13247SOL    HW253307   6.568   6.246   3.785
13247SOL    HW353308   6.654   6.336   3.870
13247SOL    MW453309   6.578   6.298   3.853
13248SOL     OW53310   7.180   6.225   4.200
13248SOL    HW253311   7.219   6.225   4.287
13248SOL    HW353312   7.121   6.301   4.200
13248SOL    MW453313   7.177   6.236   4.211
13249SOL     OW53314   6.497   6.592   5.329
13249SOL    HW253315   6.474   6.572   5.419
13249SOL    HW353316   6.582   6.636   5.334
13249SOL    MW453317   6.504   6.595   5.341
13250SOL     OW53318   6.577   5.729   5.089
13250SOL    HW253319   6.583   5.691   5.002
13250SOL    HW353320   6.566   5.823   5.074
13250SOL    MW453321   6.578   5.737   5.077
13251SOL     OW53322   6.666   6.218   4.923
13251SOL    HW253323   6.741   6.247   4.870
13251SOL    HW353324   6.598   6.283   4.907
13251SOL    MW453325   6.667   6.230   4.913
13252SOL     OW53326   7.216   6.186   5.200
13252SOL    HW253327   7.197   6.095   5.179
13252SOL    HW353328   7.194   6.235   5.121
13252SOL    MW453329   7.211   6.179   5.187
13253SOL     OW53330   7.358   7.280   5.104
13253SOL    HW253331   7.286   7.242   5.155
13253SOL    HW353332   7.375   7.365   5.145
13253SOL    MW453333   7.352   7.285   5.116
13254SOL     OW53334   6.663   5.924   5.306
13254SOL    HW253335   6.629   5.963   5.225
13254SOL    HW353336   6.641   5.832   5.299
13254SOL    MW453337   6.656   5.917   5.296
13255SOL     OW53338   7.072   6.738   5.382
13255SOL    HW253339   7.154   6.779   5.412
13255SOL    HW353340   7.035   6.700   5.462
13255SOL    MW453341   7.078   6.739   5.397
13256SOL     OW53342   7.367   6.111   4.366
13256SOL    HW253343   7.456   6.080   4.383
13256SOL    HW353344   7.310   6.051   4.414
13256SOL    MW453345   7.370   6.099   4.375
13257SOL     OW53346   5.793   5.825   4.395
13257SOL    HW253347   5.784   5.765   4.321
13257SOL    HW353348   5.726   5.796   4.458
13257SOL    MW453349   5.783   5.812   4.393
13258SOL     OW53350   6.736   6.918   3.956
13258SOL    HW253351   6.686   6.920   4.038
13258SOL    HW353352   6.670   6.936   3.888
13258SOL    MW453353   6.722   6.920   3.958
13259SOL     OW53354   5.740   5.998   4.758
13259SOL    HW253355   5.712   6.089   4.767
13259SOL    HW353356   5.677   5.959   4.697
13259SOL    MW453357   5.727   6.004   4.752
13260SOL     OW53358   6.199   7.336   4.064
13260SOL    HW253359   6.120   7.294   4.097
13260SOL    HW353360   6.265   7.319   4.131
13260SOL    MW453361   6.198   7.328   4.077
13261SOL     OW53362   7.327   6.856   5.461
13261SOL    HW253363   7.377   6.782   5.493
13261SOL    HW353364   7.273   6.883   5.536
13261SOL    MW453365   7.327   6.850   5.474
13262SOL     OW53366   6.335   6.751   3.771
13262SOL    HW253367   6.257   6.697   3.758
13262SOL    HW353368   6.306   6.824   3.824
13262SOL    MW453369   6.321   6.753   3.776
13263SOL     OW53370   7.461   6.491   4.963
13263SOL    HW253371   7.477   6.529   4.876
13263SOL    HW353372   7.495   6.557   5.024
13263SOL    MW453373   7.468   6.504   4.959
13264SOL     OW53374   7.253   7.200   4.632
13264SOL    HW253375   7.282   7.267   4.693
13264SOL    HW353376   7.234   7.124   4.687
13264SOL    MW453377   7.255   7.200   4.647
13265SOL     OW53378   6.916   7.267   3.839
13265SOL    HW253379   6.842   7.230   3.889
13265SOL    HW353380   6.924   7.357   3.872
13265SOL    MW453381   6.907   7.274   3.851
13266SOL     OW53382   5.724   6.273   4.928
13266SOL    HW253383   5.786   6.303   4.994
13266SOL    HW353384   5.658   6.342   4.922
13266SOL    MW453385   5.723   6.286   4.935
13267SOL     OW53386   7.140   6.941   3.781
13267SOL    HW253387   7.087   6.990   3.717
13267SOL    HW353388   7.171   7.007   3.842
13267SOL    MW453389   7.138   6.955   3.779
13268SOL     OW53390   6.365   5.830   3.836
13268SOL    HW253391   6.313   5.750   3.824
13268SOL    HW353392   6.452   5.807   3.804
13268SOL    MW453393   6.368   5.816   3.830
13269SOL     OW53394   5.819   7.382   5.380
13269SOL    HW253395   5.793   7.450   5.318
13269SOL    HW353396   5.867   7.319   5.328
13269SOL    MW453397   5.821   7.382   5.366
13270SOL     OW53398   5.871   6.701   4.887
13270SOL    HW253399   5.924   6.776   4.912
13270SOL    HW353400   5.790   6.739   4.853
13270SOL    MW453401   5.867   6.716   4.887
13271SOL     OW53402   6.411   6.605   4.875
13271SOL    HW253403   6.439   6.514   4.887
13271SOL    HW353404   6.340   6.599   4.811
13271SOL    MW453405   6.404   6.593   4.870
13272SOL     OW53406   5.726   6.470   4.293
13272SOL    HW253407   5.817   6.485   4.320
13272SOL    HW353408   5.729   6.391   4.239
13272SOL    MW453409   5.738   6.462   4.291
13273SOL     OW53410   5.962   6.178   5.547
13273SOL    HW253411   5.909   6.258   5.554
13273SOL    HW353412   6.032   6.190   5.612
13273SOL    MW453413   5.964   6.191   5.555
13274SOL     OW53414   6.348   5.728   5.254
13274SOL    HW253415   6.325   5.636   5.256
13274SOL    HW353416   6.434   5.730   5.211
13274SOL    MW453417   6.355   5.718   5.250
13275SOL     OW53418   6.032   6.252   5.293
13275SOL    HW253419   6.112   6.302   5.279
13275SOL    HW353420   6.023   6.246   5.388
13275SOL    MW453421   6.041   6.258   5.303
13276SOL     OW53422   6.353   7.402   4.667
13276SOL    HW253423   6.442   7.417   4.697
13276SOL    HW353424   6.348   7.449   4.583
13276SOL    MW453425   6.363   7.410   4.660
13277SOL     OW53426   7.009   5.777   5.564
13277SOL    HW253427   7.065   5.704   5.590
13277SOL    HW353428   6.979   5.815   5.646
13277SOL    MW453429   7.013   5.772   5.577
13278SOL     OW53430   5.734   7.082   4.332
13278SOL    HW253431   5.706   7.121   4.414
13278SOL    HW353432   5.754   6.991   4.354
13278SOL    MW453433   5.732   7.074   4.345
13279SOL     OW53434   6.567   7.125   4.367
13279SOL    HW253435   6.650   7.079   4.351
13279SOL    HW353436   6.557   7.124   4.463
13279SOL    MW453437   6.577   7.118   4.377
13280SOL     OW53438   7.399   6.270   4.681
13280SOL    HW253439   7.488   6.300   4.663
13280SOL    HW353440   7.379   6.210   4.610
13280SOL    MW453441   7.408   6.267   4.670
13281SOL     OW53442   7.250   6.449   5.561
13281SOL    HW253443   7.305   6.373   5.542
13281SOL    HW353444   7.252   6.457   5.656
13281SOL    MW453445   7.258   6.440   5.569
13282SOL     OW53446   6.300   7.182   3.772
13282SOL    HW253447   6.240   7.251   3.742
13282SOL    HW353448   6.245   7.124   3.825
13282SOL    MW453449   6.284   7.184   3.774
13283SOL     OW53450   6.738   5.827   3.995
13283SOL    HW253451   6.671   5.803   3.932
13283SOL    HW353452   6.803   5.876   3.944
13283SOL    MW453453   6.738   5.829   3.980
13284SOL     OW53454   6.545   6.011   5.080
13284SOL    HW253455   6.464   6.052   5.108
13284SOL    HW353456   6.592   6.079   5.032
13284SOL    MW453457   6.540   6.026   5.078
13285SOL     OW53458   6.805   6.349   4.703
13285SOL    HW253459   6.818   6.443   4.713
13285SOL    HW353460   6.766   6.339   4.617
13285SOL    MW453461   6.801   6.360   4.693
13286SOL     OW53462   6.257   6.544   4.507
13286SOL    HW253463   6.168   6.535   4.540
13286SOL    HW353464   6.261   6.634   4.475
13286SOL    MW453465   6.246   6.555   4.507
13287SOL     OW53466   7.056   6.127   4.502
13287SOL    HW253467   7.001   6.048   4.501
13287SOL    HW353468   7.038   6.168   4.586
13287SOL    MW453469   7.046   6.122   4.511
13288SOL     OW53470   6.027   5.814   5.319
13288SOL    HW253471   5.948   5.832   5.371
13288SOL    HW353472   6.022   5.876   5.246
13288SOL    MW453473   6.017   5.824   5.316
13289SOL     OW53474   5.931   7.226   4.161
13289SOL    HW253475   5.892   7.273   4.087
13289SOL    HW353476   5.865   7.161   4.186
13289SOL    MW453477   5.918   7.224   4.155
13290SOL     OW53478   6.423   6.635   4.185
13290SOL    HW253479   6.425   6.609   4.092
13290SOL    HW353480   6.481   6.572   4.228
13290SOL    MW453481   6.431   6.624   4.179
13291SOL     OW53482   6.976   7.195   4.957
13291SOL    HW253483   6.901   7.241   4.995
13291SOL    HW353484   6.958   7.102   4.974
13291SOL    MW453485   6.965   7.189   4.965
13292SOL     OW53486   6.980   7.403   4.387
13292SOL    HW253487   6.923   7.356   4.326
13292SOL    HW353488   7.066   7.364   4.374
13292SOL    MW453489   6.983   7.394   4.377
13293SOL     OW53490   6.933   5.879   4.518
13293SOL    HW253491   6.961   5.811   4.579
13293SOL    HW353492   6.847   5.850   4.488
13293SOL    MW453493   6.926   5.866   4.522
13294SOL     OW53494   5.738   6.813   4.452
13294SOL    HW253495   5.802   6.845   4.515
13294SOL    HW353496   5.787   6.749   4.400
13294SOL    MW453497   5.753   6.809   4.453
13295SOL     OW53498   6.238   6.889   5.434
13295SOL    HW253499   6.286   6.972   5.421
13295SOL    HW353500   6.295   6.837   5.490
13295SOL    MW453501   6.252   6.893   5.440
13296SOL     OW53502   5.814   7.131   5.574
13296SOL    HW253503   5.870   7.055   5.589
13296SOL    HW353504   5.763   7.109   5.496
13296SOL    MW453505   5.814   7.118   5.565
13297SOL     OW53506   6.913   5.983   3.853
13297SOL    HW253507   6.886   6.049   3.789
13297SOL    HW353508   6.983   6.026   3.903
13297SOL    MW453509   6.918   5.996   3.850
13298SOL     OW53510   6.581   5.688   3.790
13298SOL    HW253511   6.637   5.680   3.712
13298SOL    HW353512   6.558   5.598   3.812
13298SOL    MW453513   6.586   5.675   3.783
13299SOL     OW53514   7.086   6.539   3.995
13299SOL    HW253515   7.053   6.628   3.985
13299SOL    HW353516   7.051   6.510   4.080
13299SOL    MW453517   7.076   6.548   4.006
13300SOL     OW53518   6.699   6.968   5.183
13300SOL    HW253519   6.610   6.974   5.151
13300SOL    HW353520   6.743   7.047   5.151
13300SOL    MW453521   6.694   6.978   5.175
13301SOL     OW53522   5.992   5.636   5.525
13301SOL    HW253523   5.920   5.601   5.473
13301SOL    HW353524   6.050   5.677   5.460
13301SOL    MW453525   5.990   5.637   5.510
13302SOL     OW53526   6.016   7.126   4.824
13302SOL    HW253527   6.061   7.188   4.881
13302SOL    HW353528   5.923   7.145   4.837
13302SOL    MW453529   6.009   7.136   4.831
13303SOL     OW53530   7.456   6.655   5.178
13303SOL    HW253531   7.371   6.668   5.137
13303SOL    HW353532   7.436   6.619   5.265
13303SOL    MW453533   7.443   6.651   5.183
13304SOL     OW53534   6.438   7.194   4.932
13304SOL    HW253535   6.462   7.183   4.841
13304SOL    HW353536   6.361   7.251   4.930
13304SOL    MW453537   6.430   7.199   4.921
13305SOL     OW53538   6.080   6.577   3.787
13305SOL    HW253539   6.003   6.590   3.843
13305SOL    HW353540   6.044   6.541   3.706
13305SOL    MW453541   6.066   6.573   3.784
13306SOL     OW53542   6.733   6.550   4.030
13306SOL    HW253543   6.643   6.571   4.005
13306SOL    HW353544   6.760   6.623   4.086
13306SOL    MW453545   6.725   6.562   4.033
13307SOL     OW53546   6.233   6.899   4.722
13307SOL    HW253547   6.226   6.878   4.816
13307SOL    HW353548   6.151   6.867   4.685
13307SOL    MW453549   6.221   6.893   4.729
13308SOL     OW53550   7.097   5.909   5.124
13308SOL    HW253551   7.044   5.911   5.204
13308SOL    HW353552   7.082   5.822   5.087
13308SOL    MW453553   7.089   5.899   5.129
13309SOL     OW53554   7.433   5.833   4.997
13309SOL    HW253555   7.414   5.900   4.932
13309SOL    HW353556   7.490   5.771   4.952
13309SOL    MW453557   7.437   5.834   4.983
13310SOL     OW53558   5.679   6.991   5.385
13310SOL    HW253559   5.723   6.924   5.331
13310SOL    HW353560   5.594   6.953   5.405
13310SOL    MW453561   5.674   6.977   5.381
13311SOL     OW53562   6.362   5.666   4.437
13311SOL    HW253563   6.291   5.727   4.419
13311SOL    HW353564   6.413   5.663   4.356
13311SOL    MW453565   6.358   5.672   4.424
13312SOL     OW53566   6.120   6.906   4.186
13312SOL    HW253567   6.113   6.938   4.276
13312SOL    HW353568   6.030   6.890   4.158
13312SOL    MW453569   6.108   6.908   4.193
13313SOL     OW53570   6.715   7.299   5.095
13313SOL    HW253571   6.635   7.284   5.045
13313SOL    HW353572   6.722   7.394   5.102
13313SOL    MW453573   6.706   7.310   5.089
13314SOL     OW53574   6.829   7.264   4.585
13314SOL    HW253575   6.876   7.337   4.544
13314SOL    HW353576   6.750   7.303   4.621
13314SOL    MW453577   6.824   7.279   4.584
13315SOL     OW53578   7.237   7.359   4.860
13315SOL    HW253579   7.280   7.329   4.940
13315SOL    HW353580   7.156   7.307   4.857
13315SOL    MW453581   7.232   7.348   4.870
13316SOL     OW53582   6.322   6.323   5.567
13316SOL    HW253583   6.392   6.265   5.539
13316SOL    HW353584   6.265   6.268   5.622
13316SOL    MW453585   6.324   6.310   5.571
13317SOL     OW53586   7.109   6.535   5.200
13317SOL    HW253587   7.114   6.588   5.280
13317SOL    HW353588   7.071   6.452   5.228
13317SOL    MW453589   7.105   6.530   5.215
13318SOL     OW53590   6.749   5.670   5.446
13318SOL    HW253591   6.744   5.577   5.427
13318SOL    HW353592   6.832   5.681   5.492
13318SOL    MW453593   6.757   5.659   5.450
13319SOL     OW53594   6.123   6.190   3.900
13319SOL    HW253595   6.089   6.246   3.970
13319SOL    HW353596   6.194   6.140   3.940
13319SOL    MW453597   6.129   6.191   3.914
13320SOL     OW53598   7.219   6.941   4.722
13320SOL    HW253599   7.254   6.923   4.635
13320SOL    HW353600   7.124   6.942   4.709
13320SOL    MW453601   7.211   6.938   4.709
13321SOL     OW53602   6.648   6.589   5.091
13321SOL    HW253603   6.691   6.624   5.169
13321SOL    HW353604   6.631   6.666   5.037
13321SOL    MW453605   6.651   6.604   5.094
13322SOL     OW53606   7.179   6.076   3.964
13322SOL    HW253607   7.171   6.147   3.901
13322SOL    HW353608   7.197   6.120   4.047
13322SOL    MW453609   7.180   6.090   3.966
13323SOL     OW53610   6.039   5.731   4.393
13323SOL    HW253611   6.089   5.774   4.324
13323SOL    HW353612   5.954   5.775   4.393
13323SOL    MW453613   6.036   5.744   4.384
13324SOL     OW53614   5.798   6.793   5.253
13324SOL    HW253615   5.826   6.746   5.331
13324SOL    HW353616   5.719   6.748   5.224
13324SOL    MW453617   5.791   6.782   5.259
13325SOL     OW53618   6.306   6.120   5.220
13325SOL    HW253619   6.278   6.208   5.244
13325SOL    HW353620   6.275   6.064   5.291
13325SOL    MW453621   6.298   6.123   5.232
13326SOL     OW53622   6.848   6.338   3.939
13326SOL    HW253623   6.895   6.356   3.858
13326SOL    HW353624   6.814   6.422   3.967
13326SOL    MW453625   6.850   6.352   3.932
13327SOL     OW53626   5.961   6.516   4.433
13327SOL    HW253627   6.019   6.572   4.381
13327SOL    HW353628   6.005   6.431   4.435
13327SOL    MW453629   5.974   6.513   4.426
13328SOL     OW53630   7.101   5.868   4.270
13328SOL    HW253631   7.023   5.818   4.295
13328SOL    HW353632   7.072   5.959   4.270
13328SOL    MW453633   7.087   5.872   4.273
13329SOL     OW53634   6.687   5.830   4.429
13329SOL    HW253635   6.707   5.905   4.373
13329SOL    HW353636   6.667   5.869   4.514
13329SOL    MW453637   6.688   5.846   4.433
13330SOL     OW53638   6.583   7.080   3.761
13330SOL    HW253639   6.610   7.158   3.713
13330SOL    HW353640   6.490   7.095   3.780
13330SOL    MW453641   6.574   7.093   3.757
13331SOL     OW53642   7.447   6.603   5.448
13331SOL    HW253643   7.360   6.583   5.484
13331SOL    HW353644   7.501   6.529   5.473
13331SOL    MW453645   7.442   6.592   5.456
13332SOL     OW53646   5.668   7.116   4.605
13332SOL    HW253647   5.700   7.120   4.696
13332SOL    HW353648   5.573   7.124   4.613
13332SOL    MW453649   5.660   7.119   4.618
13333SOL     OW53650   5.623   6.242   4.152
13333SOL    HW253651   5.563   6.214   4.222
13333SOL    HW353652   5.697   6.182   4.158
13333SOL    MW453653   5.625   6.231   4.161
13334SOL     OW53654   7.191   7.454   5.586
13334SOL    HW253655   7.236   7.378   5.551
13334SOL    HW353656   7.229   7.467   5.673
13334SOL    MW453657   7.201   7.447   5.592
13335SOL     OW53658   6.791   6.973   4.312
13335SOL    HW253659   6.814   6.924   4.390
13335SOL    HW353660   6.872   7.015   4.284
13335SOL    MW453661   6.804   6.973   4.319
13336SOL     OW53662   6.049   5.981   5.041
13336SOL    HW253663   6.082   6.062   5.081
13336SOL    HW353664   6.022   6.007   4.953
13336SOL    MW453665   6.048   5.995   5.035
13337SOL     OW53666   6.003   5.948   4.777
13337SOL    HW253667   6.033   5.862   4.748
13337SOL    HW353668   5.908   5.941   4.780
13337SOL    MW453669   5.995   5.937   4.775
13338SOL     OW53670   6.832   6.157   5.468
13338SOL    HW253671   6.884   6.092   5.421
13338SOL    HW353672   6.790   6.208   5.398
13338SOL    MW453673   6.833   6.154   5.451
13339SOL     OW53674   6.931   5.952   5.329
13339SOL    HW253675   6.838   5.936   5.316
13339SOL    HW353676   6.957   5.890   5.397
13339SOL    MW453677   6.921   5.942   5.336
13340SOL     OW53678   6.146   5.726   4.668
13340SOL    HW253679   6.156   5.635   4.694
13340SOL    HW353680   6.102   5.722   4.583
13340SOL    MW453681   6.142   5.714   4.660
13341SOL     OW53682   6.240   7.341   5.214
13341SOL    HW253683   6.157   7.326   5.259
13341SOL    HW353684   6.299   7.274   5.249
13341SOL    MW453685   6.238   7.331   5.224
13342SOL     OW53686   7.297   6.048   4.839
13342SOL    HW253687   7.230   6.081   4.899
13342SOL    HW353688   7.340   6.126   4.805
13342SOL    MW453689   7.295   6.063   4.843
13343SOL     OW53690   7.475   6.768   4.809
13343SOL    HW253691   7.468   6.708   4.734
13343SOL    HW353692   7.401   6.828   4.798
13343SOL    MW453693   7.465   6.768   4.798
13344SOL     OW53694   6.857   6.630   4.727
13344SOL    HW253695   6.871   6.602   4.818
13344SOL    HW353696   6.943   6.661   4.699
13344SOL    MW453697   6.870   6.631   4.736
13345SOL     OW53698   6.940   6.125   5.006
13345SOL    HW253699   6.961   6.126   4.913
13345SOL    HW353700   6.985   6.047   5.039
13345SOL    MW453701   6.947   6.115   4.998
13346SOL     OW53702   7.433   6.256   5.548
13346SOL    HW253703   7.470   6.201   5.617
13346SOL    HW353704   7.458   6.213   5.466
13346SOL    MW453705   7.440   6.244   5.547
13347SOL     OW53706   6.980   6.554   5.600
13347SOL    HW253707   7.046   6.502   5.554
13347SOL    HW353708   7.000   6.541   5.693
13347SOL    MW453709   6.991   6.545   5.607
13348SOL     OW53710   6.931   5.640   3.948
13348SOL    HW253711   7.005   5.684   3.991
13348SOL    HW353712   6.855   5.694   3.970
13348SOL    MW453713   6.931   5.652   3.956
13349SOL     OW53714   6.991   6.415   4.226
13349SOL    HW253715   6.906   6.385   4.196
13349SOL    HW353716   6.983   6.422   4.321
13349SOL    MW453717   6.979   6.413   4.235
13350SOL     OW53718   6.067   6.878   4.957
13350SOL    HW253719   6.079   6.905   5.048
13350SOL    HW353720   6.048   6.959   4.910
13350SOL    MW453721   6.066   6.893   4.962
13351SOL     OW53722   6.351   5.858   4.780
13351SOL    HW253723   6.324   5.860   4.871
13351SOL    HW353724   6.281   5.810   4.735
13351SOL    MW453725   6.339   5.854   4.787
13352SOL     OW53726   6.205   7.350   4.942
13352SOL    HW253727   6.257   7.427   4.919
13352SOL    HW353728   6.214   7.342   5.037
13352SOL    MW453729   6.214   7.357   4.953
13353SOL     OW53730   7.107   6.935   5.174
13353SOL    HW253731   7.092   6.864   5.237
13353SOL    HW353732   7.153   6.893   5.102
13353SOL    MW453733   7.113   6.919   5.174
13354SOL     OW53734   6.181   6.666   5.291
13354SOL    HW253735   6.218   6.671   5.203
13354SOL    HW353736   6.220   6.739   5.338
13354SOL    MW453737   6.191   6.676   5.286
13355SOL     OW53738   6.361   6.709   5.103
13355SOL    HW253739   6.420   6.655   5.156
13355SOL    HW353740   6.376   6.681   5.013
13355SOL    MW453741   6.371   6.698   5.099
13356SOL     OW53742   6.364   6.081   3.952
13356SOL    HW253743   6.437   6.130   3.915
13356SOL    HW353744   6.380   5.990   3.926
13356SOL    MW453745   6.376   6.076   3.945
13357SOL     OW53746   7.172   7.198   5.275
13357SOL    HW253747   7.214   7.183   5.360
13357SOL    HW353748   7.163   7.111   5.237
13357SOL    MW453749   7.176   7.186   5.282
13358SOL     OW53750   6.832   5.677   4.866
13358SOL    HW253751   6.887   5.686   4.788
13358SOL    HW353752   6.887   5.711   4.937
13358SOL    MW453753   6.846   5.682   4.865
13359SOL     OW53754   5.839   6.590   4.050
13359SOL    HW253755   5.776   6.606   3.979
13359SOL    HW353756   5.786   6.553   4.121
13359SOL    MW453757   5.824   6.587   4.050
13360SOL     OW53758   6.195   6.944   3.909
13360SOL    HW253759   6.210   6.920   4.001
13360SOL    HW353760   6.103   6.922   3.893
13360SOL    MW453761   6.185   6.937   3.919
13361SOL     OW53762   6.734   7.175   4.061
13361SOL    HW253763   6.742   7.093   4.012
13361SOL    HW353764   6.653   7.214   4.028
13361SOL    MW453765   6.724   7.170   4.051
13362SOL     OW53766   5.993   7.333   4.630
13362SOL    HW253767   5.997   7.244   4.665
13362SOL    HW353768   6.019   7.324   4.539
13362SOL    MW453769   5.996   7.321   4.622
13363SOL     OW53770   6.610   6.811   4.873
13363SOL    HW253771   6.542   6.745   4.889
13363SOL    HW353772   6.628   6.805   4.780
13363SOL    MW453773   6.603   6.802   4.864
13364SOL     OW53774   5.699   7.086   5.124
13364SOL    HW253775   5.689   7.044   5.210
13364SOL    HW353776   5.620   7.139   5.114
13364SOL    MW453777   5.688   7.087   5.135
13365SOL     OW53778   6.603   5.950   4.694
13365SOL    HW253779   6.533   5.902   4.739
13365SOL    HW353780   6.635   6.013   4.758
13365SOL    MW453781   6.598   5.952   4.708
13366SOL     OW53782   6.254   6.386   5.314
13366SOL    HW253783   6.247   6.481   5.302
13366SOL    HW353784   6.263   6.375   5.409
13366SOL    MW453785   6.255   6.398   5.324
13367SOL     OW53786   5.975   6.901   5.572
13367SOL    HW253787   6.047   6.903   5.509
13367SOL    HW353788   5.945   6.810   5.571
13367SOL    MW453789   5.980   6.890   5.564
13368SOL     OW53790   7.059   5.664   5.039
13368SOL    HW253791   7.130   5.610   5.003
13368SOL    HW353792   7.058   5.643   5.132
13368SOL    MW453793   7.068   5.655   5.047
13369SOL     OW53794   7.259   7.194   5.523
13369SOL    HW253795   7.232   7.191   5.614
13369SOL    HW353796   7.355   7.198   5.526
13369SOL    MW453797   7.269   7.194   5.535
13370SOL     OW53798   6.070   6.056   4.507
13370SOL    HW253799   6.141   6.004   4.470
13370SOL    HW353800   6.056   6.021   4.594
13370SOL    MW453801   6.078   6.045   4.514
13371SOL     OW53802   5.625   7.391   5.579
13371SOL    HW253803   5.675   7.369   5.501
13371SOL    HW353804   5.633   7.486   5.587
13371SOL    MW453805   5.633   7.400   5.570
13372SOL     OW53806   6.386   7.149   4.583
13372SOL    HW253807   6.314   7.086   4.596
13372SOL    HW353808   6.347   7.234   4.601
13372SOL    MW453809   6.370   7.152   4.586
13373SOL     OW53810   6.706   5.997   4.231
13373SOL    HW253811   6.728   5.934   4.163
13373SOL    HW353812   6.611   5.989   4.242
13373SOL    MW453813   6.696   5.988   4.223
13374SOL     OW53814   5.791   5.687   4.163
13374SOL    HW253815   5.862   5.708   4.102
13374SOL    HW353816   5.745   5.615   4.121
13374SOL    MW453817   5.795   5.681   4.149
13375SOL     OW53818   5.622   6.154   5.306
13375SOL    HW253819   5.686   6.220   5.281
13375SOL    HW353820   5.541   6.181   5.263
13375SOL    MW453821   5.620   6.166   5.298
13376SOL     OW53822   7.360   7.061   4.263
13376SOL    HW253823   7.330   6.994   4.324
13376SOL    HW353824   7.454   7.067   4.277
13376SOL    MW453825   7.368   7.053   4.273
13377SOL     OW53826   6.916   6.738   4.193
13377SOL    HW253827   6.888   6.824   4.226
13377SOL    HW353828   6.944   6.754   4.103
13377SOL    MW453829   6.916   6.752   4.185
13378SOL     OW53830   7.431   6.540   4.668
13378SOL    HW253831   7.422   6.572   4.579
13378SOL    HW353832   7.384   6.456   4.668
13378SOL    MW453833   7.424   6.533   4.658
13379SOL     OW53834   5.807   6.380   5.247
13379SOL    HW253835   5.828   6.449   5.185
13379SOL    HW353836   5.887   6.327   5.252
13379SOL    MW453837   5.820   6.381   5.241
13380SOL     OW53838   7.343   6.471   4.369
13380SOL    HW253839   7.437   6.460   4.357
13380SOL    HW353840   7.319   6.543   4.310
13380SOL    MW453841   7.353   6.479   4.360
13381SOL     OW53842   5.792   6.395   5.514
13381SOL    HW253843   5.718   6.339   5.540
13381SOL    HW353844   5.787   6.398   5.419
13381SOL    MW453845   5.781   6.388   5.504
13382SOL     OW53846   5.958   5.682   4.964
13382SOL    HW253847   6.001   5.766   4.984
13382SOL    HW353848   6.031   5.620   4.957
13382SOL    MW453849   5.973   5.685   4.965
13383SOL     OW53850   5.999   6.349   4.142
13383SOL    HW253851   5.999   6.444   4.127
13383SOL    HW353852   6.076   6.333   4.196
13383SOL    MW453853   6.009   6.360   4.147
13384SOL     OW53854   6.775   6.208   5.206
13384SOL    HW253855   6.811   6.181   5.122
13384SOL    HW353856   6.688   6.242   5.185
13384SOL    MW453857   6.769   6.209   5.193
13385SOL     OW53858   5.758   6.080   4.431
13385SOL    HW253859   5.820   6.087   4.504
13385SOL    HW353860   5.758   5.987   4.408
13385SOL    MW453861   5.766   6.069   4.438
13386SOL     OW53862   7.305   7.420   3.963
13386SOL    HW253863   7.372   7.453   3.903
13386SOL    HW353864   7.262   7.499   3.997
13386SOL    MW453865   7.307   7.435   3.959
13387SOL     OW53866   6.440   6.341   4.915
13387SOL    HW253867   6.398   6.259   4.891
13387SOL    HW353868   6.441   6.340   5.011
13387SOL    MW453869   6.433   6.330   4.924
13388SOL     OW53870   7.111   7.474   5.314
13388SOL    HW253871   7.114   7.380   5.297
13388SOL    HW353872   7.134   7.482   5.406
13388SOL    MW453873   7.114   7.462   5.324
13389SOL     OW53874   6.244   5.811   5.020
13389SOL    HW253875   6.175   5.874   5.041
13389SOL    HW353876   6.271   5.775   5.105
13389SOL    MW453877   6.238   5.814   5.033
13390SOL     OW53878   5.627   6.652   3.889
13390SOL    HW253879   5.596   6.717   3.952
13390SOL    HW353880   5.576   6.574   3.908
13390SOL    MW453881   5.617   6.649   3.899
13391SOL     OW53882   7.039   5.664   4.637
13391SOL    HW253883   7.127   5.673   4.674
13391SOL    HW353884   7.049   5.605   4.563
13391SOL    MW453885   7.053   5.658   4.631
13392SOL     OW53886   7.071   6.403   4.481
13392SOL    HW253887   7.151   6.418   4.430
13392SOL    HW353888   7.064   6.308   4.487
13392SOL    MW453889   7.080   6.392   4.476
13393SOL     OW53890   6.211   7.452   3.831
13393SOL    HW253891   6.116   7.452   3.823
13393SOL    HW353892   6.227   7.398   3.909
13393SOL    MW453893   6.201   7.446   3.840
13394SOL     OW53894   6.521   6.329   5.178
13394SOL    HW253895   6.590   6.396   5.175
13394SOL    HW353896   6.454   6.367   5.234
13394SOL    MW453897   6.522   6.342   5.185
13395SOL     OW53898   5.939   6.629   5.426
13395SOL    HW253899   5.893   6.545   5.428
13395SOL    HW353900   5.996   6.623   5.350
13395SOL    MW453901   5.941   6.617   5.418
13396SOL     OW53902   7.056   6.272   3.747
13396SOL    HW253903   6.984   6.248   3.689
13396SOL    HW353904   7.122   6.309   3.689
13396SOL    MW453905   7.055   6.274   3.732
13397SOL     OW53906   6.190   7.004   4.427
13397SOL    HW253907   6.255   6.937   4.448
13397SOL    HW353908   6.242   7.081   4.404
13397SOL    MW453909   6.205   7.006   4.426
13398SOL     OW53910   6.451   6.169   4.557
13398SOL    HW253911   6.391   6.187   4.629
13398SOL    HW353912   6.485   6.081   4.576
13398SOL    MW453913   6.447   6.159   4.570
13399SOL     OW53914   7.392   5.668   5.226
13399SOL    HW253915   7.313   5.714   5.254
13399SOL    HW353916   7.427   5.722   5.155
13399SOL    MW453917   7.386   5.681   5.220
13400SOL     OW53918   6.676   6.752   4.576
13400SOL    HW253919   6.768   6.733   4.594
13400SOL    HW353920   6.649   6.682   4.516
13400SOL    MW453921   6.684   6.740   4.570
13401SOL     OW53922   6.469   6.572   3.931
13401SOL    HW253923   6.455   6.484   3.896
13401SOL    HW353924   6.420   6.629   3.872
13401SOL    MW453925   6.461   6.567   3.919
13402SOL     OW53926   6.950   6.990   4.672
13402SOL    HW253927   6.923   7.074   4.637
13402SOL    HW353928   6.910   6.985   4.759
13402SOL    MW453929   6.943   6.999   4.678
13403SOL     OW53930   6.869   6.938   4.940
13403SOL    HW253931   6.880   6.905   5.029
13403SOL    HW353932   6.788   6.897   4.909
13403SOL    MW453933   6.859   6.930   4.946
13404SOL     OW53934   5.882   6.296   4.710
13404SOL    HW253935   5.832   6.295   4.791
13404SOL    HW353936   5.902   6.388   4.694
13404SOL    MW453937   5.878   6.308   4.718
13405SOL     OW53938   6.949   7.060   5.472
13405SOL    HW253939   6.949   7.154   5.488
13405SOL    HW353940   6.994   7.050   5.388
13405SOL    MW453941   6.955   7.070   5.463
13406SOL     OW53942   7.188   5.778   4.033
13406SOL    HW253943   7.181   5.782   4.128
13406SOL    HW353944   7.200   5.869   4.006
13406SOL    MW453945   7.189   5.791   4.041
13407SOL     OW53946   6.477   6.341   4.147
13407SOL    HW253947   6.457   6.327   4.054
13407SOL    HW353948   6.570   6.320   4.154
13407SOL    MW453949   6.487   6.336   4.136
13408SOL     OW53950   5.804   5.964   5.451
13408SOL    HW253951   5.761   6.023   5.388
13408SOL    HW353952   5.872   6.019   5.491
13408SOL    MW453953   5.808   5.979   5.448
13409SOL     OW53954   6.916   6.584   4.996
13409SOL    HW253955   6.979   6.581   5.069
13409SOL    HW353956   6.832   6.602   5.038
13409SOL    MW453957   6.912   6.586   5.011
13410SOL     OW53958   6.460   7.299   4.185
13410SOL    HW253959   6.518   7.370   4.212
13410SOL    HW353960   6.483   7.227   4.243
13410SOL    MW453961   6.471   7.299   4.196
13411SOL     OW53962   7.255   5.761   4.775
13411SOL    HW253963   7.300   5.679   4.794
13411SOL    HW353964   7.275   5.817   4.851
13411SOL    MW453965   7.265   5.757   4.787
13412SOL     OW53966   5.703   5.604   4.874
13412SOL    HW253967   5.694   5.605   4.779
13412SOL    HW353968   5.797   5.616   4.889
13412SOL    MW453969   5.715   5.607   4.865
13413SOL     OW53970   7.340   6.797   4.494
13413SOL    HW253971   7.319   6.743   4.417
13413SOL    HW353972   7.436   6.795   4.498
13413SOL    MW453973   7.349   6.790   4.483
13414SOL     OW53974   6.032   6.942   5.237
13414SOL    HW253975   5.953   6.892   5.260
13414SOL    HW353976   6.102   6.901   5.287
13414SOL    MW453977   6.030   6.930   5.247
13415SOL     OW53978   5.916   5.731   3.920
13415SOL    HW253979   5.845   5.786   3.888
13415SOL    HW353980   5.958   5.697   3.841
13415SOL    MW453981   5.912   5.733   3.906
13416SOL     OW53982   7.040   6.228   4.756
13416SOL    HW253983   6.963   6.274   4.722
13416SOL    HW353984   7.097   6.297   4.790
13416SOL    MW453985   7.037   6.243   4.756
13417SOL     OW53986   5.672   5.830   3.769
13417SOL    HW253987   5.639   5.909   3.813
13417SOL    HW353988   5.727   5.863   3.698
13417SOL    MW453989   5.675   5.844   3.766
13418SOL     OW53990   5.706   7.087   3.958
13418SOL    HW253991   5.723   7.171   4.000
13418SOL    HW353992   5.741   7.096   3.870
13418SOL    MW453993   5.711   7.100   3.952
13419SOL     OW53994   6.978   7.176   4.175
13419SOL    HW253995   7.041   7.166   4.104
13419SOL    HW353996   6.895   7.196   4.130
13419SOL    MW453997   6.975   7.177   4.160
13420SOL     OW53998   7.341   6.444   5.862
13420SOL    HW253999   7.382   6.386   5.927
13420SOL    HW354000   7.248   6.436   5.879
13420SOL    MW454001   7.335   6.436   5.872
13421SOL     OW54002   6.135   6.627   6.091
13421SOL    HW254003   6.225   6.602   6.075
13421SOL    HW354004   6.131   6.720   6.068
13421SOL    MW454005   6.147   6.636   6.086
13422SOL     OW54006   7.251   7.330   6.233
13422SOL    HW254007   7.263   7.276   6.311
13422SOL    HW354008   7.288   7.278   6.162
13422SOL    MW454009   7.257   7.315   6.234
13423SOL     OW54010   6.630   7.215   7.234
13423SOL    HW254011   6.671   7.251   7.155
13423SOL    HW354012   6.665   7.126   7.241
13423SOL    MW454013   6.641   7.208   7.225
13424SOL     OW54014   7.187   6.770   6.838
13424SOL    HW254015   7.108   6.735   6.796
13424SOL    HW354016   7.214   6.842   6.782
13424SOL    MW454017   7.180   6.775   6.825
13425SOL     OW54018   6.419   6.083   6.104
13425SOL    HW254019   6.394   6.171   6.132
13425SOL    HW354020   6.416   6.086   6.008
13425SOL    MW454021   6.415   6.095   6.096
13426SOL     OW54022   5.861   6.111   6.032
13426SOL    HW254023   5.893   6.199   6.014
13426SOL    HW354024   5.849   6.109   6.127
13426SOL    MW454025   5.864   6.123   6.044
13427SOL     OW54026   5.939   6.524   6.933
13427SOL    HW254027   6.002   6.471   6.884
13427SOL    HW354028   5.920   6.598   6.876
13427SOL    MW454029   5.945   6.526   6.920
13428SOL     OW54030   6.260   5.866   6.119
13428SOL    HW254031   6.318   5.942   6.121
13428SOL    HW354032   6.195   5.887   6.052
13428SOL    MW454033   6.259   5.878   6.110
13429SOL     OW54034   6.347   6.793   6.294
13429SOL    HW254035   6.427   6.796   6.346
13429SOL    HW354036   6.375   6.760   6.208
13429SOL    MW454037   6.361   6.789   6.289
13430SOL     OW54038   6.372   7.134   7.197
13430SOL    HW254039   6.456   7.160   7.236
13430SOL    HW354040   6.396   7.078   7.123
13430SOL    MW454041   6.386   7.130   7.192
13431SOL     OW54042   6.124   6.297   6.285
13431SOL    HW254043   6.109   6.217   6.336
13431SOL    HW354044   6.206   6.332   6.319
13431SOL    MW454045   6.132   6.289   6.297
13432SOL     OW54046   6.461   6.983   6.970
13432SOL    HW254047   6.425   7.049   6.910
13432SOL    HW354048   6.389   6.921   6.983
13432SOL    MW454049   6.447   6.983   6.964
13433SOL     OW54050   6.266   6.123   6.662
13433SOL    HW254051   6.172   6.119   6.680
13433SOL    HW354052   6.296   6.032   6.671
13433SOL    MW454053   6.257   6.111   6.665
13434SOL     OW54054   6.012   6.537   6.566
13434SOL    HW254055   5.967   6.544   6.482
13434SOL    HW354056   5.992   6.620   6.610
13434SOL    MW454057   6.004   6.549   6.560
13435SOL     OW54058   5.709   7.383   6.441
13435SOL    HW254059   5.798   7.375   6.476
13435SOL    HW354060   5.673   7.295   6.446
13435SOL    MW454061   5.716   7.370   6.446
13436SOL     OW54062   6.974   6.775   5.810
13436SOL    HW254063   6.892   6.811   5.776
13436SOL    HW354064   7.042   6.818   5.759
13436SOL    MW454065   6.972   6.785   5.798
13437SOL     OW54066   5.973   6.910   6.476
13437SOL    HW254067   5.949   6.963   6.552
13437SOL    HW354068   6.029   6.968   6.424
13437SOL    MW454069   5.977   6.925   6.479
13438SOL     OW54070   6.535   6.554   6.286
13438SOL    HW254071   6.449   6.541   6.326
13438SOL    HW354072   6.588   6.481   6.318
13438SOL    MW454073   6.531   6.543   6.295
13439SOL     OW54074   5.943   7.206   7.071
13439SOL    HW254075   5.851   7.182   7.056
13439SOL    HW354076   5.987   7.123   7.088
13439SOL    MW454077   5.937   7.191   7.070
13440SOL     OW54078   6.526   6.916   6.003
13440SOL    HW254079   6.503   6.978   6.071
13440SOL    HW354080   6.483   6.834   6.029
13440SOL    MW454081   6.518   6.912   6.014
13441SOL     OW54082   7.399   5.917   6.459
13441SOL    HW254083   7.336   5.897   6.528
13441SOL    HW354084   7.389   5.846   6.396
13441SOL    MW454085   7.389   5.904   6.460
13442SOL     OW54086   6.023   5.889   5.971
13442SOL    HW254087   5.997   5.851   5.887
13442SOL    HW354088   5.960   5.959   5.987
13442SOL    MW454089   6.012   5.892   5.962
13443SOL     OW54090   5.858   6.850   6.008
13443SOL    HW254091   5.806   6.918   5.964
13443SOL    HW354092   5.855   6.776   5.948
13443SOL    MW454093   5.850   6.849   5.995
13444SOL     OW54094   6.520   7.313   5.786
13444SOL    HW254095   6.475   7.329   5.869
13444SOL    HW354096   6.451   7.278   5.728
13444SOL    MW454097   6.506   7.310   5.788
13445SOL     OW54098   7.455   6.086   5.761
13445SOL    HW254099   7.364   6.088   5.789
13445SOL    HW354100   7.500   6.148   5.819
13445SOL    MW454101   7.448   6.094   5.771
13446SOL     OW54102   7.200   6.689   6.111
13446SOL    HW254103   7.110   6.689   6.146
13446SOL    HW354104   7.193   6.735   6.028
13446SOL    MW454105   7.187   6.695   6.105
13447SOL     OW54106   7.000   6.324   7.183
13447SOL    HW254107   7.069   6.262   7.160
13447SOL    HW354108   6.925   6.298   7.130
13447SOL    MW454109   7.000   6.311   7.174
13448SOL     OW54110   5.741   7.204   6.735
13448SOL    HW254111   5.724   7.150   6.812
13448SOL    HW354112   5.729   7.294   6.765
13448SOL    MW454113   5.738   7.208   6.749
13449SOL     OW54114   6.736   6.711   7.175
13449SOL    HW254115   6.721   6.804   7.160
13449SOL    HW354116   6.831   6.701   7.175
13449SOL    MW454117   6.745   6.721   7.172
13450SOL     OW54118   6.532   6.135   7.376
13450SOL    HW254119   6.622   6.136   7.343
13450SOL    HW354120   6.491   6.060   7.334
13450SOL    MW454121   6.538   6.125   7.367
13451SOL     OW54122   7.107   6.667   6.503
13451SOL    HW254123   7.110   6.601   6.434
13451SOL    HW354124   7.192   6.710   6.499
13451SOL    MW454125   7.119   6.663   6.494
13452SOL     OW54126   6.727   6.270   6.072
13452SOL    HW254127   6.753   6.294   5.983
13452SOL    HW354128   6.709   6.177   6.068
13452SOL    MW454129   6.729   6.262   6.059
13453SOL     OW54130   7.392   6.890   5.923
13453SOL    HW254131   7.348   6.931   5.998
13453SOL    HW354132   7.449   6.958   5.888
13453SOL    MW454133   7.394   6.904   5.928
13454SOL     OW54134   6.312   5.939   7.326
13454SOL    HW254135   6.322   5.865   7.266
13454SOL    HW354136   6.348   5.908   7.409
13454SOL    MW454137   6.318   5.925   7.328
13455SOL     OW54138   6.048   7.306   6.241
13455SOL    HW254139   6.080   7.394   6.219
13455SOL    HW354140   6.001   7.278   6.163
13455SOL    MW454141   6.047   7.314   6.228
13456SOL     OW54142   7.432   5.668   6.290
13456SOL    HW254143   7.486   5.619   6.352
13456SOL    HW354144   7.375   5.602   6.251
13456SOL    MW454145   7.432   5.652   6.292
13457SOL     OW54146   5.764   7.366   5.818
13457SOL    HW254147   5.793   7.456   5.810
13457SOL    HW354148   5.714   7.349   5.739
13457SOL    MW454149   5.762   7.374   5.807
13458SOL     OW54150   6.551   5.621   6.703
13458SOL    HW254151   6.510   5.699   6.665
13458SOL    HW354152   6.645   5.639   6.698
13458SOL    MW454153   6.557   5.633   6.698
13459SOL     OW54154   7.168   7.174   5.789
13459SOL    HW254155   7.216   7.243   5.835
13459SOL    HW354156   7.089   7.218   5.758
13459SOL    MW454157   7.163   7.188   5.792
13460SOL     OW54158   6.566   6.299   5.733
13460SOL    HW254159   6.568   6.246   5.654
13460SOL    HW354160   6.654   6.336   5.739
13460SOL    MW454161   6.578   6.298   5.722
13461SOL     OW54162   7.180   6.225   6.069
13461SOL    HW254163   7.219   6.225   6.156
13461SOL    HW354164   7.121   6.301   6.069
13461SOL    MW454165   7.177   6.236   6.080
13462SOL     OW54166   6.497   6.592   7.198
13462SOL    HW254167   6.474   6.572   7.288
13462SOL    HW354168   6.582   6.636   7.203
13462SOL    MW454169   6.504   6.595   7.210
13463SOL     OW54170   6.577   5.729   6.958
13463SOL    HW254171   6.583   5.691   6.871
13463SOL    HW354172   6.566   5.823   6.943
13463SOL    MW454173   6.578   5.737   6.946
13464SOL     OW54174   6.666   6.218   6.792
13464SOL    HW254175   6.741   6.247   6.739
13464SOL    HW354176   6.598   6.283   6.776
13464SOL    MW454177   6.667   6.230   6.782
13465SOL     OW54178   7.216   6.186   7.069
13465SOL    HW254179   7.197   6.095   7.048
13465SOL    HW354180   7.194   6.235   6.990
13465SOL    MW454181   7.211   6.179   7.056
13466SOL     OW54182   6.663   5.924   7.175
13466SOL    HW254183   6.629   5.963   7.094
13466SOL    HW354184   6.641   5.832   7.168
13466SOL    MW454185   6.656   5.917   7.165
13467SOL     OW54186   7.072   6.738   7.251
13467SOL    HW254187   7.154   6.779   7.281
13467SOL    HW354188   7.035   6.700   7.331
13467SOL    MW454189   7.078   6.739   7.266
13468SOL     OW54190   7.367   6.111   6.235
13468SOL    HW254191   7.456   6.080   6.252
13468SOL    HW354192   7.310   6.051   6.283
13468SOL    MW454193   7.370   6.099   6.244
13469SOL     OW54194   5.793   5.825   6.264
13469SOL    HW254195   5.784   5.765   6.190
13469SOL    HW354196   5.726   5.796   6.327
13469SOL    MW454197   5.783   5.812   6.262
13470SOL     OW54198   6.736   6.918   5.825
13470SOL    HW254199   6.686   6.920   5.907
13470SOL    HW354200   6.670   6.936   5.757
13470SOL    MW454201   6.722   6.920   5.827
13471SOL     OW54202   5.740   5.998   6.627
13471SOL    HW254203   5.712   6.089   6.636
13471SOL    HW354204   5.677   5.959   6.566
13471SOL    MW454205   5.727   6.004   6.621
13472SOL     OW54206   6.199   7.336   5.933
13472SOL    HW254207   6.120   7.294   5.966
13472SOL    HW354208   6.265   7.319   6.000
13472SOL    MW454209   6.198   7.328   5.946
13473SOL     OW54210   7.327   6.856   7.330
13473SOL    HW254211   7.377   6.782   7.362
13473SOL    HW354212   7.273   6.883   7.405
13473SOL    MW454213   7.327   6.850   7.343
13474SOL     OW54214   6.335   6.751   5.640
13474SOL    HW254215   6.257   6.697   5.627
13474SOL    HW354216   6.306   6.824   5.693
13474SOL    MW454217   6.321   6.753   5.645
13475SOL     OW54218   7.461   6.491   6.832
13475SOL    HW254219   7.477   6.529   6.745
13475SOL    HW354220   7.495   6.557   6.893
13475SOL    MW454221   7.468   6.504   6.828
13476SOL     OW54222   7.253   7.200   6.501
13476SOL    HW254223   7.282   7.267   6.562
13476SOL    HW354224   7.234   7.124   6.556
13476SOL    MW454225   7.255   7.200   6.516
13477SOL     OW54226   6.916   7.267   5.708
13477SOL    HW254227   6.842   7.230   5.758
13477SOL    HW354228   6.924   7.357   5.741
13477SOL    MW454229   6.907   7.274   5.720
13478SOL     OW54230   5.724   6.273   6.797
13478SOL    HW254231   5.786   6.303   6.863
13478SOL    HW354232   5.658   6.342   6.791
13478SOL    MW454233   5.723   6.286   6.804
13479SOL     OW54234   7.140   6.941   5.650
13479SOL    HW254235   7.087   6.990   5.586
13479SOL    HW354236   7.171   7.007   5.711
13479SOL    MW454237   7.138   6.955   5.648
13480SOL     OW54238   6.365   5.830   5.705
13480SOL    HW254239   6.313   5.750   5.693
13480SOL    HW354240   6.452   5.807   5.673
13480SOL    MW454241   6.368   5.816   5.699
13481SOL     OW54242   5.819   7.382   7.249
13481SOL    HW254243   5.793   7.450   7.187
13481SOL    HW354244   5.867   7.319   7.197
13481SOL    MW454245   5.821   7.382   7.235
13482SOL     OW54246   5.871   6.701   6.756
13482SOL    HW254247   5.924   6.776   6.781
13482SOL    HW354248   5.790   6.739   6.722
13482SOL    MW454249   5.867   6.716   6.756
13483SOL     OW54250   6.411   6.605   6.744
13483SOL    HW254251   6.439   6.514   6.756
13483SOL    HW354252   6.340   6.599   6.680
13483SOL    MW454253   6.404   6.593   6.739
13484SOL     OW54254   5.726   6.470   6.162
13484SOL    HW254255   5.817   6.485   6.189
13484SOL    HW354256   5.729   6.391   6.108
13484SOL    MW454257   5.738   6.462   6.160
13485SOL     OW54258   5.962   6.178   7.416
13485SOL    HW254259   5.909   6.258   7.423
13485SOL    HW354260   6.032   6.190   7.481
13485SOL    MW454261   5.964   6.191   7.424
13486SOL     OW54262   6.348   5.728   7.123
13486SOL    HW254263   6.325   5.636   7.125
13486SOL    HW354264   6.434   5.730   7.080
13486SOL    MW454265   6.355   5.718   7.119
13487SOL     OW54266   6.032   6.252   7.162
13487SOL    HW254267   6.112   6.302   7.148
13487SOL    HW354268   6.023   6.246   7.257
13487SOL    MW454269   6.041   6.258   7.172
13488SOL     OW54270   6.353   7.402   6.536
13488SOL    HW254271   6.442   7.417   6.566
13488SOL    HW354272   6.348   7.449   6.452
13488SOL    MW454273   6.363   7.410   6.529
13489SOL     OW54274   7.009   5.777   7.433
13489SOL    HW254275   7.065   5.704   7.459
13489SOL    HW354276   6.979   5.815   7.515
13489SOL    MW454277   7.013   5.772   7.446
13490SOL     OW54278   5.734   7.082   6.201
13490SOL    HW254279   5.706   7.121   6.283
13490SOL    HW354280   5.754   6.991   6.223
13490SOL    MW454281   5.732   7.074   6.214
13491SOL     OW54282   6.567   7.125   6.236
13491SOL    HW254283   6.650   7.079   6.220
13491SOL    HW354284   6.557   7.124   6.332
13491SOL    MW454285   6.577   7.118   6.246
13492SOL     OW54286   7.399   6.270   6.550
13492SOL    HW254287   7.488   6.300   6.532
13492SOL    HW354288   7.379   6.210   6.479
13492SOL    MW454289   7.408   6.267   6.539
13493SOL     OW54290   7.250   6.449   7.430
13493SOL    HW254291   7.305   6.373   7.411
13493SOL    HW354292   7.252   6.457   7.525
13493SOL    MW454293   7.258   6.440   7.438
13494SOL     OW54294   6.300   7.182   5.641
13494SOL    HW254295   6.240   7.251   5.611
13494SOL    HW354296   6.245   7.124   5.694
13494SOL    MW454297   6.284   7.184   5.643
13495SOL     OW54298   6.738   5.827   5.864
13495SOL    HW254299   6.671   5.803   5.801
13495SOL    HW354300   6.803   5.876   5.813
13495SOL    MW454301   6.738   5.829   5.849
13496SOL     OW54302   6.545   6.011   6.949
13496SOL    HW254303   6.464   6.052   6.977
13496SOL    HW354304   6.592   6.079   6.901
13496SOL    MW454305   6.540   6.026   6.947
13497SOL     OW54306   6.805   6.349   6.572
13497SOL    HW254307   6.818   6.443   6.582
13497SOL    HW354308   6.766   6.339   6.486
13497SOL    MW454309   6.801   6.360   6.562
13498SOL     OW54310   6.257   6.544   6.376
13498SOL    HW254311   6.168   6.535   6.409
13498SOL    HW354312   6.261   6.634   6.344
13498SOL    MW454313   6.246   6.555   6.376
13499SOL     OW54314   7.056   6.127   6.371
13499SOL    HW254315   7.001   6.048   6.370
13499SOL    HW354316   7.038   6.168   6.455
13499SOL    MW454317   7.046   6.122   6.380
13500SOL     OW54318   6.027   5.814   7.188
13500SOL    HW254319   5.948   5.832   7.240
13500SOL    HW354320   6.022   5.876   7.115
13500SOL    MW454321   6.017   5.824   7.185
13501SOL     OW54322   6.675   6.331   6.328
13501SOL    HW254323   6.612   6.263   6.352
13501SOL    HW354324   6.695   6.312   6.236
13501SOL    MW454325   6.669   6.318   6.320
13502SOL     OW54326   5.931   7.226   6.030
13502SOL    HW254327   5.892   7.273   5.956
13502SOL    HW354328   5.865   7.161   6.055
13502SOL    MW454329   5.918   7.224   6.024
13503SOL     OW54330   6.423   6.635   6.054
13503SOL    HW254331   6.425   6.609   5.961
13503SOL    HW354332   6.481   6.572   6.097
13503SOL    MW454333   6.431   6.624   6.048
13504SOL     OW54334   6.976   7.195   6.826
13504SOL    HW254335   6.901   7.241   6.864
13504SOL    HW354336   6.958   7.102   6.843
13504SOL    MW454337   6.965   7.189   6.834
13505SOL     OW54338   6.980   7.403   6.256
13505SOL    HW254339   6.923   7.356   6.195
13505SOL    HW354340   7.066   7.364   6.243
13505SOL    MW454341   6.983   7.394   6.246
13506SOL     OW54342   6.933   5.879   6.387
13506SOL    HW254343   6.961   5.811   6.448
13506SOL    HW354344   6.847   5.850   6.357
13506SOL    MW454345   6.926   5.866   6.391
13507SOL     OW54346   5.738   6.813   6.321
13507SOL    HW254347   5.802   6.845   6.384
13507SOL    HW354348   5.787   6.749   6.269
13507SOL    MW454349   5.753   6.809   6.322
13508SOL     OW54350   6.238   6.889   7.303
13508SOL    HW254351   6.286   6.972   7.290
13508SOL    HW354352   6.295   6.837   7.359
13508SOL    MW454353   6.252   6.893   7.309
13509SOL     OW54354   5.814   7.131   7.443
13509SOL    HW254355   5.870   7.055   7.458
13509SOL    HW354356   5.763   7.109   7.365
13509SOL    MW454357   5.814   7.118   7.434
13510SOL     OW54358   6.913   5.983   5.722
13510SOL    HW254359   6.886   6.049   5.658
13510SOL    HW354360   6.983   6.026   5.772
13510SOL    MW454361   6.918   5.996   5.719
13511SOL     OW54362   6.581   5.688   5.659
13511SOL    HW254363   6.637   5.680   5.581
13511SOL    HW354364   6.558   5.598   5.681
13511SOL    MW454365   6.586   5.675   5.652
13512SOL     OW54366   7.086   6.539   5.864
13512SOL    HW254367   7.053   6.628   5.854
13512SOL    HW354368   7.051   6.510   5.949
13512SOL    MW454369   7.076   6.548   5.875
13513SOL     OW54370   6.699   6.968   7.052
13513SOL    HW254371   6.610   6.974   7.020
13513SOL    HW354372   6.743   7.047   7.020
13513SOL    MW454373   6.694   6.978   7.044
13514SOL     OW54374   5.992   5.636   7.394
13514SOL    HW254375   5.920   5.601   7.342
13514SOL    HW354376   6.050   5.677   7.329
13514SOL    MW454377   5.990   5.637   7.379
13515SOL     OW54378   6.016   7.126   6.693
13515SOL    HW254379   6.061   7.188   6.750
13515SOL    HW354380   5.923   7.145   6.706
13515SOL    MW454381   6.009   7.136   6.700
13516SOL     OW54382   7.456   6.655   7.047
13516SOL    HW254383   7.371   6.668   7.006
13516SOL    HW354384   7.436   6.619   7.134
13516SOL    MW454385   7.443   6.651   7.052
13517SOL     OW54386   6.438   7.194   6.801
13517SOL    HW254387   6.462   7.183   6.710
13517SOL    HW354388   6.361   7.251   6.799
13517SOL    MW454389   6.430   7.199   6.790
13518SOL     OW54390   6.080   6.577   5.656
13518SOL    HW254391   6.003   6.590   5.712
13518SOL    HW354392   6.044   6.541   5.575
13518SOL    MW454393   6.066   6.573   5.653
13519SOL     OW54394   6.733   6.550   5.899
13519SOL    HW254395   6.643   6.571   5.874
13519SOL    HW354396   6.760   6.623   5.955
13519SOL    MW454397   6.725   6.562   5.902
13520SOL     OW54398   6.233   6.899   6.591
13520SOL    HW254399   6.226   6.878   6.685
13520SOL    HW354400   6.151   6.867   6.554
13520SOL    MW454401   6.221   6.893   6.598
13521SOL     OW54402   7.097   5.909   6.993
13521SOL    HW254403   7.044   5.911   7.073
13521SOL    HW354404   7.082   5.822   6.956
13521SOL    MW454405   7.089   5.899   6.998
13522SOL     OW54406   7.433   5.833   6.866
13522SOL    HW254407   7.414   5.900   6.801
13522SOL    HW354408   7.490   5.771   6.821
13522SOL    MW454409   7.437   5.834   6.852
13523SOL     OW54410   5.679   6.991   7.254
13523SOL    HW254411   5.723   6.924   7.200
13523SOL    HW354412   5.594   6.953   7.274
13523SOL    MW454413   5.674   6.977   7.250
13524SOL     OW54414   6.362   5.666   6.306
13524SOL    HW254415   6.291   5.727   6.288
13524SOL    HW354416   6.413   5.663   6.225
13524SOL    MW454417   6.358   5.672   6.293
13525SOL     OW54418   6.120   6.906   6.055
13525SOL    HW254419   6.113   6.938   6.145
13525SOL    HW354420   6.030   6.890   6.027
13525SOL    MW454421   6.108   6.908   6.062
13526SOL     OW54422   6.715   7.299   6.964
13526SOL    HW254423   6.635   7.284   6.914
13526SOL    HW354424   6.722   7.394   6.971
13526SOL    MW454425   6.706   7.310   6.958
13527SOL     OW54426   6.829   7.264   6.454
13527SOL    HW254427   6.876   7.337   6.413
13527SOL    HW354428   6.750   7.303   6.490
13527SOL    MW454429   6.824   7.279   6.453
13528SOL     OW54430   7.237   7.359   6.729
13528SOL    HW254431   7.280   7.329   6.809
13528SOL    HW354432   7.156   7.307   6.726
13528SOL    MW454433   7.232   7.348   6.739
13529SOL     OW54434   6.322   6.323   7.436
13529SOL    HW254435   6.392   6.265   7.408
13529SOL    HW354436   6.265   6.268   7.491
13529SOL    MW454437   6.324   6.310   7.440
13530SOL     OW54438   7.109   6.535   7.069
13530SOL    HW254439   7.114   6.588   7.149
13530SOL    HW354440   7.071   6.452   7.097
13530SOL    MW454441   7.105   6.530   7.084
13531SOL     OW54442   6.749   5.670   7.315
13531SOL    HW254443   6.744   5.577   7.296
13531SOL    HW354444   6.832   5.681   7.361
13531SOL    MW454445   6.757   5.659   7.319
13532SOL     OW54446   6.123   6.190   5.769
13532SOL    HW254447   6.089   6.246   5.839
13532SOL    HW354448   6.194   6.140   5.809
13532SOL    MW454449   6.129   6.191   5.783
13533SOL     OW54450   7.219   6.941   6.591
13533SOL    HW254451   7.254   6.923   6.504
13533SOL    HW354452   7.124   6.942   6.578
13533SOL    MW454453   7.211   6.938   6.578
13534SOL     OW54454   6.648   6.589   6.960
13534SOL    HW254455   6.691   6.624   7.038
13534SOL    HW354456   6.631   6.666   6.906
13534SOL    MW454457   6.651   6.604   6.963
13535SOL     OW54458   7.179   6.076   5.833
13535SOL    HW254459   7.171   6.147   5.770
13535SOL    HW354460   7.197   6.120   5.916
13535SOL    MW454461   7.180   6.090   5.835
13536SOL     OW54462   6.039   5.731   6.262
13536SOL    HW254463   6.089   5.774   6.193
13536SOL    HW354464   5.954   5.775   6.262
13536SOL    MW454465   6.036   5.744   6.253
13537SOL     OW54466   5.798   6.793   7.122
13537SOL    HW254467   5.826   6.746   7.200
13537SOL    HW354468   5.719   6.748   7.093
13537SOL    MW454469   5.791   6.782   7.128
13538SOL     OW54470   6.306   6.120   7.089
13538SOL    HW254471   6.278   6.208   7.113
13538SOL    HW354472   6.275   6.064   7.160
13538SOL    MW454473   6.298   6.123   7.101
13539SOL     OW54474   6.848   6.338   5.808
13539SOL    HW254475   6.895   6.356   5.727
13539SOL    HW354476   6.814   6.422   5.836
13539SOL    MW454477   6.850   6.352   5.801
13540SOL     OW54478   5.961   6.516   6.302
13540SOL    HW254479   6.019   6.572   6.250
13540SOL    HW354480   6.005   6.431   6.304
13540SOL    MW454481   5.974   6.513   6.295
13541SOL     OW54482   7.101   5.868   6.139
13541SOL    HW254483   7.023   5.818   6.164
13541SOL    HW354484   7.072   5.959   6.139
13541SOL    MW454485   7.087   5.872   6.142
13542SOL     OW54486   6.687   5.830   6.298
13542SOL    HW254487   6.707   5.905   6.242
13542SOL    HW354488   6.667   5.869   6.383
13542SOL    MW454489   6.688   5.846   6.302
13543SOL     OW54490   6.583   7.080   5.630
13543SOL    HW254491   6.610   7.158   5.582
13543SOL    HW354492   6.490   7.095   5.649
13543SOL    MW454493   6.574   7.093   5.626
13544SOL     OW54494   7.447   6.603   7.317
13544SOL    HW254495   7.360   6.583   7.353
13544SOL    HW354496   7.501   6.529   7.342
13544SOL    MW454497   7.442   6.592   7.325
13545SOL     OW54498   5.668   7.116   6.474
13545SOL    HW254499   5.700   7.120   6.565
13545SOL    HW354500   5.573   7.124   6.482
13545SOL    MW454501   5.660   7.119   6.487
13546SOL     OW54502   5.623   6.242   6.021
13546SOL    HW254503   5.563   6.214   6.091
13546SOL    HW354504   5.697   6.182   6.027
13546SOL    MW454505   5.625   6.231   6.030
13547SOL     OW54506   7.191   7.454   7.455
13547SOL    HW254507   7.236   7.378   7.420
13547SOL    HW354508   7.229   7.467   7.542
13547SOL    MW454509   7.201   7.447   7.461
13548SOL     OW54510   6.791   6.973   6.181
13548SOL    HW254511   6.814   6.924   6.259
13548SOL    HW354512   6.872   7.015   6.153
13548SOL    MW454513   6.804   6.973   6.188
13549SOL     OW54514   6.049   5.981   6.910
13549SOL    HW254515   6.082   6.062   6.950
13549SOL    HW354516   6.022   6.007   6.822
13549SOL    MW454517   6.048   5.995   6.904
13550SOL     OW54518   6.003   5.948   6.646
13550SOL    HW254519   6.033   5.862   6.617
13550SOL    HW354520   5.908   5.941   6.649
13550SOL    MW454521   5.995   5.937   6.644
13551SOL     OW54522   6.832   6.157   7.337
13551SOL    HW254523   6.884   6.092   7.290
13551SOL    HW354524   6.790   6.208   7.267
13551SOL    MW454525   6.833   6.154   7.320
13552SOL     OW54526   6.931   5.952   7.198
13552SOL    HW254527   6.838   5.936   7.185
13552SOL    HW354528   6.957   5.890   7.266
13552SOL    MW454529   6.921   5.942   7.205
13553SOL     OW54530   6.146   5.726   6.537
13553SOL    HW254531   6.156   5.635   6.563
13553SOL    HW354532   6.102   5.722   6.452
13553SOL    MW454533   6.142   5.714   6.529
13554SOL     OW54534   6.240   7.341   7.083
13554SOL    HW254535   6.157   7.326   7.128
13554SOL    HW354536   6.299   7.274   7.118
13554SOL    MW454537   6.238   7.331   7.093
13555SOL     OW54538   7.297   6.048   6.708
13555SOL    HW254539   7.230   6.081   6.768
13555SOL    HW354540   7.340   6.126   6.674
13555SOL    MW454541   7.295   6.063   6.712
13556SOL     OW54542   7.475   6.768   6.678
13556SOL    HW254543   7.468   6.708   6.603
13556SOL    HW354544   7.401   6.828   6.667
13556SOL    MW454545   7.465   6.768   6.667
13557SOL     OW54546   6.857   6.630   6.596
13557SOL    HW254547   6.871   6.602   6.687
13557SOL    HW354548   6.943   6.661   6.568
13557SOL    MW454549   6.870   6.631   6.605
13558SOL     OW54550   6.940   6.125   6.875
13558SOL    HW254551   6.961   6.126   6.782
13558SOL    HW354552   6.985   6.047   6.908
13558SOL    MW454553   6.947   6.115   6.867
13559SOL     OW54554   7.433   6.256   7.417
13559SOL    HW254555   7.470   6.201   7.486
13559SOL    HW354556   7.458   6.213   7.335
13559SOL    MW454557   7.440   6.244   7.416
13560SOL     OW54558   6.980   6.554   7.468
13560SOL    HW254559   7.046   6.502   7.422
13560SOL    HW354560   7.000   6.541   7.561
13560SOL    MW454561   6.991   6.545   7.475
13561SOL     OW54562   6.931   5.640   5.817
13561SOL    HW254563   7.005   5.684   5.860
13561SOL    HW354564   6.855   5.694   5.839
13561SOL    MW454565   6.931   5.652   5.825
13562SOL     OW54566   6.991   6.415   6.095
13562SOL    HW254567   6.906   6.385   6.065
13562SOL    HW354568   6.983   6.422   6.190
13562SOL    MW454569   6.979   6.413   6.104
13563SOL     OW54570   6.067   6.878   6.826
13563SOL    HW254571   6.079   6.905   6.917
13563SOL    HW354572   6.048   6.959   6.779
13563SOL    MW454573   6.066   6.893   6.831
13564SOL     OW54574   6.351   5.858   6.649
13564SOL    HW254575   6.324   5.860   6.740
13564SOL    HW354576   6.281   5.810   6.604
13564SOL    MW454577   6.339   5.854   6.656
13565SOL     OW54578   6.205   7.350   6.811
13565SOL    HW254579   6.257   7.427   6.788
13565SOL    HW354580   6.214   7.342   6.906
13565SOL    MW454581   6.214   7.357   6.822
13566SOL     OW54582   7.107   6.935   7.043
13566SOL    HW254583   7.092   6.864   7.106
13566SOL    HW354584   7.153   6.893   6.971
13566SOL    MW454585   7.113   6.919   7.043
13567SOL     OW54586   6.181   6.666   7.160
13567SOL    HW254587   6.218   6.671   7.072
13567SOL    HW354588   6.220   6.739   7.207
13567SOL    MW454589   6.191   6.676   7.155
13568SOL     OW54590   6.361   6.709   6.972
13568SOL    HW254591   6.420   6.655   7.025
13568SOL    HW354592   6.376   6.681   6.882
13568SOL    MW454593   6.371   6.698   6.968
13569SOL     OW54594   6.364   6.081   5.821
13569SOL    HW254595   6.437   6.130   5.784
13569SOL    HW354596   6.380   5.990   5.795
13569SOL    MW454597   6.376   6.076   5.814
13570SOL     OW54598   7.172   7.198   7.144
13570SOL    HW254599   7.214   7.183   7.229
13570SOL    HW354600   7.163   7.111   7.106
13570SOL    MW454601   7.176   7.186   7.151
13571SOL     OW54602   6.832   5.677   6.735
13571SOL    HW254603   6.887   5.686   6.657
13571SOL    HW354604   6.887   5.711   6.806
13571SOL    MW454605   6.846   5.682   6.734
13572SOL     OW54606   5.839   6.590   5.919
13572SOL    HW254607   5.776   6.606   5.848
13572SOL    HW354608   5.786   6.553   5.990
13572SOL    MW454609   5.824   6.587   5.919
13573SOL     OW54610   6.195   6.944   5.778
13573SOL    HW254611   6.210   6.920   5.870
13573SOL    HW354612   6.103   6.922   5.762
13573SOL    MW454613   6.185   6.937   5.788
13574SOL     OW54614   6.734   7.175   5.930
13574SOL    HW254615   6.742   7.093   5.881
13574SOL    HW354616   6.653   7.214   5.897
13574SOL    MW454617   6.724   7.170   5.920
13575SOL     OW54618   5.993   7.333   6.499
13575SOL    HW254619   5.997   7.244   6.534
13575SOL    HW354620   6.019   7.324   6.408
13575SOL    MW454621   5.996   7.321   6.491
13576SOL     OW54622   6.610   6.811   6.742
13576SOL    HW254623   6.542   6.745   6.758
13576SOL    HW354624   6.628   6.805   6.649
13576SOL    MW454625   6.603   6.802   6.733
13577SOL     OW54626   5.699   7.086   6.993
13577SOL    HW254627   5.689   7.044   7.079
13577SOL    HW354628   5.620   7.139   6.983
13577SOL    MW454629   5.688   7.087   7.004
13578SOL     OW54630   6.603   5.950   6.563
13578SOL    HW254631   6.533   5.902   6.608
13578SOL    HW354632   6.635   6.013   6.627
13578SOL    MW454633   6.598   5.952   6.577
13579SOL     OW54634   6.254   6.386   7.183
13579SOL    HW254635   6.247   6.481   7.171
13579SOL    HW354636   6.263   6.375   7.278
13579SOL    MW454637   6.255   6.398   7.193
13580SOL     OW54638   5.975   6.901   7.441
13580SOL    HW254639   6.047   6.903   7.378
13580SOL    HW354640   5.945   6.810   7.440
13580SOL    MW454641   5.980   6.890   7.433
13581SOL     OW54642   7.059   5.664   6.908
13581SOL    HW254643   7.130   5.610   6.872
13581SOL    HW354644   7.058   5.643   7.001
13581SOL    MW454645   7.068   5.655   6.916
13582SOL     OW54646   7.259   7.194   7.392
13582SOL    HW254647   7.232   7.191   7.483
13582SOL    HW354648   7.355   7.198   7.395
13582SOL    MW454649   7.269   7.194   7.404
13583SOL     OW54650   6.070   6.056   6.376
13583SOL    HW254651   6.141   6.004   6.339
13583SOL    HW354652   6.056   6.021   6.463
13583SOL    MW454653   6.078   6.045   6.383
13584SOL     OW54654   5.625   7.391   7.448
13584SOL    HW254655   5.675   7.369   7.370
13584SOL    HW354656   5.633   7.486   7.456
13584SOL    MW454657   5.633   7.400   7.439
13585SOL     OW54658   6.386   7.149   6.452
13585SOL    HW254659   6.314   7.086   6.465
13585SOL    HW354660   6.347   7.234   6.470
13585SOL    MW454661   6.370   7.152   6.455
13586SOL     OW54662   6.706   5.997   6.100
13586SOL    HW254663   6.728   5.934   6.032
13586SOL    HW354664   6.611   5.989   6.111
13586SOL    MW454665   6.696   5.988   6.092
13587SOL     OW54666   5.791   5.687   6.032
13587SOL    HW254667   5.862   5.708   5.971
13587SOL    HW354668   5.745   5.615   5.990
13587SOL    MW454669   5.795   5.681   6.018
13588SOL     OW54670   5.622   6.154   7.175
13588SOL    HW254671   5.686   6.220   7.150
13588SOL    HW354672   5.541   6.181   7.132
13588SOL    MW454673   5.620   6.166   7.167
13589SOL     OW54674   7.360   7.061   6.132
13589SOL    HW254675   7.330   6.994   6.193
13589SOL    HW354676   7.454   7.067   6.146
13589SOL    MW454677   7.368   7.053   6.142
13590SOL     OW54678   6.916   6.738   6.062
13590SOL    HW254679   6.888   6.824   6.095
13590SOL    HW354680   6.944   6.754   5.972
13590SOL    MW454681   6.916   6.752   6.054
13591SOL     OW54682   6.578   5.658   6.115
13591SOL    HW254683   6.615   5.717   6.180
13591SOL    HW354684   6.555   5.714   6.041
13591SOL    MW454685   6.579   5.673   6.114
13592SOL     OW54686   7.431   6.540   6.537
13592SOL    HW254687   7.422   6.572   6.448
13592SOL    HW354688   7.384   6.456   6.537
13592SOL    MW454689   7.424   6.533   6.527
13593SOL     OW54690   5.807   6.380   7.116
13593SOL    HW254691   5.828   6.449   7.054
13593SOL    HW354692   5.887   6.327   7.121
13593SOL    MW454693   5.820   6.381   7.110
13594SOL     OW54694   7.343   6.471   6.238
13594SOL    HW254695   7.437   6.460   6.226
13594SOL    HW354696   7.319   6.543   6.179
13594SOL    MW454697   7.353   6.479   6.229
13595SOL     OW54698   5.792   6.395   7.383
13595SOL    HW254699   5.718   6.339   7.409
13595SOL    HW354700   5.787   6.398   7.288
13595SOL    MW454701   5.781   6.388   7.373
13596SOL     OW54702   5.958   5.682   6.833
13596SOL    HW254703   6.001   5.766   6.853
13596SOL    HW354704   6.031   5.620   6.826
13596SOL    MW454705   5.973   5.685   6.834
13597SOL     OW54706   5.999   6.349   6.011
13597SOL    HW254707   5.999   6.444   5.996
13597SOL    HW354708   6.076   6.333   6.065
13597SOL    MW454709   6.009   6.360   6.016
13598SOL     OW54710   6.775   6.208   7.075
13598SOL    HW254711   6.811   6.181   6.991
13598SOL    HW354712   6.688   6.242   7.054
13598SOL    MW454713   6.769   6.209   7.062
13599SOL     OW54714   5.758   6.080   6.300
13599SOL    HW254715   5.820   6.087   6.373
13599SOL    HW354716   5.758   5.987   6.277
13599SOL    MW454717   5.766   6.069   6.307
13600SOL     OW54718   7.305   7.420   5.832
13600SOL    HW254719   7.372   7.453   5.772
13600SOL    HW354720   7.262   7.499   5.866
13600SOL    MW454721   7.307   7.435   5.828
13601SOL     OW54722   6.440   6.341   6.784
13601SOL    HW254723   6.398   6.259   6.760
13601SOL    HW354724   6.441   6.340   6.880
13601SOL    MW454725   6.433   6.330   6.793
13602SOL     OW54726   7.111   7.474   7.183
13602SOL    HW254727   7.114   7.380   7.166
13602SOL    HW354728   7.134   7.482   7.275
13602SOL    MW454729   7.114   7.462   7.193
13603SOL     OW54730   6.244   5.811   6.889
13603SOL    HW254731   6.175   5.874   6.910
13603SOL    HW354732   6.271   5.775   6.974
13603SOL    MW454733   6.238   5.814   6.902
13604SOL     OW54734   5.627   6.652   5.758
13604SOL    HW254735   5.596   6.717   5.821
13604SOL    HW354736   5.576   6.574   5.777
13604SOL    MW454737   5.617   6.649   5.768
13605SOL     OW54738   7.039   5.664   6.506
13605SOL    HW254739   7.127   5.673   6.543
13605SOL    HW354740   7.049   5.605   6.432
13605SOL    MW454741   7.053   5.658   6.500
13606SOL     OW54742   7.071   6.403   6.350
13606SOL    HW254743   7.151   6.418   6.299
13606SOL    HW354744   7.064   6.308   6.356
13606SOL    MW454745   7.080   6.392   6.345
13607SOL     OW54746   6.211   7.452   5.700
13607SOL    HW254747   6.116   7.452   5.692
13607SOL    HW354748   6.227   7.398   5.778
13607SOL    MW454749   6.201   7.446   5.709
13608SOL     OW54750   6.521   6.329   7.047
13608SOL    HW254751   6.590   6.396   7.044
13608SOL    HW354752   6.454   6.367   7.103
13608SOL    MW454753   6.522   6.342   7.054
13609SOL     OW54754   5.939   6.629   7.295
13609SOL    HW254755   5.893   6.545   7.297
13609SOL    HW354756   5.996   6.623   7.219
13609SOL    MW454757   5.941   6.617   7.287
13610SOL     OW54758   7.056   6.272   5.615
13610SOL    HW254759   6.984   6.248   5.557
13610SOL    HW354760   7.122   6.309   5.557
13610SOL    MW454761   7.055   6.274   5.600
13611SOL     OW54762   6.190   7.004   6.296
13611SOL    HW254763   6.255   6.937   6.317
13611SOL    HW354764   6.242   7.081   6.273
13611SOL    MW454765   6.205   7.006   6.295
13612SOL     OW54766   6.451   6.169   6.426
13612SOL    HW254767   6.391   6.187   6.498
13612SOL    HW354768   6.485   6.081   6.445
13612SOL    MW454769   6.447   6.159   6.439
13613SOL     OW54770   7.392   5.668   7.095
13613SOL    HW254771   7.313   5.714   7.123
13613SOL    HW354772   7.427   5.722   7.024
13613SOL    MW454773   7.386   5.681   7.089
13614SOL     OW54774   6.676   6.752   6.445
13614SOL    HW254775   6.768   6.733   6.463
13614SOL    HW354776   6.649   6.682   6.385
13614SOL    MW454777   6.684   6.740   6.439
13615SOL     OW54778   6.469   6.572   5.800
13615SOL    HW254779   6.455   6.484   5.765
13615SOL    HW354780   6.420   6.629   5.741
13615SOL    MW454781   6.461   6.567   5.788
13616SOL     OW54782   6.950   6.990   6.541
13616SOL    HW254783   6.923   7.074   6.506
13616SOL    HW354784   6.910   6.985   6.628
13616SOL    MW454785   6.943   6.999   6.547
13617SOL     OW54786   6.869   6.938   6.809
13617SOL    HW254787   6.880   6.905   6.898
13617SOL    HW354788   6.788   6.897   6.778
13617SOL    MW454789   6.859   6.930   6.815
13618SOL     OW54790   5.882   6.296   6.579
13618SOL    HW254791   5.832   6.295   6.660
13618SOL    HW354792   5.902   6.388   6.563
13618SOL    MW454793   5.878   6.308   6.587
13619SOL     OW54794   6.949   7.060   7.341
13619SOL    HW254795   6.949   7.154   7.357
13619SOL    HW354796   6.994   7.050   7.257
13619SOL    MW454797   6.955   7.070   7.332
13620SOL     OW54798   7.188   5.778   5.902
13620SOL    HW254799   7.181   5.782   5.997
13620SOL    HW354800   7.200   5.869   5.875
13620SOL    MW454801   7.189   5.791   5.910
13621SOL     OW54802   6.477   6.341   6.016
13621SOL    HW254803   6.457   6.327   5.923
13621SOL    HW354804   6.570   6.320   6.023
13621SOL    MW454805   6.487   6.336   6.005
13622SOL     OW54806   5.804   5.964   7.320
13622SOL    HW254807   5.761   6.023   7.257
13622SOL    HW354808   5.872   6.019   7.360
13622SOL    MW454809   5.808   5.979   7.317
13623SOL     OW54810   6.916   6.584   6.865
13623SOL    HW254811   6.979   6.581   6.938
13623SOL    HW354812   6.832   6.602   6.907
13623SOL    MW454813   6.912   6.586   6.880
13624SOL     OW54814   6.460   7.299   6.054
13624SOL    HW254815   6.518   7.370   6.081
13624SOL    HW354816   6.483   7.227   6.112
13624SOL    MW454817   6.471   7.299   6.065
13625SOL     OW54818   7.255   5.761   6.644
13625SOL    HW254819   7.300   5.679   6.663
13625SOL    HW354820   7.275   5.817   6.720
13625SOL    MW454821   7.265   5.757   6.656
13626SOL     OW54822   5.703   5.604   6.743
13626SOL    HW254823   5.694   5.605   6.648
13626SOL    HW354824   5.797   5.616   6.758
13626SOL    MW454825   5.715   5.607   6.734
13627SOL     OW54826   7.340   6.797   6.363
13627SOL    HW254827   7.319   6.743   6.286
13627SOL    HW354828   7.436   6.795   6.367
13627SOL    MW454829   7.349   6.790   6.352
13628SOL     OW54830   6.032   6.942   7.106
13628SOL    HW254831   5.953   6.892   7.129
13628SOL    HW354832   6.102   6.901   7.156
13628SOL    MW454833   6.030   6.930   7.116
13629SOL     OW54834   5.916   5.731   5.789
13629SOL    HW254835   5.845   5.786   5.757
13629SOL    HW354836   5.958   5.697   5.710
13629SOL    MW454837   5.912   5.733   5.775
13630SOL     OW54838   7.040   6.228   6.625
13630SOL    HW254839   6.963   6.274   6.591
13630SOL    HW354840   7.097   6.297   6.659
13630SOL    MW454841   7.037   6.243   6.625
13631SOL     OW54842   5.672   5.830   5.638
13631SOL    HW254843   5.639   5.909   5.682
13631SOL    HW354844   5.727   5.863   5.567
13631SOL    MW454845   5.675   5.844   5.635
13632SOL     OW54846   5.706   7.087   5.827
13632SOL    HW254847   5.723   7.171   5.869
13632SOL    HW354848   5.741   7.096   5.739
13632SOL    MW454849   5.711   7.100   5.821
13633SOL     OW54850   6.978   7.176   6.044
13633SOL    HW254851   7.041   7.166   5.973
13633SOL    HW354852   6.895   7.196   5.999
13633SOL    MW454853   6.975   7.177   6.029
13634SOL     OW54854   1.736   0.839   7.757
13634SOL    HW254855   1.777   0.781   7.822
13634SOL    HW354856   1.643   0.831   7.774
13634SOL    MW454857   1.730   0.831   7.767
13635SOL     OW54858   1.369   1.170   7.705
13635SOL    HW254859   1.287   1.206   7.671
13635SOL    HW354860   1.437   1.213   7.654
13635SOL    MW454861   1.367   1.180   7.693
13636SOL     OW54862   1.850   0.481   7.656
13636SOL    HW254863   1.759   0.483   7.684
13636SOL    HW354864   1.895   0.543   7.714
13636SOL    MW454865   1.843   0.489   7.666
13637SOL     OW54866   1.595   1.084   8.006
13637SOL    HW254867   1.505   1.084   8.041
13637SOL    HW354868   1.588   1.130   7.923
13637SOL    MW454869   1.582   1.090   8.000
13638SOL     OW54870   1.787   1.285   7.818
13638SOL    HW254871   1.743   1.326   7.893
13638SOL    HW354872   1.844   1.353   7.783
13638SOL    MW454873   1.789   1.299   7.823
13639SOL     OW54874   1.563   1.569   7.684
13639SOL    HW254875   1.611   1.638   7.730
13639SOL    HW354876   1.484   1.613   7.653
13639SOL    MW454877   1.558   1.583   7.687
13640SOL     OW54878   0.961   0.694   7.628
13640SOL    HW254879   0.963   0.641   7.549
13640SOL    HW354880   1.049   0.731   7.634
13640SOL    MW454881   0.973   0.693   7.617
13641SOL     OW54882   1.575   0.620   7.964
13641SOL    HW254883   1.614   0.620   8.051
13641SOL    HW354884   1.516   0.696   7.964
13641SOL    MW454885   1.572   0.631   7.975
13642SOL     OW54886   1.131   1.313   7.720
13642SOL    HW254887   1.081   1.315   7.802
13642SOL    HW354888   1.065   1.331   7.652
13642SOL    MW454889   1.117   1.315   7.722
13643SOL     OW54890   0.730   1.146   7.535
13643SOL    HW254891   0.652   1.092   7.522
13643SOL    HW354892   0.701   1.219   7.588
13643SOL    MW454893   0.716   1.148   7.540
13644SOL     OW54894   1.311   1.662   7.603
13644SOL    HW254895   1.237   1.625   7.653
13644SOL    HW354896   1.319   1.752   7.636
13644SOL    MW454897   1.302   1.669   7.615
13645SOL     OW54898   1.535   1.336   7.545
13645SOL    HW254899   1.482   1.385   7.481
13645SOL    HW354900   1.566   1.402   7.606
13645SOL    MW454901   1.533   1.350   7.543
13646SOL     OW54902   0.760   0.225   7.600
13646SOL    HW254903   0.708   0.145   7.588
13646SOL    HW354904   0.847   0.202   7.568
13646SOL    MW454905   0.763   0.211   7.594
13647SOL     OW54906   0.695   1.577   7.536
13647SOL    HW254907   0.635   1.646   7.506
13647SOL    HW354908   0.640   1.519   7.589
13647SOL    MW454909   0.679   1.579   7.538
13648SOL     OW54910   1.133   0.222   7.759
13648SOL    HW254911   1.066   0.198   7.696
13648SOL    HW354912   1.198   0.271   7.708
13648SOL    MW454913   1.133   0.224   7.744
13649SOL     OW54914   0.326   1.621   7.925
13649SOL    HW254915   0.287   1.668   7.851
13649SOL    HW354916   0.260   1.556   7.950
13649SOL    MW454917   0.313   1.619   7.919
13650SOL     OW54918   1.308   0.378   7.617
13650SOL    HW254919   1.281   0.444   7.553
13650SOL    HW354920   1.378   0.421   7.667
13650SOL    MW454921   1.313   0.391   7.614
13651SOL     OW54922   0.976   0.083   7.554
13651SOL    HW254923   1.032   0.075   7.476
13651SOL    HW354924   0.953  -0.007   7.576
13651SOL    MW454925   0.981   0.070   7.547
13652SOL     OW54926   1.481   0.934   7.759
13652SOL    HW254927   1.448   1.023   7.749
13652SOL    HW354928   1.446   0.905   7.844
13652SOL    MW454929   1.471   0.943   7.770
13653SOL     OW54930   0.475   0.972   7.551
13653SOL    HW254931   0.398   0.985   7.607
13653SOL    HW354932   0.439   0.936   7.470
13653SOL    MW454933   0.461   0.968   7.548
13654SOL     OW54934   1.128   0.945   7.794
13654SOL    HW254935   1.038   0.966   7.769
13654SOL    HW354936   1.155   1.018   7.850
13654SOL    MW454937   1.120   0.957   7.797
13655SOL     OW54938   0.518   0.585   7.664
13655SOL    HW254939   0.484   0.641   7.734
13655SOL    HW354940   0.589   0.535   7.704
13655SOL    MW454941   0.524   0.586   7.678
13656SOL     OW54942   1.574   0.471   7.728
13656SOL    HW254943   1.566   0.542   7.665
13656SOL    HW354944   1.592   0.515   7.811
13656SOL    MW454945   1.575   0.485   7.730
13657SOL     OW54946   1.243   0.733   7.703
13657SOL    HW254947   1.290   0.751   7.622
13657SOL    HW354948   1.209   0.817   7.731
13657SOL    MW454949   1.245   0.747   7.696
13658SOL     OW54950   0.978   1.475   7.525
13658SOL    HW254951   1.005   1.553   7.477
13658SOL    HW354952   0.885   1.490   7.544
13658SOL    MW454953   0.969   1.488   7.521
13659SOL     OW54954   1.326   0.035   7.712
13659SOL    HW254955   1.400   0.079   7.755
13659SOL    HW354956   1.250   0.089   7.734
13659SOL    MW454957   1.326   0.047   7.720
13660SOL     OW54958   1.386   0.810   7.990
13660SOL    HW254959   1.301   0.780   7.960
13660SOL    HW354960   1.378   0.817   8.085
13660SOL    MW454961   1.374   0.808   7.999
13661SOL     OW54962   0.590   1.339   7.673
13661SOL    HW254963   0.605   1.315   7.765
13661SOL    HW354964   0.498   1.317   7.657
13661SOL    MW454965   0.580   1.332   7.683
13662SOL     OW54966   1.101   0.392   7.995
13662SOL    HW254967   1.123   0.329   7.927
13662SOL    HW354968   1.006   0.384   8.006
13662SOL    MW454969   1.091   0.383   7.987
13663SOL     OW54970   1.311   1.133   7.957
13663SOL    HW254971   1.283   1.219   7.990
13663SOL    HW354972   1.339   1.149   7.867
13663SOL    MW454973   1.311   1.147   7.949
13664SOL     OW54974   1.700   1.815   7.727
13664SOL    HW254975   1.767   1.848   7.667
13664SOL    HW354976   1.657   1.894   7.761
13664SOL    MW454977   1.702   1.830   7.723
13665SOL     OW54978   1.451   0.667   7.511
13665SOL    HW254979   1.379   0.643   7.453
13665SOL    HW354980   1.517   0.704   7.453
13665SOL    MW454981   1.450   0.669   7.496
13666SOL     OW54982   0.864   0.967   7.695
13666SOL    HW254983   0.850   0.879   7.660
13666SOL    HW354984   0.815   1.024   7.636
13666SOL    MW454985   0.856   0.962   7.683
13667SOL     OW54986   1.583   0.173   7.797
13667SOL    HW254987   1.576   0.177   7.892
13667SOL    HW354988   1.595   0.264   7.770
13667SOL    MW454989   1.584   0.186   7.805
13668SOL     OW54990   0.311   0.126   7.684
13668SOL    HW254991   0.240   0.181   7.652
13668SOL    HW354992   0.353   0.092   7.605
13668SOL    MW454993   0.307   0.128   7.670
13669SOL     OW54994   0.067   0.225   7.533
13669SOL    HW254995   0.034   0.304   7.577
13669SOL    HW354996   0.122   0.258   7.462
13669SOL    MW454997   0.070   0.239   7.530
13670SOL     OW54998   1.369   3.038   7.705
13670SOL    HW254999   1.287   3.074   7.671
13670SOL    HW355000   1.437   3.081   7.654
13670SOL    MW455001   1.367   3.048   7.693
13671SOL     OW55002   0.253   3.113   7.903
13671SOL    HW255003   0.201   3.181   7.859
13671SOL    HW355004   0.250   3.039   7.843
13671SOL    MW455005   0.245   3.112   7.890
13672SOL     OW55006   0.915   3.576   7.681
13672SOL    HW255007   0.870   3.592   7.764
13672SOL    HW355008   0.846   3.541   7.623
13672SOL    MW455009   0.901   3.573   7.683
13673SOL     OW55010   1.850   2.349   7.656
13673SOL    HW255011   1.759   2.351   7.684
13673SOL    HW355012   1.895   2.411   7.714
13673SOL    MW455013   1.843   2.357   7.666
13674SOL     OW55014   1.595   2.952   8.006
13674SOL    HW255015   1.505   2.952   8.041
13674SOL    HW355016   1.588   2.998   7.923
13674SOL    MW455017   1.582   2.958   8.000
13675SOL     OW55018   1.787   3.153   7.818
13675SOL    HW255019   1.743   3.194   7.893
13675SOL    HW355020   1.844   3.221   7.783
13675SOL    MW455021   1.789   3.167   7.823
13676SOL     OW55022   0.159   3.629   7.713
13676SOL    HW255023   0.188   3.719   7.705
13676SOL    HW355024   0.109   3.612   7.634
13676SOL    MW455025   0.157   3.637   7.702
13677SOL     OW55026   1.563   3.437   7.684
13677SOL    HW255027   1.611   3.506   7.730
13677SOL    HW355028   1.484   3.481   7.653
13677SOL    MW455029   1.558   3.451   7.687
13678SOL     OW55030   0.961   2.562   7.628
13678SOL    HW255031   0.963   2.509   7.549
13678SOL    HW355032   1.049   2.599   7.634
13678SOL    MW455033   0.973   2.561   7.617
13679SOL     OW55034   1.575   2.488   7.964
13679SOL    HW255035   1.614   2.488   8.051
13679SOL    HW355036   1.516   2.564   7.964
13679SOL    MW455037   1.572   2.499   7.975
13680SOL     OW55038   1.131   3.181   7.720
13680SOL    HW255039   1.081   3.183   7.802
13680SOL    HW355040   1.065   3.199   7.652
13680SOL    MW455041   1.117   3.183   7.722
13681SOL     OW55042   0.730   3.014   7.535
13681SOL    HW255043   0.652   2.960   7.522
13681SOL    HW355044   0.701   3.087   7.588
13681SOL    MW455045   0.716   3.016   7.540
13682SOL     OW55046   1.311   3.530   7.603
13682SOL    HW255047   1.237   3.493   7.653
13682SOL    HW355048   1.319   3.620   7.636
13682SOL    MW455049   1.302   3.537   7.615
13683SOL     OW55050   1.535   3.204   7.545
13683SOL    HW255051   1.482   3.253   7.481
13683SOL    HW355052   1.566   3.270   7.606
13683SOL    MW455053   1.533   3.218   7.543
13684SOL     OW55054   0.760   2.093   7.600
13684SOL    HW255055   0.708   2.013   7.588
13684SOL    HW355056   0.847   2.070   7.568
13684SOL    MW455057   0.763   2.079   7.594
13685SOL     OW55058   0.695   3.445   7.536
13685SOL    HW255059   0.635   3.514   7.506
13685SOL    HW355060   0.640   3.387   7.589
13685SOL    MW455061   0.679   3.447   7.538
13686SOL     OW55062   1.133   2.090   7.759
13686SOL    HW255063   1.066   2.066   7.696
13686SOL    HW355064   1.198   2.139   7.708
13686SOL    MW455065   1.133   2.092   7.744
13687SOL     OW55066   0.326   3.489   7.925
13687SOL    HW255067   0.287   3.536   7.851
13687SOL    HW355068   0.260   3.424   7.950
13687SOL    MW455069   0.313   3.487   7.919
13688SOL     OW55070   1.308   2.246   7.617
13688SOL    HW255071   1.281   2.312   7.553
13688SOL    HW355072   1.378   2.289   7.667
13688SOL    MW455073   1.313   2.259   7.614
13689SOL     OW55074   0.976   1.951   7.554
13689SOL    HW255075   1.032   1.943   7.476
13689SOL    HW355076   0.953   1.861   7.576
13689SOL    MW455077   0.981   1.938   7.547
13690SOL     OW55078   1.481   2.802   7.759
13690SOL    HW255079   1.448   2.891   7.749
13690SOL    HW355080   1.446   2.773   7.844
13690SOL    MW455081   1.471   2.811   7.770
13691SOL     OW55082   0.475   2.840   7.551
13691SOL    HW255083   0.398   2.853   7.607
13691SOL    HW355084   0.439   2.804   7.470
13691SOL    MW455085   0.461   2.836   7.548
13692SOL     OW55086   1.128   2.813   7.794
13692SOL    HW255087   1.038   2.834   7.769
13692SOL    HW355088   1.155   2.886   7.850
13692SOL    MW455089   1.120   2.825   7.797
13693SOL     OW55090   0.515   3.169   7.950
13693SOL    HW255091   0.508   3.201   8.040
13693SOL    HW355092   0.425   3.153   7.922
13693SOL    MW455093   0.503   3.171   7.957
13694SOL     OW55094   0.518   2.453   7.664
13694SOL    HW255095   0.484   2.509   7.734
13694SOL    HW355096   0.589   2.403   7.704
13694SOL    MW455097   0.524   2.454   7.678
13695SOL     OW55098   1.574   2.339   7.728
13695SOL    HW255099   1.566   2.410   7.665
13695SOL    HW355100   1.592   2.383   7.811
13695SOL    MW455101   1.575   2.353   7.730
13696SOL     OW55102   1.243   2.601   7.703
13696SOL    HW255103   1.290   2.619   7.622
13696SOL    HW355104   1.209   2.685   7.731
13696SOL    MW455105   1.245   2.615   7.696
13697SOL     OW55106   0.978   3.343   7.525
13697SOL    HW255107   1.005   3.421   7.477
13697SOL    HW355108   0.885   3.358   7.544
13697SOL    MW455109   0.969   3.356   7.521
13698SOL     OW55110   1.326   1.903   7.712
13698SOL    HW255111   1.400   1.947   7.755
13698SOL    HW355112   1.250   1.957   7.734
13698SOL    MW455113   1.326   1.915   7.720
13699SOL     OW55114   1.386   2.678   7.990
13699SOL    HW255115   1.301   2.648   7.960
13699SOL    HW355116   1.378   2.685   8.085
13699SOL    MW455117   1.374   2.676   7.999
13700SOL     OW55118   0.590   3.207   7.673
13700SOL    HW255119   0.605   3.183   7.765
13700SOL    HW355120   0.498   3.185   7.657
13700SOL    MW455121   0.580   3.200   7.683
13701SOL     OW55122   1.129   3.438   7.825
13701SOL    HW255123   1.137   3.356   7.776
13701SOL    HW355124   1.048   3.477   7.792
13701SOL    MW455125   1.119   3.433   7.815
13702SOL     OW55126   1.101   2.260   7.995
13702SOL    HW255127   1.123   2.197   7.927
13702SOL    HW355128   1.006   2.252   8.006
13702SOL    MW455129   1.091   2.251   7.987
13703SOL     OW55130   1.311   3.001   7.957
13703SOL    HW255131   1.283   3.087   7.990
13703SOL    HW355132   1.339   3.017   7.867
13703SOL    MW455133   1.311   3.015   7.949
13704SOL     OW55134   1.700   3.683   7.727
13704SOL    HW255135   1.767   3.716   7.667
13704SOL    HW355136   1.657   3.762   7.761
13704SOL    MW455137   1.702   3.698   7.723
13705SOL     OW55138   0.606   3.715   7.595
13705SOL    HW255139   0.511   3.715   7.587
13705SOL    HW355140   0.622   3.661   7.673
13705SOL    MW455141   0.596   3.709   7.604
13706SOL     OW55142   1.451   2.535   7.511
13706SOL    HW255143   1.379   2.511   7.453
13706SOL    HW355144   1.517   2.572   7.453
13706SOL    MW455145   1.450   2.537   7.496
13707SOL     OW55146   0.864   2.835   7.695
13707SOL    HW255147   0.850   2.747   7.660
13707SOL    HW355148   0.815   2.892   7.636
13707SOL    MW455149   0.856   2.830   7.683
13708SOL     OW55150   1.583   2.041   7.797
13708SOL    HW255151   1.576   2.045   7.892
13708SOL    HW355152   1.595   2.132   7.770
13708SOL    MW455153   1.584   2.054   7.805
13709SOL     OW55154   0.855   3.562   7.949
13709SOL    HW255155   0.913   3.633   7.976
13709SOL    HW355156   0.878   3.490   8.007
13709SOL    MW455157   0.866   3.562   7.960
13710SOL     OW55158   0.311   1.994   7.684
13710SOL    HW255159   0.240   2.049   7.652
13710SOL    HW355160   0.353   1.960   7.605
13710SOL    MW455161   0.307   1.996   7.670
13711SOL     OW55162   0.067   2.093   7.533
13711SOL    HW255163   0.034   2.172   7.577
13711SOL    HW355164   0.122   2.126   7.462
13711SOL    MW455165   0.070   2.107   7.530
13712SOL     OW55166   0.101   3.350   7.722
13712SOL    HW255167   0.118   3.434   7.764
13712SOL    HW355168   0.136   3.359   7.634
13712SOL    MW455169   0.106   3.363   7.716
13713SOL     OW55170   1.373   3.439   7.939
13713SOL    HW255171   1.436   3.429   7.868
13713SOL    HW355172   1.290   3.459   7.894
13713SOL    MW455173   1.370   3.440   7.924
13714SOL     OW55174   0.814   4.214   7.999
13714SOL    HW255175   0.789   4.302   8.027
13714SOL    HW355176   0.811   4.217   7.903
13714SOL    MW455177   0.810   4.226   7.991
13715SOL     OW55178   0.256   4.242   7.927
13715SOL    HW255179   0.288   4.330   7.909
13715SOL    HW355180   0.244   4.240   8.022
13715SOL    MW455181   0.259   4.254   7.939
13716SOL     OW55182   0.655   3.997   8.014
13716SOL    HW255183   0.713   4.073   8.016
13716SOL    HW355184   0.590   4.018   7.947
13716SOL    MW455185   0.654   4.009   8.005
13717SOL     OW55186   1.369   4.906   7.705
13717SOL    HW255187   1.287   4.942   7.671
13717SOL    HW355188   1.437   4.949   7.654
13717SOL    MW455189   1.367   4.916   7.693
13718SOL     OW55190   0.921   5.047   7.898
13718SOL    HW255191   0.898   5.109   7.966
13718SOL    HW355192   0.878   4.965   7.924
13718SOL    MW455193   0.913   5.043   7.909
13719SOL     OW55194   0.418   4.020   7.866
13719SOL    HW255195   0.392   3.982   7.782
13719SOL    HW355196   0.355   4.090   7.882
13719SOL    MW455197   0.407   4.023   7.857
13720SOL     OW55198   1.850   4.217   7.656
13720SOL    HW255199   1.759   4.219   7.684
13720SOL    HW355200   1.895   4.279   7.714
13720SOL    MW455201   1.843   4.225   7.666
13721SOL     OW55202   1.595   4.820   8.006
13721SOL    HW255203   1.505   4.820   8.041
13721SOL    HW355204   1.588   4.866   7.923
13721SOL    MW455205   1.582   4.826   8.000
13722SOL     OW55206   1.122   4.401   7.967
13722SOL    HW255207   1.148   4.425   7.878
13722SOL    HW355208   1.104   4.308   7.963
13722SOL    MW455209   1.124   4.393   7.954
13723SOL     OW55210   0.159   5.497   7.713
13723SOL    HW255211   0.188   5.587   7.705
13723SOL    HW355212   0.109   5.480   7.634
13723SOL    MW455213   0.157   5.505   7.702
13724SOL     OW55214   1.563   5.305   7.684
13724SOL    HW255215   1.611   5.374   7.730
13724SOL    HW355216   1.484   5.349   7.653
13724SOL    MW455217   1.558   5.319   7.687
13725SOL     OW55218   0.961   4.430   7.628
13725SOL    HW255219   0.963   4.377   7.549
13725SOL    HW355220   1.049   4.467   7.634
13725SOL    MW455221   0.973   4.429   7.617
13726SOL     OW55222   1.575   4.356   7.964
13726SOL    HW255223   1.614   4.356   8.051
13726SOL    HW355224   1.516   4.432   7.964
13726SOL    MW455225   1.572   4.367   7.975
13727SOL     OW55226   0.730   4.882   7.535
13727SOL    HW255227   0.652   4.828   7.522
13727SOL    HW355228   0.701   4.955   7.588
13727SOL    MW455229   0.716   4.884   7.540
13728SOL     OW55230   1.535   5.072   7.545
13728SOL    HW255231   1.482   5.121   7.481
13728SOL    HW355232   1.566   5.138   7.606
13728SOL    MW455233   1.533   5.086   7.543
13729SOL     OW55234   0.760   3.961   7.600
13729SOL    HW255235   0.708   3.881   7.588
13729SOL    HW355236   0.847   3.938   7.568
13729SOL    MW455237   0.763   3.947   7.594
13730SOL     OW55238   0.695   5.313   7.536
13730SOL    HW255239   0.635   5.382   7.506
13730SOL    HW355240   0.640   5.255   7.589
13730SOL    MW455241   0.679   5.315   7.538
13731SOL     OW55242   1.133   3.958   7.759
13731SOL    HW255243   1.066   3.934   7.696
13731SOL    HW355244   1.198   4.007   7.708
13731SOL    MW455245   1.133   3.960   7.744
13732SOL     OW55246   1.308   4.114   7.617
13732SOL    HW255247   1.281   4.180   7.553
13732SOL    HW355248   1.378   4.157   7.667
13732SOL    MW455249   1.313   4.127   7.614
13733SOL     OW55250   0.976   3.819   7.554
13733SOL    HW255251   1.032   3.811   7.476
13733SOL    HW355252   0.953   3.729   7.576
13733SOL    MW455253   0.981   3.806   7.547
13734SOL     OW55254   0.475   4.708   7.551
13734SOL    HW255255   0.398   4.721   7.607
13734SOL    HW355256   0.439   4.672   7.470
13734SOL    MW455257   0.461   4.704   7.548
13735SOL     OW55258   1.128   4.681   7.794
13735SOL    HW255259   1.038   4.702   7.769
13735SOL    HW355260   1.155   4.754   7.850
13735SOL    MW455261   1.120   4.693   7.797
13736SOL     OW55262   0.518   4.321   7.664
13736SOL    HW255263   0.484   4.377   7.734
13736SOL    HW355264   0.589   4.271   7.704
13736SOL    MW455265   0.524   4.322   7.678
13737SOL     OW55266   1.574   4.207   7.728
13737SOL    HW255267   1.566   4.278   7.665
13737SOL    HW355268   1.592   4.251   7.811
13737SOL    MW455269   1.575   4.221   7.730
13738SOL     OW55270   0.978   5.211   7.525
13738SOL    HW255271   1.005   5.289   7.477
13738SOL    HW355272   0.885   5.226   7.544
13738SOL    MW455273   0.969   5.224   7.521
13739SOL     OW55274   1.326   3.771   7.712
13739SOL    HW255275   1.400   3.815   7.755
13739SOL    HW355276   1.250   3.825   7.734
13739SOL    MW455277   1.326   3.783   7.720
13740SOL     OW55278   1.386   4.546   7.990
13740SOL    HW255279   1.301   4.516   7.960
13740SOL    HW355280   1.378   4.553   8.085
13740SOL    MW455281   1.374   4.544   7.999
13741SOL     OW55282   0.759   4.212   7.716
13741SOL    HW255283   0.832   4.261   7.679
13741SOL    HW355284   0.775   4.121   7.690
13741SOL    MW455285   0.771   4.207   7.709
13742SOL     OW55286   0.234   4.721   7.814
13742SOL    HW255287   0.171   4.737   7.743
13742SOL    HW355288   0.181   4.684   7.885
13742SOL    MW455289   0.219   4.718   7.814
13743SOL     OW55290   0.590   5.075   7.673
13743SOL    HW255291   0.605   5.051   7.765
13743SOL    HW355292   0.498   5.053   7.657
13743SOL    MW455293   0.580   5.068   7.683
13744SOL     OW55294   1.101   4.128   7.995
13744SOL    HW255295   1.123   4.065   7.927
13744SOL    HW355296   1.006   4.120   8.006
13744SOL    MW455297   1.091   4.119   7.987
13745SOL     OW55298   0.186   3.818   7.927
13745SOL    HW255299   0.257   3.839   7.866
13745SOL    HW355300   0.140   3.746   7.885
13745SOL    MW455301   0.190   3.812   7.913
13746SOL     OW55302   0.973   3.789   8.010
13746SOL    HW255303   1.010   3.848   8.075
13746SOL    HW355304   0.950   3.845   7.936
13746SOL    MW455305   0.974   3.804   8.009
13747SOL     OW55306   1.700   5.551   7.727
13747SOL    HW255307   1.767   5.584   7.667
13747SOL    HW355308   1.657   5.630   7.761
13747SOL    MW455309   1.702   5.566   7.723
13748SOL     OW55310   0.606   5.583   7.595
13748SOL    HW255311   0.511   5.583   7.587
13748SOL    HW355312   0.622   5.529   7.673
13748SOL    MW455313   0.596   5.577   7.604
13749SOL     OW55314   1.451   4.403   7.511
13749SOL    HW255315   1.379   4.379   7.453
13749SOL    HW355316   1.517   4.440   7.453
13749SOL    MW455317   1.450   4.405   7.496
13750SOL     OW55318   1.583   3.909   7.797
13750SOL    HW255319   1.576   3.913   7.892
13750SOL    HW355320   1.595   4.000   7.770
13750SOL    MW455321   1.584   3.922   7.805
13751SOL     OW55322   0.311   3.862   7.684
13751SOL    HW255323   0.240   3.917   7.652
13751SOL    HW355324   0.353   3.828   7.605
13751SOL    MW455325   0.307   3.864   7.670
13752SOL     OW55326   0.067   3.961   7.533
13752SOL    HW255327   0.034   4.040   7.577
13752SOL    HW355328   0.122   3.994   7.462
13752SOL    MW455329   0.070   3.975   7.530
13753SOL     OW55330   1.369   6.775   7.705
13753SOL    HW255331   1.287   6.811   7.671
13753SOL    HW355332   1.437   6.818   7.654
13753SOL    MW455333   1.367   6.785   7.693
13754SOL     OW55334   0.921   6.916   7.898
13754SOL    HW255335   0.898   6.978   7.966
13754SOL    HW355336   0.878   6.834   7.924
13754SOL    MW455337   0.913   6.912   7.909
13755SOL     OW55338   1.595   6.689   8.006
13755SOL    HW255339   1.505   6.689   8.041
13755SOL    HW355340   1.588   6.735   7.923
13755SOL    MW455341   1.582   6.695   8.000
13756SOL     OW55342   0.159   7.366   7.713
13756SOL    HW255343   0.188   7.456   7.705
13756SOL    HW355344   0.109   7.349   7.634
13756SOL    MW455345   0.157   7.374   7.702
13757SOL     OW55346   1.563   7.174   7.684
13757SOL    HW255347   1.611   7.243   7.730
13757SOL    HW355348   1.484   7.218   7.653
13757SOL    MW455349   1.558   7.188   7.687
13758SOL     OW55350   0.961   6.299   7.628
13758SOL    HW255351   0.963   6.246   7.549
13758SOL    HW355352   1.049   6.336   7.634
13758SOL    MW455353   0.973   6.298   7.617
13759SOL     OW55354   0.730   6.751   7.535
13759SOL    HW255355   0.652   6.697   7.522
13759SOL    HW355356   0.701   6.824   7.588
13759SOL    MW455357   0.716   6.753   7.540
13760SOL     OW55358   1.535   6.941   7.545
13760SOL    HW255359   1.482   6.990   7.481
13760SOL    HW355360   1.566   7.007   7.606
13760SOL    MW455361   1.533   6.955   7.543
13761SOL     OW55362   0.760   5.830   7.600
13761SOL    HW255363   0.708   5.750   7.588
13761SOL    HW355364   0.847   5.807   7.568
13761SOL    MW455365   0.763   5.816   7.594
13762SOL     OW55366   0.695   7.182   7.536
13762SOL    HW255367   0.635   7.251   7.506
13762SOL    HW355368   0.640   7.124   7.589
13762SOL    MW455369   0.679   7.184   7.538
13763SOL     OW55370   0.976   5.688   7.554
13763SOL    HW255371   1.032   5.680   7.476
13763SOL    HW355372   0.953   5.598   7.576
13763SOL    MW455373   0.981   5.675   7.547
13764SOL     OW55374   0.475   6.577   7.551
13764SOL    HW255375   0.398   6.590   7.607
13764SOL    HW355376   0.439   6.541   7.470
13764SOL    MW455377   0.461   6.573   7.548
13765SOL     OW55378   1.128   6.550   7.794
13765SOL    HW255379   1.038   6.571   7.769
13765SOL    HW355380   1.155   6.623   7.850
13765SOL    MW455381   1.120   6.562   7.797
13766SOL     OW55382   0.518   6.190   7.664
13766SOL    HW255383   0.484   6.246   7.734
13766SOL    HW355384   0.589   6.140   7.704
13766SOL    MW455385   0.524   6.191   7.678
13767SOL     OW55386   0.978   7.080   7.525
13767SOL    HW255387   1.005   7.158   7.477
13767SOL    HW355388   0.885   7.095   7.544
13767SOL    MW455389   0.969   7.093   7.521
13768SOL     OW55390   1.386   6.415   7.990
13768SOL    HW255391   1.301   6.385   7.960
13768SOL    HW355392   1.378   6.422   8.085
13768SOL    MW455393   1.374   6.413   7.999
13769SOL     OW55394   0.759   6.081   7.716
13769SOL    HW255395   0.832   6.130   7.679
13769SOL    HW355396   0.775   5.990   7.690
13769SOL    MW455397   0.771   6.076   7.709
13770SOL     OW55398   0.234   6.590   7.814
13770SOL    HW255399   0.171   6.606   7.743
13770SOL    HW355400   0.181   6.553   7.885
13770SOL    MW455401   0.219   6.587   7.814
13771SOL     OW55402   0.590   6.944   7.673
13771SOL    HW255403   0.605   6.920   7.765
13771SOL    HW355404   0.498   6.922   7.657
13771SOL    MW455405   0.580   6.937   7.683
13772SOL     OW55406   1.101   5.997   7.995
13772SOL    HW255407   1.123   5.934   7.927
13772SOL    HW355408   1.006   5.989   8.006
13772SOL    MW455409   1.091   5.988   7.987
13773SOL     OW55410   1.700   7.420   7.727
13773SOL    HW255411   1.767   7.453   7.667
13773SOL    HW355412   1.657   7.499   7.761
13773SOL    MW455413   1.702   7.435   7.723
13774SOL     OW55414   0.606   7.452   7.595
13774SOL    HW255415   0.511   7.452   7.587
13774SOL    HW355416   0.622   7.398   7.673
13774SOL    MW455417   0.596   7.446   7.604
13775SOL     OW55418   1.451   6.272   7.511
13775SOL    HW255419   1.379   6.248   7.453
13775SOL    HW355420   1.517   6.309   7.453
13775SOL    MW455421   1.450   6.274   7.496
13776SOL     OW55422   0.067   5.830   7.533
13776SOL    HW255423   0.034   5.909   7.577
13776SOL    HW355424   0.122   5.863   7.462
13776SOL    MW455425   0.070   5.844   7.530
13777SOL     OW55426   3.604   0.839   7.757
13777SOL    HW255427   3.645   0.781   7.822
13777SOL    HW355428   3.511   0.831   7.774
13777SOL    MW455429   3.598   0.831   7.767
13778SOL     OW55430   2.398   1.022   7.986
13778SOL    HW255431   2.488   0.997   7.970
13778SOL    HW355432   2.394   1.115   7.963
13778SOL    MW455433   2.410   1.031   7.981
13779SOL     OW55434   2.682   0.478   7.999
13779SOL    HW255435   2.657   0.566   8.027
13779SOL    HW355436   2.679   0.481   7.903
13779SOL    MW455437   2.678   0.490   7.991
13780SOL     OW55438   2.124   0.506   7.927
13780SOL    HW255439   2.156   0.594   7.909
13780SOL    HW355440   2.112   0.504   8.022
13780SOL    MW455441   2.127   0.518   7.939
13781SOL     OW55442   2.523   0.261   8.014
13781SOL    HW255443   2.581   0.337   8.016
13781SOL    HW355444   2.458   0.282   7.947
13781SOL    MW455445   2.522   0.273   8.005
13782SOL     OW55446   3.237   1.170   7.705
13782SOL    HW255447   3.155   1.206   7.671
13782SOL    HW355448   3.305   1.213   7.654
13782SOL    MW455449   3.235   1.180   7.693
13783SOL     OW55450   2.789   1.311   7.898
13783SOL    HW255451   2.766   1.373   7.966
13783SOL    HW355452   2.746   1.229   7.924
13783SOL    MW455453   2.781   1.307   7.909
13784SOL     OW55454   2.286   0.284   7.866
13784SOL    HW255455   2.260   0.246   7.782
13784SOL    HW355456   2.223   0.354   7.882
13784SOL    MW455457   2.275   0.287   7.857
13785SOL     OW55458   2.121   1.245   7.903
13785SOL    HW255459   2.069   1.313   7.859
13785SOL    HW355460   2.118   1.171   7.843
13785SOL    MW455461   2.113   1.244   7.890
13786SOL     OW55462   2.783   1.708   7.681
13786SOL    HW255463   2.738   1.724   7.764
13786SOL    HW355464   2.714   1.673   7.623
13786SOL    MW455465   2.769   1.705   7.683
13787SOL     OW55466   2.990   0.665   7.967
13787SOL    HW255467   3.016   0.689   7.878
13787SOL    HW355468   2.972   0.572   7.963
13787SOL    MW455469   2.992   0.657   7.954
13788SOL     OW55470   2.027   1.761   7.713
13788SOL    HW255471   2.056   1.851   7.705
13788SOL    HW355472   1.977   1.744   7.634
13788SOL    MW455473   2.025   1.769   7.702
13789SOL     OW55474   3.431   1.569   7.684
13789SOL    HW255475   3.479   1.638   7.730
13789SOL    HW355476   3.352   1.613   7.653
13789SOL    MW455477   3.426   1.583   7.687
13790SOL     OW55478   2.829   0.694   7.628
13790SOL    HW255479   2.831   0.641   7.549
13790SOL    HW355480   2.917   0.731   7.634
13790SOL    MW455481   2.841   0.693   7.617
13791SOL     OW55482   2.999   1.313   7.720
13791SOL    HW255483   2.949   1.315   7.802
13791SOL    HW355484   2.933   1.331   7.652
13791SOL    MW455485   2.985   1.315   7.722
13792SOL     OW55486   2.462   1.731   7.828
13792SOL    HW255487   2.383   1.689   7.861
13792SOL    HW355488   2.528   1.714   7.895
13792SOL    MW455489   2.461   1.723   7.841
13793SOL     OW55490   2.598   1.146   7.535
13793SOL    HW255491   2.520   1.092   7.522
13793SOL    HW355492   2.569   1.219   7.588
13793SOL    MW455493   2.584   1.148   7.540
13794SOL     OW55494   3.179   1.662   7.603
13794SOL    HW255495   3.105   1.625   7.653
13794SOL    HW355496   3.187   1.752   7.636
13794SOL    MW455497   3.170   1.669   7.615
13795SOL     OW55498   3.403   1.336   7.545
13795SOL    HW255499   3.350   1.385   7.481
13795SOL    HW355500   3.434   1.402   7.606
13795SOL    MW455501   3.401   1.350   7.543
13796SOL     OW55502   2.628   0.225   7.600
13796SOL    HW255503   2.576   0.145   7.588
13796SOL    HW355504   2.715   0.202   7.568
13796SOL    MW455505   2.631   0.211   7.594
13797SOL     OW55506   2.563   1.577   7.536
13797SOL    HW255507   2.503   1.646   7.506
13797SOL    HW355508   2.508   1.519   7.589
13797SOL    MW455509   2.547   1.579   7.538
13798SOL     OW55510   3.001   0.222   7.759
13798SOL    HW255511   2.934   0.198   7.696
13798SOL    HW355512   3.066   0.271   7.708
13798SOL    MW455513   3.001   0.224   7.744
13799SOL     OW55514   2.194   1.621   7.925
13799SOL    HW255515   2.155   1.668   7.851
13799SOL    HW355516   2.128   1.556   7.950
13799SOL    MW455517   2.181   1.619   7.919
13800SOL     OW55518   2.686   1.030   7.949
13800SOL    HW255519   2.688   1.004   7.856
13800SOL    HW355520   2.744   0.967   7.992
13800SOL    MW455521   2.694   1.019   7.943
13801SOL     OW55522   3.176   0.378   7.617
13801SOL    HW255523   3.149   0.444   7.553
13801SOL    HW355524   3.246   0.421   7.667
13801SOL    MW455525   3.181   0.391   7.614
13802SOL     OW55526   2.844   0.083   7.554
13802SOL    HW255527   2.900   0.075   7.476
13802SOL    HW355528   2.821  -0.007   7.576
13802SOL    MW455529   2.849   0.070   7.547
13803SOL     OW55530   2.343   0.972   7.551
13803SOL    HW255531   2.266   0.985   7.607
13803SOL    HW355532   2.307   0.936   7.470
13803SOL    MW455533   2.329   0.968   7.548
13804SOL     OW55534   2.996   0.945   7.794
13804SOL    HW255535   2.906   0.966   7.769
13804SOL    HW355536   3.023   1.018   7.850
13804SOL    MW455537   2.988   0.957   7.797
13805SOL     OW55538   2.383   1.301   7.950
13805SOL    HW255539   2.376   1.333   8.040
13805SOL    HW355540   2.293   1.285   7.922
13805SOL    MW455541   2.371   1.303   7.957
13806SOL     OW55542   2.386   0.585   7.664
13806SOL    HW255543   2.352   0.641   7.734
13806SOL    HW355544   2.457   0.535   7.704
13806SOL    MW455545   2.392   0.586   7.678
13807SOL     OW55546   3.442   0.471   7.728
13807SOL    HW255547   3.434   0.542   7.665
13807SOL    HW355548   3.460   0.515   7.811
13807SOL    MW455549   3.443   0.485   7.730
13808SOL     OW55550   3.111   0.733   7.703
13808SOL    HW255551   3.158   0.751   7.622
13808SOL    HW355552   3.077   0.817   7.731
13808SOL    MW455553   3.113   0.747   7.696
13809SOL     OW55554   2.846   1.475   7.525
13809SOL    HW255555   2.873   1.553   7.477
13809SOL    HW355556   2.753   1.490   7.544
13809SOL    MW455557   2.837   1.488   7.521
13810SOL     OW55558   1.886   0.637   7.916
13810SOL    HW255559   1.826   0.609   7.986
13810SOL    HW355560   1.960   0.577   7.922
13810SOL    MW455561   1.888   0.626   7.925
13811SOL     OW55562   3.194   0.035   7.712
13811SOL    HW255563   3.268   0.079   7.755
13811SOL    HW355564   3.118   0.089   7.734
13811SOL    MW455565   3.194   0.047   7.720
13812SOL     OW55566   2.627   0.476   7.716
13812SOL    HW255567   2.700   0.525   7.679
13812SOL    HW355568   2.643   0.385   7.690
13812SOL    MW455569   2.639   0.471   7.709
13813SOL     OW55570   2.102   0.985   7.814
13813SOL    HW255571   2.039   1.001   7.743
13813SOL    HW355572   2.049   0.948   7.885
13813SOL    MW455573   2.087   0.982   7.814
13814SOL     OW55574   2.458   1.339   7.673
13814SOL    HW255575   2.473   1.315   7.765
13814SOL    HW355576   2.366   1.317   7.657
13814SOL    MW455577   2.448   1.332   7.683
13815SOL     OW55578   2.997   1.570   7.825
13815SOL    HW255579   3.005   1.488   7.776
13815SOL    HW355580   2.916   1.609   7.792
13815SOL    MW455581   2.987   1.565   7.815
13816SOL     OW55582   2.969   0.392   7.995
13816SOL    HW255583   2.991   0.329   7.927
13816SOL    HW355584   2.874   0.384   8.006
13816SOL    MW455585   2.959   0.383   7.987
13817SOL     OW55586   2.054   0.082   7.927
13817SOL    HW255587   2.125   0.103   7.866
13817SOL    HW355588   2.008   0.010   7.885
13817SOL    MW455589   2.058   0.076   7.913
13818SOL     OW55590   2.841   0.053   8.010
13818SOL    HW255591   2.878   0.112   8.075
13818SOL    HW355592   2.818   0.109   7.936
13818SOL    MW455593   2.842   0.068   8.009
13819SOL     OW55594   2.262   0.744   7.906
13819SOL    HW255595   2.262   0.839   7.891
13819SOL    HW355596   2.339   0.728   7.960
13819SOL    MW455597   2.272   0.755   7.911
13820SOL     OW55598   3.568   1.815   7.727
13820SOL    HW255599   3.635   1.848   7.667
13820SOL    HW355600   3.525   1.894   7.761
13820SOL    MW455601   3.570   1.830   7.723
13821SOL     OW55602   1.890   1.047   7.653
13821SOL    HW255603   1.859   1.112   7.716
13821SOL    HW355604   1.839   0.969   7.672
13821SOL    MW455605   1.880   1.044   7.663
13822SOL     OW55606   2.474   1.847   7.595
13822SOL    HW255607   2.379   1.847   7.587
13822SOL    HW355608   2.490   1.793   7.673
13822SOL    MW455609   2.464   1.841   7.604
13823SOL     OW55610   3.319   0.667   7.511
13823SOL    HW255611   3.247   0.643   7.453
13823SOL    HW355612   3.385   0.704   7.453
13823SOL    MW455613   3.318   0.669   7.496
13824SOL     OW55614   2.732   0.967   7.695
13824SOL    HW255615   2.718   0.879   7.660
13824SOL    HW355616   2.683   1.024   7.636
13824SOL    MW455617   2.724   0.962   7.683
13825SOL     OW55618   2.740   0.736   7.911
13825SOL    HW255619   2.720   0.722   7.818
13825SOL    HW355620   2.833   0.715   7.918
13825SOL    MW455621   2.750   0.731   7.900
13826SOL     OW55622   2.723   1.694   7.949
13826SOL    HW255623   2.781   1.765   7.976
13826SOL    HW355624   2.746   1.622   8.007
13826SOL    MW455625   2.734   1.694   7.960
13827SOL     OW55626   2.179   0.126   7.684
13827SOL    HW255627   2.108   0.181   7.652
13827SOL    HW355628   2.221   0.092   7.605
13827SOL    MW455629   2.175   0.128   7.670
13828SOL     OW55630   1.935   0.225   7.533
13828SOL    HW255631   1.902   0.304   7.577
13828SOL    HW355632   1.990   0.258   7.462
13828SOL    MW455633   1.938   0.239   7.530
13829SOL     OW55634   1.969   1.482   7.722
13829SOL    HW255635   1.986   1.566   7.764
13829SOL    HW355636   2.004   1.491   7.634
13829SOL    MW455637   1.974   1.495   7.716
13830SOL     OW55638   3.241   1.571   7.939
13830SOL    HW255639   3.304   1.561   7.868
13830SOL    HW355640   3.158   1.591   7.894
13830SOL    MW455641   3.238   1.572   7.924
13831SOL     OW55642   3.604   2.707   7.757
13831SOL    HW255643   3.645   2.649   7.822
13831SOL    HW355644   3.511   2.699   7.774
13831SOL    MW455645   3.598   2.699   7.767
13832SOL     OW55646   2.398   2.890   7.986
13832SOL    HW255647   2.488   2.865   7.970
13832SOL    HW355648   2.394   2.983   7.963
13832SOL    MW455649   2.410   2.899   7.981
13833SOL     OW55650   2.682   2.346   7.999
13833SOL    HW255651   2.657   2.434   8.027
13833SOL    HW355652   2.679   2.349   7.903
13833SOL    MW455653   2.678   2.358   7.991
13834SOL     OW55654   2.124   2.374   7.927
13834SOL    HW255655   2.156   2.462   7.909
13834SOL    HW355656   2.112   2.372   8.022
13834SOL    MW455657   2.127   2.386   7.939
13835SOL     OW55658   2.523   2.129   8.014
13835SOL    HW255659   2.581   2.205   8.016
13835SOL    HW355660   2.458   2.150   7.947
13835SOL    MW455661   2.522   2.141   8.005
13836SOL     OW55662   3.237   3.038   7.705
13836SOL    HW255663   3.155   3.074   7.671
13836SOL    HW355664   3.305   3.081   7.654
13836SOL    MW455665   3.235   3.048   7.693
13837SOL     OW55666   2.789   3.179   7.898
13837SOL    HW255667   2.766   3.241   7.966
13837SOL    HW355668   2.746   3.097   7.924
13837SOL    MW455669   2.781   3.175   7.909
13838SOL     OW55670   2.286   2.152   7.866
13838SOL    HW255671   2.260   2.114   7.782
13838SOL    HW355672   2.223   2.222   7.882
13838SOL    MW455673   2.275   2.155   7.857
13839SOL     OW55674   2.121   3.113   7.903
13839SOL    HW255675   2.069   3.181   7.859
13839SOL    HW355676   2.118   3.039   7.843
13839SOL    MW455677   2.113   3.112   7.890
13840SOL     OW55678   2.783   3.576   7.681
13840SOL    HW255679   2.738   3.592   7.764
13840SOL    HW355680   2.714   3.541   7.623
13840SOL    MW455681   2.769   3.573   7.683
13841SOL     OW55682   2.990   2.533   7.967
13841SOL    HW255683   3.016   2.557   7.878
13841SOL    HW355684   2.972   2.440   7.963
13841SOL    MW455685   2.992   2.525   7.954
13842SOL     OW55686   2.027   3.629   7.713
13842SOL    HW255687   2.056   3.719   7.705
13842SOL    HW355688   1.977   3.612   7.634
13842SOL    MW455689   2.025   3.637   7.702
13843SOL     OW55690   3.431   3.437   7.684
13843SOL    HW255691   3.479   3.506   7.730
13843SOL    HW355692   3.352   3.481   7.653
13843SOL    MW455693   3.426   3.451   7.687
13844SOL     OW55694   2.829   2.562   7.628
13844SOL    HW255695   2.831   2.509   7.549
13844SOL    HW355696   2.917   2.599   7.634
13844SOL    MW455697   2.841   2.561   7.617
13845SOL     OW55698   2.999   3.181   7.720
13845SOL    HW255699   2.949   3.183   7.802
13845SOL    HW355700   2.933   3.199   7.652
13845SOL    MW455701   2.985   3.183   7.722
13846SOL     OW55702   2.462   3.599   7.828
13846SOL    HW255703   2.383   3.557   7.861
13846SOL    HW355704   2.528   3.582   7.895
13846SOL    MW455705   2.461   3.591   7.841
13847SOL     OW55706   2.598   3.014   7.535
13847SOL    HW255707   2.520   2.960   7.522
13847SOL    HW355708   2.569   3.087   7.588
13847SOL    MW455709   2.584   3.016   7.540
13848SOL     OW55710   3.179   3.530   7.603
13848SOL    HW255711   3.105   3.493   7.653
13848SOL    HW355712   3.187   3.620   7.636
13848SOL    MW455713   3.170   3.537   7.615
13849SOL     OW55714   3.403   3.204   7.545
13849SOL    HW255715   3.350   3.253   7.481
13849SOL    HW355716   3.434   3.270   7.606
13849SOL    MW455717   3.401   3.218   7.543
13850SOL     OW55718   2.628   2.093   7.600
13850SOL    HW255719   2.576   2.013   7.588
13850SOL    HW355720   2.715   2.070   7.568
13850SOL    MW455721   2.631   2.079   7.594
13851SOL     OW55722   2.563   3.445   7.536
13851SOL    HW255723   2.503   3.514   7.506
13851SOL    HW355724   2.508   3.387   7.589
13851SOL    MW455725   2.547   3.447   7.538
13852SOL     OW55726   3.001   2.090   7.759
13852SOL    HW255727   2.934   2.066   7.696
13852SOL    HW355728   3.066   2.139   7.708
13852SOL    MW455729   3.001   2.092   7.744
13853SOL     OW55730   2.194   3.489   7.925
13853SOL    HW255731   2.155   3.536   7.851
13853SOL    HW355732   2.128   3.424   7.950
13853SOL    MW455733   2.181   3.487   7.919
13854SOL     OW55734   2.686   2.898   7.949
13854SOL    HW255735   2.688   2.872   7.856
13854SOL    HW355736   2.744   2.835   7.992
13854SOL    MW455737   2.694   2.887   7.943
13855SOL     OW55738   3.176   2.246   7.617
13855SOL    HW255739   3.149   2.312   7.553
13855SOL    HW355740   3.246   2.289   7.667
13855SOL    MW455741   3.181   2.259   7.614
13856SOL     OW55742   2.844   1.951   7.554
13856SOL    HW255743   2.900   1.943   7.476
13856SOL    HW355744   2.821   1.861   7.576
13856SOL    MW455745   2.849   1.938   7.547
13857SOL     OW55746   2.343   2.840   7.551
13857SOL    HW255747   2.266   2.853   7.607
13857SOL    HW355748   2.307   2.804   7.470
13857SOL    MW455749   2.329   2.836   7.548
13858SOL     OW55750   2.996   2.813   7.794
13858SOL    HW255751   2.906   2.834   7.769
13858SOL    HW355752   3.023   2.886   7.850
13858SOL    MW455753   2.988   2.825   7.797
13859SOL     OW55754   2.383   3.169   7.950
13859SOL    HW255755   2.376   3.201   8.040
13859SOL    HW355756   2.293   3.153   7.922
13859SOL    MW455757   2.371   3.171   7.957
13860SOL     OW55758   2.386   2.453   7.664
13860SOL    HW255759   2.352   2.509   7.734
13860SOL    HW355760   2.457   2.403   7.704
13860SOL    MW455761   2.392   2.454   7.678
13861SOL     OW55762   3.442   2.339   7.728
13861SOL    HW255763   3.434   2.410   7.665
13861SOL    HW355764   3.460   2.383   7.811
13861SOL    MW455765   3.443   2.353   7.730
13862SOL     OW55766   3.111   2.601   7.703
13862SOL    HW255767   3.158   2.619   7.622
13862SOL    HW355768   3.077   2.685   7.731
13862SOL    MW455769   3.113   2.615   7.696
13863SOL     OW55770   2.846   3.343   7.525
13863SOL    HW255771   2.873   3.421   7.477
13863SOL    HW355772   2.753   3.358   7.544
13863SOL    MW455773   2.837   3.356   7.521
13864SOL     OW55774   1.886   2.505   7.916
13864SOL    HW255775   1.826   2.477   7.986
13864SOL    HW355776   1.960   2.445   7.922
13864SOL    MW455777   1.888   2.494   7.925
13865SOL     OW55778   3.194   1.903   7.712
13865SOL    HW255779   3.268   1.947   7.755
13865SOL    HW355780   3.118   1.957   7.734
13865SOL    MW455781   3.194   1.915   7.720
13866SOL     OW55782   2.102   2.853   7.814
13866SOL    HW255783   2.039   2.869   7.743
13866SOL    HW355784   2.049   2.816   7.885
13866SOL    MW455785   2.087   2.850   7.814
13867SOL     OW55786   2.458   3.207   7.673
13867SOL    HW255787   2.473   3.183   7.765
13867SOL    HW355788   2.366   3.185   7.657
13867SOL    MW455789   2.448   3.200   7.683
13868SOL     OW55790   2.997   3.438   7.825
13868SOL    HW255791   3.005   3.356   7.776
13868SOL    HW355792   2.916   3.477   7.792
13868SOL    MW455793   2.987   3.433   7.815
13869SOL     OW55794   2.969   2.260   7.995
13869SOL    HW255795   2.991   2.197   7.927
13869SOL    HW355796   2.874   2.252   8.006
13869SOL    MW455797   2.959   2.251   7.987
13870SOL     OW55798   2.054   1.950   7.927
13870SOL    HW255799   2.125   1.971   7.866
13870SOL    HW355800   2.008   1.878   7.885
13870SOL    MW455801   2.058   1.944   7.913
13871SOL     OW55802   2.841   1.921   8.010
13871SOL    HW255803   2.878   1.980   8.075
13871SOL    HW355804   2.818   1.977   7.936
13871SOL    MW455805   2.842   1.936   8.009
13872SOL     OW55806   2.262   2.612   7.906
13872SOL    HW255807   2.262   2.707   7.891
13872SOL    HW355808   2.339   2.596   7.960
13872SOL    MW455809   2.272   2.623   7.911
13873SOL     OW55810   3.568   3.683   7.727
13873SOL    HW255811   3.635   3.716   7.667
13873SOL    HW355812   3.525   3.762   7.761
13873SOL    MW455813   3.570   3.698   7.723
13874SOL     OW55814   1.890   2.915   7.653
13874SOL    HW255815   1.859   2.980   7.716
13874SOL    HW355816   1.839   2.837   7.672
13874SOL    MW455817   1.880   2.912   7.663
13875SOL     OW55818   2.474   3.715   7.595
13875SOL    HW255819   2.379   3.715   7.587
13875SOL    HW355820   2.490   3.661   7.673
13875SOL    MW455821   2.464   3.709   7.604
13876SOL     OW55822   3.319   2.535   7.511
13876SOL    HW255823   3.247   2.511   7.453
13876SOL    HW355824   3.385   2.572   7.453
13876SOL    MW455825   3.318   2.537   7.496
13877SOL     OW55826   2.732   2.835   7.695
13877SOL    HW255827   2.718   2.747   7.660
13877SOL    HW355828   2.683   2.892   7.636
13877SOL    MW455829   2.724   2.830   7.683
13878SOL     OW55830   2.740   2.604   7.911
13878SOL    HW255831   2.720   2.590   7.818
13878SOL    HW355832   2.833   2.583   7.918
13878SOL    MW455833   2.750   2.599   7.900
13879SOL     OW55834   2.723   3.562   7.949
13879SOL    HW255835   2.781   3.633   7.976
13879SOL    HW355836   2.746   3.490   8.007
13879SOL    MW455837   2.734   3.562   7.960
13880SOL     OW55838   2.179   1.994   7.684
13880SOL    HW255839   2.108   2.049   7.652
13880SOL    HW355840   2.221   1.960   7.605
13880SOL    MW455841   2.175   1.996   7.670
13881SOL     OW55842   1.935   2.093   7.533
13881SOL    HW255843   1.902   2.172   7.577
13881SOL    HW355844   1.990   2.126   7.462
13881SOL    MW455845   1.938   2.107   7.530
13882SOL     OW55846   1.969   3.350   7.722
13882SOL    HW255847   1.986   3.434   7.764
13882SOL    HW355848   2.004   3.359   7.634
13882SOL    MW455849   1.974   3.363   7.716
13883SOL     OW55850   3.241   3.439   7.939
13883SOL    HW255851   3.304   3.429   7.868
13883SOL    HW355852   3.158   3.459   7.894
13883SOL    MW455853   3.238   3.440   7.924
13884SOL     OW55854   2.682   4.214   7.999
13884SOL    HW255855   2.657   4.302   8.027
13884SOL    HW355856   2.679   4.217   7.903
13884SOL    MW455857   2.678   4.226   7.991
13885SOL     OW55858   2.124   4.242   7.927
13885SOL    HW255859   2.156   4.330   7.909
13885SOL    HW355860   2.112   4.240   8.022
13885SOL    MW455861   2.127   4.254   7.939
13886SOL     OW55862   2.523   3.997   8.014
13886SOL    HW255863   2.581   4.073   8.016
13886SOL    HW355864   2.458   4.018   7.947
13886SOL    MW455865   2.522   4.009   8.005
13887SOL     OW55866   3.237   4.906   7.705
13887SOL    HW255867   3.155   4.942   7.671
13887SOL    HW355868   3.305   4.949   7.654
13887SOL    MW455869   3.235   4.916   7.693
13888SOL     OW55870   2.789   5.047   7.898
13888SOL    HW255871   2.766   5.109   7.966
13888SOL    HW355872   2.746   4.965   7.924
13888SOL    MW455873   2.781   5.043   7.909
13889SOL     OW55874   2.286   4.020   7.866
13889SOL    HW255875   2.260   3.982   7.782
13889SOL    HW355876   2.223   4.090   7.882
13889SOL    MW455877   2.275   4.023   7.857
13890SOL     OW55878   3.718   4.217   7.656
13890SOL    HW255879   3.627   4.219   7.684
13890SOL    HW355880   3.763   4.279   7.714
13890SOL    MW455881   3.711   4.225   7.666
13891SOL     OW55882   3.463   4.820   8.006
13891SOL    HW255883   3.373   4.820   8.041
13891SOL    HW355884   3.456   4.866   7.923
13891SOL    MW455885   3.450   4.826   8.000
13892SOL     OW55886   2.990   4.401   7.967
13892SOL    HW255887   3.016   4.425   7.878
13892SOL    HW355888   2.972   4.308   7.963
13892SOL    MW455889   2.992   4.393   7.954
13893SOL     OW55890   2.027   5.497   7.713
13893SOL    HW255891   2.056   5.587   7.705
13893SOL    HW355892   1.977   5.480   7.634
13893SOL    MW455893   2.025   5.505   7.702
13894SOL     OW55894   3.431   5.305   7.684
13894SOL    HW255895   3.479   5.374   7.730
13894SOL    HW355896   3.352   5.349   7.653
13894SOL    MW455897   3.426   5.319   7.687
13895SOL     OW55898   2.829   4.430   7.628
13895SOL    HW255899   2.831   4.377   7.549
13895SOL    HW355900   2.917   4.467   7.634
13895SOL    MW455901   2.841   4.429   7.617
13896SOL     OW55902   3.443   4.356   7.964
13896SOL    HW255903   3.482   4.356   8.051
13896SOL    HW355904   3.384   4.432   7.964
13896SOL    MW455905   3.440   4.367   7.975
13897SOL     OW55906   2.598   4.882   7.535
13897SOL    HW255907   2.520   4.828   7.522
13897SOL    HW355908   2.569   4.955   7.588
13897SOL    MW455909   2.584   4.884   7.540
13898SOL     OW55910   3.403   5.072   7.545
13898SOL    HW255911   3.350   5.121   7.481
13898SOL    HW355912   3.434   5.138   7.606
13898SOL    MW455913   3.401   5.086   7.543
13899SOL     OW55914   2.628   3.961   7.600
13899SOL    HW255915   2.576   3.881   7.588
13899SOL    HW355916   2.715   3.938   7.568
13899SOL    MW455917   2.631   3.947   7.594
13900SOL     OW55918   2.563   5.313   7.536
13900SOL    HW255919   2.503   5.382   7.506
13900SOL    HW355920   2.508   5.255   7.589
13900SOL    MW455921   2.547   5.315   7.538
13901SOL     OW55922   3.001   3.958   7.759
13901SOL    HW255923   2.934   3.934   7.696
13901SOL    HW355924   3.066   4.007   7.708
13901SOL    MW455925   3.001   3.960   7.744
13902SOL     OW55926   3.176   4.114   7.617
13902SOL    HW255927   3.149   4.180   7.553
13902SOL    HW355928   3.246   4.157   7.667
13902SOL    MW455929   3.181   4.127   7.614
13903SOL     OW55930   2.844   3.819   7.554
13903SOL    HW255931   2.900   3.811   7.476
13903SOL    HW355932   2.821   3.729   7.576
13903SOL    MW455933   2.849   3.806   7.547
13904SOL     OW55934   2.343   4.708   7.551
13904SOL    HW255935   2.266   4.721   7.607
13904SOL    HW355936   2.307   4.672   7.470
13904SOL    MW455937   2.329   4.704   7.548
13905SOL     OW55938   2.996   4.681   7.794
13905SOL    HW255939   2.906   4.702   7.769
13905SOL    HW355940   3.023   4.754   7.850
13905SOL    MW455941   2.988   4.693   7.797
13906SOL     OW55942   2.386   4.321   7.664
13906SOL    HW255943   2.352   4.377   7.734
13906SOL    HW355944   2.457   4.271   7.704
13906SOL    MW455945   2.392   4.322   7.678
13907SOL     OW55946   3.442   4.207   7.728
13907SOL    HW255947   3.434   4.278   7.665
13907SOL    HW355948   3.460   4.251   7.811
13907SOL    MW455949   3.443   4.221   7.730
13908SOL     OW55950   2.846   5.211   7.525
13908SOL    HW255951   2.873   5.289   7.477
13908SOL    HW355952   2.753   5.226   7.544
13908SOL    MW455953   2.837   5.224   7.521
13909SOL     OW55954   3.194   3.771   7.712
13909SOL    HW255955   3.268   3.815   7.755
13909SOL    HW355956   3.118   3.825   7.734
13909SOL    MW455957   3.194   3.783   7.720
13910SOL     OW55958   3.254   4.546   7.990
13910SOL    HW255959   3.169   4.516   7.960
13910SOL    HW355960   3.246   4.553   8.085
13910SOL    MW455961   3.242   4.544   7.999
13911SOL     OW55962   2.627   4.212   7.716
13911SOL    HW255963   2.700   4.261   7.679
13911SOL    HW355964   2.643   4.121   7.690
13911SOL    MW455965   2.639   4.207   7.709
13912SOL     OW55966   2.102   4.721   7.814
13912SOL    HW255967   2.039   4.737   7.743
13912SOL    HW355968   2.049   4.684   7.885
13912SOL    MW455969   2.087   4.718   7.814
13913SOL     OW55970   2.458   5.075   7.673
13913SOL    HW255971   2.473   5.051   7.765
13913SOL    HW355972   2.366   5.053   7.657
13913SOL    MW455973   2.448   5.068   7.683
13914SOL     OW55974   2.969   4.128   7.995
13914SOL    HW255975   2.991   4.065   7.927
13914SOL    HW355976   2.874   4.120   8.006
13914SOL    MW455977   2.959   4.119   7.987
13915SOL     OW55978   2.054   3.818   7.927
13915SOL    HW255979   2.125   3.839   7.866
13915SOL    HW355980   2.008   3.746   7.885
13915SOL    MW455981   2.058   3.812   7.913
13916SOL     OW55982   2.841   3.789   8.010
13916SOL    HW255983   2.878   3.848   8.075
13916SOL    HW355984   2.818   3.845   7.936
13916SOL    MW455985   2.842   3.804   8.009
13917SOL     OW55986   3.568   5.551   7.727
13917SOL    HW255987   3.635   5.584   7.667
13917SOL    HW355988   3.525   5.630   7.761
13917SOL    MW455989   3.570   5.566   7.723
13918SOL     OW55990   2.474   5.583   7.595
13918SOL    HW255991   2.379   5.583   7.587
13918SOL    HW355992   2.490   5.529   7.673
13918SOL    MW455993   2.464   5.577   7.604
13919SOL     OW55994   3.319   4.403   7.511
13919SOL    HW255995   3.247   4.379   7.453
13919SOL    HW355996   3.385   4.440   7.453
13919SOL    MW455997   3.318   4.405   7.496
13920SOL     OW55998   3.451   3.909   7.797
13920SOL    HW255999   3.444   3.913   7.892
13920SOL    HW356000   3.463   4.000   7.770
13920SOL    MW456001   3.452   3.922   7.805
13921SOL     OW56002   2.179   3.862   7.684
13921SOL    HW256003   2.108   3.917   7.652
13921SOL    HW356004   2.221   3.828   7.605
13921SOL    MW456005   2.175   3.864   7.670
13922SOL     OW56006   1.935   3.961   7.533
13922SOL    HW256007   1.902   4.040   7.577
13922SOL    HW356008   1.990   3.994   7.462
13922SOL    MW456009   1.938   3.975   7.530
13923SOL     OW56010   3.237   6.775   7.705
13923SOL    HW256011   3.155   6.811   7.671
13923SOL    HW356012   3.305   6.818   7.654
13923SOL    MW456013   3.235   6.785   7.693
13924SOL     OW56014   2.789   6.916   7.898
13924SOL    HW256015   2.766   6.978   7.966
13924SOL    HW356016   2.746   6.834   7.924
13924SOL    MW456017   2.781   6.912   7.909
13925SOL     OW56018   3.463   6.689   8.006
13925SOL    HW256019   3.373   6.689   8.041
13925SOL    HW356020   3.456   6.735   7.923
13925SOL    MW456021   3.450   6.695   8.000
13926SOL     OW56022   2.027   7.366   7.713
13926SOL    HW256023   2.056   7.456   7.705
13926SOL    HW356024   1.977   7.349   7.634
13926SOL    MW456025   2.025   7.374   7.702
13927SOL     OW56026   3.431   7.174   7.684
13927SOL    HW256027   3.479   7.243   7.730
13927SOL    HW356028   3.352   7.218   7.653
13927SOL    MW456029   3.426   7.188   7.687
13928SOL     OW56030   2.829   6.299   7.628
13928SOL    HW256031   2.831   6.246   7.549
13928SOL    HW356032   2.917   6.336   7.634
13928SOL    MW456033   2.841   6.298   7.617
13929SOL     OW56034   2.598   6.751   7.535
13929SOL    HW256035   2.520   6.697   7.522
13929SOL    HW356036   2.569   6.824   7.588
13929SOL    MW456037   2.584   6.753   7.540
13930SOL     OW56038   3.403   6.941   7.545
13930SOL    HW256039   3.350   6.990   7.481
13930SOL    HW356040   3.434   7.007   7.606
13930SOL    MW456041   3.401   6.955   7.543
13931SOL     OW56042   2.628   5.830   7.600
13931SOL    HW256043   2.576   5.750   7.588
13931SOL    HW356044   2.715   5.807   7.568
13931SOL    MW456045   2.631   5.816   7.594
13932SOL     OW56046   2.563   7.182   7.536
13932SOL    HW256047   2.503   7.251   7.506
13932SOL    HW356048   2.508   7.124   7.589
13932SOL    MW456049   2.547   7.184   7.538
13933SOL     OW56050   2.844   5.688   7.554
13933SOL    HW256051   2.900   5.680   7.476
13933SOL    HW356052   2.821   5.598   7.576
13933SOL    MW456053   2.849   5.675   7.547
13934SOL     OW56054   2.343   6.577   7.551
13934SOL    HW256055   2.266   6.590   7.607
13934SOL    HW356056   2.307   6.541   7.470
13934SOL    MW456057   2.329   6.573   7.548
13935SOL     OW56058   2.996   6.550   7.794
13935SOL    HW256059   2.906   6.571   7.769
13935SOL    HW356060   3.023   6.623   7.850
13935SOL    MW456061   2.988   6.562   7.797
13936SOL     OW56062   2.386   6.190   7.664
13936SOL    HW256063   2.352   6.246   7.734
13936SOL    HW356064   2.457   6.140   7.704
13936SOL    MW456065   2.392   6.191   7.678
13937SOL     OW56066   2.846   7.080   7.525
13937SOL    HW256067   2.873   7.158   7.477
13937SOL    HW356068   2.753   7.095   7.544
13937SOL    MW456069   2.837   7.093   7.521
13938SOL     OW56070   3.254   6.415   7.990
13938SOL    HW256071   3.169   6.385   7.960
13938SOL    HW356072   3.246   6.422   8.085
13938SOL    MW456073   3.242   6.413   7.999
13939SOL     OW56074   2.627   6.081   7.716
13939SOL    HW256075   2.700   6.130   7.679
13939SOL    HW356076   2.643   5.990   7.690
13939SOL    MW456077   2.639   6.076   7.709
13940SOL     OW56078   2.102   6.590   7.814
13940SOL    HW256079   2.039   6.606   7.743
13940SOL    HW356080   2.049   6.553   7.885
13940SOL    MW456081   2.087   6.587   7.814
13941SOL     OW56082   2.458   6.944   7.673
13941SOL    HW256083   2.473   6.920   7.765
13941SOL    HW356084   2.366   6.922   7.657
13941SOL    MW456085   2.448   6.937   7.683
13942SOL     OW56086   2.969   5.997   7.995
13942SOL    HW256087   2.991   5.934   7.927
13942SOL    HW356088   2.874   5.989   8.006
13942SOL    MW456089   2.959   5.988   7.987
13943SOL     OW56090   3.568   7.420   7.727
13943SOL    HW256091   3.635   7.453   7.667
13943SOL    HW356092   3.525   7.499   7.761
13943SOL    MW456093   3.570   7.435   7.723
13944SOL     OW56094   2.474   7.452   7.595
13944SOL    HW256095   2.379   7.452   7.587
13944SOL    HW356096   2.490   7.398   7.673
13944SOL    MW456097   2.464   7.446   7.604
13945SOL     OW56098   3.319   6.272   7.511
13945SOL    HW256099   3.247   6.248   7.453
13945SOL    HW356100   3.385   6.309   7.453
13945SOL    MW456101   3.318   6.274   7.496
13946SOL     OW56102   1.935   5.830   7.533
13946SOL    HW256103   1.902   5.909   7.577
13946SOL    HW356104   1.990   5.863   7.462
13946SOL    MW456105   1.938   5.844   7.530
13947SOL     OW56106   5.472   0.839   7.757
13947SOL    HW256107   5.513   0.781   7.822
13947SOL    HW356108   5.379   0.831   7.774
13947SOL    MW456109   5.466   0.831   7.767
13948SOL     OW56110   5.105   1.170   7.705
13948SOL    HW256111   5.023   1.206   7.671
13948SOL    HW356112   5.173   1.213   7.654
13948SOL    MW456113   5.103   1.180   7.693
13949SOL     OW56114   3.895   1.761   7.713
13949SOL    HW256115   3.924   1.851   7.705
13949SOL    HW356116   3.845   1.744   7.634
13949SOL    MW456117   3.893   1.769   7.702
13950SOL     OW56118   5.299   1.569   7.684
13950SOL    HW256119   5.347   1.638   7.730
13950SOL    HW356120   5.220   1.613   7.653
13950SOL    MW456121   5.294   1.583   7.687
13951SOL     OW56122   4.867   1.313   7.720
13951SOL    HW256123   4.817   1.315   7.802
13951SOL    HW356124   4.801   1.331   7.652
13951SOL    MW456125   4.853   1.315   7.722
13952SOL     OW56126   4.330   1.731   7.828
13952SOL    HW256127   4.251   1.689   7.861
13952SOL    HW356128   4.396   1.714   7.895
13952SOL    MW456129   4.329   1.723   7.841
13953SOL     OW56130   4.466   1.146   7.535
13953SOL    HW256131   4.388   1.092   7.522
13953SOL    HW356132   4.437   1.219   7.588
13953SOL    MW456133   4.452   1.148   7.540
13954SOL     OW56134   5.047   1.662   7.603
13954SOL    HW256135   4.973   1.625   7.653
13954SOL    HW356136   5.055   1.752   7.636
13954SOL    MW456137   5.038   1.669   7.615
13955SOL     OW56138   5.271   1.336   7.545
13955SOL    HW256139   5.218   1.385   7.481
13955SOL    HW356140   5.302   1.402   7.606
13955SOL    MW456141   5.269   1.350   7.543
13956SOL     OW56142   4.496   0.225   7.600
13956SOL    HW256143   4.444   0.145   7.588
13956SOL    HW356144   4.583   0.202   7.568
13956SOL    MW456145   4.499   0.211   7.594
13957SOL     OW56146   4.431   1.577   7.536
13957SOL    HW256147   4.371   1.646   7.506
13957SOL    HW356148   4.376   1.519   7.589
13957SOL    MW456149   4.415   1.579   7.538
13958SOL     OW56150   4.869   0.222   7.759
13958SOL    HW256151   4.802   0.198   7.696
13958SOL    HW356152   4.934   0.271   7.708
13958SOL    MW456153   4.869   0.224   7.744
13959SOL     OW56154   5.044   0.378   7.617
13959SOL    HW256155   5.017   0.444   7.553
13959SOL    HW356156   5.114   0.421   7.667
13959SOL    MW456157   5.049   0.391   7.614
13960SOL     OW56158   4.211   0.972   7.551
13960SOL    HW256159   4.134   0.985   7.607
13960SOL    HW356160   4.175   0.936   7.470
13960SOL    MW456161   4.197   0.968   7.548
13961SOL     OW56162   5.310   0.471   7.728
13961SOL    HW256163   5.302   0.542   7.665
13961SOL    HW356164   5.328   0.515   7.811
13961SOL    MW456165   5.311   0.485   7.730
13962SOL     OW56166   4.979   0.733   7.703
13962SOL    HW256167   5.026   0.751   7.622
13962SOL    HW356168   4.945   0.817   7.731
13962SOL    MW456169   4.981   0.747   7.696
13963SOL     OW56170   4.714   1.475   7.525
13963SOL    HW256171   4.741   1.553   7.477
13963SOL    HW356172   4.621   1.490   7.544
13963SOL    MW456173   4.705   1.488   7.521
13964SOL     OW56174   5.062   0.035   7.712
13964SOL    HW256175   5.136   0.079   7.755
13964SOL    HW356176   4.986   0.089   7.734
13964SOL    MW456177   5.062   0.047   7.720
13965SOL     OW56178   4.495   0.476   7.716
13965SOL    HW256179   4.568   0.525   7.679
13965SOL    HW356180   4.511   0.385   7.690
13965SOL    MW456181   4.507   0.471   7.709
13966SOL     OW56182   5.436   1.815   7.727
13966SOL    HW256183   5.503   1.848   7.667
13966SOL    HW356184   5.393   1.894   7.761
13966SOL    MW456185   5.438   1.830   7.723
13967SOL     OW56186   4.342   1.847   7.595
13967SOL    HW256187   4.247   1.847   7.587
13967SOL    HW356188   4.358   1.793   7.673
13967SOL    MW456189   4.332   1.841   7.604
13968SOL     OW56190   5.187   0.667   7.511
13968SOL    HW256191   5.115   0.643   7.453
13968SOL    HW356192   5.253   0.704   7.453
13968SOL    MW456193   5.186   0.669   7.496
13969SOL     OW56194   4.600   0.967   7.695
13969SOL    HW256195   4.586   0.879   7.660
13969SOL    HW356196   4.551   1.024   7.636
13969SOL    MW456197   4.592   0.962   7.683
13970SOL     OW56198   4.047   0.126   7.684
13970SOL    HW256199   3.976   0.181   7.652
13970SOL    HW356200   4.089   0.092   7.605
13970SOL    MW456201   4.043   0.128   7.670
13971SOL     OW56202   3.803   0.225   7.533
13971SOL    HW256203   3.770   0.304   7.577
13971SOL    HW356204   3.858   0.258   7.462
13971SOL    MW456205   3.806   0.239   7.530
13972SOL     OW56206   5.472   2.707   7.757
13972SOL    HW256207   5.513   2.649   7.822
13972SOL    HW356208   5.379   2.699   7.774
13972SOL    MW456209   5.466   2.699   7.767
13973SOL     OW56210   5.105   3.038   7.705
13973SOL    HW256211   5.023   3.074   7.671
13973SOL    HW356212   5.173   3.081   7.654
13973SOL    MW456213   5.103   3.048   7.693
13974SOL     OW56214   4.657   3.179   7.898
13974SOL    HW256215   4.634   3.241   7.966
13974SOL    HW356216   4.614   3.097   7.924
13974SOL    MW456217   4.649   3.175   7.909
13975SOL     OW56218   3.989   3.113   7.903
13975SOL    HW256219   3.937   3.181   7.859
13975SOL    HW356220   3.986   3.039   7.843
13975SOL    MW456221   3.981   3.112   7.890
13976SOL     OW56222   4.651   3.576   7.681
13976SOL    HW256223   4.606   3.592   7.764
13976SOL    HW356224   4.582   3.541   7.623
13976SOL    MW456225   4.637   3.573   7.683
13977SOL     OW56226   3.895   3.629   7.713
13977SOL    HW256227   3.924   3.719   7.705
13977SOL    HW356228   3.845   3.612   7.634
13977SOL    MW456229   3.893   3.637   7.702
13978SOL     OW56230   5.299   3.437   7.684
13978SOL    HW256231   5.347   3.506   7.730
13978SOL    HW356232   5.220   3.481   7.653
13978SOL    MW456233   5.294   3.451   7.687
13979SOL     OW56234   4.867   3.181   7.720
13979SOL    HW256235   4.817   3.183   7.802
13979SOL    HW356236   4.801   3.199   7.652
13979SOL    MW456237   4.853   3.183   7.722
13980SOL     OW56238   4.330   3.599   7.828
13980SOL    HW256239   4.251   3.557   7.861
13980SOL    HW356240   4.396   3.582   7.895
13980SOL    MW456241   4.329   3.591   7.841
13981SOL     OW56242   4.466   3.014   7.535
13981SOL    HW256243   4.388   2.960   7.522
13981SOL    HW356244   4.437   3.087   7.588
13981SOL    MW456245   4.452   3.016   7.540
13982SOL     OW56246   5.047   3.530   7.603
13982SOL    HW256247   4.973   3.493   7.653
13982SOL    HW356248   5.055   3.620   7.636
13982SOL    MW456249   5.038   3.537   7.615
13983SOL     OW56250   5.271   3.204   7.545
13983SOL    HW256251   5.218   3.253   7.481
13983SOL    HW356252   5.302   3.270   7.606
13983SOL    MW456253   5.269   3.218   7.543
13984SOL     OW56254   4.496   2.093   7.600
13984SOL    HW256255   4.444   2.013   7.588
13984SOL    HW356256   4.583   2.070   7.568
13984SOL    MW456257   4.499   2.079   7.594
13985SOL     OW56258   4.431   3.445   7.536
13985SOL    HW256259   4.371   3.514   7.506
13985SOL    HW356260   4.376   3.387   7.589
13985SOL    MW456261   4.415   3.447   7.538
13986SOL     OW56262   4.869   2.090   7.759
13986SOL    HW256263   4.802   2.066   7.696
13986SOL    HW356264   4.934   2.139   7.708
13986SOL    MW456265   4.869   2.092   7.744
13987SOL     OW56266   4.062   3.489   7.925
13987SOL    HW256267   4.023   3.536   7.851
13987SOL    HW356268   3.996   3.424   7.950
13987SOL    MW456269   4.049   3.487   7.919
13988SOL     OW56270   4.211   2.840   7.551
13988SOL    HW256271   4.134   2.853   7.607
13988SOL    HW356272   4.175   2.804   7.470
13988SOL    MW456273   4.197   2.836   7.548
13989SOL     OW56274   4.251   3.169   7.950
13989SOL    HW256275   4.244   3.201   8.040
13989SOL    HW356276   4.161   3.153   7.922
13989SOL    MW456277   4.239   3.171   7.957
13990SOL     OW56278   5.310   2.339   7.728
13990SOL    HW256279   5.302   2.410   7.665
13990SOL    HW356280   5.328   2.383   7.811
13990SOL    MW456281   5.311   2.353   7.730
13991SOL     OW56282   4.979   2.601   7.703
13991SOL    HW256283   5.026   2.619   7.622
13991SOL    HW356284   4.945   2.685   7.731
13991SOL    MW456285   4.981   2.615   7.696
13992SOL     OW56286   4.714   3.343   7.525
13992SOL    HW256287   4.741   3.421   7.477
13992SOL    HW356288   4.621   3.358   7.544
13992SOL    MW456289   4.705   3.356   7.521
13993SOL     OW56290   5.062   1.903   7.712
13993SOL    HW256291   5.136   1.947   7.755
13993SOL    HW356292   4.986   1.957   7.734
13993SOL    MW456293   5.062   1.915   7.720
13994SOL     OW56294   4.495   2.344   7.716
13994SOL    HW256295   4.568   2.393   7.679
13994SOL    HW356296   4.511   2.253   7.690
13994SOL    MW456297   4.507   2.339   7.709
13995SOL     OW56298   4.326   3.207   7.673
13995SOL    HW256299   4.341   3.183   7.765
13995SOL    HW356300   4.234   3.185   7.657
13995SOL    MW456301   4.316   3.200   7.683
13996SOL     OW56302   4.865   3.438   7.825
13996SOL    HW256303   4.873   3.356   7.776
13996SOL    HW356304   4.784   3.477   7.792
13996SOL    MW456305   4.855   3.433   7.815
13997SOL     OW56306   5.436   3.683   7.727
13997SOL    HW256307   5.503   3.716   7.667
13997SOL    HW356308   5.393   3.762   7.761
13997SOL    MW456309   5.438   3.698   7.723
13998SOL     OW56310   4.342   3.715   7.595
13998SOL    HW256311   4.247   3.715   7.587
13998SOL    HW356312   4.358   3.661   7.673
13998SOL    MW456313   4.332   3.709   7.604
13999SOL     OW56314   5.187   2.535   7.511
13999SOL    HW256315   5.115   2.511   7.453
13999SOL    HW356316   5.253   2.572   7.453
13999SOL    MW456317   5.186   2.537   7.496
14000SOL     OW56318   4.600   2.835   7.695
14000SOL    HW256319   4.586   2.747   7.660
14000SOL    HW356320   4.551   2.892   7.636
14000SOL    MW456321   4.592   2.830   7.683
14001SOL     OW56322   4.591   3.562   7.949
14001SOL    HW256323   4.649   3.633   7.976
14001SOL    HW356324   4.614   3.490   8.007
14001SOL    MW456325   4.602   3.562   7.960
14002SOL     OW56326   4.047   1.994   7.684
14002SOL    HW256327   3.976   2.049   7.652
14002SOL    HW356328   4.089   1.960   7.605
14002SOL    MW456329   4.043   1.996   7.670
14003SOL     OW56330   3.803   2.093   7.533
14003SOL    HW256331   3.770   2.172   7.577
14003SOL    HW356332   3.858   2.126   7.462
14003SOL    MW456333   3.806   2.107   7.530
14004SOL     OW56334   3.837   3.350   7.722
14004SOL    HW256335   3.854   3.434   7.764
14004SOL    HW356336   3.872   3.359   7.634
14004SOL    MW456337   3.842   3.363   7.716
14005SOL     OW56338   5.109   3.439   7.939
14005SOL    HW256339   5.172   3.429   7.868
14005SOL    HW356340   5.026   3.459   7.894
14005SOL    MW456341   5.106   3.440   7.924
14006SOL     OW56342   5.472   4.575   7.757
14006SOL    HW256343   5.513   4.517   7.822
14006SOL    HW356344   5.379   4.567   7.774
14006SOL    MW456345   5.466   4.567   7.767
14007SOL     OW56346   4.550   4.214   7.999
14007SOL    HW256347   4.525   4.302   8.027
14007SOL    HW356348   4.547   4.217   7.903
14007SOL    MW456349   4.546   4.226   7.991
14008SOL     OW56350   3.992   4.242   7.927
14008SOL    HW256351   4.024   4.330   7.909
14008SOL    HW356352   3.980   4.240   8.022
14008SOL    MW456353   3.995   4.254   7.939
14009SOL     OW56354   4.391   3.997   8.014
14009SOL    HW256355   4.449   4.073   8.016
14009SOL    HW356356   4.326   4.018   7.947
14009SOL    MW456357   4.390   4.009   8.005
14010SOL     OW56358   5.105   4.906   7.705
14010SOL    HW256359   5.023   4.942   7.671
14010SOL    HW356360   5.173   4.949   7.654
14010SOL    MW456361   5.103   4.916   7.693
14011SOL     OW56362   4.657   5.047   7.898
14011SOL    HW256363   4.634   5.109   7.966
14011SOL    HW356364   4.614   4.965   7.924
14011SOL    MW456365   4.649   5.043   7.909
14012SOL     OW56366   4.154   4.020   7.866
14012SOL    HW256367   4.128   3.982   7.782
14012SOL    HW356368   4.091   4.090   7.882
14012SOL    MW456369   4.143   4.023   7.857
14013SOL     OW56370   4.651   5.444   7.681
14013SOL    HW256371   4.606   5.460   7.764
14013SOL    HW356372   4.582   5.409   7.623
14013SOL    MW456373   4.637   5.441   7.683
14014SOL     OW56374   5.586   4.217   7.656
14014SOL    HW256375   5.495   4.219   7.684
14014SOL    HW356376   5.631   4.279   7.714
14014SOL    MW456377   5.579   4.225   7.666
14015SOL     OW56378   5.331   4.820   8.006
14015SOL    HW256379   5.241   4.820   8.041
14015SOL    HW356380   5.324   4.866   7.923
14015SOL    MW456381   5.318   4.826   8.000
14016SOL     OW56382   4.858   4.401   7.967
14016SOL    HW256383   4.884   4.425   7.878
14016SOL    HW356384   4.840   4.308   7.963
14016SOL    MW456385   4.860   4.393   7.954
14017SOL     OW56386   5.523   5.021   7.818
14017SOL    HW256387   5.479   5.062   7.893
14017SOL    HW356388   5.580   5.089   7.783
14017SOL    MW456389   5.525   5.035   7.823
14018SOL     OW56390   3.895   5.497   7.713
14018SOL    HW256391   3.924   5.587   7.705
14018SOL    HW356392   3.845   5.480   7.634
14018SOL    MW456393   3.893   5.505   7.702
14019SOL     OW56394   5.299   5.305   7.684
14019SOL    HW256395   5.347   5.374   7.730
14019SOL    HW356396   5.220   5.349   7.653
14019SOL    MW456397   5.294   5.319   7.687
14020SOL     OW56398   5.311   4.356   7.964
14020SOL    HW256399   5.350   4.356   8.051
14020SOL    HW356400   5.252   4.432   7.964
14020SOL    MW456401   5.308   4.367   7.975
14021SOL     OW56402   4.867   5.049   7.720
14021SOL    HW256403   4.817   5.051   7.802
14021SOL    HW356404   4.801   5.067   7.652
14021SOL    MW456405   4.853   5.051   7.722
14022SOL     OW56406   4.330   5.467   7.828
14022SOL    HW256407   4.251   5.425   7.861
14022SOL    HW356408   4.396   5.450   7.895
14022SOL    MW456409   4.329   5.459   7.841
14023SOL     OW56410   4.466   4.882   7.535
14023SOL    HW256411   4.388   4.828   7.522
14023SOL    HW356412   4.437   4.955   7.588
14023SOL    MW456413   4.452   4.884   7.540
14024SOL     OW56414   5.047   5.398   7.603
14024SOL    HW256415   4.973   5.361   7.653
14024SOL    HW356416   5.055   5.488   7.636
14024SOL    MW456417   5.038   5.405   7.615
14025SOL     OW56418   5.271   5.072   7.545
14025SOL    HW256419   5.218   5.121   7.481
14025SOL    HW356420   5.302   5.138   7.606
14025SOL    MW456421   5.269   5.086   7.543
14026SOL     OW56422   4.496   3.961   7.600
14026SOL    HW256423   4.444   3.881   7.588
14026SOL    HW356424   4.583   3.938   7.568
14026SOL    MW456425   4.499   3.947   7.594
14027SOL     OW56426   4.431   5.313   7.536
14027SOL    HW256427   4.371   5.382   7.506
14027SOL    HW356428   4.376   5.255   7.589
14027SOL    MW456429   4.415   5.315   7.538
14028SOL     OW56430   4.869   3.958   7.759
14028SOL    HW256431   4.802   3.934   7.696
14028SOL    HW356432   4.934   4.007   7.708
14028SOL    MW456433   4.869   3.960   7.744
14029SOL     OW56434   4.554   4.766   7.949
14029SOL    HW256435   4.556   4.740   7.856
14029SOL    HW356436   4.612   4.703   7.992
14029SOL    MW456437   4.562   4.755   7.943
14030SOL     OW56438   5.044   4.114   7.617
14030SOL    HW256439   5.017   4.180   7.553
14030SOL    HW356440   5.114   4.157   7.667
14030SOL    MW456441   5.049   4.127   7.614
14031SOL     OW56442   4.712   3.819   7.554
14031SOL    HW256443   4.768   3.811   7.476
14031SOL    HW356444   4.689   3.729   7.576
14031SOL    MW456445   4.717   3.806   7.547
14032SOL     OW56446   5.217   4.670   7.759
14032SOL    HW256447   5.184   4.759   7.749
14032SOL    HW356448   5.182   4.641   7.844
14032SOL    MW456449   5.207   4.679   7.770
14033SOL     OW56450   4.211   4.708   7.551
14033SOL    HW256451   4.134   4.721   7.607
14033SOL    HW356452   4.175   4.672   7.470
14033SOL    MW456453   4.197   4.704   7.548
14034SOL     OW56454   4.864   4.681   7.794
14034SOL    HW256455   4.774   4.702   7.769
14034SOL    HW356456   4.891   4.754   7.850
14034SOL    MW456457   4.856   4.693   7.797
14035SOL     OW56458   4.254   4.321   7.664
14035SOL    HW256459   4.220   4.377   7.734
14035SOL    HW356460   4.325   4.271   7.704
14035SOL    MW456461   4.260   4.322   7.678
14036SOL     OW56462   5.310   4.207   7.728
14036SOL    HW256463   5.302   4.278   7.665
14036SOL    HW356464   5.328   4.251   7.811
14036SOL    MW456465   5.311   4.221   7.730
14037SOL     OW56466   4.979   4.469   7.703
14037SOL    HW256467   5.026   4.487   7.622
14037SOL    HW356468   4.945   4.553   7.731
14037SOL    MW456469   4.981   4.483   7.696
14038SOL     OW56470   4.714   5.211   7.525
14038SOL    HW256471   4.741   5.289   7.477
14038SOL    HW356472   4.621   5.226   7.544
14038SOL    MW456473   4.705   5.224   7.521
14039SOL     OW56474   5.062   3.771   7.712
14039SOL    HW256475   5.136   3.815   7.755
14039SOL    HW356476   4.986   3.825   7.734
14039SOL    MW456477   5.062   3.783   7.720
14040SOL     OW56478   5.122   4.546   7.990
14040SOL    HW256479   5.037   4.516   7.960
14040SOL    HW356480   5.114   4.553   8.085
14040SOL    MW456481   5.110   4.544   7.999
14041SOL     OW56482   4.495   4.212   7.716
14041SOL    HW256483   4.568   4.261   7.679
14041SOL    HW356484   4.511   4.121   7.690
14041SOL    MW456485   4.507   4.207   7.709
14042SOL     OW56486   3.970   4.721   7.814
14042SOL    HW256487   3.907   4.737   7.743
14042SOL    HW356488   3.917   4.684   7.885
14042SOL    MW456489   3.955   4.718   7.814
14043SOL     OW56490   4.326   5.075   7.673
14043SOL    HW256491   4.341   5.051   7.765
14043SOL    HW356492   4.234   5.053   7.657
14043SOL    MW456493   4.316   5.068   7.683
14044SOL     OW56494   4.865   5.306   7.825
14044SOL    HW256495   4.873   5.224   7.776
14044SOL    HW356496   4.784   5.345   7.792
14044SOL    MW456497   4.855   5.301   7.815
14045SOL     OW56498   4.837   4.128   7.995
14045SOL    HW256499   4.859   4.065   7.927
14045SOL    HW356500   4.742   4.120   8.006
14045SOL    MW456501   4.827   4.119   7.987
14046SOL     OW56502   3.922   3.818   7.927
14046SOL    HW256503   3.993   3.839   7.866
14046SOL    HW356504   3.876   3.746   7.885
14046SOL    MW456505   3.926   3.812   7.913
14047SOL     OW56506   5.047   4.869   7.957
14047SOL    HW256507   5.019   4.955   7.990
14047SOL    HW356508   5.075   4.885   7.867
14047SOL    MW456509   5.047   4.883   7.949
14048SOL     OW56510   4.709   3.789   8.010
14048SOL    HW256511   4.746   3.848   8.075
14048SOL    HW356512   4.686   3.845   7.936
14048SOL    MW456513   4.710   3.804   8.009
14049SOL     OW56514   5.436   5.551   7.727
14049SOL    HW256515   5.503   5.584   7.667
14049SOL    HW356516   5.393   5.630   7.761
14049SOL    MW456517   5.438   5.566   7.723
14050SOL     OW56518   4.342   5.583   7.595
14050SOL    HW256519   4.247   5.583   7.587
14050SOL    HW356520   4.358   5.529   7.673
14050SOL    MW456521   4.332   5.577   7.604
14051SOL     OW56522   5.187   4.403   7.511
14051SOL    HW256523   5.115   4.379   7.453
14051SOL    HW356524   5.253   4.440   7.453
14051SOL    MW456525   5.186   4.405   7.496
14052SOL     OW56526   4.600   4.703   7.695
14052SOL    HW256527   4.586   4.615   7.660
14052SOL    HW356528   4.551   4.760   7.636
14052SOL    MW456529   4.592   4.698   7.683
14053SOL     OW56530   5.319   3.909   7.797
14053SOL    HW256531   5.312   3.913   7.892
14053SOL    HW356532   5.331   4.000   7.770
14053SOL    MW456533   5.320   3.922   7.805
14054SOL     OW56534   4.608   4.472   7.911
14054SOL    HW256535   4.588   4.458   7.818
14054SOL    HW356536   4.701   4.451   7.918
14054SOL    MW456537   4.618   4.467   7.900
14055SOL     OW56538   4.591   5.430   7.949
14055SOL    HW256539   4.649   5.501   7.976
14055SOL    HW356540   4.614   5.358   8.007
14055SOL    MW456541   4.602   5.430   7.960
14056SOL     OW56542   4.047   3.862   7.684
14056SOL    HW256543   3.976   3.917   7.652
14056SOL    HW356544   4.089   3.828   7.605
14056SOL    MW456545   4.043   3.864   7.670
14057SOL     OW56546   3.803   3.961   7.533
14057SOL    HW256547   3.770   4.040   7.577
14057SOL    HW356548   3.858   3.994   7.462
14057SOL    MW456549   3.806   3.975   7.530
14058SOL     OW56550   5.109   5.307   7.939
14058SOL    HW256551   5.172   5.297   7.868
14058SOL    HW356552   5.026   5.327   7.894
14058SOL    MW456553   5.106   5.308   7.924
14059SOL     OW56554   5.472   6.444   7.757
14059SOL    HW256555   5.513   6.386   7.822
14059SOL    HW356556   5.379   6.436   7.774
14059SOL    MW456557   5.466   6.436   7.767
14060SOL     OW56558   4.550   6.083   7.999
14060SOL    HW256559   4.525   6.171   8.027
14060SOL    HW356560   4.547   6.086   7.903
14060SOL    MW456561   4.546   6.095   7.991
14061SOL     OW56562   5.105   6.775   7.705
14061SOL    HW256563   5.023   6.811   7.671
14061SOL    HW356564   5.173   6.818   7.654
14061SOL    MW456565   5.103   6.785   7.693
14062SOL     OW56566   4.657   6.916   7.898
14062SOL    HW256567   4.634   6.978   7.966
14062SOL    HW356568   4.614   6.834   7.924
14062SOL    MW456569   4.649   6.912   7.909
14063SOL     OW56570   4.651   7.313   7.681
14063SOL    HW256571   4.606   7.329   7.764
14063SOL    HW356572   4.582   7.278   7.623
14063SOL    MW456573   4.637   7.310   7.683
14064SOL     OW56574   5.586   6.086   7.656
14064SOL    HW256575   5.495   6.088   7.684
14064SOL    HW356576   5.631   6.148   7.714
14064SOL    MW456577   5.579   6.094   7.666
14065SOL     OW56578   5.331   6.689   8.006
14065SOL    HW256579   5.241   6.689   8.041
14065SOL    HW356580   5.324   6.735   7.923
14065SOL    MW456581   5.318   6.695   8.000
14066SOL     OW56582   4.858   6.270   7.967
14066SOL    HW256583   4.884   6.294   7.878
14066SOL    HW356584   4.840   6.177   7.963
14066SOL    MW456585   4.860   6.262   7.954
14067SOL     OW56586   5.523   6.890   7.818
14067SOL    HW256587   5.479   6.931   7.893
14067SOL    HW356588   5.580   6.958   7.783
14067SOL    MW456589   5.525   6.904   7.823
14068SOL     OW56590   3.895   7.366   7.713
14068SOL    HW256591   3.924   7.456   7.705
14068SOL    HW356592   3.845   7.349   7.634
14068SOL    MW456593   3.893   7.374   7.702
14069SOL     OW56594   5.299   7.174   7.684
14069SOL    HW256595   5.347   7.243   7.730
14069SOL    HW356596   5.220   7.218   7.653
14069SOL    MW456597   5.294   7.188   7.687
14070SOL     OW56598   4.697   6.299   7.628
14070SOL    HW256599   4.699   6.246   7.549
14070SOL    HW356600   4.785   6.336   7.634
14070SOL    MW456601   4.709   6.298   7.617
14071SOL     OW56602   5.311   6.225   7.964
14071SOL    HW256603   5.350   6.225   8.051
14071SOL    HW356604   5.252   6.301   7.964
14071SOL    MW456605   5.308   6.236   7.975
14072SOL     OW56606   4.867   6.918   7.720
14072SOL    HW256607   4.817   6.920   7.802
14072SOL    HW356608   4.801   6.936   7.652
14072SOL    MW456609   4.853   6.920   7.722
14073SOL     OW56610   4.330   7.336   7.828
14073SOL    HW256611   4.251   7.294   7.861
14073SOL    HW356612   4.396   7.319   7.895
14073SOL    MW456613   4.329   7.328   7.841
14074SOL     OW56614   4.466   6.751   7.535
14074SOL    HW256615   4.388   6.697   7.522
14074SOL    HW356616   4.437   6.824   7.588
14074SOL    MW456617   4.452   6.753   7.540
14075SOL     OW56618   5.047   7.267   7.603
14075SOL    HW256619   4.973   7.230   7.653
14075SOL    HW356620   5.055   7.357   7.636
14075SOL    MW456621   5.038   7.274   7.615
14076SOL     OW56622   5.271   6.941   7.545
14076SOL    HW256623   5.218   6.990   7.481
14076SOL    HW356624   5.302   7.007   7.606
14076SOL    MW456625   5.269   6.955   7.543
14077SOL     OW56626   4.496   5.830   7.600
14077SOL    HW256627   4.444   5.750   7.588
14077SOL    HW356628   4.583   5.807   7.568
14077SOL    MW456629   4.499   5.816   7.594
14078SOL     OW56630   4.431   7.182   7.536
14078SOL    HW256631   4.371   7.251   7.506
14078SOL    HW356632   4.376   7.124   7.589
14078SOL    MW456633   4.415   7.184   7.538
14079SOL     OW56634   4.869   5.827   7.759
14079SOL    HW256635   4.802   5.803   7.696
14079SOL    HW356636   4.934   5.876   7.708
14079SOL    MW456637   4.869   5.829   7.744
14080SOL     OW56638   4.554   6.635   7.949
14080SOL    HW256639   4.556   6.609   7.856
14080SOL    HW356640   4.612   6.572   7.992
14080SOL    MW456641   4.562   6.624   7.943
14081SOL     OW56642   5.044   5.983   7.617
14081SOL    HW256643   5.017   6.049   7.553
14081SOL    HW356644   5.114   6.026   7.667
14081SOL    MW456645   5.049   5.996   7.614
14082SOL     OW56646   4.712   5.688   7.554
14082SOL    HW256647   4.768   5.680   7.476
14082SOL    HW356648   4.689   5.598   7.576
14082SOL    MW456649   4.717   5.675   7.547
14083SOL     OW56650   5.217   6.539   7.759
14083SOL    HW256651   5.184   6.628   7.749
14083SOL    HW356652   5.182   6.510   7.844
14083SOL    MW456653   5.207   6.548   7.770
14084SOL     OW56654   4.211   6.577   7.551
14084SOL    HW256655   4.134   6.590   7.607
14084SOL    HW356656   4.175   6.541   7.470
14084SOL    MW456657   4.197   6.573   7.548
14085SOL     OW56658   4.864   6.550   7.794
14085SOL    HW256659   4.774   6.571   7.769
14085SOL    HW356660   4.891   6.623   7.850
14085SOL    MW456661   4.856   6.562   7.797
14086SOL     OW56662   4.254   6.190   7.664
14086SOL    HW256663   4.220   6.246   7.734
14086SOL    HW356664   4.325   6.140   7.704
14086SOL    MW456665   4.260   6.191   7.678
14087SOL     OW56666   5.310   6.076   7.728
14087SOL    HW256667   5.302   6.147   7.665
14087SOL    HW356668   5.328   6.120   7.811
14087SOL    MW456669   5.311   6.090   7.730
14088SOL     OW56670   4.979   6.338   7.703
14088SOL    HW256671   5.026   6.356   7.622
14088SOL    HW356672   4.945   6.422   7.731
14088SOL    MW456673   4.981   6.352   7.696
14089SOL     OW56674   4.714   7.080   7.525
14089SOL    HW256675   4.741   7.158   7.477
14089SOL    HW356676   4.621   7.095   7.544
14089SOL    MW456677   4.705   7.093   7.521
14090SOL     OW56678   5.062   5.640   7.712
14090SOL    HW256679   5.136   5.684   7.755
14090SOL    HW356680   4.986   5.694   7.734
14090SOL    MW456681   5.062   5.652   7.720
14091SOL     OW56682   5.122   6.415   7.990
14091SOL    HW256683   5.037   6.385   7.960
14091SOL    HW356684   5.114   6.422   8.085
14091SOL    MW456685   5.110   6.413   7.999
14092SOL     OW56686   4.495   6.081   7.716
14092SOL    HW256687   4.568   6.130   7.679
14092SOL    HW356688   4.511   5.990   7.690
14092SOL    MW456689   4.507   6.076   7.709
14093SOL     OW56690   3.970   6.590   7.814
14093SOL    HW256691   3.907   6.606   7.743
14093SOL    HW356692   3.917   6.553   7.885
14093SOL    MW456693   3.955   6.587   7.814
14094SOL     OW56694   4.326   6.944   7.673
14094SOL    HW256695   4.341   6.920   7.765
14094SOL    HW356696   4.234   6.922   7.657
14094SOL    MW456697   4.316   6.937   7.683
14095SOL     OW56698   4.865   7.175   7.825
14095SOL    HW256699   4.873   7.093   7.776
14095SOL    HW356700   4.784   7.214   7.792
14095SOL    MW456701   4.855   7.170   7.815
14096SOL     OW56702   4.837   5.997   7.995
14096SOL    HW256703   4.859   5.934   7.927
14096SOL    HW356704   4.742   5.989   8.006
14096SOL    MW456705   4.827   5.988   7.987
14097SOL     OW56706   5.047   6.738   7.957
14097SOL    HW256707   5.019   6.824   7.990
14097SOL    HW356708   5.075   6.754   7.867
14097SOL    MW456709   5.047   6.752   7.949
14098SOL     OW56710   4.709   5.658   8.010
14098SOL    HW256711   4.746   5.717   8.075
14098SOL    HW356712   4.686   5.714   7.936
14098SOL    MW456713   4.710   5.673   8.009
14099SOL     OW56714   5.436   7.420   7.727
14099SOL    HW256715   5.503   7.453   7.667
14099SOL    HW356716   5.393   7.499   7.761
14099SOL    MW456717   5.438   7.435   7.723
14100SOL     OW56718   4.342   7.452   7.595
14100SOL    HW256719   4.247   7.452   7.587
14100SOL    HW356720   4.358   7.398   7.673
14100SOL    MW456721   4.332   7.446   7.604
14101SOL     OW56722   5.187   6.272   7.511
14101SOL    HW256723   5.115   6.248   7.453
14101SOL    HW356724   5.253   6.309   7.453
14101SOL    MW456725   5.186   6.274   7.496
14102SOL     OW56726   4.600   6.572   7.695
14102SOL    HW256727   4.586   6.484   7.660
14102SOL    HW356728   4.551   6.629   7.636
14102SOL    MW456729   4.592   6.567   7.683
14103SOL     OW56730   5.319   5.778   7.797
14103SOL    HW256731   5.312   5.782   7.892
14103SOL    HW356732   5.331   5.869   7.770
14103SOL    MW456733   5.320   5.791   7.805
14104SOL     OW56734   4.608   6.341   7.911
14104SOL    HW256735   4.588   6.327   7.818
14104SOL    HW356736   4.701   6.320   7.918
14104SOL    MW456737   4.618   6.336   7.900
14105SOL     OW56738   4.591   7.299   7.949
14105SOL    HW256739   4.649   7.370   7.976
14105SOL    HW356740   4.614   7.227   8.007
14105SOL    MW456741   4.602   7.299   7.960
14106SOL     OW56742   3.803   5.830   7.533
14106SOL    HW256743   3.770   5.909   7.577
14106SOL    HW356744   3.858   5.863   7.462
14106SOL    MW456745   3.806   5.844   7.530
14107SOL     OW56746   5.109   7.176   7.939
14107SOL    HW256747   5.172   7.166   7.868
14107SOL    HW356748   5.026   7.196   7.894
14107SOL    MW456749   5.106   7.177   7.924
14108SOL     OW56750   7.341   0.839   7.757
14108SOL    HW256751   7.382   0.781   7.822
14108SOL    HW356752   7.248   0.831   7.774
14108SOL    MW456753   7.335   0.831   7.767
14109SOL     OW56754   6.974   1.170   7.705
14109SOL    HW256755   6.892   1.206   7.671
14109SOL    HW356756   7.042   1.213   7.654
14109SOL    MW456757   6.972   1.180   7.693
14110SOL     OW56758   5.764   1.761   7.713
14110SOL    HW256759   5.793   1.851   7.705
14110SOL    HW356760   5.714   1.744   7.634
14110SOL    MW456761   5.762   1.769   7.702
14111SOL     OW56762   7.168   1.569   7.684
14111SOL    HW256763   7.216   1.638   7.730
14111SOL    HW356764   7.089   1.613   7.653
14111SOL    MW456765   7.163   1.583   7.687
14112SOL     OW56766   6.736   1.313   7.720
14112SOL    HW256767   6.686   1.315   7.802
14112SOL    HW356768   6.670   1.331   7.652
14112SOL    MW456769   6.722   1.315   7.722
14113SOL     OW56770   6.199   1.731   7.828
14113SOL    HW256771   6.120   1.689   7.861
14113SOL    HW356772   6.265   1.714   7.895
14113SOL    MW456773   6.198   1.723   7.841
14114SOL     OW56774   6.335   1.146   7.535
14114SOL    HW256775   6.257   1.092   7.522
14114SOL    HW356776   6.306   1.219   7.588
14114SOL    MW456777   6.321   1.148   7.540
14115SOL     OW56778   6.916   1.662   7.603
14115SOL    HW256779   6.842   1.625   7.653
14115SOL    HW356780   6.924   1.752   7.636
14115SOL    MW456781   6.907   1.669   7.615
14116SOL     OW56782   7.140   1.336   7.545
14116SOL    HW256783   7.087   1.385   7.481
14116SOL    HW356784   7.171   1.402   7.606
14116SOL    MW456785   7.138   1.350   7.543
14117SOL     OW56786   6.365   0.225   7.600
14117SOL    HW256787   6.313   0.145   7.588
14117SOL    HW356788   6.452   0.202   7.568
14117SOL    MW456789   6.368   0.211   7.594
14118SOL     OW56790   6.300   1.577   7.536
14118SOL    HW256791   6.240   1.646   7.506
14118SOL    HW356792   6.245   1.519   7.589
14118SOL    MW456793   6.284   1.579   7.538
14119SOL     OW56794   6.738   0.222   7.759
14119SOL    HW256795   6.671   0.198   7.696
14119SOL    HW356796   6.803   0.271   7.708
14119SOL    MW456797   6.738   0.224   7.744
14120SOL     OW56798   6.913   0.378   7.617
14120SOL    HW256799   6.886   0.444   7.553
14120SOL    HW356800   6.983   0.421   7.667
14120SOL    MW456801   6.918   0.391   7.614
14121SOL     OW56802   6.080   0.972   7.551
14121SOL    HW256803   6.003   0.985   7.607
14121SOL    HW356804   6.044   0.936   7.470
14121SOL    MW456805   6.066   0.968   7.548
14122SOL     OW56806   7.179   0.471   7.728
14122SOL    HW256807   7.171   0.542   7.665
14122SOL    HW356808   7.197   0.515   7.811
14122SOL    MW456809   7.180   0.485   7.730
14123SOL     OW56810   6.848   0.733   7.703
14123SOL    HW256811   6.895   0.751   7.622
14123SOL    HW356812   6.814   0.817   7.731
14123SOL    MW456813   6.850   0.747   7.696
14124SOL     OW56814   6.583   1.475   7.525
14124SOL    HW256815   6.610   1.553   7.477
14124SOL    HW356816   6.490   1.490   7.544
14124SOL    MW456817   6.574   1.488   7.521
14125SOL     OW56818   6.931   0.035   7.712
14125SOL    HW256819   7.005   0.079   7.755
14125SOL    HW356820   6.855   0.089   7.734
14125SOL    MW456821   6.931   0.047   7.720
14126SOL     OW56822   6.364   0.476   7.716
14126SOL    HW256823   6.437   0.525   7.679
14126SOL    HW356824   6.380   0.385   7.690
14126SOL    MW456825   6.376   0.471   7.709
14127SOL     OW56826   7.305   1.815   7.727
14127SOL    HW256827   7.372   1.848   7.667
14127SOL    HW356828   7.262   1.894   7.761
14127SOL    MW456829   7.307   1.830   7.723
14128SOL     OW56830   6.211   1.847   7.595
14128SOL    HW256831   6.116   1.847   7.587
14128SOL    HW356832   6.227   1.793   7.673
14128SOL    MW456833   6.201   1.841   7.604
14129SOL     OW56834   7.056   0.667   7.511
14129SOL    HW256835   6.984   0.643   7.453
14129SOL    HW356836   7.122   0.704   7.453
14129SOL    MW456837   7.055   0.669   7.496
14130SOL     OW56838   6.469   0.967   7.695
14130SOL    HW256839   6.455   0.879   7.660
14130SOL    HW356840   6.420   1.024   7.636
14130SOL    MW456841   6.461   0.962   7.683
14131SOL     OW56842   5.916   0.126   7.684
14131SOL    HW256843   5.845   0.181   7.652
14131SOL    HW356844   5.958   0.092   7.605
14131SOL    MW456845   5.912   0.128   7.670
14132SOL     OW56846   5.672   0.225   7.533
14132SOL    HW256847   5.639   0.304   7.577
14132SOL    HW356848   5.727   0.258   7.462
14132SOL    MW456849   5.675   0.239   7.530
14133SOL     OW56850   7.341   2.707   7.757
14133SOL    HW256851   7.382   2.649   7.822
14133SOL    HW356852   7.248   2.699   7.774
14133SOL    MW456853   7.335   2.699   7.767
14134SOL     OW56854   6.974   3.038   7.705
14134SOL    HW256855   6.892   3.074   7.671
14134SOL    HW356856   7.042   3.081   7.654
14134SOL    MW456857   6.972   3.048   7.693
14135SOL     OW56858   6.526   3.179   7.898
14135SOL    HW256859   6.503   3.241   7.966
14135SOL    HW356860   6.483   3.097   7.924
14135SOL    MW456861   6.518   3.175   7.909
14136SOL     OW56862   5.858   3.113   7.903
14136SOL    HW256863   5.806   3.181   7.859
14136SOL    HW356864   5.855   3.039   7.843
14136SOL    MW456865   5.850   3.112   7.890
14137SOL     OW56866   6.520   3.576   7.681
14137SOL    HW256867   6.475   3.592   7.764
14137SOL    HW356868   6.451   3.541   7.623
14137SOL    MW456869   6.506   3.573   7.683
14138SOL     OW56870   5.764   3.629   7.713
14138SOL    HW256871   5.793   3.719   7.705
14138SOL    HW356872   5.714   3.612   7.634
14138SOL    MW456873   5.762   3.637   7.702
14139SOL     OW56874   7.168   3.437   7.684
14139SOL    HW256875   7.216   3.506   7.730
14139SOL    HW356876   7.089   3.481   7.653
14139SOL    MW456877   7.163   3.451   7.687
14140SOL     OW56878   6.736   3.181   7.720
14140SOL    HW256879   6.686   3.183   7.802
14140SOL    HW356880   6.670   3.199   7.652
14140SOL    MW456881   6.722   3.183   7.722
14141SOL     OW56882   6.199   3.599   7.828
14141SOL    HW256883   6.120   3.557   7.861
14141SOL    HW356884   6.265   3.582   7.895
14141SOL    MW456885   6.198   3.591   7.841
14142SOL     OW56886   6.335   3.014   7.535
14142SOL    HW256887   6.257   2.960   7.522
14142SOL    HW356888   6.306   3.087   7.588
14142SOL    MW456889   6.321   3.016   7.540
14143SOL     OW56890   6.916   3.530   7.603
14143SOL    HW256891   6.842   3.493   7.653
14143SOL    HW356892   6.924   3.620   7.636
14143SOL    MW456893   6.907   3.537   7.615
14144SOL     OW56894   7.140   3.204   7.545
14144SOL    HW256895   7.087   3.253   7.481
14144SOL    HW356896   7.171   3.270   7.606
14144SOL    MW456897   7.138   3.218   7.543
14145SOL     OW56898   6.365   2.093   7.600
14145SOL    HW256899   6.313   2.013   7.588
14145SOL    HW356900   6.452   2.070   7.568
14145SOL    MW456901   6.368   2.079   7.594
14146SOL     OW56902   6.300   3.445   7.536
14146SOL    HW256903   6.240   3.514   7.506
14146SOL    HW356904   6.245   3.387   7.589
14146SOL    MW456905   6.284   3.447   7.538
14147SOL     OW56906   6.738   2.090   7.759
14147SOL    HW256907   6.671   2.066   7.696
14147SOL    HW356908   6.803   2.139   7.708
14147SOL    MW456909   6.738   2.092   7.744
14148SOL     OW56910   5.931   3.489   7.925
14148SOL    HW256911   5.892   3.536   7.851
14148SOL    HW356912   5.865   3.424   7.950
14148SOL    MW456913   5.918   3.487   7.919
14149SOL     OW56914   6.913   2.246   7.617
14149SOL    HW256915   6.886   2.312   7.553
14149SOL    HW356916   6.983   2.289   7.667
14149SOL    MW456917   6.918   2.259   7.614
14150SOL     OW56918   6.080   2.840   7.551
14150SOL    HW256919   6.003   2.853   7.607
14150SOL    HW356920   6.044   2.804   7.470
14150SOL    MW456921   6.066   2.836   7.548
14151SOL     OW56922   6.120   3.169   7.950
14151SOL    HW256923   6.113   3.201   8.040
14151SOL    HW356924   6.030   3.153   7.922
14151SOL    MW456925   6.108   3.171   7.957
14152SOL     OW56926   7.179   2.339   7.728
14152SOL    HW256927   7.171   2.410   7.665
14152SOL    HW356928   7.197   2.383   7.811
14152SOL    MW456929   7.180   2.353   7.730
14153SOL     OW56930   6.848   2.601   7.703
14153SOL    HW256931   6.895   2.619   7.622
14153SOL    HW356932   6.814   2.685   7.731
14153SOL    MW456933   6.850   2.615   7.696
14154SOL     OW56934   6.583   3.343   7.525
14154SOL    HW256935   6.610   3.421   7.477
14154SOL    HW356936   6.490   3.358   7.544
14154SOL    MW456937   6.574   3.356   7.521
14155SOL     OW56938   6.931   1.903   7.712
14155SOL    HW256939   7.005   1.947   7.755
14155SOL    HW356940   6.855   1.957   7.734
14155SOL    MW456941   6.931   1.915   7.720
14156SOL     OW56942   6.364   2.344   7.716
14156SOL    HW256943   6.437   2.393   7.679
14156SOL    HW356944   6.380   2.253   7.690
14156SOL    MW456945   6.376   2.339   7.709
14157SOL     OW56946   6.195   3.207   7.673
14157SOL    HW256947   6.210   3.183   7.765
14157SOL    HW356948   6.103   3.185   7.657
14157SOL    MW456949   6.185   3.200   7.683
14158SOL     OW56950   6.734   3.438   7.825
14158SOL    HW256951   6.742   3.356   7.776
14158SOL    HW356952   6.653   3.477   7.792
14158SOL    MW456953   6.724   3.433   7.815
14159SOL     OW56954   7.305   3.683   7.727
14159SOL    HW256955   7.372   3.716   7.667
14159SOL    HW356956   7.262   3.762   7.761
14159SOL    MW456957   7.307   3.698   7.723
14160SOL     OW56958   6.211   3.715   7.595
14160SOL    HW256959   6.116   3.715   7.587
14160SOL    HW356960   6.227   3.661   7.673
14160SOL    MW456961   6.201   3.709   7.604
14161SOL     OW56962   7.056   2.535   7.511
14161SOL    HW256963   6.984   2.511   7.453
14161SOL    HW356964   7.122   2.572   7.453
14161SOL    MW456965   7.055   2.537   7.496
14162SOL     OW56966   6.469   2.835   7.695
14162SOL    HW256967   6.455   2.747   7.660
14162SOL    HW356968   6.420   2.892   7.636
14162SOL    MW456969   6.461   2.830   7.683
14163SOL     OW56970   6.460   3.562   7.949
14163SOL    HW256971   6.518   3.633   7.976
14163SOL    HW356972   6.483   3.490   8.007
14163SOL    MW456973   6.471   3.562   7.960
14164SOL     OW56974   5.916   1.994   7.684
14164SOL    HW256975   5.845   2.049   7.652
14164SOL    HW356976   5.958   1.960   7.605
14164SOL    MW456977   5.912   1.996   7.670
14165SOL     OW56978   5.672   2.093   7.533
14165SOL    HW256979   5.639   2.172   7.577
14165SOL    HW356980   5.727   2.126   7.462
14165SOL    MW456981   5.675   2.107   7.530
14166SOL     OW56982   5.706   3.350   7.722
14166SOL    HW256983   5.723   3.434   7.764
14166SOL    HW356984   5.741   3.359   7.634
14166SOL    MW456985   5.711   3.363   7.716
14167SOL     OW56986   6.978   3.439   7.939
14167SOL    HW256987   7.041   3.429   7.868
14167SOL    HW356988   6.895   3.459   7.894
14167SOL    MW456989   6.975   3.440   7.924
14168SOL     OW56990   6.135   4.758   7.986
14168SOL    HW256991   6.225   4.733   7.970
14168SOL    HW356992   6.131   4.851   7.963
14168SOL    MW456993   6.147   4.767   7.981
14169SOL     OW56994   6.419   4.214   7.999
14169SOL    HW256995   6.394   4.302   8.027
14169SOL    HW356996   6.416   4.217   7.903
14169SOL    MW456997   6.415   4.226   7.991
14170SOL     OW56998   5.861   4.242   7.927
14170SOL    HW256999   5.893   4.330   7.909
14170SOL    HW357000   5.849   4.240   8.022
14170SOL    MW457001   5.864   4.254   7.939
14171SOL     OW57002   6.260   3.997   8.014
14171SOL    HW257003   6.318   4.073   8.016
14171SOL    HW357004   6.195   4.018   7.947
14171SOL    MW457005   6.259   4.009   8.005
14172SOL     OW57006   6.974   4.906   7.705
14172SOL    HW257007   6.892   4.942   7.671
14172SOL    HW357008   7.042   4.949   7.654
14172SOL    MW457009   6.972   4.916   7.693
14173SOL     OW57010   6.526   5.047   7.898
14173SOL    HW257011   6.503   5.109   7.966
14173SOL    HW357012   6.483   4.965   7.924
14173SOL    MW457013   6.518   5.043   7.909
14174SOL     OW57014   6.023   4.020   7.866
14174SOL    HW257015   5.997   3.982   7.782
14174SOL    HW357016   5.960   4.090   7.882
14174SOL    MW457017   6.012   4.023   7.857
14175SOL     OW57018   5.858   4.981   7.903
14175SOL    HW257019   5.806   5.049   7.859
14175SOL    HW357020   5.855   4.907   7.843
14175SOL    MW457021   5.850   4.980   7.890
14176SOL     OW57022   6.520   5.444   7.681
14176SOL    HW257023   6.475   5.460   7.764
14176SOL    HW357024   6.451   5.409   7.623
14176SOL    MW457025   6.506   5.441   7.683
14177SOL     OW57026   7.455   4.217   7.656
14177SOL    HW257027   7.364   4.219   7.684
14177SOL    HW357028   7.500   4.279   7.714
14177SOL    MW457029   7.448   4.225   7.666
14178SOL     OW57030   6.727   4.401   7.967
14178SOL    HW257031   6.753   4.425   7.878
14178SOL    HW357032   6.709   4.308   7.963
14178SOL    MW457033   6.729   4.393   7.954
14179SOL     OW57034   5.764   5.497   7.713
14179SOL    HW257035   5.793   5.587   7.705
14179SOL    HW357036   5.714   5.480   7.634
14179SOL    MW457037   5.762   5.505   7.702
14180SOL     OW57038   7.168   5.305   7.684
14180SOL    HW257039   7.216   5.374   7.730
14180SOL    HW357040   7.089   5.349   7.653
14180SOL    MW457041   7.163   5.319   7.687
14181SOL     OW57042   6.566   4.430   7.628
14181SOL    HW257043   6.568   4.377   7.549
14181SOL    HW357044   6.654   4.467   7.634
14181SOL    MW457045   6.578   4.429   7.617
14182SOL     OW57046   7.180   4.356   7.964
14182SOL    HW257047   7.219   4.356   8.051
14182SOL    HW357048   7.121   4.432   7.964
14182SOL    MW457049   7.177   4.367   7.975
14183SOL     OW57050   6.335   4.882   7.535
14183SOL    HW257051   6.257   4.828   7.522
14183SOL    HW357052   6.306   4.955   7.588
14183SOL    MW457053   6.321   4.884   7.540
14184SOL     OW57054   7.140   5.072   7.545
14184SOL    HW257055   7.087   5.121   7.481
14184SOL    HW357056   7.171   5.138   7.606
14184SOL    MW457057   7.138   5.086   7.543
14185SOL     OW57058   6.365   3.961   7.600
14185SOL    HW257059   6.313   3.881   7.588
14185SOL    HW357060   6.452   3.938   7.568
14185SOL    MW457061   6.368   3.947   7.594
14186SOL     OW57062   6.300   5.313   7.536
14186SOL    HW257063   6.240   5.382   7.506
14186SOL    HW357064   6.245   5.255   7.589
14186SOL    MW457065   6.284   5.315   7.538
14187SOL     OW57066   6.738   3.958   7.759
14187SOL    HW257067   6.671   3.934   7.696
14187SOL    HW357068   6.803   4.007   7.708
14187SOL    MW457069   6.738   3.960   7.744
14188SOL     OW57070   5.931   5.357   7.925
14188SOL    HW257071   5.892   5.404   7.851
14188SOL    HW357072   5.865   5.292   7.950
14188SOL    MW457073   5.918   5.355   7.919
14189SOL     OW57074   6.913   4.114   7.617
14189SOL    HW257075   6.886   4.180   7.553
14189SOL    HW357076   6.983   4.157   7.667
14189SOL    MW457077   6.918   4.127   7.614
14190SOL     OW57078   6.581   3.819   7.554
14190SOL    HW257079   6.637   3.811   7.476
14190SOL    HW357080   6.558   3.729   7.576
14190SOL    MW457081   6.586   3.806   7.547
14191SOL     OW57082   6.080   4.708   7.551
14191SOL    HW257083   6.003   4.721   7.607
14191SOL    HW357084   6.044   4.672   7.470
14191SOL    MW457085   6.066   4.704   7.548
14192SOL     OW57086   6.733   4.681   7.794
14192SOL    HW257087   6.643   4.702   7.769
14192SOL    HW357088   6.760   4.754   7.850
14192SOL    MW457089   6.725   4.693   7.797
14193SOL     OW57090   6.120   5.037   7.950
14193SOL    HW257091   6.113   5.069   8.040
14193SOL    HW357092   6.030   5.021   7.922
14193SOL    MW457093   6.108   5.039   7.957
14194SOL     OW57094   6.123   4.321   7.664
14194SOL    HW257095   6.089   4.377   7.734
14194SOL    HW357096   6.194   4.271   7.704
14194SOL    MW457097   6.129   4.322   7.678
14195SOL     OW57098   7.179   4.207   7.728
14195SOL    HW257099   7.171   4.278   7.665
14195SOL    HW357100   7.197   4.251   7.811
14195SOL    MW457101   7.180   4.221   7.730
14196SOL     OW57102   6.848   4.469   7.703
14196SOL    HW257103   6.895   4.487   7.622
14196SOL    HW357104   6.814   4.553   7.731
14196SOL    MW457105   6.850   4.483   7.696
14197SOL     OW57106   6.583   5.211   7.525
14197SOL    HW257107   6.610   5.289   7.477
14197SOL    HW357108   6.490   5.226   7.544
14197SOL    MW457109   6.574   5.224   7.521
14198SOL     OW57110   5.623   4.373   7.916
14198SOL    HW257111   5.563   4.345   7.986
14198SOL    HW357112   5.697   4.313   7.922
14198SOL    MW457113   5.625   4.362   7.925
14199SOL     OW57114   6.931   3.771   7.712
14199SOL    HW257115   7.005   3.815   7.755
14199SOL    HW357116   6.855   3.825   7.734
14199SOL    MW457117   6.931   3.783   7.720
14200SOL     OW57118   6.991   4.546   7.990
14200SOL    HW257119   6.906   4.516   7.960
14200SOL    HW357120   6.983   4.553   8.085
14200SOL    MW457121   6.979   4.544   7.999
14201SOL     OW57122   6.364   4.212   7.716
14201SOL    HW257123   6.437   4.261   7.679
14201SOL    HW357124   6.380   4.121   7.690
14201SOL    MW457125   6.376   4.207   7.709
14202SOL     OW57126   5.839   4.721   7.814
14202SOL    HW257127   5.776   4.737   7.743
14202SOL    HW357128   5.786   4.684   7.885
14202SOL    MW457129   5.824   4.718   7.814
14203SOL     OW57130   6.195   5.075   7.673
14203SOL    HW257131   6.210   5.051   7.765
14203SOL    HW357132   6.103   5.053   7.657
14203SOL    MW457133   6.185   5.068   7.683
14204SOL     OW57134   6.706   4.128   7.995
14204SOL    HW257135   6.728   4.065   7.927
14204SOL    HW357136   6.611   4.120   8.006
14204SOL    MW457137   6.696   4.119   7.987
14205SOL     OW57138   5.791   3.818   7.927
14205SOL    HW257139   5.862   3.839   7.866
14205SOL    HW357140   5.745   3.746   7.885
14205SOL    MW457141   5.795   3.812   7.913
14206SOL     OW57142   6.578   3.789   8.010
14206SOL    HW257143   6.615   3.848   8.075
14206SOL    HW357144   6.555   3.845   7.936
14206SOL    MW457145   6.579   3.804   8.009
14207SOL     OW57146   5.999   4.480   7.906
14207SOL    HW257147   5.999   4.575   7.891
14207SOL    HW357148   6.076   4.464   7.960
14207SOL    MW457149   6.009   4.491   7.911
14208SOL     OW57150   7.305   5.551   7.727
14208SOL    HW257151   7.372   5.584   7.667
14208SOL    HW357152   7.262   5.630   7.761
14208SOL    MW457153   7.307   5.566   7.723
14209SOL     OW57154   5.627   4.783   7.653
14209SOL    HW257155   5.596   4.848   7.716
14209SOL    HW357156   5.576   4.705   7.672
14209SOL    MW457157   5.617   4.780   7.663
14210SOL     OW57158   6.211   5.583   7.595
14210SOL    HW257159   6.116   5.583   7.587
14210SOL    HW357160   6.227   5.529   7.673
14210SOL    MW457161   6.201   5.577   7.604
14211SOL     OW57162   7.056   4.403   7.511
14211SOL    HW257163   6.984   4.379   7.453
14211SOL    HW357164   7.122   4.440   7.453
14211SOL    MW457165   7.055   4.405   7.496
14212SOL     OW57166   7.188   3.909   7.797
14212SOL    HW257167   7.181   3.913   7.892
14212SOL    HW357168   7.200   4.000   7.770
14212SOL    MW457169   7.189   3.922   7.805
14213SOL     OW57170   5.916   3.862   7.684
14213SOL    HW257171   5.845   3.917   7.652
14213SOL    HW357172   5.958   3.828   7.605
14213SOL    MW457173   5.912   3.864   7.670
14214SOL     OW57174   5.672   3.961   7.533
14214SOL    HW257175   5.639   4.040   7.577
14214SOL    HW357176   5.727   3.994   7.462
14214SOL    MW457177   5.675   3.975   7.530
14215SOL     OW57178   5.706   5.218   7.722
14215SOL    HW257179   5.723   5.302   7.764
14215SOL    HW357180   5.741   5.227   7.634
14215SOL    MW457181   5.711   5.231   7.716
14216SOL     OW57182   6.135   6.627   7.986
14216SOL    HW257183   6.225   6.602   7.970
14216SOL    HW357184   6.131   6.720   7.963
14216SOL    MW457185   6.147   6.636   7.981
14217SOL     OW57186   5.861   6.111   7.927
14217SOL    HW257187   5.893   6.199   7.909
14217SOL    HW357188   5.849   6.109   8.022
14217SOL    MW457189   5.864   6.123   7.939
14218SOL     OW57190   6.974   6.775   7.705
14218SOL    HW257191   6.892   6.811   7.671
14218SOL    HW357192   7.042   6.818   7.654
14218SOL    MW457193   6.972   6.785   7.693
14219SOL     OW57194   6.526   6.916   7.898
14219SOL    HW257195   6.503   6.978   7.966
14219SOL    HW357196   6.483   6.834   7.924
14219SOL    MW457197   6.518   6.912   7.909
14220SOL     OW57198   6.023   5.889   7.866
14220SOL    HW257199   5.997   5.851   7.782
14220SOL    HW357200   5.960   5.959   7.882
14220SOL    MW457201   6.012   5.892   7.857
14221SOL     OW57202   5.858   6.850   7.903
14221SOL    HW257203   5.806   6.918   7.859
14221SOL    HW357204   5.855   6.776   7.843
14221SOL    MW457205   5.850   6.849   7.890
14222SOL     OW57206   6.520   7.313   7.681
14222SOL    HW257207   6.475   7.329   7.764
14222SOL    HW357208   6.451   7.278   7.623
14222SOL    MW457209   6.506   7.310   7.683
14223SOL     OW57210   5.764   7.366   7.713
14223SOL    HW257211   5.793   7.456   7.705
14223SOL    HW357212   5.714   7.349   7.634
14223SOL    MW457213   5.762   7.374   7.702
14224SOL     OW57214   7.168   7.174   7.684
14224SOL    HW257215   7.216   7.243   7.730
14224SOL    HW357216   7.089   7.218   7.653
14224SOL    MW457217   7.163   7.188   7.687
14225SOL     OW57218   6.566   6.299   7.628
14225SOL    HW257219   6.568   6.246   7.549
14225SOL    HW357220   6.654   6.336   7.634
14225SOL    MW457221   6.578   6.298   7.617
14226SOL     OW57222   6.335   6.751   7.535
14226SOL    HW257223   6.257   6.697   7.522
14226SOL    HW357224   6.306   6.824   7.588
14226SOL    MW457225   6.321   6.753   7.540
14227SOL     OW57226   7.140   6.941   7.545
14227SOL    HW257227   7.087   6.990   7.481
14227SOL    HW357228   7.171   7.007   7.606
14227SOL    MW457229   7.138   6.955   7.543
14228SOL     OW57230   6.365   5.830   7.600
14228SOL    HW257231   6.313   5.750   7.588
14228SOL    HW357232   6.452   5.807   7.568
14228SOL    MW457233   6.368   5.816   7.594
14229SOL     OW57234   6.300   7.182   7.536
14229SOL    HW257235   6.240   7.251   7.506
14229SOL    HW357236   6.245   7.124   7.589
14229SOL    MW457237   6.284   7.184   7.538
14230SOL     OW57238   5.931   7.226   7.925
14230SOL    HW257239   5.892   7.273   7.851
14230SOL    HW357240   5.865   7.161   7.950
14230SOL    MW457241   5.918   7.224   7.919
14231SOL     OW57242   6.581   5.688   7.554
14231SOL    HW257243   6.637   5.680   7.476
14231SOL    HW357244   6.558   5.598   7.576
14231SOL    MW457245   6.586   5.675   7.547
14232SOL     OW57246   6.080   6.577   7.551
14232SOL    HW257247   6.003   6.590   7.607
14232SOL    HW357248   6.044   6.541   7.470
14232SOL    MW457249   6.066   6.573   7.548
14233SOL     OW57250   6.733   6.550   7.794
14233SOL    HW257251   6.643   6.571   7.769
14233SOL    HW357252   6.760   6.623   7.850
14233SOL    MW457253   6.725   6.562   7.797
14234SOL     OW57254   6.120   6.906   7.950
14234SOL    HW257255   6.113   6.938   8.040
14234SOL    HW357256   6.030   6.890   7.922
14234SOL    MW457257   6.108   6.908   7.957
14235SOL     OW57258   6.123   6.190   7.664
14235SOL    HW257259   6.089   6.246   7.734
14235SOL    HW357260   6.194   6.140   7.704
14235SOL    MW457261   6.129   6.191   7.678
14236SOL     OW57262   6.583   7.080   7.525
14236SOL    HW257263   6.610   7.158   7.477
14236SOL    HW357264   6.490   7.095   7.544
14236SOL    MW457265   6.574   7.093   7.521
14237SOL     OW57266   5.623   6.242   7.916
14237SOL    HW257267   5.563   6.214   7.986
14237SOL    HW357268   5.697   6.182   7.922
14237SOL    MW457269   5.625   6.231   7.925
14238SOL     OW57270   6.991   6.415   7.990
14238SOL    HW257271   6.906   6.385   7.960
14238SOL    HW357272   6.983   6.422   8.085
14238SOL    MW457273   6.979   6.413   7.999
14239SOL     OW57274   6.364   6.081   7.716
14239SOL    HW257275   6.437   6.130   7.679
14239SOL    HW357276   6.380   5.990   7.690
14239SOL    MW457277   6.376   6.076   7.709
14240SOL     OW57278   5.839   6.590   7.814
14240SOL    HW257279   5.776   6.606   7.743
14240SOL    HW357280   5.786   6.553   7.885
14240SOL    MW457281   5.824   6.587   7.814
14241SOL     OW57282   6.195   6.944   7.673
14241SOL    HW257283   6.210   6.920   7.765
14241SOL    HW357284   6.103   6.922   7.657
14241SOL    MW457285   6.185   6.937   7.683
14242SOL     OW57286   5.791   5.687   7.927
14242SOL    HW257287   5.862   5.708   7.866
14242SOL    HW357288   5.745   5.615   7.885
14242SOL    MW457289   5.795   5.681   7.913
14243SOL     OW57290   5.999   6.349   7.906
14243SOL    HW257291   5.999   6.444   7.891
14243SOL    HW357292   6.076   6.333   7.960
14243SOL    MW457293   6.009   6.360   7.911
14244SOL     OW57294   7.305   7.420   7.727
14244SOL    HW257295   7.372   7.453   7.667
14244SOL    HW357296   7.262   7.499   7.761
14244SOL    MW457297   7.307   7.435   7.723
14245SOL     OW57298   5.627   6.652   7.653
14245SOL    HW257299   5.596   6.717   7.716
14245SOL    HW357300   5.576   6.574   7.672
14245SOL    MW457301   5.617   6.649   7.663
14246SOL     OW57302   6.211   7.452   7.595
14246SOL    HW257303   6.116   7.452   7.587
14246SOL    HW357304   6.227   7.398   7.673
14246SOL    MW457305   6.201   7.446   7.604
14247SOL     OW57306   7.056   6.272   7.511
14247SOL    HW257307   6.984   6.248   7.453
14247SOL    HW357308   7.122   6.309   7.453
14247SOL    MW457309   7.055   6.274   7.496
14248SOL     OW57310   5.916   5.731   7.684
14248SOL    HW257311   5.845   5.786   7.652
14248SOL    HW357312   5.958   5.697   7.605
14248SOL    MW457313   5.912   5.733   7.670
14249SOL     OW57314   5.672   5.830   7.533
14249SOL    HW257315   5.639   5.909   7.577
14249SOL    HW357316   5.727   5.863   7.462
14249SOL    MW457317   5.675   5.844   7.530
14250SOL     OW57318   5.706   7.087   7.722
14250SOL    HW257319   5.723   7.171   7.764
14250SOL    HW357320   5.741   7.096   7.634
14250SOL    MW457321   5.711   7.100   7.716
14251SOL     OW57322   1.602   8.271   1.252
14251SOL    HW257323   1.557   8.338   1.303
14251SOL    HW357324   1.690   8.307   1.238
14251SOL    MW457325   1.608   8.284   1.256
14252SOL     OW57326   0.530   8.522   0.486
14252SOL    HW257327   0.620   8.497   0.470
14252SOL    HW357328   0.526   8.615   0.463
14252SOL    MW457329   0.542   8.531   0.481
14253SOL     OW57330   1.582   8.665   1.233
14253SOL    HW257331   1.503   8.630   1.191
14253SOL    HW357332   1.609   8.737   1.177
14253SOL    MW457333   1.575   8.670   1.220
14254SOL     OW57334   0.814   7.978   0.499
14254SOL    HW257335   0.789   8.066   0.527
14254SOL    HW357336   0.811   7.981   0.403
14254SOL    MW457337   0.810   7.990   0.491
14255SOL     OW57338   0.256   8.006   0.427
14255SOL    HW257339   0.288   8.094   0.409
14255SOL    HW357340   0.244   8.004   0.522
14255SOL    MW457341   0.259   8.018   0.439
14256SOL     OW57342   0.334   8.419   1.328
14256SOL    HW257343   0.397   8.366   1.279
14256SOL    HW357344   0.315   8.493   1.271
14256SOL    MW457345   0.340   8.421   1.315
14257SOL     OW57346   0.655   7.761   0.514
14257SOL    HW257347   0.713   7.837   0.516
14257SOL    HW357348   0.590   7.782   0.447
14257SOL    MW457349   0.654   7.773   0.505
14258SOL     OW57350   0.742   8.688   0.689
14258SOL    HW257351   0.822   8.691   0.741
14258SOL    HW357352   0.770   8.655   0.603
14258SOL    MW457353   0.756   8.684   0.684
14259SOL     OW57354   0.519   8.192   0.680
14259SOL    HW257355   0.504   8.112   0.731
14259SOL    HW357356   0.601   8.227   0.714
14259SOL    MW457357   0.527   8.184   0.692
14260SOL     OW57358   0.661   8.018   1.057
14260SOL    HW257359   0.567   8.014   1.075
14260SOL    HW357360   0.691   7.927   1.066
14260SOL    MW457361   0.652   8.006   1.060
14261SOL     OW57362   0.407   8.432   0.961
14261SOL    HW257363   0.362   8.439   0.877
14261SOL    HW357364   0.387   8.515   1.005
14261SOL    MW457365   0.399   8.444   0.955
14262SOL     OW57366   0.368   8.805   0.871
14262SOL    HW257367   0.344   8.858   0.947
14262SOL    HW357368   0.424   8.863   0.819
14262SOL    MW457369   0.372   8.820   0.874
14263SOL     OW57370   0.930   8.449   0.681
14263SOL    HW257371   0.844   8.436   0.721
14263SOL    HW357372   0.983   8.376   0.713
14263SOL    MW457373   0.926   8.438   0.690
14264SOL     OW57374   1.794   7.812   0.854
14264SOL    HW257375   1.731   7.792   0.923
14264SOL    HW357376   1.784   7.741   0.791
14264SOL    MW457377   1.784   7.799   0.855
14265SOL     OW57378   0.418   7.784   0.366
14265SOL    HW257379   0.392   7.746   0.282
14265SOL    HW357380   0.355   7.854   0.382
14265SOL    MW457381   0.407   7.787   0.357
14266SOL     OW57382   1.595   8.584   0.506
14266SOL    HW257383   1.505   8.584   0.541
14266SOL    HW357384   1.588   8.630   0.423
14266SOL    MW457385   1.582   8.590   0.500
14267SOL     OW57386   1.395   8.219   1.578
14267SOL    HW257387   1.464   8.157   1.555
14267SOL    HW357388   1.320   8.193   1.525
14267SOL    MW457389   1.395   8.206   1.569
14268SOL     OW57390   1.131   8.606   1.570
14268SOL    HW257391   1.116   8.699   1.555
14268SOL    HW357392   1.226   8.596   1.570
14268SOL    MW457393   1.140   8.616   1.567
14269SOL     OW57394   0.927   8.030   1.771
14269SOL    HW257395   1.017   8.031   1.738
14269SOL    HW357396   0.886   7.955   1.729
14269SOL    MW457397   0.933   8.020   1.762
14270SOL     OW57398   1.502   8.562   0.898
14270SOL    HW257399   1.505   8.496   0.829
14270SOL    HW357400   1.587   8.605   0.894
14270SOL    MW457401   1.514   8.558   0.889
14271SOL     OW57402   1.122   8.165   0.467
14271SOL    HW257403   1.148   8.189   0.378
14271SOL    HW357404   1.104   8.072   0.463
14271SOL    MW457405   1.124   8.157   0.454
14272SOL     OW57406   0.707   7.834   1.721
14272SOL    HW257407   0.717   7.760   1.661
14272SOL    HW357408   0.743   7.803   1.804
14272SOL    MW457409   0.713   7.820   1.723
14273SOL     OW57410   1.827   7.563   0.685
14273SOL    HW257411   1.881   7.514   0.747
14273SOL    HW357412   1.770   7.497   0.646
14273SOL    MW457413   1.827   7.547   0.687
14274SOL     OW57414   0.946   7.516   1.098
14274SOL    HW257415   0.905   7.594   1.060
14274SOL    HW357416   1.040   7.534   1.093
14274SOL    MW457417   0.952   7.528   1.093
14275SOL     OW57418   1.575   8.120   0.464
14275SOL    HW257419   1.614   8.120   0.551
14275SOL    HW357420   1.516   8.196   0.464
14275SOL    MW457421   1.572   8.131   0.475
14276SOL     OW57422   0.892   8.487   1.593
14276SOL    HW257423   0.869   8.467   1.683
14276SOL    HW357424   0.977   8.531   1.598
14276SOL    MW457425   0.899   8.490   1.605
14277SOL     OW57426   0.972   7.624   1.353
14277SOL    HW257427   0.978   7.586   1.266
14277SOL    HW357428   0.961   7.718   1.338
14277SOL    MW457429   0.973   7.632   1.341
14278SOL     OW57430   1.061   8.113   1.187
14278SOL    HW257431   1.136   8.142   1.134
14278SOL    HW357432   0.993   8.178   1.171
14278SOL    MW457433   1.062   8.125   1.177
14279SOL     OW57434   1.611   8.081   1.464
14279SOL    HW257435   1.592   7.990   1.443
14279SOL    HW357436   1.589   8.130   1.385
14279SOL    MW457437   1.606   8.074   1.451
14280SOL     OW57438   1.753   9.175   1.368
14280SOL    HW257439   1.681   9.137   1.419
14280SOL    HW357440   1.770   9.260   1.409
14280SOL    MW457441   1.747   9.180   1.380
14281SOL     OW57442   1.058   7.819   1.570
14281SOL    HW257443   1.024   7.858   1.489
14281SOL    HW357444   1.036   7.727   1.563
14281SOL    MW457445   1.051   7.812   1.560
14282SOL     OW57446   1.467   8.633   1.646
14282SOL    HW257447   1.549   8.674   1.676
14282SOL    HW357448   1.430   8.595   1.726
14282SOL    MW457449   1.473   8.634   1.661
14283SOL     OW57450   1.762   8.006   0.630
14283SOL    HW257451   1.851   7.975   0.647
14283SOL    HW357452   1.705   7.946   0.678
14283SOL    MW457453   1.765   7.994   0.639
14284SOL     OW57454   0.188   7.720   0.659
14284SOL    HW257455   0.179   7.660   0.585
14284SOL    HW357456   0.121   7.691   0.722
14284SOL    MW457457   0.178   7.707   0.657
14285SOL     OW57458   0.135   7.893   1.022
14285SOL    HW257459   0.107   7.984   1.031
14285SOL    HW357460   0.072   7.854   0.961
14285SOL    MW457461   0.122   7.899   1.016
14286SOL     OW57462   1.722   8.751   1.725
14286SOL    HW257463   1.772   8.677   1.757
14286SOL    HW357464   1.668   8.778   1.800
14286SOL    MW457465   1.722   8.745   1.738
14287SOL     OW57466   1.856   8.386   1.227
14287SOL    HW257467   1.872   8.424   1.140
14287SOL    HW357468   1.890   8.452   1.288
14287SOL    MW457469   1.863   8.399   1.223
14288SOL     OW57470   1.648   9.095   0.896
14288SOL    HW257471   1.677   9.162   0.957
14288SOL    HW357472   1.629   9.019   0.951
14288SOL    MW457473   1.650   9.095   0.911
14289SOL     OW57474   0.119   8.168   1.192
14289SOL    HW257475   0.181   8.198   1.258
14289SOL    HW357476   0.053   8.237   1.186
14289SOL    MW457477   0.118   8.181   1.199
14290SOL     OW57478   0.266   8.596   1.151
14290SOL    HW257479   0.319   8.671   1.176
14290SOL    HW357480   0.185   8.634   1.117
14290SOL    MW457481   0.262   8.611   1.151
14291SOL     OW57482   0.806   8.500   1.139
14291SOL    HW257483   0.834   8.409   1.151
14291SOL    HW357484   0.735   8.494   1.075
14291SOL    MW457485   0.799   8.488   1.134
14292SOL     OW57486   0.121   8.365   0.557
14292SOL    HW257487   0.212   8.380   0.584
14292SOL    HW357488   0.124   8.286   0.503
14292SOL    MW457489   0.133   8.357   0.555
14293SOL     OW57490   0.357   8.073   1.811
14293SOL    HW257491   0.304   8.153   1.818
14293SOL    HW357492   0.427   8.085   1.876
14293SOL    MW457493   0.359   8.086   1.819
14294SOL     OW57494   0.743   7.623   1.518
14294SOL    HW257495   0.720   7.531   1.520
14294SOL    HW357496   0.829   7.625   1.475
14294SOL    MW457497   0.750   7.613   1.514
14295SOL     OW57498   0.427   8.147   1.557
14295SOL    HW257499   0.507   8.197   1.543
14295SOL    HW357500   0.418   8.141   1.652
14295SOL    MW457501   0.436   8.153   1.567
14296SOL     OW57502   1.404   7.672   1.828
14296SOL    HW257503   1.460   7.599   1.854
14296SOL    HW357504   1.374   7.710   1.910
14296SOL    MW457505   1.408   7.667   1.841
14297SOL     OW57506   1.794   8.165   0.945
14297SOL    HW257507   1.883   8.195   0.927
14297SOL    HW357508   1.774   8.105   0.874
14297SOL    MW457509   1.803   8.162   0.934
14298SOL     OW57510   1.645   8.344   1.825
14298SOL    HW257511   1.700   8.268   1.806
14298SOL    HW357512   1.647   8.352   1.920
14298SOL    MW457513   1.653   8.335   1.833
14299SOL     OW57514   0.940   7.906   1.344
14299SOL    HW257515   0.859   7.947   1.372
14299SOL    HW357516   0.987   7.974   1.296
14299SOL    MW457517   0.935   7.921   1.342
14300SOL     OW57518   1.200   8.244   0.967
14300SOL    HW257519   1.213   8.338   0.977
14300SOL    HW357520   1.161   8.234   0.881
14300SOL    MW457521   1.196   8.255   0.957
14301SOL     OW57522   0.652   8.439   0.771
14301SOL    HW257523   0.563   8.430   0.804
14301SOL    HW357524   0.656   8.529   0.739
14301SOL    MW457525   0.641   8.450   0.771
14302SOL     OW57526   1.451   8.022   0.766
14302SOL    HW257527   1.396   7.943   0.765
14302SOL    HW357528   1.433   8.063   0.850
14302SOL    MW457529   1.441   8.017   0.775
14303SOL     OW57530   0.422   7.709   1.583
14303SOL    HW257531   0.343   7.727   1.635
14303SOL    HW357532   0.417   7.771   1.510
14303SOL    MW457533   0.412   7.719   1.580
14304SOL     OW57534   1.070   8.226   0.723
14304SOL    HW257535   1.007   8.158   0.747
14304SOL    HW357536   1.090   8.207   0.631
14304SOL    MW457537   1.064   8.213   0.715
14305SOL     OW57538   0.818   8.530   0.449
14305SOL    HW257539   0.820   8.504   0.356
14305SOL    HW357540   0.876   8.467   0.492
14305SOL    MW457541   0.826   8.519   0.443
14306SOL     OW57542   1.328   7.774   0.782
14306SOL    HW257543   1.356   7.706   0.843
14306SOL    HW357544   1.242   7.745   0.752
14306SOL    MW457545   1.321   7.761   0.786
14307SOL     OW57546   0.133   8.708   0.716
14307SOL    HW257547   0.197   8.740   0.779
14307SOL    HW357548   0.182   8.644   0.664
14307SOL    MW457549   0.148   8.704   0.717
14308SOL     OW57550   0.633   8.784   1.698
14308SOL    HW257551   0.681   8.867   1.685
14308SOL    HW357552   0.690   8.732   1.754
14308SOL    MW457553   0.647   8.788   1.704
14309SOL     OW57554   0.387   7.531   1.789
14309SOL    HW257555   0.315   7.496   1.737
14309SOL    HW357556   0.445   7.572   1.724
14309SOL    MW457557   0.385   7.532   1.774
14310SOL     OW57558   1.851   8.550   1.442
14310SOL    HW257559   1.766   8.563   1.401
14310SOL    HW357560   1.831   8.514   1.529
14310SOL    MW457561   1.838   8.546   1.447
14311SOL     OW57562   0.628   8.794   0.986
14311SOL    HW257563   0.621   8.773   1.080
14311SOL    HW357564   0.546   8.762   0.949
14311SOL    MW457565   0.616   8.788   0.993
14312SOL     OW57566   1.492   7.804   1.388
14312SOL    HW257567   1.439   7.806   1.468
14312SOL    HW357568   1.477   7.717   1.351
14312SOL    MW457569   1.484   7.794   1.393
14313SOL     OW57570   1.828   7.728   1.261
14313SOL    HW257571   1.809   7.795   1.196
14313SOL    HW357572   1.885   7.666   1.216
14313SOL    MW457573   1.832   7.729   1.247
14314SOL     OW57574   0.757   7.561   0.701
14314SOL    HW257575   0.686   7.622   0.683
14314SOL    HW357576   0.808   7.558   0.620
14314SOL    MW457577   0.753   7.567   0.688
14315SOL     OW57578   1.504   8.430   1.464
14315SOL    HW257579   1.509   8.483   1.544
14315SOL    HW357580   1.466   8.347   1.492
14315SOL    MW457581   1.500   8.425   1.479
14316SOL     OW57582   1.144   7.565   1.710
14316SOL    HW257583   1.139   7.472   1.691
14316SOL    HW357584   1.227   7.576   1.756
14316SOL    MW457585   1.152   7.554   1.714
14317SOL     OW57586   0.518   8.085   0.164
14317SOL    HW257587   0.484   8.141   0.234
14317SOL    HW357588   0.589   8.035   0.204
14317SOL    MW457589   0.524   8.086   0.178
14318SOL     OW57590   1.614   8.836   0.986
14318SOL    HW257591   1.649   8.818   0.899
14318SOL    HW357592   1.519   8.837   0.973
14318SOL    MW457593   1.606   8.833   0.973
14319SOL     OW57594   1.043   8.484   1.355
14319SOL    HW257595   1.086   8.519   1.433
14319SOL    HW357596   1.026   8.561   1.301
14319SOL    MW457597   1.046   8.499   1.358
14320SOL     OW57598   0.434   7.626   0.657
14320SOL    HW257599   0.484   7.669   0.588
14320SOL    HW357600   0.349   7.670   0.657
14320SOL    MW457601   0.431   7.639   0.648
14321SOL     OW57602   0.193   8.688   1.517
14321SOL    HW257603   0.221   8.641   1.595
14321SOL    HW357604   0.114   8.643   1.488
14321SOL    MW457605   0.186   8.677   1.523
14322SOL     OW57606   0.701   8.015   1.484
14322SOL    HW257607   0.673   8.103   1.508
14322SOL    HW357608   0.670   7.959   1.555
14322SOL    MW457609   0.693   8.018   1.496
14323SOL     OW57610   0.356   8.411   0.697
14323SOL    HW257611   0.414   8.467   0.645
14323SOL    HW357612   0.400   8.326   0.699
14323SOL    MW457613   0.369   8.408   0.690
14324SOL     OW57614   1.496   7.763   0.534
14324SOL    HW257615   1.418   7.713   0.559
14324SOL    HW357616   1.467   7.854   0.534
14324SOL    MW457617   1.482   7.767   0.537
14325SOL     OW57618   1.082   7.725   0.693
14325SOL    HW257619   1.102   7.800   0.637
14325SOL    HW357620   1.062   7.764   0.778
14325SOL    MW457621   1.083   7.741   0.697
14326SOL     OW57622   0.978   8.975   0.025
14326SOL    HW257623   1.005   9.053  -0.023
14326SOL    HW357624   0.885   8.990   0.044
14326SOL    MW457625   0.969   8.988   0.021
14327SOL     OW57626   1.842   8.498   1.712
14327SOL    HW257627   1.755   8.478   1.748
14327SOL    HW357628   1.896   8.424   1.737
14327SOL    MW457629   1.837   8.487   1.720
14328SOL     OW57630   0.018   8.137   0.416
14328SOL    HW257631  -0.042   8.109   0.486
14328SOL    HW357632   0.092   8.077   0.422
14328SOL    MW457633   0.020   8.126   0.425
14329SOL     OW57634   0.444   7.876   1.305
14329SOL    HW257635   0.477   7.957   1.345
14329SOL    HW357636   0.417   7.902   1.217
14329SOL    MW457637   0.443   7.890   1.299
14330SOL     OW57638   0.398   7.843   1.041
14330SOL    HW257639   0.428   7.757   1.012
14330SOL    HW357640   0.303   7.836   1.044
14330SOL    MW457641   0.390   7.832   1.039
14331SOL     OW57642   1.227   8.052   1.732
14331SOL    HW257643   1.279   7.987   1.685
14331SOL    HW357644   1.185   8.103   1.662
14331SOL    MW457645   1.228   8.049   1.715
14332SOL     OW57646   1.326   7.847   1.593
14332SOL    HW257647   1.233   7.831   1.580
14332SOL    HW357648   1.352   7.785   1.661
14332SOL    MW457649   1.316   7.837   1.600
14333SOL     OW57650   0.541   7.621   0.932
14333SOL    HW257651   0.551   7.530   0.958
14333SOL    HW357652   0.497   7.617   0.847
14333SOL    MW457653   0.537   7.609   0.924
14334SOL     OW57654   1.692   7.943   1.103
14334SOL    HW257655   1.625   7.976   1.163
14334SOL    HW357656   1.735   8.021   1.069
14334SOL    MW457657   1.690   7.958   1.107
14335SOL     OW57658   1.870   8.663   1.073
14335SOL    HW257659   1.863   8.603   0.998
14335SOL    HW357660   1.796   8.723   1.062
14335SOL    MW457661   1.860   8.663   1.062
14336SOL     OW57662   1.252   8.525   0.991
14336SOL    HW257663   1.266   8.497   1.082
14336SOL    HW357664   1.338   8.556   0.963
14336SOL    MW457665   1.265   8.526   1.000
14337SOL     OW57666   1.335   8.020   1.270
14337SOL    HW257667   1.356   8.021   1.177
14337SOL    HW357668   1.380   7.942   1.303
14337SOL    MW457669   1.342   8.010   1.262
14338SOL     OW57670   1.828   8.151   1.812
14338SOL    HW257671   1.865   8.096   1.881
14338SOL    HW357672   1.853   8.108   1.730
14338SOL    MW457673   1.835   8.139   1.811
14339SOL     OW57674   1.375   8.449   1.863
14339SOL    HW257675   1.441   8.397   1.817
14339SOL    HW357676   1.395   8.436   1.956
14339SOL    MW457677   1.386   8.440   1.870
14340SOL     OW57678   1.386   8.310   0.490
14340SOL    HW257679   1.301   8.280   0.460
14340SOL    HW357680   1.378   8.317   0.585
14340SOL    MW457681   1.374   8.308   0.499
14341SOL     OW57682   0.462   8.773   1.221
14341SOL    HW257683   0.474   8.800   1.312
14341SOL    HW357684   0.443   8.854   1.174
14341SOL    MW457685   0.461   8.788   1.226
14342SOL     OW57686   0.746   7.753   1.044
14342SOL    HW257687   0.719   7.755   1.135
14342SOL    HW357688   0.676   7.705   0.999
14342SOL    MW457689   0.734   7.749   1.051
14343SOL     OW57690   1.502   8.830   1.438
14343SOL    HW257691   1.487   8.759   1.501
14343SOL    HW357692   1.548   8.788   1.366
14343SOL    MW457693   1.508   8.814   1.438
14344SOL     OW57694   0.576   8.561   1.555
14344SOL    HW257695   0.613   8.566   1.467
14344SOL    HW357696   0.615   8.634   1.602
14344SOL    MW457697   0.586   8.571   1.550
14345SOL     OW57698   0.756   8.604   1.367
14345SOL    HW257699   0.815   8.550   1.420
14345SOL    HW357700   0.771   8.576   1.277
14345SOL    MW457701   0.766   8.593   1.363
14346SOL     OW57702   1.567   9.093   1.539
14346SOL    HW257703   1.609   9.078   1.624
14346SOL    HW357704   1.558   9.006   1.501
14346SOL    MW457705   1.571   9.081   1.546
14347SOL     OW57706   1.227   7.572   1.130
14347SOL    HW257707   1.282   7.581   1.052
14347SOL    HW357708   1.282   7.606   1.201
14347SOL    MW457709   1.241   7.577   1.129
14348SOL     OW57710   0.234   8.485   0.314
14348SOL    HW257711   0.171   8.501   0.243
14348SOL    HW357712   0.181   8.448   0.385
14348SOL    MW457713   0.219   8.482   0.314
14349SOL     OW57714   1.129   9.070   0.325
14349SOL    HW257715   1.137   8.988   0.276
14349SOL    HW357716   1.048   9.109   0.292
14349SOL    MW457717   1.119   9.065   0.315
14350SOL     OW57718   1.005   8.706   1.137
14350SOL    HW257719   0.937   8.640   1.153
14350SOL    HW357720   1.023   8.700   1.044
14350SOL    MW457721   0.998   8.697   1.128
14351SOL     OW57722   0.998   7.845   0.958
14351SOL    HW257723   0.928   7.797   1.003
14351SOL    HW357724   1.030   7.908   1.022
14351SOL    MW457725   0.993   7.847   0.972
14352SOL     OW57726   0.649   8.281   1.578
14352SOL    HW257727   0.642   8.376   1.566
14352SOL    HW357728   0.658   8.270   1.673
14352SOL    MW457729   0.650   8.293   1.588
14353SOL     OW57730   1.454   7.559   1.303
14353SOL    HW257731   1.525   7.505   1.267
14353SOL    HW357732   1.453   7.538   1.396
14353SOL    MW457733   1.463   7.550   1.311
14354SOL     OW57734   1.654   9.089   1.787
14354SOL    HW257735   1.627   9.086   1.878
14354SOL    HW357736   1.750   9.093   1.790
14354SOL    MW457737   1.664   9.089   1.799
14355SOL     OW57738   0.465   7.951   0.771
14355SOL    HW257739   0.536   7.899   0.734
14355SOL    HW357740   0.451   7.916   0.858
14355SOL    MW457741   0.473   7.940   0.778
14356SOL     OW57742   1.101   7.892   0.495
14356SOL    HW257743   1.123   7.829   0.427
14356SOL    HW357744   1.006   7.884   0.506
14356SOL    MW457745   1.091   7.883   0.487
14357SOL     OW57746   0.186   7.582   0.427
14357SOL    HW257747   0.257   7.603   0.366
14357SOL    HW357748   0.140   7.510   0.385
14357SOL    MW457749   0.190   7.576   0.413
14358SOL     OW57750   0.017   8.049   1.570
14358SOL    HW257751   0.081   8.115   1.545
14358SOL    HW357752  -0.064   8.076   1.527
14358SOL    MW457753   0.015   8.061   1.562
14359SOL     OW57754   1.755   8.956   0.527
14359SOL    HW257755   1.725   8.889   0.588
14359SOL    HW357756   1.849   8.962   0.541
14359SOL    MW457757   1.763   8.948   0.537
14360SOL     OW57758   0.973   7.553   0.510
14360SOL    HW257759   1.010   7.612   0.575
14360SOL    HW357760   0.950   7.609   0.436
14360SOL    MW457761   0.974   7.568   0.509
14361SOL     OW57762   1.826   8.435   0.932
14361SOL    HW257763   1.817   8.467   0.843
14361SOL    HW357764   1.779   8.351   0.932
14361SOL    MW457765   1.819   8.428   0.922
14362SOL     OW57766   0.202   8.275   1.511
14362SOL    HW257767   0.223   8.344   1.449
14362SOL    HW357768   0.282   8.222   1.516
14362SOL    MW457769   0.215   8.276   1.505
14363SOL     OW57770   1.738   8.366   0.633
14363SOL    HW257771   1.832   8.355   0.621
14363SOL    HW357772   1.714   8.438   0.574
14363SOL    MW457773   1.748   8.374   0.624
14364SOL     OW57774   0.187   8.290   1.778
14364SOL    HW257775   0.113   8.234   1.804
14364SOL    HW357776   0.182   8.293   1.683
14364SOL    MW457777   0.176   8.283   1.768
14365SOL     OW57778   0.353   7.577   1.228
14365SOL    HW257779   0.396   7.661   1.248
14365SOL    HW357780   0.426   7.515   1.221
14365SOL    MW457781   0.368   7.580   1.229
14366SOL     OW57782   0.394   8.244   0.406
14366SOL    HW257783   0.394   8.339   0.391
14366SOL    HW357784   0.471   8.228   0.460
14366SOL    MW457785   0.404   8.255   0.411
14367SOL     OW57786   1.170   8.103   1.470
14367SOL    HW257787   1.206   8.076   1.386
14367SOL    HW357788   1.083   8.137   1.449
14367SOL    MW457789   1.164   8.104   1.457
14368SOL     OW57790   0.153   7.975   0.695
14368SOL    HW257791   0.215   7.982   0.768
14368SOL    HW357792   0.153   7.882   0.672
14368SOL    MW457793   0.161   7.964   0.702
14369SOL     OW57794   0.835   8.236   1.179
14369SOL    HW257795   0.793   8.154   1.155
14369SOL    HW357796   0.836   8.235   1.275
14369SOL    MW457797   0.828   8.225   1.188
14370SOL     OW57798   0.639   7.706   1.284
14370SOL    HW257799   0.570   7.769   1.305
14370SOL    HW357800   0.666   7.670   1.369
14370SOL    MW457801   0.633   7.709   1.297
14371SOL     OW57802   0.022   8.547   0.153
14371SOL    HW257803  -0.009   8.612   0.216
14371SOL    HW357804  -0.029   8.469   0.172
14371SOL    MW457805   0.012   8.544   0.163
14372SOL     OW57806   1.434   7.559   0.901
14372SOL    HW257807   1.522   7.568   0.938
14372SOL    HW357808   1.444   7.500   0.827
14372SOL    MW457809   1.448   7.553   0.895
14373SOL     OW57810   1.466   8.298   0.745
14373SOL    HW257811   1.546   8.313   0.694
14373SOL    HW357812   1.459   8.203   0.751
14373SOL    MW457813   1.475   8.287   0.740
14374SOL     OW57814   0.916   8.224   1.442
14374SOL    HW257815   0.985   8.291   1.439
14374SOL    HW357816   0.849   8.262   1.498
14374SOL    MW457817   0.917   8.237   1.449
14375SOL     OW57818   0.334   8.524   1.690
14375SOL    HW257819   0.288   8.440   1.692
14375SOL    HW357820   0.391   8.518   1.614
14375SOL    MW457821   0.336   8.512   1.682
14376SOL     OW57822   0.585   8.899   0.691
14376SOL    HW257823   0.650   8.832   0.712
14376SOL    HW357824   0.637   8.976   0.668
14376SOL    MW457825   0.600   8.901   0.690
14377SOL     OW57826   0.846   8.064   0.821
14377SOL    HW257827   0.786   8.082   0.893
14377SOL    HW357828   0.880   7.976   0.840
14377SOL    MW457829   0.842   8.054   0.834
14378SOL     OW57830   1.787   7.563   1.490
14378SOL    HW257831   1.708   7.609   1.518
14378SOL    HW357832   1.822   7.617   1.419
14378SOL    MW457833   1.781   7.576   1.484
14379SOL     OW57834   1.071   8.647   0.840
14379SOL    HW257835   1.163   8.628   0.858
14379SOL    HW357836   1.044   8.577   0.780
14379SOL    MW457837   1.079   8.635   0.834
14380SOL     OW57838   1.345   8.885   0.936
14380SOL    HW257839   1.318   8.969   0.901
14380SOL    HW357840   1.305   8.880   1.023
14380SOL    MW457841   1.338   8.894   0.942
14381SOL     OW57842   1.264   8.833   1.204
14381SOL    HW257843   1.275   8.800   1.293
14381SOL    HW357844   1.183   8.792   1.173
14381SOL    MW457845   1.254   8.825   1.210
14382SOL     OW57846   0.277   8.191   0.974
14382SOL    HW257847   0.227   8.190   1.055
14382SOL    HW357848   0.297   8.283   0.958
14382SOL    MW457849   0.273   8.203   0.982
14383SOL     OW57850   1.344   8.955   1.736
14383SOL    HW257851   1.344   9.049   1.752
14383SOL    HW357852   1.389   8.945   1.652
14383SOL    MW457853   1.350   8.965   1.727
14384SOL     OW57854   0.199   7.859   1.715
14384SOL    HW257855   0.156   7.918   1.652
14384SOL    HW357856   0.267   7.914   1.755
14384SOL    MW457857   0.203   7.874   1.712
14385SOL     OW57858   1.311   8.479   1.260
14385SOL    HW257859   1.374   8.476   1.333
14385SOL    HW357860   1.227   8.497   1.302
14385SOL    MW457861   1.307   8.481   1.275
14386SOL     OW57862   1.650   7.656   1.039
14386SOL    HW257863   1.695   7.574   1.058
14386SOL    HW357864   1.670   7.712   1.115
14386SOL    MW457865   1.660   7.652   1.051
14387SOL     OW57866   0.098   7.499   1.138
14387SOL    HW257867   0.089   7.500   1.043
14387SOL    HW357868   0.192   7.511   1.153
14387SOL    MW457869   0.110   7.502   1.129
14388SOL     OW57870   1.735   8.692   0.758
14388SOL    HW257871   1.714   8.638   0.681
14388SOL    HW357872   1.831   8.690   0.762
14388SOL    MW457873   1.744   8.685   0.747
14389SOL     OW57874   0.427   8.837   1.501
14389SOL    HW257875   0.348   8.787   1.524
14389SOL    HW357876   0.497   8.796   1.551
14389SOL    MW457877   0.425   8.825   1.511
14390SOL     OW57878   0.311   7.626   0.184
14390SOL    HW257879   0.240   7.681   0.152
14390SOL    HW357880   0.353   7.592   0.105
14390SOL    MW457881   0.307   7.628   0.170
14391SOL     OW57882   1.435   8.123   1.020
14391SOL    HW257883   1.358   8.169   0.986
14391SOL    HW357884   1.492   8.192   1.054
14391SOL    MW457885   1.432   8.138   1.020
14392SOL     OW57886   0.067   7.725   0.033
14392SOL    HW257887   0.034   7.804   0.077
14392SOL    HW357888   0.122   7.758  -0.038
14392SOL    MW457889   0.070   7.739   0.030
14393SOL     OW57890   1.736   8.339   2.125
14393SOL    HW257891   1.777   8.281   2.190
14393SOL    HW357892   1.643   8.331   2.142
14393SOL    MW457893   1.730   8.331   2.135
14394SOL     OW57894   1.602   8.271   3.120
14394SOL    HW257895   1.557   8.338   3.171
14394SOL    HW357896   1.690   8.307   3.106
14394SOL    MW457897   1.608   8.284   3.124
14395SOL     OW57898   0.530   8.522   2.354
14395SOL    HW257899   0.620   8.497   2.338
14395SOL    HW357900   0.526   8.615   2.331
14395SOL    MW457901   0.542   8.531   2.349
14396SOL     OW57902   1.582   8.665   3.101
14396SOL    HW257903   1.503   8.630   3.059
14396SOL    HW357904   1.609   8.737   3.045
14396SOL    MW457905   1.575   8.670   3.088
14397SOL     OW57906   0.814   7.978   2.367
14397SOL    HW257907   0.789   8.066   2.395
14397SOL    HW357908   0.811   7.981   2.271
14397SOL    MW457909   0.810   7.990   2.359
14398SOL     OW57910   0.256   8.006   2.295
14398SOL    HW257911   0.288   8.094   2.277
14398SOL    HW357912   0.244   8.004   2.390
14398SOL    MW457913   0.259   8.018   2.307
14399SOL     OW57914   0.334   8.419   3.196
14399SOL    HW257915   0.397   8.366   3.147
14399SOL    HW357916   0.315   8.493   3.139
14399SOL    MW457917   0.340   8.421   3.183
14400SOL     OW57918   0.655   7.761   2.382
14400SOL    HW257919   0.713   7.837   2.384
14400SOL    HW357920   0.590   7.782   2.315
14400SOL    MW457921   0.654   7.773   2.373
14401SOL     OW57922   0.742   8.688   2.557
14401SOL    HW257923   0.822   8.691   2.609
14401SOL    HW357924   0.770   8.655   2.471
14401SOL    MW457925   0.756   8.684   2.552
14402SOL     OW57926   0.519   8.192   2.548
14402SOL    HW257927   0.504   8.112   2.599
14402SOL    HW357928   0.601   8.227   2.582
14402SOL    MW457929   0.527   8.184   2.560
14403SOL     OW57930   0.661   8.018   2.925
14403SOL    HW257931   0.567   8.014   2.943
14403SOL    HW357932   0.691   7.927   2.934
14403SOL    MW457933   0.652   8.006   2.928
14404SOL     OW57934   0.407   8.432   2.829
14404SOL    HW257935   0.362   8.439   2.745
14404SOL    HW357936   0.387   8.515   2.873
14404SOL    MW457937   0.399   8.444   2.823
14405SOL     OW57938   1.369   8.670   2.073
14405SOL    HW257939   1.287   8.706   2.039
14405SOL    HW357940   1.437   8.713   2.022
14405SOL    MW457941   1.367   8.680   2.061
14406SOL     OW57942   0.368   8.805   2.739
14406SOL    HW257943   0.344   8.858   2.815
14406SOL    HW357944   0.424   8.863   2.687
14406SOL    MW457945   0.372   8.820   2.742
14407SOL     OW57946   0.930   8.449   2.549
14407SOL    HW257947   0.844   8.436   2.589
14407SOL    HW357948   0.983   8.376   2.581
14407SOL    MW457949   0.926   8.438   2.558
14408SOL     OW57950   0.921   8.811   2.266
14408SOL    HW257951   0.898   8.873   2.334
14408SOL    HW357952   0.878   8.729   2.292
14408SOL    MW457953   0.913   8.807   2.277
14409SOL     OW57954   1.794   7.812   2.722
14409SOL    HW257955   1.731   7.792   2.791
14409SOL    HW357956   1.784   7.741   2.659
14409SOL    MW457957   1.784   7.799   2.723
14410SOL     OW57958   0.418   7.784   2.234
14410SOL    HW257959   0.392   7.746   2.150
14410SOL    HW357960   0.355   7.854   2.250
14410SOL    MW457961   0.407   7.787   2.225
14411SOL     OW57962   0.253   8.745   2.271
14411SOL    HW257963   0.201   8.813   2.227
14411SOL    HW357964   0.250   8.671   2.211
14411SOL    MW457965   0.245   8.744   2.258
14412SOL     OW57966   1.850   7.981   2.024
14412SOL    HW257967   1.759   7.983   2.052
14412SOL    HW357968   1.895   8.043   2.082
14412SOL    MW457969   1.843   7.989   2.034
14413SOL     OW57970   1.595   8.584   2.374
14413SOL    HW257971   1.505   8.584   2.409
14413SOL    HW357972   1.588   8.630   2.291
14413SOL    MW457973   1.582   8.590   2.368
14414SOL     OW57974   1.395   8.219   3.446
14414SOL    HW257975   1.464   8.157   3.423
14414SOL    HW357976   1.320   8.193   3.393
14414SOL    MW457977   1.395   8.206   3.437
14415SOL     OW57978   1.131   8.606   3.438
14415SOL    HW257979   1.116   8.699   3.423
14415SOL    HW357980   1.226   8.596   3.438
14415SOL    MW457981   1.140   8.616   3.435
14416SOL     OW57982   0.927   8.030   3.639
14416SOL    HW257983   1.017   8.031   3.606
14416SOL    HW357984   0.886   7.955   3.597
14416SOL    MW457985   0.933   8.020   3.630
14417SOL     OW57986   1.502   8.562   2.766
14417SOL    HW257987   1.505   8.496   2.697
14417SOL    HW357988   1.587   8.605   2.762
14417SOL    MW457989   1.514   8.558   2.757
14418SOL     OW57990   1.122   8.165   2.335
14418SOL    HW257991   1.148   8.189   2.246
14418SOL    HW357992   1.104   8.072   2.331
14418SOL    MW457993   1.124   8.157   2.322
14419SOL     OW57994   1.787   8.785   2.186
14419SOL    HW257995   1.743   8.826   2.261
14419SOL    HW357996   1.844   8.853   2.151
14419SOL    MW457997   1.789   8.799   2.191
14420SOL     OW57998   0.707   7.834   3.589
14420SOL    HW257999   0.717   7.760   3.529
14420SOL    HW358000   0.743   7.803   3.672
14420SOL    MW458001   0.713   7.820   3.591
14421SOL     OW58002   1.827   7.563   2.553
14421SOL    HW258003   1.881   7.514   2.615
14421SOL    HW358004   1.770   7.497   2.514
14421SOL    MW458005   1.827   7.547   2.555
14422SOL     OW58006   0.946   7.516   2.966
14422SOL    HW258007   0.905   7.594   2.928
14422SOL    HW358008   1.040   7.534   2.961
14422SOL    MW458009   0.952   7.528   2.961
14423SOL     OW58010   1.563   9.069   2.052
14423SOL    HW258011   1.611   9.138   2.098
14423SOL    HW358012   1.484   9.113   2.021
14423SOL    MW458013   1.558   9.083   2.055
14424SOL     OW58014   0.961   8.194   1.996
14424SOL    HW258015   0.963   8.141   1.917
14424SOL    HW358016   1.049   8.231   2.002
14424SOL    MW458017   0.973   8.193   1.985
14425SOL     OW58018   1.575   8.120   2.332
14425SOL    HW258019   1.614   8.120   2.419
14425SOL    HW358020   1.516   8.196   2.332
14425SOL    MW458021   1.572   8.131   2.343
14426SOL     OW58022   0.892   8.487   3.461
14426SOL    HW258023   0.869   8.467   3.551
14426SOL    HW358024   0.977   8.531   3.466
14426SOL    MW458025   0.899   8.490   3.473
14427SOL     OW58026   0.972   7.624   3.221
14427SOL    HW258027   0.978   7.586   3.134
14427SOL    HW358028   0.961   7.718   3.206
14427SOL    MW458029   0.973   7.632   3.209
14428SOL     OW58030   1.061   8.113   3.055
14428SOL    HW258031   1.136   8.142   3.002
14428SOL    HW358032   0.993   8.178   3.039
14428SOL    MW458033   1.062   8.125   3.045
14429SOL     OW58034   1.611   8.081   3.332
14429SOL    HW258035   1.592   7.990   3.311
14429SOL    HW358036   1.589   8.130   3.253
14429SOL    MW458037   1.606   8.074   3.319
14430SOL     OW58038   1.753   9.175   3.236
14430SOL    HW258039   1.681   9.137   3.287
14430SOL    HW358040   1.770   9.260   3.277
14430SOL    MW458041   1.747   9.180   3.248
14431SOL     OW58042   1.058   7.819   3.438
14431SOL    HW258043   1.024   7.858   3.357
14431SOL    HW358044   1.036   7.727   3.431
14431SOL    MW458045   1.051   7.812   3.428
14432SOL     OW58046   1.467   8.633   3.514
14432SOL    HW258047   1.549   8.674   3.544
14432SOL    HW358048   1.430   8.595   3.594
14432SOL    MW458049   1.473   8.634   3.529
14433SOL     OW58050   1.762   8.006   2.498
14433SOL    HW258051   1.851   7.975   2.515
14433SOL    HW358052   1.705   7.946   2.546
14433SOL    MW458053   1.765   7.994   2.507
14434SOL     OW58054   0.188   7.720   2.527
14434SOL    HW258055   0.179   7.660   2.453
14434SOL    HW358056   0.121   7.691   2.590
14434SOL    MW458057   0.178   7.707   2.525
14435SOL     OW58058   1.131   8.813   2.088
14435SOL    HW258059   1.081   8.815   2.170
14435SOL    HW358060   1.065   8.831   2.020
14435SOL    MW458061   1.117   8.815   2.090
14436SOL     OW58062   0.135   7.893   2.890
14436SOL    HW258063   0.107   7.984   2.899
14436SOL    HW358064   0.072   7.854   2.829
14436SOL    MW458065   0.122   7.899   2.884
14437SOL     OW58066   1.722   8.751   3.593
14437SOL    HW258067   1.772   8.677   3.625
14437SOL    HW358068   1.668   8.778   3.668
14437SOL    MW458069   1.722   8.745   3.606
14438SOL     OW58070   0.730   8.646   1.903
14438SOL    HW258071   0.652   8.592   1.890
14438SOL    HW358072   0.701   8.719   1.956
14438SOL    MW458073   0.716   8.648   1.908
14439SOL     OW58074   1.856   8.386   3.095
14439SOL    HW258075   1.872   8.424   3.008
14439SOL    HW358076   1.890   8.452   3.156
14439SOL    MW458077   1.863   8.399   3.091
14440SOL     OW58078   1.648   9.095   2.764
14440SOL    HW258079   1.677   9.162   2.825
14440SOL    HW358080   1.629   9.019   2.819
14440SOL    MW458081   1.650   9.095   2.779
14441SOL     OW58082   1.311   9.162   1.971
14441SOL    HW258083   1.237   9.125   2.021
14441SOL    HW358084   1.319   9.252   2.004
14441SOL    MW458085   1.302   9.169   1.983
14442SOL     OW58086   0.119   8.168   3.060
14442SOL    HW258087   0.181   8.198   3.126
14442SOL    HW358088   0.053   8.237   3.054
14442SOL    MW458089   0.118   8.181   3.067
14443SOL     OW58090   1.535   8.836   1.913
14443SOL    HW258091   1.482   8.885   1.849
14443SOL    HW358092   1.566   8.902   1.974
14443SOL    MW458093   1.533   8.850   1.911
14444SOL     OW58094   0.760   7.725   1.968
14444SOL    HW258095   0.708   7.645   1.956
14444SOL    HW358096   0.847   7.702   1.936
14444SOL    MW458097   0.763   7.711   1.962
14445SOL     OW58098   0.266   8.596   3.019
14445SOL    HW258099   0.319   8.671   3.044
14445SOL    HW358100   0.185   8.634   2.985
14445SOL    MW458101   0.262   8.611   3.019
14446SOL     OW58102   0.806   8.500   3.007
14446SOL    HW258103   0.834   8.409   3.019
14446SOL    HW358104   0.735   8.494   2.943
14446SOL    MW458105   0.799   8.488   3.002
14447SOL     OW58106   0.121   8.365   2.425
14447SOL    HW258107   0.212   8.380   2.452
14447SOL    HW358108   0.124   8.286   2.371
14447SOL    MW458109   0.133   8.357   2.423
14448SOL     OW58110   0.357   8.073   3.679
14448SOL    HW258111   0.304   8.153   3.686
14448SOL    HW358112   0.427   8.085   3.744
14448SOL    MW458113   0.359   8.086   3.687
14449SOL     OW58114   0.743   7.623   3.386
14449SOL    HW258115   0.720   7.531   3.388
14449SOL    HW358116   0.829   7.625   3.343
14449SOL    MW458117   0.750   7.613   3.382
14450SOL     OW58118   0.427   8.147   3.425
14450SOL    HW258119   0.507   8.197   3.411
14450SOL    HW358120   0.418   8.141   3.520
14450SOL    MW458121   0.436   8.153   3.435
14451SOL     OW58122   1.404   7.672   3.696
14451SOL    HW258123   1.460   7.599   3.722
14451SOL    HW358124   1.374   7.710   3.778
14451SOL    MW458125   1.408   7.667   3.709
14452SOL     OW58126   1.794   8.165   2.813
14452SOL    HW258127   1.883   8.195   2.795
14452SOL    HW358128   1.774   8.105   2.742
14452SOL    MW458129   1.803   8.162   2.802
14453SOL     OW58130   1.645   8.344   3.693
14453SOL    HW258131   1.700   8.268   3.674
14453SOL    HW358132   1.647   8.352   3.788
14453SOL    MW458133   1.653   8.335   3.701
14454SOL     OW58134   1.133   7.722   2.127
14454SOL    HW258135   1.066   7.698   2.064
14454SOL    HW358136   1.198   7.771   2.076
14454SOL    MW458137   1.133   7.724   2.112
14455SOL     OW58138   0.940   7.906   3.212
14455SOL    HW258139   0.859   7.947   3.240
14455SOL    HW358140   0.987   7.974   3.164
14455SOL    MW458141   0.935   7.921   3.210
14456SOL     OW58142   1.200   8.244   2.835
14456SOL    HW258143   1.213   8.338   2.845
14456SOL    HW358144   1.161   8.234   2.749
14456SOL    MW458145   1.196   8.255   2.825
14457SOL     OW58146   0.652   8.439   2.639
14457SOL    HW258147   0.563   8.430   2.672
14457SOL    HW358148   0.656   8.529   2.607
14457SOL    MW458149   0.641   8.450   2.639
14458SOL     OW58150   1.451   8.022   2.634
14458SOL    HW258151   1.396   7.943   2.633
14458SOL    HW358152   1.433   8.063   2.718
14458SOL    MW458153   1.441   8.017   2.643
14459SOL     OW58154   0.422   7.709   3.451
14459SOL    HW258155   0.343   7.727   3.503
14459SOL    HW358156   0.417   7.771   3.378
14459SOL    MW458157   0.412   7.719   3.448
14460SOL     OW58158   1.070   8.226   2.591
14460SOL    HW258159   1.007   8.158   2.615
14460SOL    HW358160   1.090   8.207   2.499
14460SOL    MW458161   1.064   8.213   2.583
14461SOL     OW58162   0.818   8.530   2.317
14461SOL    HW258163   0.820   8.504   2.224
14461SOL    HW358164   0.876   8.467   2.360
14461SOL    MW458165   0.826   8.519   2.311
14462SOL     OW58166   1.328   7.774   2.650
14462SOL    HW258167   1.356   7.706   2.711
14462SOL    HW358168   1.242   7.745   2.620
14462SOL    MW458169   1.321   7.761   2.654
14463SOL     OW58170   0.133   8.708   2.584
14463SOL    HW258171   0.197   8.740   2.647
14463SOL    HW358172   0.182   8.644   2.532
14463SOL    MW458173   0.148   8.704   2.585
14464SOL     OW58174   0.633   8.784   3.566
14464SOL    HW258175   0.681   8.867   3.553
14464SOL    HW358176   0.690   8.732   3.622
14464SOL    MW458177   0.647   8.788   3.572
14465SOL     OW58178   1.308   7.878   1.985
14465SOL    HW258179   1.281   7.944   1.921
14465SOL    HW358180   1.378   7.921   2.035
14465SOL    MW458181   1.313   7.891   1.982
14466SOL     OW58182   0.976   7.583   1.922
14466SOL    HW258183   1.032   7.575   1.844
14466SOL    HW358184   0.953   7.493   1.944
14466SOL    MW458185   0.981   7.570   1.915
14467SOL     OW58186   1.481   8.434   2.127
14467SOL    HW258187   1.448   8.523   2.117
14467SOL    HW358188   1.446   8.405   2.212
14467SOL    MW458189   1.471   8.443   2.138
14468SOL     OW58190   0.387   7.531   3.657
14468SOL    HW258191   0.315   7.496   3.605
14468SOL    HW358192   0.445   7.572   3.592
14468SOL    MW458193   0.385   7.532   3.642
14469SOL     OW58194   1.851   8.550   3.310
14469SOL    HW258195   1.766   8.563   3.269
14469SOL    HW358196   1.831   8.514   3.397
14469SOL    MW458197   1.838   8.546   3.315
14470SOL     OW58198   0.475   8.472   1.919
14470SOL    HW258199   0.398   8.485   1.975
14470SOL    HW358200   0.439   8.436   1.838
14470SOL    MW458201   0.461   8.468   1.916
14471SOL     OW58202   1.128   8.445   2.162
14471SOL    HW258203   1.038   8.466   2.137
14471SOL    HW358204   1.155   8.518   2.218
14471SOL    MW458205   1.120   8.457   2.165
14472SOL     OW58206   0.628   8.794   2.854
14472SOL    HW258207   0.621   8.773   2.948
14472SOL    HW358208   0.546   8.762   2.817
14472SOL    MW458209   0.616   8.788   2.861
14473SOL     OW58210   1.492   7.804   3.256
14473SOL    HW258211   1.439   7.806   3.336
14473SOL    HW358212   1.477   7.717   3.219
14473SOL    MW458213   1.484   7.794   3.261
14474SOL     OW58214   1.828   7.728   3.129
14474SOL    HW258215   1.809   7.795   3.064
14474SOL    HW358216   1.885   7.666   3.084
14474SOL    MW458217   1.832   7.729   3.115
14475SOL     OW58218   0.757   7.561   2.569
14475SOL    HW258219   0.686   7.622   2.551
14475SOL    HW358220   0.808   7.558   2.488
14475SOL    MW458221   0.753   7.567   2.556
14476SOL     OW58222   0.515   8.801   2.318
14476SOL    HW258223   0.508   8.833   2.408
14476SOL    HW358224   0.425   8.785   2.290
14476SOL    MW458225   0.503   8.803   2.325
14477SOL     OW58226   0.717   8.218   3.699
14477SOL    HW258227   0.787   8.160   3.671
14477SOL    HW358228   0.660   8.163   3.754
14477SOL    MW458229   0.719   8.205   3.703
14478SOL     OW58230   1.504   8.430   3.332
14478SOL    HW258231   1.509   8.483   3.412
14478SOL    HW358232   1.466   8.347   3.360
14478SOL    MW458233   1.500   8.425   3.347
14479SOL     OW58234   1.144   7.565   3.578
14479SOL    HW258235   1.139   7.472   3.559
14479SOL    HW358236   1.227   7.576   3.624
14479SOL    MW458237   1.152   7.554   3.582
14480SOL     OW58238   0.518   8.085   2.032
14480SOL    HW258239   0.484   8.141   2.102
14480SOL    HW358240   0.589   8.035   2.072
14480SOL    MW458241   0.524   8.086   2.046
14481SOL     OW58242   1.614   8.836   2.854
14481SOL    HW258243   1.649   8.818   2.767
14481SOL    HW358244   1.519   8.837   2.841
14481SOL    MW458245   1.606   8.833   2.841
14482SOL     OW58246   1.043   8.484   3.223
14482SOL    HW258247   1.086   8.519   3.301
14482SOL    HW358248   1.026   8.561   3.169
14482SOL    MW458249   1.046   8.499   3.226
14483SOL     OW58250   1.574   7.971   2.096
14483SOL    HW258251   1.566   8.042   2.033
14483SOL    HW358252   1.592   8.015   2.179
14483SOL    MW458253   1.575   7.985   2.098
14484SOL     OW58254   0.434   7.626   2.525
14484SOL    HW258255   0.484   7.669   2.456
14484SOL    HW358256   0.349   7.670   2.525
14484SOL    MW458257   0.431   7.639   2.516
14485SOL     OW58258   0.193   8.688   3.385
14485SOL    HW258259   0.221   8.641   3.463
14485SOL    HW358260   0.114   8.643   3.356
14485SOL    MW458261   0.186   8.677   3.391
14486SOL     OW58262   0.701   8.015   3.352
14486SOL    HW258263   0.673   8.103   3.376
14486SOL    HW358264   0.670   7.959   3.423
14486SOL    MW458265   0.693   8.018   3.364
14487SOL     OW58266   1.243   8.233   2.071
14487SOL    HW258267   1.290   8.251   1.990
14487SOL    HW358268   1.209   8.317   2.099
14487SOL    MW458269   1.245   8.247   2.064
14488SOL     OW58270   0.356   8.411   2.565
14488SOL    HW258271   0.414   8.467   2.513
14488SOL    HW358272   0.400   8.326   2.567
14488SOL    MW458273   0.369   8.408   2.558
14489SOL     OW58274   1.496   7.763   2.402
14489SOL    HW258275   1.418   7.713   2.427
14489SOL    HW358276   1.467   7.854   2.402
14489SOL    MW458277   1.482   7.767   2.405
14490SOL     OW58278   1.082   7.725   2.561
14490SOL    HW258279   1.102   7.800   2.505
14490SOL    HW358280   1.062   7.764   2.646
14490SOL    MW458281   1.083   7.741   2.565
14491SOL     OW58282   1.842   8.498   3.580
14491SOL    HW258283   1.755   8.478   3.616
14491SOL    HW358284   1.896   8.424   3.605
14491SOL    MW458285   1.837   8.487   3.588
14492SOL     OW58286   0.018   8.137   2.284
14492SOL    HW258287  -0.042   8.109   2.354
14492SOL    HW358288   0.092   8.077   2.290
14492SOL    MW458289   0.020   8.126   2.293
14493SOL     OW58290   0.444   7.876   3.173
14493SOL    HW258291   0.477   7.957   3.213
14493SOL    HW358292   0.417   7.902   3.085
14493SOL    MW458293   0.443   7.890   3.167
14494SOL     OW58294   0.398   7.843   2.909
14494SOL    HW258295   0.428   7.757   2.880
14494SOL    HW358296   0.303   7.836   2.912
14494SOL    MW458297   0.390   7.832   2.907
14495SOL     OW58298   1.227   8.052   3.600
14495SOL    HW258299   1.279   7.987   3.553
14495SOL    HW358300   1.185   8.103   3.530
14495SOL    MW458301   1.228   8.049   3.583
14496SOL     OW58302   1.326   7.847   3.461
14496SOL    HW258303   1.233   7.831   3.448
14496SOL    HW358304   1.352   7.785   3.529
14496SOL    MW458305   1.316   7.837   3.468
14497SOL     OW58306   0.541   7.621   2.800
14497SOL    HW258307   0.551   7.530   2.826
14497SOL    HW358308   0.497   7.617   2.715
14497SOL    MW458309   0.537   7.609   2.792
14498SOL     OW58310   1.692   7.943   2.971
14498SOL    HW258311   1.625   7.976   3.031
14498SOL    HW358312   1.735   8.021   2.937
14498SOL    MW458313   1.690   7.958   2.975
14499SOL     OW58314   1.870   8.663   2.941
14499SOL    HW258315   1.863   8.603   2.866
14499SOL    HW358316   1.796   8.723   2.930
14499SOL    MW458317   1.860   8.663   2.930
14500SOL     OW58318   1.252   8.525   2.859
14500SOL    HW258319   1.266   8.497   2.950
14500SOL    HW358320   1.338   8.556   2.831
14500SOL    MW458321   1.265   8.526   2.868
14501SOL     OW58322   1.335   8.020   3.138
14501SOL    HW258323   1.356   8.021   3.045
14501SOL    HW358324   1.380   7.942   3.171
14501SOL    MW458325   1.342   8.010   3.130
14502SOL     OW58326   1.828   8.151   3.680
14502SOL    HW258327   1.865   8.096   3.749
14502SOL    HW358328   1.853   8.108   3.598
14502SOL    MW458329   1.835   8.139   3.679
14503SOL     OW58330   1.375   8.449   3.731
14503SOL    HW258331   1.441   8.397   3.685
14503SOL    HW358332   1.395   8.436   3.824
14503SOL    MW458333   1.386   8.440   3.738
14504SOL     OW58334   1.326   7.535   2.080
14504SOL    HW258335   1.400   7.579   2.123
14504SOL    HW358336   1.250   7.589   2.102
14504SOL    MW458337   1.326   7.547   2.088
14505SOL     OW58338   1.386   8.310   2.358
14505SOL    HW258339   1.301   8.280   2.328
14505SOL    HW358340   1.378   8.317   2.453
14505SOL    MW458341   1.374   8.308   2.367
14506SOL     OW58342   0.462   8.773   3.089
14506SOL    HW258343   0.474   8.800   3.180
14506SOL    HW358344   0.443   8.854   3.042
14506SOL    MW458345   0.461   8.788   3.094
14507SOL     OW58346   0.746   7.753   2.912
14507SOL    HW258347   0.719   7.755   3.003
14507SOL    HW358348   0.676   7.705   2.867
14507SOL    MW458349   0.734   7.749   2.919
14508SOL     OW58350   1.502   8.830   3.306
14508SOL    HW258351   1.487   8.759   3.369
14508SOL    HW358352   1.548   8.788   3.234
14508SOL    MW458353   1.508   8.814   3.306
14509SOL     OW58354   0.576   8.561   3.423
14509SOL    HW258355   0.613   8.566   3.335
14509SOL    HW358356   0.615   8.634   3.470
14509SOL    MW458357   0.586   8.571   3.418
14510SOL     OW58358   0.756   8.604   3.235
14510SOL    HW258359   0.815   8.550   3.288
14510SOL    HW358360   0.771   8.576   3.145
14510SOL    MW458361   0.766   8.593   3.231
14511SOL     OW58362   0.759   7.976   2.084
14511SOL    HW258363   0.832   8.025   2.047
14511SOL    HW358364   0.775   7.885   2.058
14511SOL    MW458365   0.771   7.971   2.077
14512SOL     OW58366   1.567   9.093   3.407
14512SOL    HW258367   1.609   9.078   3.492
14512SOL    HW358368   1.558   9.006   3.369
14512SOL    MW458369   1.571   9.081   3.414
14513SOL     OW58370   1.227   7.572   2.998
14513SOL    HW258371   1.282   7.581   2.920
14513SOL    HW358372   1.282   7.606   3.069
14513SOL    MW458373   1.241   7.577   2.997
14514SOL     OW58374   0.234   8.485   2.182
14514SOL    HW258375   0.171   8.501   2.111
14514SOL    HW358376   0.181   8.448   2.253
14514SOL    MW458377   0.219   8.482   2.182
14515SOL     OW58378   1.129   9.070   2.193
14515SOL    HW258379   1.137   8.988   2.144
14515SOL    HW358380   1.048   9.109   2.160
14515SOL    MW458381   1.119   9.065   2.183
14516SOL     OW58382   1.005   8.706   3.005
14516SOL    HW258383   0.937   8.640   3.021
14516SOL    HW358384   1.023   8.700   2.912
14516SOL    MW458385   0.998   8.697   2.996
14517SOL     OW58386   0.998   7.845   2.826
14517SOL    HW258387   0.928   7.797   2.871
14517SOL    HW358388   1.030   7.908   2.890
14517SOL    MW458389   0.993   7.847   2.840
14518SOL     OW58390   0.649   8.281   3.446
14518SOL    HW258391   0.642   8.376   3.434
14518SOL    HW358392   0.658   8.270   3.541
14518SOL    MW458393   0.650   8.293   3.456
14519SOL     OW58394   1.454   7.559   3.171
14519SOL    HW258395   1.525   7.505   3.135
14519SOL    HW358396   1.453   7.538   3.264
14519SOL    MW458397   1.463   7.550   3.179
14520SOL     OW58398   1.654   9.089   3.655
14520SOL    HW258399   1.627   9.086   3.746
14520SOL    HW358400   1.750   9.093   3.658
14520SOL    MW458401   1.664   9.089   3.667
14521SOL     OW58402   0.465   7.951   2.639
14521SOL    HW258403   0.536   7.899   2.602
14521SOL    HW358404   0.451   7.916   2.726
14521SOL    MW458405   0.473   7.940   2.646
14522SOL     OW58406   1.101   7.892   2.363
14522SOL    HW258407   1.123   7.829   2.295
14522SOL    HW358408   1.006   7.884   2.374
14522SOL    MW458409   1.091   7.883   2.355
14523SOL     OW58410   0.186   7.582   2.295
14523SOL    HW258411   0.257   7.603   2.234
14523SOL    HW358412   0.140   7.510   2.253
14523SOL    MW458413   0.190   7.576   2.281
14524SOL     OW58414   0.017   8.049   3.438
14524SOL    HW258415   0.081   8.115   3.413
14524SOL    HW358416  -0.064   8.076   3.395
14524SOL    MW458417   0.015   8.061   3.430
14525SOL     OW58418   1.755   8.956   2.395
14525SOL    HW258419   1.725   8.889   2.456
14525SOL    HW358420   1.849   8.962   2.409
14525SOL    MW458421   1.763   8.948   2.405
14526SOL     OW58422   1.311   8.633   2.325
14526SOL    HW258423   1.283   8.719   2.358
14526SOL    HW358424   1.339   8.649   2.235
14526SOL    MW458425   1.311   8.647   2.317
14527SOL     OW58426   0.973   7.553   2.378
14527SOL    HW258427   1.010   7.612   2.443
14527SOL    HW358428   0.950   7.609   2.304
14527SOL    MW458429   0.974   7.568   2.377
14528SOL     OW58430   1.826   8.435   2.800
14528SOL    HW258431   1.817   8.467   2.711
14528SOL    HW358432   1.779   8.351   2.800
14528SOL    MW458433   1.819   8.428   2.790
14529SOL     OW58434   0.202   8.275   3.379
14529SOL    HW258435   0.223   8.344   3.317
14529SOL    HW358436   0.282   8.222   3.384
14529SOL    MW458437   0.215   8.276   3.373
14530SOL     OW58438   1.738   8.366   2.501
14530SOL    HW258439   1.832   8.355   2.489
14530SOL    HW358440   1.714   8.438   2.442
14530SOL    MW458441   1.748   8.374   2.492
14531SOL     OW58442   0.187   8.290   3.646
14531SOL    HW258443   0.113   8.234   3.672
14531SOL    HW358444   0.182   8.293   3.551
14531SOL    MW458445   0.176   8.283   3.636
14532SOL     OW58446   0.353   7.577   3.096
14532SOL    HW258447   0.396   7.661   3.116
14532SOL    HW358448   0.426   7.515   3.089
14532SOL    MW458449   0.368   7.580   3.097
14533SOL     OW58450   0.394   8.244   2.274
14533SOL    HW258451   0.394   8.339   2.259
14533SOL    HW358452   0.471   8.228   2.328
14533SOL    MW458453   0.404   8.255   2.279
14534SOL     OW58454   1.170   8.103   3.338
14534SOL    HW258455   1.206   8.076   3.254
14534SOL    HW358456   1.083   8.137   3.317
14534SOL    MW458457   1.164   8.104   3.325
14535SOL     OW58458   0.153   7.975   2.563
14535SOL    HW258459   0.215   7.982   2.636
14535SOL    HW358460   0.153   7.882   2.540
14535SOL    MW458461   0.161   7.964   2.570
14536SOL     OW58462   0.835   8.236   3.047
14536SOL    HW258463   0.793   8.154   3.023
14536SOL    HW358464   0.836   8.235   3.143
14536SOL    MW458465   0.828   8.225   3.056
14537SOL     OW58466   0.639   7.706   3.152
14537SOL    HW258467   0.570   7.769   3.173
14537SOL    HW358468   0.666   7.670   3.237
14537SOL    MW458469   0.633   7.709   3.165
14538SOL     OW58470   0.022   8.547   2.021
14538SOL    HW258471  -0.009   8.612   2.084
14538SOL    HW358472  -0.029   8.469   2.040
14538SOL    MW458473   0.012   8.544   2.031
14539SOL     OW58474   1.434   7.559   2.769
14539SOL    HW258475   1.522   7.568   2.806
14539SOL    HW358476   1.444   7.500   2.695
14539SOL    MW458477   1.448   7.553   2.763
14540SOL     OW58478   1.466   8.298   2.613
14540SOL    HW258479   1.546   8.313   2.562
14540SOL    HW358480   1.459   8.203   2.619
14540SOL    MW458481   1.475   8.287   2.608
14541SOL     OW58482   0.916   8.224   3.310
14541SOL    HW258483   0.985   8.291   3.307
14541SOL    HW358484   0.849   8.262   3.366
14541SOL    MW458485   0.917   8.237   3.317
14542SOL     OW58486   0.334   8.524   3.558
14542SOL    HW258487   0.288   8.440   3.560
14542SOL    HW358488   0.391   8.518   3.482
14542SOL    MW458489   0.336   8.512   3.550
14543SOL     OW58490   1.451   8.167   1.879
14543SOL    HW258491   1.379   8.143   1.821
14543SOL    HW358492   1.517   8.204   1.821
14543SOL    MW458493   1.450   8.169   1.864
14544SOL     OW58494   0.585   8.899   2.559
14544SOL    HW258495   0.650   8.832   2.580
14544SOL    HW358496   0.637   8.976   2.536
14544SOL    MW458497   0.600   8.901   2.558
14545SOL     OW58498   0.846   8.064   2.689
14545SOL    HW258499   0.786   8.082   2.761
14545SOL    HW358500   0.880   7.976   2.708
14545SOL    MW458501   0.842   8.054   2.702
14546SOL     OW58502   1.787   7.563   3.358
14546SOL    HW258503   1.708   7.609   3.386
14546SOL    HW358504   1.822   7.617   3.287
14546SOL    MW458505   1.781   7.576   3.352
14547SOL     OW58506   1.071   8.647   2.708
14547SOL    HW258507   1.163   8.628   2.726
14547SOL    HW358508   1.044   8.577   2.648
14547SOL    MW458509   1.079   8.635   2.702
14548SOL     OW58510   0.864   8.467   2.063
14548SOL    HW258511   0.850   8.379   2.028
14548SOL    HW358512   0.815   8.524   2.004
14548SOL    MW458513   0.856   8.462   2.051
14549SOL     OW58514   1.345   8.885   2.804
14549SOL    HW258515   1.318   8.969   2.769
14549SOL    HW358516   1.305   8.880   2.891
14549SOL    MW458517   1.338   8.894   2.810
14550SOL     OW58518   1.264   8.833   3.072
14550SOL    HW258519   1.275   8.800   3.161
14550SOL    HW358520   1.183   8.792   3.041
14550SOL    MW458521   1.254   8.825   3.078
14551SOL     OW58522   0.277   8.191   2.842
14551SOL    HW258523   0.227   8.190   2.923
14551SOL    HW358524   0.297   8.283   2.826
14551SOL    MW458525   0.273   8.203   2.850
14552SOL     OW58526   1.344   8.955   3.604
14552SOL    HW258527   1.344   9.049   3.620
14552SOL    HW358528   1.389   8.945   3.520
14552SOL    MW458529   1.350   8.965   3.595
14553SOL     OW58530   1.583   7.673   2.165
14553SOL    HW258531   1.576   7.677   2.260
14553SOL    HW358532   1.595   7.764   2.138
14553SOL    MW458533   1.584   7.686   2.173
14554SOL     OW58534   0.872   8.236   2.279
14554SOL    HW258535   0.852   8.222   2.186
14554SOL    HW358536   0.965   8.215   2.286
14554SOL    MW458537   0.882   8.231   2.268
14555SOL     OW58538   0.199   7.859   3.583
14555SOL    HW258539   0.156   7.918   3.520
14555SOL    HW358540   0.267   7.914   3.623
14555SOL    MW458541   0.203   7.874   3.580
14556SOL     OW58542   1.311   8.479   3.128
14556SOL    HW258543   1.374   8.476   3.201
14556SOL    HW358544   1.227   8.497   3.170
14556SOL    MW458545   1.307   8.481   3.143
14557SOL     OW58546   1.650   7.656   2.907
14557SOL    HW258547   1.695   7.574   2.926
14557SOL    HW358548   1.670   7.712   2.983
14557SOL    MW458549   1.660   7.652   2.919
14558SOL     OW58550   0.098   7.499   3.006
14558SOL    HW258551   0.089   7.500   2.911
14558SOL    HW358552   0.192   7.511   3.021
14558SOL    MW458553   0.110   7.502   2.997
14559SOL     OW58554   1.735   8.692   2.626
14559SOL    HW258555   1.714   8.638   2.549
14559SOL    HW358556   1.831   8.690   2.630
14559SOL    MW458557   1.744   8.685   2.615
14560SOL     OW58558   0.427   8.837   3.369
14560SOL    HW258559   0.348   8.787   3.392
14560SOL    HW358560   0.497   8.796   3.419
14560SOL    MW458561   0.425   8.825   3.379
14561SOL     OW58562   0.311   7.626   2.052
14561SOL    HW258563   0.240   7.681   2.020
14561SOL    HW358564   0.353   7.592   1.973
14561SOL    MW458565   0.307   7.628   2.038
14562SOL     OW58566   1.435   8.123   2.888
14562SOL    HW258567   1.358   8.169   2.854
14562SOL    HW358568   1.492   8.192   2.922
14562SOL    MW458569   1.432   8.138   2.888
14563SOL     OW58570   0.067   7.725   1.901
14563SOL    HW258571   0.034   7.804   1.945
14563SOL    HW358572   0.122   7.758   1.830
14563SOL    MW458573   0.070   7.739   1.898
14564SOL     OW58574   1.373   9.071   2.307
14564SOL    HW258575   1.436   9.061   2.236
14564SOL    HW358576   1.290   9.091   2.262
14564SOL    MW458577   1.370   9.072   2.292
14565SOL     OW58578   1.736   8.339   3.993
14565SOL    HW258579   1.777   8.281   4.058
14565SOL    HW358580   1.643   8.331   4.010
14565SOL    MW458581   1.730   8.331   4.003
14566SOL     OW58582   1.602   8.271   4.988
14566SOL    HW258583   1.557   8.338   5.039
14566SOL    HW358584   1.690   8.307   4.974
14566SOL    MW458585   1.608   8.284   4.992
14567SOL     OW58586   0.530   8.522   4.222
14567SOL    HW258587   0.620   8.497   4.206
14567SOL    HW358588   0.526   8.615   4.199
14567SOL    MW458589   0.542   8.531   4.217
14568SOL     OW58590   1.582   8.665   4.969
14568SOL    HW258591   1.503   8.630   4.927
14568SOL    HW358592   1.609   8.737   4.913
14568SOL    MW458593   1.575   8.670   4.956
14569SOL     OW58594   0.814   7.978   4.235
14569SOL    HW258595   0.789   8.066   4.263
14569SOL    HW358596   0.811   7.981   4.139
14569SOL    MW458597   0.810   7.990   4.227
14570SOL     OW58598   0.256   8.006   4.163
14570SOL    HW258599   0.288   8.094   4.145
14570SOL    HW358600   0.244   8.004   4.258
14570SOL    MW458601   0.259   8.018   4.175
14571SOL     OW58602   0.334   8.419   5.064
14571SOL    HW258603   0.397   8.366   5.015
14571SOL    HW358604   0.315   8.493   5.007
14571SOL    MW458605   0.340   8.421   5.051
14572SOL     OW58606   0.655   7.761   4.250
14572SOL    HW258607   0.713   7.837   4.252
14572SOL    HW358608   0.590   7.782   4.183
14572SOL    MW458609   0.654   7.773   4.241
14573SOL     OW58610   0.742   8.688   4.425
14573SOL    HW258611   0.822   8.691   4.477
14573SOL    HW358612   0.770   8.655   4.339
14573SOL    MW458613   0.756   8.684   4.420
14574SOL     OW58614   0.519   8.192   4.416
14574SOL    HW258615   0.504   8.112   4.467
14574SOL    HW358616   0.601   8.227   4.450
14574SOL    MW458617   0.527   8.184   4.428
14575SOL     OW58618   0.661   8.018   4.793
14575SOL    HW258619   0.567   8.014   4.811
14575SOL    HW358620   0.691   7.927   4.802
14575SOL    MW458621   0.652   8.006   4.796
14576SOL     OW58622   0.407   8.432   4.697
14576SOL    HW258623   0.362   8.439   4.613
14576SOL    HW358624   0.387   8.515   4.741
14576SOL    MW458625   0.399   8.444   4.691
14577SOL     OW58626   1.369   8.670   3.941
14577SOL    HW258627   1.287   8.706   3.907
14577SOL    HW358628   1.437   8.713   3.890
14577SOL    MW458629   1.367   8.680   3.929
14578SOL     OW58630   0.368   8.805   4.607
14578SOL    HW258631   0.344   8.858   4.683
14578SOL    HW358632   0.424   8.863   4.555
14578SOL    MW458633   0.372   8.820   4.610
14579SOL     OW58634   0.930   8.449   4.417
14579SOL    HW258635   0.844   8.436   4.457
14579SOL    HW358636   0.983   8.376   4.449
14579SOL    MW458637   0.926   8.438   4.426
14580SOL     OW58638   0.921   8.811   4.134
14580SOL    HW258639   0.898   8.873   4.202
14580SOL    HW358640   0.878   8.729   4.160
14580SOL    MW458641   0.913   8.807   4.145
14581SOL     OW58642   1.794   7.812   4.590
14581SOL    HW258643   1.731   7.792   4.659
14581SOL    HW358644   1.784   7.741   4.527
14581SOL    MW458645   1.784   7.799   4.591
14582SOL     OW58646   0.418   7.784   4.102
14582SOL    HW258647   0.392   7.746   4.018
14582SOL    HW358648   0.355   7.854   4.118
14582SOL    MW458649   0.407   7.787   4.093
14583SOL     OW58650   0.253   8.745   4.139
14583SOL    HW258651   0.201   8.813   4.095
14583SOL    HW358652   0.250   8.671   4.079
14583SOL    MW458653   0.245   8.744   4.126
14584SOL     OW58654   1.850   7.981   3.892
14584SOL    HW258655   1.759   7.983   3.920
14584SOL    HW358656   1.895   8.043   3.950
14584SOL    MW458657   1.843   7.989   3.902
14585SOL     OW58658   1.595   8.584   4.242
14585SOL    HW258659   1.505   8.584   4.277
14585SOL    HW358660   1.588   8.630   4.159
14585SOL    MW458661   1.582   8.590   4.236
14586SOL     OW58662   1.395   8.219   5.314
14586SOL    HW258663   1.464   8.157   5.291
14586SOL    HW358664   1.320   8.193   5.261
14586SOL    MW458665   1.395   8.206   5.305
14587SOL     OW58666   1.131   8.606   5.306
14587SOL    HW258667   1.116   8.699   5.291
14587SOL    HW358668   1.226   8.596   5.306
14587SOL    MW458669   1.140   8.616   5.303
14588SOL     OW58670   0.927   8.030   5.507
14588SOL    HW258671   1.017   8.031   5.474
14588SOL    HW358672   0.886   7.955   5.465
14588SOL    MW458673   0.933   8.020   5.498
14589SOL     OW58674   1.502   8.562   4.634
14589SOL    HW258675   1.505   8.496   4.565
14589SOL    HW358676   1.587   8.605   4.630
14589SOL    MW458677   1.514   8.558   4.625
14590SOL     OW58678   1.122   8.165   4.203
14590SOL    HW258679   1.148   8.189   4.114
14590SOL    HW358680   1.104   8.072   4.199
14590SOL    MW458681   1.124   8.157   4.190
14591SOL     OW58682   1.787   8.785   4.054
14591SOL    HW258683   1.743   8.826   4.129
14591SOL    HW358684   1.844   8.853   4.019
14591SOL    MW458685   1.789   8.799   4.059
14592SOL     OW58686   0.707   7.834   5.457
14592SOL    HW258687   0.717   7.760   5.397
14592SOL    HW358688   0.743   7.803   5.540
14592SOL    MW458689   0.713   7.820   5.459
14593SOL     OW58690   1.827   7.563   4.421
14593SOL    HW258691   1.881   7.514   4.483
14593SOL    HW358692   1.770   7.497   4.382
14593SOL    MW458693   1.827   7.547   4.423
14594SOL     OW58694   0.946   7.516   4.834
14594SOL    HW258695   0.905   7.594   4.796
14594SOL    HW358696   1.040   7.534   4.829
14594SOL    MW458697   0.952   7.528   4.829
14595SOL     OW58698   1.563   9.069   3.920
14595SOL    HW258699   1.611   9.138   3.966
14595SOL    HW358700   1.484   9.113   3.889
14595SOL    MW458701   1.558   9.083   3.923
14596SOL     OW58702   0.961   8.194   3.864
14596SOL    HW258703   0.963   8.141   3.785
14596SOL    HW358704   1.049   8.231   3.870
14596SOL    MW458705   0.973   8.193   3.853
14597SOL     OW58706   1.575   8.120   4.200
14597SOL    HW258707   1.614   8.120   4.287
14597SOL    HW358708   1.516   8.196   4.200
14597SOL    MW458709   1.572   8.131   4.211
14598SOL     OW58710   0.892   8.487   5.329
14598SOL    HW258711   0.869   8.467   5.419
14598SOL    HW358712   0.977   8.531   5.334
14598SOL    MW458713   0.899   8.490   5.341
14599SOL     OW58714   0.972   7.624   5.089
14599SOL    HW258715   0.978   7.586   5.002
14599SOL    HW358716   0.961   7.718   5.074
14599SOL    MW458717   0.973   7.632   5.077
14600SOL     OW58718   1.061   8.113   4.923
14600SOL    HW258719   1.136   8.142   4.870
14600SOL    HW358720   0.993   8.178   4.907
14600SOL    MW458721   1.062   8.125   4.913
14601SOL     OW58722   1.611   8.081   5.200
14601SOL    HW258723   1.592   7.990   5.179
14601SOL    HW358724   1.589   8.130   5.121
14601SOL    MW458725   1.606   8.074   5.187
14602SOL     OW58726   1.753   9.175   5.104
14602SOL    HW258727   1.681   9.137   5.155
14602SOL    HW358728   1.770   9.260   5.145
14602SOL    MW458729   1.747   9.180   5.116
14603SOL     OW58730   1.058   7.819   5.306
14603SOL    HW258731   1.024   7.858   5.225
14603SOL    HW358732   1.036   7.727   5.299
14603SOL    MW458733   1.051   7.812   5.296
14604SOL     OW58734   1.467   8.633   5.382
14604SOL    HW258735   1.549   8.674   5.412
14604SOL    HW358736   1.430   8.595   5.462
14604SOL    MW458737   1.473   8.634   5.397
14605SOL     OW58738   1.762   8.006   4.366
14605SOL    HW258739   1.851   7.975   4.383
14605SOL    HW358740   1.705   7.946   4.414
14605SOL    MW458741   1.765   7.994   4.375
14606SOL     OW58742   0.188   7.720   4.395
14606SOL    HW258743   0.179   7.660   4.321
14606SOL    HW358744   0.121   7.691   4.458
14606SOL    MW458745   0.178   7.707   4.393
14607SOL     OW58746   1.131   8.813   3.956
14607SOL    HW258747   1.081   8.815   4.038
14607SOL    HW358748   1.065   8.831   3.888
14607SOL    MW458749   1.117   8.815   3.958
14608SOL     OW58750   0.135   7.893   4.758
14608SOL    HW258751   0.107   7.984   4.767
14608SOL    HW358752   0.072   7.854   4.697
14608SOL    MW458753   0.122   7.899   4.752
14609SOL     OW58754   1.722   8.751   5.461
14609SOL    HW258755   1.772   8.677   5.493
14609SOL    HW358756   1.668   8.778   5.536
14609SOL    MW458757   1.722   8.745   5.474
14610SOL     OW58758   0.730   8.646   3.771
14610SOL    HW258759   0.652   8.592   3.758
14610SOL    HW358760   0.701   8.719   3.824
14610SOL    MW458761   0.716   8.648   3.776
14611SOL     OW58762   1.856   8.386   4.963
14611SOL    HW258763   1.872   8.424   4.876
14611SOL    HW358764   1.890   8.452   5.024
14611SOL    MW458765   1.863   8.399   4.959
14612SOL     OW58766   1.648   9.095   4.632
14612SOL    HW258767   1.677   9.162   4.693
14612SOL    HW358768   1.629   9.019   4.687
14612SOL    MW458769   1.650   9.095   4.647
14613SOL     OW58770   1.311   9.162   3.839
14613SOL    HW258771   1.237   9.125   3.889
14613SOL    HW358772   1.319   9.252   3.872
14613SOL    MW458773   1.302   9.169   3.851
14614SOL     OW58774   0.119   8.168   4.928
14614SOL    HW258775   0.181   8.198   4.994
14614SOL    HW358776   0.053   8.237   4.922
14614SOL    MW458777   0.118   8.181   4.935
14615SOL     OW58778   1.535   8.836   3.781
14615SOL    HW258779   1.482   8.885   3.717
14615SOL    HW358780   1.566   8.902   3.842
14615SOL    MW458781   1.533   8.850   3.779
14616SOL     OW58782   0.760   7.725   3.836
14616SOL    HW258783   0.708   7.645   3.824
14616SOL    HW358784   0.847   7.702   3.804
14616SOL    MW458785   0.763   7.711   3.830
14617SOL     OW58786   0.266   8.596   4.887
14617SOL    HW258787   0.319   8.671   4.912
14617SOL    HW358788   0.185   8.634   4.853
14617SOL    MW458789   0.262   8.611   4.887
14618SOL     OW58790   0.806   8.500   4.875
14618SOL    HW258791   0.834   8.409   4.887
14618SOL    HW358792   0.735   8.494   4.811
14618SOL    MW458793   0.799   8.488   4.870
14619SOL     OW58794   0.121   8.365   4.293
14619SOL    HW258795   0.212   8.380   4.320
14619SOL    HW358796   0.124   8.286   4.239
14619SOL    MW458797   0.133   8.357   4.291
14620SOL     OW58798   0.357   8.073   5.547
14620SOL    HW258799   0.304   8.153   5.554
14620SOL    HW358800   0.427   8.085   5.612
14620SOL    MW458801   0.359   8.086   5.555
14621SOL     OW58802   0.743   7.623   5.254
14621SOL    HW258803   0.720   7.531   5.256
14621SOL    HW358804   0.829   7.625   5.211
14621SOL    MW458805   0.750   7.613   5.250
14622SOL     OW58806   0.427   8.147   5.293
14622SOL    HW258807   0.507   8.197   5.279
14622SOL    HW358808   0.418   8.141   5.388
14622SOL    MW458809   0.436   8.153   5.303
14623SOL     OW58810   1.404   7.672   5.564
14623SOL    HW258811   1.460   7.599   5.590
14623SOL    HW358812   1.374   7.710   5.646
14623SOL    MW458813   1.408   7.667   5.577
14624SOL     OW58814   1.794   8.165   4.681
14624SOL    HW258815   1.883   8.195   4.663
14624SOL    HW358816   1.774   8.105   4.610
14624SOL    MW458817   1.803   8.162   4.670
14625SOL     OW58818   1.645   8.344   5.561
14625SOL    HW258819   1.700   8.268   5.542
14625SOL    HW358820   1.647   8.352   5.656
14625SOL    MW458821   1.653   8.335   5.569
14626SOL     OW58822   1.133   7.722   3.995
14626SOL    HW258823   1.066   7.698   3.932
14626SOL    HW358824   1.198   7.771   3.944
14626SOL    MW458825   1.133   7.724   3.980
14627SOL     OW58826   0.940   7.906   5.080
14627SOL    HW258827   0.859   7.947   5.108
14627SOL    HW358828   0.987   7.974   5.032
14627SOL    MW458829   0.935   7.921   5.078
14628SOL     OW58830   1.200   8.244   4.703
14628SOL    HW258831   1.213   8.338   4.713
14628SOL    HW358832   1.161   8.234   4.617
14628SOL    MW458833   1.196   8.255   4.693
14629SOL     OW58834   0.652   8.439   4.507
14629SOL    HW258835   0.563   8.430   4.540
14629SOL    HW358836   0.656   8.529   4.475
14629SOL    MW458837   0.641   8.450   4.507
14630SOL     OW58838   1.451   8.022   4.502
14630SOL    HW258839   1.396   7.943   4.501
14630SOL    HW358840   1.433   8.063   4.586
14630SOL    MW458841   1.441   8.017   4.511
14631SOL     OW58842   0.422   7.709   5.319
14631SOL    HW258843   0.343   7.727   5.371
14631SOL    HW358844   0.417   7.771   5.246
14631SOL    MW458845   0.412   7.719   5.316
14632SOL     OW58846   1.070   8.226   4.459
14632SOL    HW258847   1.007   8.158   4.483
14632SOL    HW358848   1.090   8.207   4.367
14632SOL    MW458849   1.064   8.213   4.451
14633SOL     OW58850   0.818   8.530   4.185
14633SOL    HW258851   0.820   8.504   4.092
14633SOL    HW358852   0.876   8.467   4.228
14633SOL    MW458853   0.826   8.519   4.179
14634SOL     OW58854   1.328   7.774   4.518
14634SOL    HW258855   1.356   7.706   4.579
14634SOL    HW358856   1.242   7.745   4.488
14634SOL    MW458857   1.321   7.761   4.522
14635SOL     OW58858   0.133   8.708   4.452
14635SOL    HW258859   0.197   8.740   4.515
14635SOL    HW358860   0.182   8.644   4.400
14635SOL    MW458861   0.148   8.704   4.453
14636SOL     OW58862   0.633   8.784   5.434
14636SOL    HW258863   0.681   8.867   5.421
14636SOL    HW358864   0.690   8.732   5.490
14636SOL    MW458865   0.647   8.788   5.440
14637SOL     OW58866   1.308   7.878   3.853
14637SOL    HW258867   1.281   7.944   3.789
14637SOL    HW358868   1.378   7.921   3.903
14637SOL    MW458869   1.313   7.891   3.850
14638SOL     OW58870   0.976   7.583   3.790
14638SOL    HW258871   1.032   7.575   3.712
14638SOL    HW358872   0.953   7.493   3.812
14638SOL    MW458873   0.981   7.570   3.783
14639SOL     OW58874   1.481   8.434   3.995
14639SOL    HW258875   1.448   8.523   3.985
14639SOL    HW358876   1.446   8.405   4.080
14639SOL    MW458877   1.471   8.443   4.006
14640SOL     OW58878   0.387   7.531   5.525
14640SOL    HW258879   0.315   7.496   5.473
14640SOL    HW358880   0.445   7.572   5.460
14640SOL    MW458881   0.385   7.532   5.510
14641SOL     OW58882   1.851   8.550   5.178
14641SOL    HW258883   1.766   8.563   5.137
14641SOL    HW358884   1.831   8.514   5.265
14641SOL    MW458885   1.838   8.546   5.183
14642SOL     OW58886   0.475   8.472   3.787
14642SOL    HW258887   0.398   8.485   3.843
14642SOL    HW358888   0.439   8.436   3.706
14642SOL    MW458889   0.461   8.468   3.784
14643SOL     OW58890   1.128   8.445   4.030
14643SOL    HW258891   1.038   8.466   4.005
14643SOL    HW358892   1.155   8.518   4.086
14643SOL    MW458893   1.120   8.457   4.033
14644SOL     OW58894   0.628   8.794   4.722
14644SOL    HW258895   0.621   8.773   4.816
14644SOL    HW358896   0.546   8.762   4.685
14644SOL    MW458897   0.616   8.788   4.729
14645SOL     OW58898   1.492   7.804   5.124
14645SOL    HW258899   1.439   7.806   5.204
14645SOL    HW358900   1.477   7.717   5.087
14645SOL    MW458901   1.484   7.794   5.129
14646SOL     OW58902   1.828   7.728   4.997
14646SOL    HW258903   1.809   7.795   4.932
14646SOL    HW358904   1.885   7.666   4.952
14646SOL    MW458905   1.832   7.729   4.983
14647SOL     OW58906   0.757   7.561   4.437
14647SOL    HW258907   0.686   7.622   4.419
14647SOL    HW358908   0.808   7.558   4.356
14647SOL    MW458909   0.753   7.567   4.424
14648SOL     OW58910   0.515   8.801   4.186
14648SOL    HW258911   0.508   8.833   4.276
14648SOL    HW358912   0.425   8.785   4.158
14648SOL    MW458913   0.503   8.803   4.193
14649SOL     OW58914   0.717   8.218   5.567
14649SOL    HW258915   0.787   8.160   5.539
14649SOL    HW358916   0.660   8.163   5.622
14649SOL    MW458917   0.719   8.205   5.571
14650SOL     OW58918   1.504   8.430   5.200
14650SOL    HW258919   1.509   8.483   5.280
14650SOL    HW358920   1.466   8.347   5.228
14650SOL    MW458921   1.500   8.425   5.215
14651SOL     OW58922   1.144   7.565   5.446
14651SOL    HW258923   1.139   7.472   5.427
14651SOL    HW358924   1.227   7.576   5.492
14651SOL    MW458925   1.152   7.554   5.450
14652SOL     OW58926   0.518   8.085   3.900
14652SOL    HW258927   0.484   8.141   3.970
14652SOL    HW358928   0.589   8.035   3.940
14652SOL    MW458929   0.524   8.086   3.914
14653SOL     OW58930   1.614   8.836   4.722
14653SOL    HW258931   1.649   8.818   4.635
14653SOL    HW358932   1.519   8.837   4.709
14653SOL    MW458933   1.606   8.833   4.709
14654SOL     OW58934   1.043   8.484   5.091
14654SOL    HW258935   1.086   8.519   5.169
14654SOL    HW358936   1.026   8.561   5.037
14654SOL    MW458937   1.046   8.499   5.094
14655SOL     OW58938   1.574   7.971   3.964
14655SOL    HW258939   1.566   8.042   3.901
14655SOL    HW358940   1.592   8.015   4.047
14655SOL    MW458941   1.575   7.985   3.966
14656SOL     OW58942   0.434   7.626   4.393
14656SOL    HW258943   0.484   7.669   4.324
14656SOL    HW358944   0.349   7.670   4.393
14656SOL    MW458945   0.431   7.639   4.384
14657SOL     OW58946   0.193   8.688   5.253
14657SOL    HW258947   0.221   8.641   5.331
14657SOL    HW358948   0.114   8.643   5.224
14657SOL    MW458949   0.186   8.677   5.259
14658SOL     OW58950   0.701   8.015   5.220
14658SOL    HW258951   0.673   8.103   5.244
14658SOL    HW358952   0.670   7.959   5.291
14658SOL    MW458953   0.693   8.018   5.232
14659SOL     OW58954   1.243   8.233   3.939
14659SOL    HW258955   1.290   8.251   3.858
14659SOL    HW358956   1.209   8.317   3.967
14659SOL    MW458957   1.245   8.247   3.932
14660SOL     OW58958   0.356   8.411   4.433
14660SOL    HW258959   0.414   8.467   4.381
14660SOL    HW358960   0.400   8.326   4.435
14660SOL    MW458961   0.369   8.408   4.426
14661SOL     OW58962   1.496   7.763   4.270
14661SOL    HW258963   1.418   7.713   4.295
14661SOL    HW358964   1.467   7.854   4.270
14661SOL    MW458965   1.482   7.767   4.273
14662SOL     OW58966   1.082   7.725   4.429
14662SOL    HW258967   1.102   7.800   4.373
14662SOL    HW358968   1.062   7.764   4.514
14662SOL    MW458969   1.083   7.741   4.433
14663SOL     OW58970   1.842   8.498   5.448
14663SOL    HW258971   1.755   8.478   5.484
14663SOL    HW358972   1.896   8.424   5.473
14663SOL    MW458973   1.837   8.487   5.456
14664SOL     OW58974   0.018   8.137   4.152
14664SOL    HW258975  -0.042   8.109   4.222
14664SOL    HW358976   0.092   8.077   4.158
14664SOL    MW458977   0.020   8.126   4.161
14665SOL     OW58978   0.444   7.876   5.041
14665SOL    HW258979   0.477   7.957   5.081
14665SOL    HW358980   0.417   7.902   4.953
14665SOL    MW458981   0.443   7.890   5.035
14666SOL     OW58982   0.398   7.843   4.777
14666SOL    HW258983   0.428   7.757   4.748
14666SOL    HW358984   0.303   7.836   4.780
14666SOL    MW458985   0.390   7.832   4.775
14667SOL     OW58986   1.227   8.052   5.468
14667SOL    HW258987   1.279   7.987   5.421
14667SOL    HW358988   1.185   8.103   5.398
14667SOL    MW458989   1.228   8.049   5.451
14668SOL     OW58990   1.326   7.847   5.329
14668SOL    HW258991   1.233   7.831   5.316
14668SOL    HW358992   1.352   7.785   5.397
14668SOL    MW458993   1.316   7.837   5.336
14669SOL     OW58994   0.541   7.621   4.668
14669SOL    HW258995   0.551   7.530   4.694
14669SOL    HW358996   0.497   7.617   4.583
14669SOL    MW458997   0.537   7.609   4.660
14670SOL     OW58998   1.692   7.943   4.839
14670SOL    HW258999   1.625   7.976   4.899
14670SOL    HW359000   1.735   8.021   4.805
14670SOL    MW459001   1.690   7.958   4.843
14671SOL     OW59002   1.870   8.663   4.809
14671SOL    HW259003   1.863   8.603   4.734
14671SOL    HW359004   1.796   8.723   4.798
14671SOL    MW459005   1.860   8.663   4.798
14672SOL     OW59006   1.252   8.525   4.727
14672SOL    HW259007   1.266   8.497   4.818
14672SOL    HW359008   1.338   8.556   4.699
14672SOL    MW459009   1.265   8.526   4.736
14673SOL     OW59010   1.828   8.151   5.548
14673SOL    HW259011   1.865   8.096   5.617
14673SOL    HW359012   1.853   8.108   5.466
14673SOL    MW459013   1.835   8.139   5.547
14674SOL     OW59014   1.375   8.449   5.600
14674SOL    HW259015   1.441   8.397   5.554
14674SOL    HW359016   1.395   8.436   5.693
14674SOL    MW459017   1.386   8.440   5.607
14675SOL     OW59018   1.326   7.535   3.948
14675SOL    HW259019   1.400   7.579   3.991
14675SOL    HW359020   1.250   7.589   3.970
14675SOL    MW459021   1.326   7.547   3.956
14676SOL     OW59022   1.386   8.310   4.226
14676SOL    HW259023   1.301   8.280   4.196
14676SOL    HW359024   1.378   8.317   4.321
14676SOL    MW459025   1.374   8.308   4.235
14677SOL     OW59026   0.462   8.773   4.957
14677SOL    HW259027   0.474   8.800   5.048
14677SOL    HW359028   0.443   8.854   4.910
14677SOL    MW459029   0.461   8.788   4.962
14678SOL     OW59030   0.746   7.753   4.780
14678SOL    HW259031   0.719   7.755   4.871
14678SOL    HW359032   0.676   7.705   4.735
14678SOL    MW459033   0.734   7.749   4.787
14679SOL     OW59034   1.502   8.830   5.174
14679SOL    HW259035   1.487   8.759   5.237
14679SOL    HW359036   1.548   8.788   5.102
14679SOL    MW459037   1.508   8.814   5.174
14680SOL     OW59038   0.576   8.561   5.291
14680SOL    HW259039   0.613   8.566   5.203
14680SOL    HW359040   0.615   8.634   5.338
14680SOL    MW459041   0.586   8.571   5.286
14681SOL     OW59042   0.756   8.604   5.103
14681SOL    HW259043   0.815   8.550   5.156
14681SOL    HW359044   0.771   8.576   5.013
14681SOL    MW459045   0.766   8.593   5.099
14682SOL     OW59046   0.759   7.976   3.952
14682SOL    HW259047   0.832   8.025   3.915
14682SOL    HW359048   0.775   7.885   3.926
14682SOL    MW459049   0.771   7.971   3.945
14683SOL     OW59050   1.567   9.093   5.275
14683SOL    HW259051   1.609   9.078   5.360
14683SOL    HW359052   1.558   9.006   5.237
14683SOL    MW459053   1.571   9.081   5.282
14684SOL     OW59054   1.227   7.572   4.866
14684SOL    HW259055   1.282   7.581   4.788
14684SOL    HW359056   1.282   7.606   4.937
14684SOL    MW459057   1.241   7.577   4.865
14685SOL     OW59058   0.234   8.485   4.050
14685SOL    HW259059   0.171   8.501   3.979
14685SOL    HW359060   0.181   8.448   4.121
14685SOL    MW459061   0.219   8.482   4.050
14686SOL     OW59062   1.129   9.070   4.061
14686SOL    HW259063   1.137   8.988   4.012
14686SOL    HW359064   1.048   9.109   4.028
14686SOL    MW459065   1.119   9.065   4.051
14687SOL     OW59066   1.005   8.706   4.873
14687SOL    HW259067   0.937   8.640   4.889
14687SOL    HW359068   1.023   8.700   4.780
14687SOL    MW459069   0.998   8.697   4.864
14688SOL     OW59070   0.998   7.845   4.694
14688SOL    HW259071   0.928   7.797   4.739
14688SOL    HW359072   1.030   7.908   4.758
14688SOL    MW459073   0.993   7.847   4.708
14689SOL     OW59074   0.649   8.281   5.314
14689SOL    HW259075   0.642   8.376   5.302
14689SOL    HW359076   0.658   8.270   5.409
14689SOL    MW459077   0.650   8.293   5.324
14690SOL     OW59078   1.454   7.559   5.039
14690SOL    HW259079   1.525   7.505   5.003
14690SOL    HW359080   1.453   7.538   5.132
14690SOL    MW459081   1.463   7.550   5.047
14691SOL     OW59082   1.654   9.089   5.523
14691SOL    HW259083   1.627   9.086   5.614
14691SOL    HW359084   1.750   9.093   5.526
14691SOL    MW459085   1.664   9.089   5.535
14692SOL     OW59086   0.465   7.951   4.507
14692SOL    HW259087   0.536   7.899   4.470
14692SOL    HW359088   0.451   7.916   4.594
14692SOL    MW459089   0.473   7.940   4.514
14693SOL     OW59090   1.101   7.892   4.231
14693SOL    HW259091   1.123   7.829   4.163
14693SOL    HW359092   1.006   7.884   4.242
14693SOL    MW459093   1.091   7.883   4.223
14694SOL     OW59094   0.186   7.582   4.163
14694SOL    HW259095   0.257   7.603   4.102
14694SOL    HW359096   0.140   7.510   4.121
14694SOL    MW459097   0.190   7.576   4.149
14695SOL     OW59098   0.017   8.049   5.306
14695SOL    HW259099   0.081   8.115   5.281
14695SOL    HW359100  -0.064   8.076   5.263
14695SOL    MW459101   0.015   8.061   5.298
14696SOL     OW59102   1.755   8.956   4.263
14696SOL    HW259103   1.725   8.889   4.324
14696SOL    HW359104   1.849   8.962   4.277
14696SOL    MW459105   1.763   8.948   4.273
14697SOL     OW59106   1.311   8.633   4.193
14697SOL    HW259107   1.283   8.719   4.226
14697SOL    HW359108   1.339   8.649   4.103
14697SOL    MW459109   1.311   8.647   4.185
14698SOL     OW59110   0.973   7.553   4.246
14698SOL    HW259111   1.010   7.612   4.311
14698SOL    HW359112   0.950   7.609   4.172
14698SOL    MW459113   0.974   7.568   4.245
14699SOL     OW59114   1.826   8.435   4.668
14699SOL    HW259115   1.817   8.467   4.579
14699SOL    HW359116   1.779   8.351   4.668
14699SOL    MW459117   1.819   8.428   4.658
14700SOL     OW59118   0.202   8.275   5.247
14700SOL    HW259119   0.223   8.344   5.185
14700SOL    HW359120   0.282   8.222   5.252
14700SOL    MW459121   0.215   8.276   5.241
14701SOL     OW59122   1.738   8.366   4.369
14701SOL    HW259123   1.832   8.355   4.357
14701SOL    HW359124   1.714   8.438   4.310
14701SOL    MW459125   1.748   8.374   4.360
14702SOL     OW59126   0.187   8.290   5.514
14702SOL    HW259127   0.113   8.234   5.540
14702SOL    HW359128   0.182   8.293   5.419
14702SOL    MW459129   0.176   8.283   5.504
14703SOL     OW59130   0.353   7.577   4.964
14703SOL    HW259131   0.396   7.661   4.984
14703SOL    HW359132   0.426   7.515   4.957
14703SOL    MW459133   0.368   7.580   4.965
14704SOL     OW59134   0.394   8.244   4.142
14704SOL    HW259135   0.394   8.339   4.127
14704SOL    HW359136   0.471   8.228   4.196
14704SOL    MW459137   0.404   8.255   4.147
14705SOL     OW59138   1.170   8.103   5.206
14705SOL    HW259139   1.206   8.076   5.122
14705SOL    HW359140   1.083   8.137   5.185
14705SOL    MW459141   1.164   8.104   5.193
14706SOL     OW59142   0.153   7.975   4.431
14706SOL    HW259143   0.215   7.982   4.504
14706SOL    HW359144   0.153   7.882   4.408
14706SOL    MW459145   0.161   7.964   4.438
14707SOL     OW59146   0.835   8.236   4.915
14707SOL    HW259147   0.793   8.154   4.891
14707SOL    HW359148   0.836   8.235   5.011
14707SOL    MW459149   0.828   8.225   4.924
14708SOL     OW59150   0.639   7.706   5.020
14708SOL    HW259151   0.570   7.769   5.041
14708SOL    HW359152   0.666   7.670   5.105
14708SOL    MW459153   0.633   7.709   5.033
14709SOL     OW59154   0.022   8.547   3.889
14709SOL    HW259155  -0.009   8.612   3.952
14709SOL    HW359156  -0.029   8.469   3.908
14709SOL    MW459157   0.012   8.544   3.899
14710SOL     OW59158   1.434   7.559   4.637
14710SOL    HW259159   1.522   7.568   4.674
14710SOL    HW359160   1.444   7.500   4.563
14710SOL    MW459161   1.448   7.553   4.631
14711SOL     OW59162   1.466   8.298   4.481
14711SOL    HW259163   1.546   8.313   4.430
14711SOL    HW359164   1.459   8.203   4.487
14711SOL    MW459165   1.475   8.287   4.476
14712SOL     OW59166   0.916   8.224   5.178
14712SOL    HW259167   0.985   8.291   5.175
14712SOL    HW359168   0.849   8.262   5.234
14712SOL    MW459169   0.917   8.237   5.185
14713SOL     OW59170   0.334   8.524   5.426
14713SOL    HW259171   0.288   8.440   5.428
14713SOL    HW359172   0.391   8.518   5.350
14713SOL    MW459173   0.336   8.512   5.418
14714SOL     OW59174   1.451   8.167   3.747
14714SOL    HW259175   1.379   8.143   3.689
14714SOL    HW359176   1.517   8.204   3.689
14714SOL    MW459177   1.450   8.169   3.732
14715SOL     OW59178   0.585   8.899   4.427
14715SOL    HW259179   0.650   8.832   4.448
14715SOL    HW359180   0.637   8.976   4.404
14715SOL    MW459181   0.600   8.901   4.426
14716SOL     OW59182   0.846   8.064   4.557
14716SOL    HW259183   0.786   8.082   4.629
14716SOL    HW359184   0.880   7.976   4.576
14716SOL    MW459185   0.842   8.054   4.570
14717SOL     OW59186   1.787   7.563   5.226
14717SOL    HW259187   1.708   7.609   5.254
14717SOL    HW359188   1.822   7.617   5.155
14717SOL    MW459189   1.781   7.576   5.220
14718SOL     OW59190   1.071   8.647   4.576
14718SOL    HW259191   1.163   8.628   4.594
14718SOL    HW359192   1.044   8.577   4.516
14718SOL    MW459193   1.079   8.635   4.570
14719SOL     OW59194   0.864   8.467   3.931
14719SOL    HW259195   0.850   8.379   3.896
14719SOL    HW359196   0.815   8.524   3.872
14719SOL    MW459197   0.856   8.462   3.919
14720SOL     OW59198   1.345   8.885   4.672
14720SOL    HW259199   1.318   8.969   4.637
14720SOL    HW359200   1.305   8.880   4.759
14720SOL    MW459201   1.338   8.894   4.678
14721SOL     OW59202   1.264   8.833   4.940
14721SOL    HW259203   1.275   8.800   5.029
14721SOL    HW359204   1.183   8.792   4.909
14721SOL    MW459205   1.254   8.825   4.946
14722SOL     OW59206   0.277   8.191   4.710
14722SOL    HW259207   0.227   8.190   4.791
14722SOL    HW359208   0.297   8.283   4.694
14722SOL    MW459209   0.273   8.203   4.718
14723SOL     OW59210   1.344   8.955   5.472
14723SOL    HW259211   1.344   9.049   5.488
14723SOL    HW359212   1.389   8.945   5.388
14723SOL    MW459213   1.350   8.965   5.463
14724SOL     OW59214   1.583   7.673   4.033
14724SOL    HW259215   1.576   7.677   4.128
14724SOL    HW359216   1.595   7.764   4.006
14724SOL    MW459217   1.584   7.686   4.041
14725SOL     OW59218   0.872   8.236   4.147
14725SOL    HW259219   0.852   8.222   4.054
14725SOL    HW359220   0.965   8.215   4.154
14725SOL    MW459221   0.882   8.231   4.136
14726SOL     OW59222   0.199   7.859   5.451
14726SOL    HW259223   0.156   7.918   5.388
14726SOL    HW359224   0.267   7.914   5.491
14726SOL    MW459225   0.203   7.874   5.448
14727SOL     OW59226   1.311   8.479   4.996
14727SOL    HW259227   1.374   8.476   5.069
14727SOL    HW359228   1.227   8.497   5.038
14727SOL    MW459229   1.307   8.481   5.011
14728SOL     OW59230   1.650   7.656   4.775
14728SOL    HW259231   1.695   7.574   4.794
14728SOL    HW359232   1.670   7.712   4.851
14728SOL    MW459233   1.660   7.652   4.787
14729SOL     OW59234   0.098   7.499   4.874
14729SOL    HW259235   0.089   7.500   4.779
14729SOL    HW359236   0.192   7.511   4.889
14729SOL    MW459237   0.110   7.502   4.865
14730SOL     OW59238   1.735   8.692   4.494
14730SOL    HW259239   1.714   8.638   4.417
14730SOL    HW359240   1.831   8.690   4.498
14730SOL    MW459241   1.744   8.685   4.483
14731SOL     OW59242   0.427   8.837   5.237
14731SOL    HW259243   0.348   8.787   5.260
14731SOL    HW359244   0.497   8.796   5.287
14731SOL    MW459245   0.425   8.825   5.247
14732SOL     OW59246   0.311   7.626   3.920
14732SOL    HW259247   0.240   7.681   3.888
14732SOL    HW359248   0.353   7.592   3.841
14732SOL    MW459249   0.307   7.628   3.906
14733SOL     OW59250   1.435   8.123   4.756
14733SOL    HW259251   1.358   8.169   4.722
14733SOL    HW359252   1.492   8.192   4.790
14733SOL    MW459253   1.432   8.138   4.756
14734SOL     OW59254   0.067   7.725   3.769
14734SOL    HW259255   0.034   7.804   3.813
14734SOL    HW359256   0.122   7.758   3.698
14734SOL    MW459257   0.070   7.739   3.766
14735SOL     OW59258   1.373   9.071   4.175
14735SOL    HW259259   1.436   9.061   4.104
14735SOL    HW359260   1.290   9.091   4.130
14735SOL    MW459261   1.370   9.072   4.160
14736SOL     OW59262   1.736   8.339   5.862
14736SOL    HW259263   1.777   8.281   5.927
14736SOL    HW359264   1.643   8.331   5.879
14736SOL    MW459265   1.730   8.331   5.872
14737SOL     OW59266   1.602   8.271   6.857
14737SOL    HW259267   1.557   8.338   6.908
14737SOL    HW359268   1.690   8.307   6.843
14737SOL    MW459269   1.608   8.284   6.861
14738SOL     OW59270   0.530   8.522   6.091
14738SOL    HW259271   0.620   8.497   6.075
14738SOL    HW359272   0.526   8.615   6.068
14738SOL    MW459273   0.542   8.531   6.086
14739SOL     OW59274   1.582   8.665   6.838
14739SOL    HW259275   1.503   8.630   6.796
14739SOL    HW359276   1.609   8.737   6.782
14739SOL    MW459277   1.575   8.670   6.825
14740SOL     OW59278   0.814   7.978   6.104
14740SOL    HW259279   0.789   8.066   6.132
14740SOL    HW359280   0.811   7.981   6.008
14740SOL    MW459281   0.810   7.990   6.096
14741SOL     OW59282   0.256   8.006   6.032
14741SOL    HW259283   0.288   8.094   6.014
14741SOL    HW359284   0.244   8.004   6.127
14741SOL    MW459285   0.259   8.018   6.044
14742SOL     OW59286   0.334   8.419   6.933
14742SOL    HW259287   0.397   8.366   6.884
14742SOL    HW359288   0.315   8.493   6.876
14742SOL    MW459289   0.340   8.421   6.920
14743SOL     OW59290   0.655   7.761   6.119
14743SOL    HW259291   0.713   7.837   6.121
14743SOL    HW359292   0.590   7.782   6.052
14743SOL    MW459293   0.654   7.773   6.110
14744SOL     OW59294   0.742   8.688   6.294
14744SOL    HW259295   0.822   8.691   6.346
14744SOL    HW359296   0.770   8.655   6.208
14744SOL    MW459297   0.756   8.684   6.289
14745SOL     OW59298   0.519   8.192   6.285
14745SOL    HW259299   0.504   8.112   6.336
14745SOL    HW359300   0.601   8.227   6.319
14745SOL    MW459301   0.527   8.184   6.297
14746SOL     OW59302   0.661   8.018   6.662
14746SOL    HW259303   0.567   8.014   6.680
14746SOL    HW359304   0.691   7.927   6.671
14746SOL    MW459305   0.652   8.006   6.665
14747SOL     OW59306   0.407   8.432   6.566
14747SOL    HW259307   0.362   8.439   6.482
14747SOL    HW359308   0.387   8.515   6.610
14747SOL    MW459309   0.399   8.444   6.560
14748SOL     OW59310   1.369   8.670   5.810
14748SOL    HW259311   1.287   8.706   5.776
14748SOL    HW359312   1.437   8.713   5.759
14748SOL    MW459313   1.367   8.680   5.798
14749SOL     OW59314   0.368   8.805   6.476
14749SOL    HW259315   0.344   8.858   6.552
14749SOL    HW359316   0.424   8.863   6.424
14749SOL    MW459317   0.372   8.820   6.479
14750SOL     OW59318   0.930   8.449   6.286
14750SOL    HW259319   0.844   8.436   6.326
14750SOL    HW359320   0.983   8.376   6.318
14750SOL    MW459321   0.926   8.438   6.295
14751SOL     OW59322   0.921   8.811   6.003
14751SOL    HW259323   0.898   8.873   6.071
14751SOL    HW359324   0.878   8.729   6.029
14751SOL    MW459325   0.913   8.807   6.014
14752SOL     OW59326   1.794   7.812   6.459
14752SOL    HW259327   1.731   7.792   6.528
14752SOL    HW359328   1.784   7.741   6.396
14752SOL    MW459329   1.784   7.799   6.460
14753SOL     OW59330   0.418   7.784   5.971
14753SOL    HW259331   0.392   7.746   5.887
14753SOL    HW359332   0.355   7.854   5.987
14753SOL    MW459333   0.407   7.787   5.962
14754SOL     OW59334   0.253   8.745   6.008
14754SOL    HW259335   0.201   8.813   5.964
14754SOL    HW359336   0.250   8.671   5.948
14754SOL    MW459337   0.245   8.744   5.995
14755SOL     OW59338   1.850   7.981   5.761
14755SOL    HW259339   1.759   7.983   5.789
14755SOL    HW359340   1.895   8.043   5.819
14755SOL    MW459341   1.843   7.989   5.771
14756SOL     OW59342   1.595   8.584   6.111
14756SOL    HW259343   1.505   8.584   6.146
14756SOL    HW359344   1.588   8.630   6.028
14756SOL    MW459345   1.582   8.590   6.105
14757SOL     OW59346   1.395   8.219   7.183
14757SOL    HW259347   1.464   8.157   7.160
14757SOL    HW359348   1.320   8.193   7.130
14757SOL    MW459349   1.395   8.206   7.174
14758SOL     OW59350   1.131   8.606   7.175
14758SOL    HW259351   1.116   8.699   7.160
14758SOL    HW359352   1.226   8.596   7.175
14758SOL    MW459353   1.140   8.616   7.172
14759SOL     OW59354   0.927   8.030   7.376
14759SOL    HW259355   1.017   8.031   7.343
14759SOL    HW359356   0.886   7.955   7.334
14759SOL    MW459357   0.933   8.020   7.367
14760SOL     OW59358   1.502   8.562   6.503
14760SOL    HW259359   1.505   8.496   6.434
14760SOL    HW359360   1.587   8.605   6.499
14760SOL    MW459361   1.514   8.558   6.494
14761SOL     OW59362   1.122   8.165   6.072
14761SOL    HW259363   1.148   8.189   5.983
14761SOL    HW359364   1.104   8.072   6.068
14761SOL    MW459365   1.124   8.157   6.059
14762SOL     OW59366   1.787   8.785   5.923
14762SOL    HW259367   1.743   8.826   5.998
14762SOL    HW359368   1.844   8.853   5.888
14762SOL    MW459369   1.789   8.799   5.928
14763SOL     OW59370   0.707   7.834   7.326
14763SOL    HW259371   0.717   7.760   7.266
14763SOL    HW359372   0.743   7.803   7.409
14763SOL    MW459373   0.713   7.820   7.328
14764SOL     OW59374   1.827   7.563   6.290
14764SOL    HW259375   1.881   7.514   6.352
14764SOL    HW359376   1.770   7.497   6.251
14764SOL    MW459377   1.827   7.547   6.292
14765SOL     OW59378   0.946   7.516   6.703
14765SOL    HW259379   0.905   7.594   6.665
14765SOL    HW359380   1.040   7.534   6.698
14765SOL    MW459381   0.952   7.528   6.698
14766SOL     OW59382   1.563   9.069   5.789
14766SOL    HW259383   1.611   9.138   5.835
14766SOL    HW359384   1.484   9.113   5.758
14766SOL    MW459385   1.558   9.083   5.792
14767SOL     OW59386   0.961   8.194   5.733
14767SOL    HW259387   0.963   8.141   5.654
14767SOL    HW359388   1.049   8.231   5.739
14767SOL    MW459389   0.973   8.193   5.722
14768SOL     OW59390   1.575   8.120   6.069
14768SOL    HW259391   1.614   8.120   6.156
14768SOL    HW359392   1.516   8.196   6.069
14768SOL    MW459393   1.572   8.131   6.080
14769SOL     OW59394   0.892   8.487   7.198
14769SOL    HW259395   0.869   8.467   7.288
14769SOL    HW359396   0.977   8.531   7.203
14769SOL    MW459397   0.899   8.490   7.210
14770SOL     OW59398   0.972   7.624   6.958
14770SOL    HW259399   0.978   7.586   6.871
14770SOL    HW359400   0.961   7.718   6.943
14770SOL    MW459401   0.973   7.632   6.946
14771SOL     OW59402   1.061   8.113   6.792
14771SOL    HW259403   1.136   8.142   6.739
14771SOL    HW359404   0.993   8.178   6.776
14771SOL    MW459405   1.062   8.125   6.782
14772SOL     OW59406   1.611   8.081   7.069
14772SOL    HW259407   1.592   7.990   7.048
14772SOL    HW359408   1.589   8.130   6.990
14772SOL    MW459409   1.606   8.074   7.056
14773SOL     OW59410   1.753   9.175   6.973
14773SOL    HW259411   1.681   9.137   7.024
14773SOL    HW359412   1.770   9.260   7.014
14773SOL    MW459413   1.747   9.180   6.985
14774SOL     OW59414   1.058   7.819   7.175
14774SOL    HW259415   1.024   7.858   7.094
14774SOL    HW359416   1.036   7.727   7.168
14774SOL    MW459417   1.051   7.812   7.165
14775SOL     OW59418   1.467   8.633   7.251
14775SOL    HW259419   1.549   8.674   7.281
14775SOL    HW359420   1.430   8.595   7.331
14775SOL    MW459421   1.473   8.634   7.266
14776SOL     OW59422   1.762   8.006   6.235
14776SOL    HW259423   1.851   7.975   6.252
14776SOL    HW359424   1.705   7.946   6.283
14776SOL    MW459425   1.765   7.994   6.244
14777SOL     OW59426   0.188   7.720   6.264
14777SOL    HW259427   0.179   7.660   6.190
14777SOL    HW359428   0.121   7.691   6.327
14777SOL    MW459429   0.178   7.707   6.262
14778SOL     OW59430   1.131   8.813   5.825
14778SOL    HW259431   1.081   8.815   5.907
14778SOL    HW359432   1.065   8.831   5.757
14778SOL    MW459433   1.117   8.815   5.827
14779SOL     OW59434   0.135   7.893   6.627
14779SOL    HW259435   0.107   7.984   6.636
14779SOL    HW359436   0.072   7.854   6.566
14779SOL    MW459437   0.122   7.899   6.621
14780SOL     OW59438   1.722   8.751   7.330
14780SOL    HW259439   1.772   8.677   7.362
14780SOL    HW359440   1.668   8.778   7.405
14780SOL    MW459441   1.722   8.745   7.343
14781SOL     OW59442   0.730   8.646   5.640
14781SOL    HW259443   0.652   8.592   5.627
14781SOL    HW359444   0.701   8.719   5.693
14781SOL    MW459445   0.716   8.648   5.645
14782SOL     OW59446   1.856   8.386   6.832
14782SOL    HW259447   1.872   8.424   6.745
14782SOL    HW359448   1.890   8.452   6.893
14782SOL    MW459449   1.863   8.399   6.828
14783SOL     OW59450   1.648   9.095   6.501
14783SOL    HW259451   1.677   9.162   6.562
14783SOL    HW359452   1.629   9.019   6.556
14783SOL    MW459453   1.650   9.095   6.516
14784SOL     OW59454   1.311   9.162   5.708
14784SOL    HW259455   1.237   9.125   5.758
14784SOL    HW359456   1.319   9.252   5.741
14784SOL    MW459457   1.302   9.169   5.720
14785SOL     OW59458   0.119   8.168   6.797
14785SOL    HW259459   0.181   8.198   6.863
14785SOL    HW359460   0.053   8.237   6.791
14785SOL    MW459461   0.118   8.181   6.804
14786SOL     OW59462   1.535   8.836   5.650
14786SOL    HW259463   1.482   8.885   5.586
14786SOL    HW359464   1.566   8.902   5.711
14786SOL    MW459465   1.533   8.850   5.648
14787SOL     OW59466   0.760   7.725   5.705
14787SOL    HW259467   0.708   7.645   5.693
14787SOL    HW359468   0.847   7.702   5.673
14787SOL    MW459469   0.763   7.711   5.699
14788SOL     OW59470   0.266   8.596   6.756
14788SOL    HW259471   0.319   8.671   6.781
14788SOL    HW359472   0.185   8.634   6.722
14788SOL    MW459473   0.262   8.611   6.756
14789SOL     OW59474   0.806   8.500   6.744
14789SOL    HW259475   0.834   8.409   6.756
14789SOL    HW359476   0.735   8.494   6.680
14789SOL    MW459477   0.799   8.488   6.739
14790SOL     OW59478   0.121   8.365   6.162
14790SOL    HW259479   0.212   8.380   6.189
14790SOL    HW359480   0.124   8.286   6.108
14790SOL    MW459481   0.133   8.357   6.160
14791SOL     OW59482   0.357   8.073   7.416
14791SOL    HW259483   0.304   8.153   7.423
14791SOL    HW359484   0.427   8.085   7.481
14791SOL    MW459485   0.359   8.086   7.424
14792SOL     OW59486   0.743   7.623   7.123
14792SOL    HW259487   0.720   7.531   7.125
14792SOL    HW359488   0.829   7.625   7.080
14792SOL    MW459489   0.750   7.613   7.119
14793SOL     OW59490   0.427   8.147   7.162
14793SOL    HW259491   0.507   8.197   7.148
14793SOL    HW359492   0.418   8.141   7.257
14793SOL    MW459493   0.436   8.153   7.172
14794SOL     OW59494   1.404   7.672   7.433
14794SOL    HW259495   1.460   7.599   7.459
14794SOL    HW359496   1.374   7.710   7.515
14794SOL    MW459497   1.408   7.667   7.446
14795SOL     OW59498   1.794   8.165   6.550
14795SOL    HW259499   1.883   8.195   6.532
14795SOL    HW359500   1.774   8.105   6.479
14795SOL    MW459501   1.803   8.162   6.539
14796SOL     OW59502   1.645   8.344   7.430
14796SOL    HW259503   1.700   8.268   7.411
14796SOL    HW359504   1.647   8.352   7.525
14796SOL    MW459505   1.653   8.335   7.438
14797SOL     OW59506   1.133   7.722   5.864
14797SOL    HW259507   1.066   7.698   5.801
14797SOL    HW359508   1.198   7.771   5.813
14797SOL    MW459509   1.133   7.724   5.849
14798SOL     OW59510   0.940   7.906   6.949
14798SOL    HW259511   0.859   7.947   6.977
14798SOL    HW359512   0.987   7.974   6.901
14798SOL    MW459513   0.935   7.921   6.947
14799SOL     OW59514   1.200   8.244   6.572
14799SOL    HW259515   1.213   8.338   6.582
14799SOL    HW359516   1.161   8.234   6.486
14799SOL    MW459517   1.196   8.255   6.562
14800SOL     OW59518   0.652   8.439   6.376
14800SOL    HW259519   0.563   8.430   6.409
14800SOL    HW359520   0.656   8.529   6.344
14800SOL    MW459521   0.641   8.450   6.376
14801SOL     OW59522   1.451   8.022   6.371
14801SOL    HW259523   1.396   7.943   6.370
14801SOL    HW359524   1.433   8.063   6.455
14801SOL    MW459525   1.441   8.017   6.380
14802SOL     OW59526   0.422   7.709   7.188
14802SOL    HW259527   0.343   7.727   7.240
14802SOL    HW359528   0.417   7.771   7.115
14802SOL    MW459529   0.412   7.719   7.185
14803SOL     OW59530   1.070   8.226   6.328
14803SOL    HW259531   1.007   8.158   6.352
14803SOL    HW359532   1.090   8.207   6.236
14803SOL    MW459533   1.064   8.213   6.320
14804SOL     OW59534   0.818   8.530   6.054
14804SOL    HW259535   0.820   8.504   5.961
14804SOL    HW359536   0.876   8.467   6.097
14804SOL    MW459537   0.826   8.519   6.048
14805SOL     OW59538   1.328   7.774   6.387
14805SOL    HW259539   1.356   7.706   6.448
14805SOL    HW359540   1.242   7.745   6.357
14805SOL    MW459541   1.321   7.761   6.391
14806SOL     OW59542   0.133   8.708   6.321
14806SOL    HW259543   0.197   8.740   6.384
14806SOL    HW359544   0.182   8.644   6.269
14806SOL    MW459545   0.148   8.704   6.322
14807SOL     OW59546   0.633   8.784   7.303
14807SOL    HW259547   0.681   8.867   7.290
14807SOL    HW359548   0.690   8.732   7.359
14807SOL    MW459549   0.647   8.788   7.309
14808SOL     OW59550   1.308   7.878   5.722
14808SOL    HW259551   1.281   7.944   5.658
14808SOL    HW359552   1.378   7.921   5.772
14808SOL    MW459553   1.313   7.891   5.719
14809SOL     OW59554   0.976   7.583   5.659
14809SOL    HW259555   1.032   7.575   5.581
14809SOL    HW359556   0.953   7.493   5.681
14809SOL    MW459557   0.981   7.570   5.652
14810SOL     OW59558   1.481   8.434   5.864
14810SOL    HW259559   1.448   8.523   5.854
14810SOL    HW359560   1.446   8.405   5.949
14810SOL    MW459561   1.471   8.443   5.875
14811SOL     OW59562   0.387   7.531   7.394
14811SOL    HW259563   0.315   7.496   7.342
14811SOL    HW359564   0.445   7.572   7.329
14811SOL    MW459565   0.385   7.532   7.379
14812SOL     OW59566   1.851   8.550   7.047
14812SOL    HW259567   1.766   8.563   7.006
14812SOL    HW359568   1.831   8.514   7.134
14812SOL    MW459569   1.838   8.546   7.052
14813SOL     OW59570   0.475   8.472   5.656
14813SOL    HW259571   0.398   8.485   5.712
14813SOL    HW359572   0.439   8.436   5.575
14813SOL    MW459573   0.461   8.468   5.653
14814SOL     OW59574   1.128   8.445   5.899
14814SOL    HW259575   1.038   8.466   5.874
14814SOL    HW359576   1.155   8.518   5.955
14814SOL    MW459577   1.120   8.457   5.902
14815SOL     OW59578   0.628   8.794   6.591
14815SOL    HW259579   0.621   8.773   6.685
14815SOL    HW359580   0.546   8.762   6.554
14815SOL    MW459581   0.616   8.788   6.598
14816SOL     OW59582   1.492   7.804   6.993
14816SOL    HW259583   1.439   7.806   7.073
14816SOL    HW359584   1.477   7.717   6.956
14816SOL    MW459585   1.484   7.794   6.998
14817SOL     OW59586   1.828   7.728   6.866
14817SOL    HW259587   1.809   7.795   6.801
14817SOL    HW359588   1.885   7.666   6.821
14817SOL    MW459589   1.832   7.729   6.852
14818SOL     OW59590   0.757   7.561   6.306
14818SOL    HW259591   0.686   7.622   6.288
14818SOL    HW359592   0.808   7.558   6.225
14818SOL    MW459593   0.753   7.567   6.293
14819SOL     OW59594   0.515   8.801   6.055
14819SOL    HW259595   0.508   8.833   6.145
14819SOL    HW359596   0.425   8.785   6.027
14819SOL    MW459597   0.503   8.803   6.062
14820SOL     OW59598   0.717   8.218   7.436
14820SOL    HW259599   0.787   8.160   7.408
14820SOL    HW359600   0.660   8.163   7.491
14820SOL    MW459601   0.719   8.205   7.440
14821SOL     OW59602   1.504   8.430   7.069
14821SOL    HW259603   1.509   8.483   7.149
14821SOL    HW359604   1.466   8.347   7.097
14821SOL    MW459605   1.500   8.425   7.084
14822SOL     OW59606   1.144   7.565   7.315
14822SOL    HW259607   1.139   7.472   7.296
14822SOL    HW359608   1.227   7.576   7.361
14822SOL    MW459609   1.152   7.554   7.319
14823SOL     OW59610   0.518   8.085   5.769
14823SOL    HW259611   0.484   8.141   5.839
14823SOL    HW359612   0.589   8.035   5.809
14823SOL    MW459613   0.524   8.086   5.783
14824SOL     OW59614   1.614   8.836   6.591
14824SOL    HW259615   1.649   8.818   6.504
14824SOL    HW359616   1.519   8.837   6.578
14824SOL    MW459617   1.606   8.833   6.578
14825SOL     OW59618   1.043   8.484   6.960
14825SOL    HW259619   1.086   8.519   7.038
14825SOL    HW359620   1.026   8.561   6.906
14825SOL    MW459621   1.046   8.499   6.963
14826SOL     OW59622   1.574   7.971   5.833
14826SOL    HW259623   1.566   8.042   5.770
14826SOL    HW359624   1.592   8.015   5.916
14826SOL    MW459625   1.575   7.985   5.835
14827SOL     OW59626   0.434   7.626   6.262
14827SOL    HW259627   0.484   7.669   6.193
14827SOL    HW359628   0.349   7.670   6.262
14827SOL    MW459629   0.431   7.639   6.253
14828SOL     OW59630   0.193   8.688   7.122
14828SOL    HW259631   0.221   8.641   7.200
14828SOL    HW359632   0.114   8.643   7.093
14828SOL    MW459633   0.186   8.677   7.128
14829SOL     OW59634   0.701   8.015   7.089
14829SOL    HW259635   0.673   8.103   7.113
14829SOL    HW359636   0.670   7.959   7.160
14829SOL    MW459637   0.693   8.018   7.101
14830SOL     OW59638   1.243   8.233   5.808
14830SOL    HW259639   1.290   8.251   5.727
14830SOL    HW359640   1.209   8.317   5.836
14830SOL    MW459641   1.245   8.247   5.801
14831SOL     OW59642   0.356   8.411   6.302
14831SOL    HW259643   0.414   8.467   6.250
14831SOL    HW359644   0.400   8.326   6.304
14831SOL    MW459645   0.369   8.408   6.295
14832SOL     OW59646   1.496   7.763   6.139
14832SOL    HW259647   1.418   7.713   6.164
14832SOL    HW359648   1.467   7.854   6.139
14832SOL    MW459649   1.482   7.767   6.142
14833SOL     OW59650   1.082   7.725   6.298
14833SOL    HW259651   1.102   7.800   6.242
14833SOL    HW359652   1.062   7.764   6.383
14833SOL    MW459653   1.083   7.741   6.302
14834SOL     OW59654   1.842   8.498   7.317
14834SOL    HW259655   1.755   8.478   7.353
14834SOL    HW359656   1.896   8.424   7.342
14834SOL    MW459657   1.837   8.487   7.325
14835SOL     OW59658   0.018   8.137   6.021
14835SOL    HW259659  -0.042   8.109   6.091
14835SOL    HW359660   0.092   8.077   6.027
14835SOL    MW459661   0.020   8.126   6.030
14836SOL     OW59662   0.444   7.876   6.910
14836SOL    HW259663   0.477   7.957   6.950
14836SOL    HW359664   0.417   7.902   6.822
14836SOL    MW459665   0.443   7.890   6.904
14837SOL     OW59666   0.398   7.843   6.646
14837SOL    HW259667   0.428   7.757   6.617
14837SOL    HW359668   0.303   7.836   6.649
14837SOL    MW459669   0.390   7.832   6.644
14838SOL     OW59670   1.227   8.052   7.337
14838SOL    HW259671   1.279   7.987   7.290
14838SOL    HW359672   1.185   8.103   7.267
14838SOL    MW459673   1.228   8.049   7.320
14839SOL     OW59674   1.326   7.847   7.198
14839SOL    HW259675   1.233   7.831   7.185
14839SOL    HW359676   1.352   7.785   7.266
14839SOL    MW459677   1.316   7.837   7.205
14840SOL     OW59678   0.541   7.621   6.537
14840SOL    HW259679   0.551   7.530   6.563
14840SOL    HW359680   0.497   7.617   6.452
14840SOL    MW459681   0.537   7.609   6.529
14841SOL     OW59682   1.692   7.943   6.708
14841SOL    HW259683   1.625   7.976   6.768
14841SOL    HW359684   1.735   8.021   6.674
14841SOL    MW459685   1.690   7.958   6.712
14842SOL     OW59686   1.870   8.663   6.678
14842SOL    HW259687   1.863   8.603   6.603
14842SOL    HW359688   1.796   8.723   6.667
14842SOL    MW459689   1.860   8.663   6.667
14843SOL     OW59690   1.252   8.525   6.596
14843SOL    HW259691   1.266   8.497   6.687
14843SOL    HW359692   1.338   8.556   6.568
14843SOL    MW459693   1.265   8.526   6.605
14844SOL     OW59694   1.335   8.020   6.875
14844SOL    HW259695   1.356   8.021   6.782
14844SOL    HW359696   1.380   7.942   6.908
14844SOL    MW459697   1.342   8.010   6.867
14845SOL     OW59698   1.828   8.151   7.417
14845SOL    HW259699   1.865   8.096   7.486
14845SOL    HW359700   1.853   8.108   7.335
14845SOL    MW459701   1.835   8.139   7.416
14846SOL     OW59702   1.326   7.535   5.817
14846SOL    HW259703   1.400   7.579   5.860
14846SOL    HW359704   1.250   7.589   5.839
14846SOL    MW459705   1.326   7.547   5.825
14847SOL     OW59706   1.386   8.310   6.095
14847SOL    HW259707   1.301   8.280   6.065
14847SOL    HW359708   1.378   8.317   6.190
14847SOL    MW459709   1.374   8.308   6.104
14848SOL     OW59710   0.462   8.773   6.826
14848SOL    HW259711   0.474   8.800   6.917
14848SOL    HW359712   0.443   8.854   6.779
14848SOL    MW459713   0.461   8.788   6.831
14849SOL     OW59714   0.746   7.753   6.649
14849SOL    HW259715   0.719   7.755   6.740
14849SOL    HW359716   0.676   7.705   6.604
14849SOL    MW459717   0.734   7.749   6.656
14850SOL     OW59718   1.502   8.830   7.043
14850SOL    HW259719   1.487   8.759   7.106
14850SOL    HW359720   1.548   8.788   6.971
14850SOL    MW459721   1.508   8.814   7.043
14851SOL     OW59722   0.576   8.561   7.160
14851SOL    HW259723   0.613   8.566   7.072
14851SOL    HW359724   0.615   8.634   7.207
14851SOL    MW459725   0.586   8.571   7.155
14852SOL     OW59726   0.756   8.604   6.972
14852SOL    HW259727   0.815   8.550   7.025
14852SOL    HW359728   0.771   8.576   6.882
14852SOL    MW459729   0.766   8.593   6.968
14853SOL     OW59730   0.759   7.976   5.821
14853SOL    HW259731   0.832   8.025   5.784
14853SOL    HW359732   0.775   7.885   5.795
14853SOL    MW459733   0.771   7.971   5.814
14854SOL     OW59734   1.567   9.093   7.144
14854SOL    HW259735   1.609   9.078   7.229
14854SOL    HW359736   1.558   9.006   7.106
14854SOL    MW459737   1.571   9.081   7.151
14855SOL     OW59738   1.227   7.572   6.735
14855SOL    HW259739   1.282   7.581   6.657
14855SOL    HW359740   1.282   7.606   6.806
14855SOL    MW459741   1.241   7.577   6.734
14856SOL     OW59742   0.234   8.485   5.919
14856SOL    HW259743   0.171   8.501   5.848
14856SOL    HW359744   0.181   8.448   5.990
14856SOL    MW459745   0.219   8.482   5.919
14857SOL     OW59746   1.129   9.070   5.930
14857SOL    HW259747   1.137   8.988   5.881
14857SOL    HW359748   1.048   9.109   5.897
14857SOL    MW459749   1.119   9.065   5.920
14858SOL     OW59750   1.005   8.706   6.742
14858SOL    HW259751   0.937   8.640   6.758
14858SOL    HW359752   1.023   8.700   6.649
14858SOL    MW459753   0.998   8.697   6.733
14859SOL     OW59754   0.998   7.845   6.563
14859SOL    HW259755   0.928   7.797   6.608
14859SOL    HW359756   1.030   7.908   6.627
14859SOL    MW459757   0.993   7.847   6.577
14860SOL     OW59758   0.649   8.281   7.183
14860SOL    HW259759   0.642   8.376   7.171
14860SOL    HW359760   0.658   8.270   7.278
14860SOL    MW459761   0.650   8.293   7.193
14861SOL     OW59762   1.454   7.559   6.908
14861SOL    HW259763   1.525   7.505   6.872
14861SOL    HW359764   1.453   7.538   7.001
14861SOL    MW459765   1.463   7.550   6.916
14862SOL     OW59766   1.654   9.089   7.392
14862SOL    HW259767   1.627   9.086   7.483
14862SOL    HW359768   1.750   9.093   7.395
14862SOL    MW459769   1.664   9.089   7.404
14863SOL     OW59770   0.465   7.951   6.376
14863SOL    HW259771   0.536   7.899   6.339
14863SOL    HW359772   0.451   7.916   6.463
14863SOL    MW459773   0.473   7.940   6.383
14864SOL     OW59774   1.101   7.892   6.100
14864SOL    HW259775   1.123   7.829   6.032
14864SOL    HW359776   1.006   7.884   6.111
14864SOL    MW459777   1.091   7.883   6.092
14865SOL     OW59778   0.186   7.582   6.032
14865SOL    HW259779   0.257   7.603   5.971
14865SOL    HW359780   0.140   7.510   5.990
14865SOL    MW459781   0.190   7.576   6.018
14866SOL     OW59782   0.017   8.049   7.175
14866SOL    HW259783   0.081   8.115   7.150
14866SOL    HW359784  -0.064   8.076   7.132
14866SOL    MW459785   0.015   8.061   7.167
14867SOL     OW59786   1.755   8.956   6.132
14867SOL    HW259787   1.725   8.889   6.193
14867SOL    HW359788   1.849   8.962   6.146
14867SOL    MW459789   1.763   8.948   6.142
14868SOL     OW59790   1.311   8.633   6.062
14868SOL    HW259791   1.283   8.719   6.095
14868SOL    HW359792   1.339   8.649   5.972
14868SOL    MW459793   1.311   8.647   6.054
14869SOL     OW59794   0.973   7.553   6.115
14869SOL    HW259795   1.010   7.612   6.180
14869SOL    HW359796   0.950   7.609   6.041
14869SOL    MW459797   0.974   7.568   6.114
14870SOL     OW59798   1.826   8.435   6.537
14870SOL    HW259799   1.817   8.467   6.448
14870SOL    HW359800   1.779   8.351   6.537
14870SOL    MW459801   1.819   8.428   6.527
14871SOL     OW59802   0.202   8.275   7.116
14871SOL    HW259803   0.223   8.344   7.054
14871SOL    HW359804   0.282   8.222   7.121
14871SOL    MW459805   0.215   8.276   7.110
14872SOL     OW59806   1.738   8.366   6.238
14872SOL    HW259807   1.832   8.355   6.226
14872SOL    HW359808   1.714   8.438   6.179
14872SOL    MW459809   1.748   8.374   6.229
14873SOL     OW59810   0.187   8.290   7.383
14873SOL    HW259811   0.113   8.234   7.409
14873SOL    HW359812   0.182   8.293   7.288
14873SOL    MW459813   0.176   8.283   7.373
14874SOL     OW59814   0.353   7.577   6.833
14874SOL    HW259815   0.396   7.661   6.853
14874SOL    HW359816   0.426   7.515   6.826
14874SOL    MW459817   0.368   7.580   6.834
14875SOL     OW59818   0.394   8.244   6.011
14875SOL    HW259819   0.394   8.339   5.996
14875SOL    HW359820   0.471   8.228   6.065
14875SOL    MW459821   0.404   8.255   6.016
14876SOL     OW59822   1.170   8.103   7.075
14876SOL    HW259823   1.206   8.076   6.991
14876SOL    HW359824   1.083   8.137   7.054
14876SOL    MW459825   1.164   8.104   7.062
14877SOL     OW59826   0.153   7.975   6.300
14877SOL    HW259827   0.215   7.982   6.373
14877SOL    HW359828   0.153   7.882   6.277
14877SOL    MW459829   0.161   7.964   6.307
14878SOL     OW59830   0.835   8.236   6.784
14878SOL    HW259831   0.793   8.154   6.760
14878SOL    HW359832   0.836   8.235   6.880
14878SOL    MW459833   0.828   8.225   6.793
14879SOL     OW59834   0.639   7.706   6.889
14879SOL    HW259835   0.570   7.769   6.910
14879SOL    HW359836   0.666   7.670   6.974
14879SOL    MW459837   0.633   7.709   6.902
14880SOL     OW59838   0.022   8.547   5.758
14880SOL    HW259839  -0.009   8.612   5.821
14880SOL    HW359840  -0.029   8.469   5.777
14880SOL    MW459841   0.012   8.544   5.768
14881SOL     OW59842   1.434   7.559   6.506
14881SOL    HW259843   1.522   7.568   6.543
14881SOL    HW359844   1.444   7.500   6.432
14881SOL    MW459845   1.448   7.553   6.500
14882SOL     OW59846   1.466   8.298   6.350
14882SOL    HW259847   1.546   8.313   6.299
14882SOL    HW359848   1.459   8.203   6.356
14882SOL    MW459849   1.475   8.287   6.345
14883SOL     OW59850   0.916   8.224   7.047
14883SOL    HW259851   0.985   8.291   7.044
14883SOL    HW359852   0.849   8.262   7.103
14883SOL    MW459853   0.917   8.237   7.054
14884SOL     OW59854   0.334   8.524   7.295
14884SOL    HW259855   0.288   8.440   7.297
14884SOL    HW359856   0.391   8.518   7.219
14884SOL    MW459857   0.336   8.512   7.287
14885SOL     OW59858   1.451   8.167   5.615
14885SOL    HW259859   1.379   8.143   5.557
14885SOL    HW359860   1.517   8.204   5.557
14885SOL    MW459861   1.450   8.169   5.600
14886SOL     OW59862   0.585   8.899   6.296
14886SOL    HW259863   0.650   8.832   6.317
14886SOL    HW359864   0.637   8.976   6.273
14886SOL    MW459865   0.600   8.901   6.295
14887SOL     OW59866   0.846   8.064   6.426
14887SOL    HW259867   0.786   8.082   6.498
14887SOL    HW359868   0.880   7.976   6.445
14887SOL    MW459869   0.842   8.054   6.439
14888SOL     OW59870   1.787   7.563   7.095
14888SOL    HW259871   1.708   7.609   7.123
14888SOL    HW359872   1.822   7.617   7.024
14888SOL    MW459873   1.781   7.576   7.089
14889SOL     OW59874   1.071   8.647   6.445
14889SOL    HW259875   1.163   8.628   6.463
14889SOL    HW359876   1.044   8.577   6.385
14889SOL    MW459877   1.079   8.635   6.439
14890SOL     OW59878   0.864   8.467   5.800
14890SOL    HW259879   0.850   8.379   5.765
14890SOL    HW359880   0.815   8.524   5.741
14890SOL    MW459881   0.856   8.462   5.788
14891SOL     OW59882   1.345   8.885   6.541
14891SOL    HW259883   1.318   8.969   6.506
14891SOL    HW359884   1.305   8.880   6.628
14891SOL    MW459885   1.338   8.894   6.547
14892SOL     OW59886   1.264   8.833   6.809
14892SOL    HW259887   1.275   8.800   6.898
14892SOL    HW359888   1.183   8.792   6.778
14892SOL    MW459889   1.254   8.825   6.815
14893SOL     OW59890   0.277   8.191   6.579
14893SOL    HW259891   0.227   8.190   6.660
14893SOL    HW359892   0.297   8.283   6.563
14893SOL    MW459893   0.273   8.203   6.587
14894SOL     OW59894   1.344   8.955   7.341
14894SOL    HW259895   1.344   9.049   7.357
14894SOL    HW359896   1.389   8.945   7.257
14894SOL    MW459897   1.350   8.965   7.332
14895SOL     OW59898   1.583   7.673   5.902
14895SOL    HW259899   1.576   7.677   5.997
14895SOL    HW359900   1.595   7.764   5.875
14895SOL    MW459901   1.584   7.686   5.910
14896SOL     OW59902   0.872   8.236   6.016
14896SOL    HW259903   0.852   8.222   5.923
14896SOL    HW359904   0.965   8.215   6.023
14896SOL    MW459905   0.882   8.231   6.005
14897SOL     OW59906   0.199   7.859   7.320
14897SOL    HW259907   0.156   7.918   7.257
14897SOL    HW359908   0.267   7.914   7.360
14897SOL    MW459909   0.203   7.874   7.317
14898SOL     OW59910   1.311   8.479   6.865
14898SOL    HW259911   1.374   8.476   6.938
14898SOL    HW359912   1.227   8.497   6.907
14898SOL    MW459913   1.307   8.481   6.880
14899SOL     OW59914   1.650   7.656   6.644
14899SOL    HW259915   1.695   7.574   6.663
14899SOL    HW359916   1.670   7.712   6.720
14899SOL    MW459917   1.660   7.652   6.656
14900SOL     OW59918   0.098   7.499   6.743
14900SOL    HW259919   0.089   7.500   6.648
14900SOL    HW359920   0.192   7.511   6.758
14900SOL    MW459921   0.110   7.502   6.734
14901SOL     OW59922   1.735   8.692   6.363
14901SOL    HW259923   1.714   8.638   6.286
14901SOL    HW359924   1.831   8.690   6.367
14901SOL    MW459925   1.744   8.685   6.352
14902SOL     OW59926   0.427   8.837   7.106
14902SOL    HW259927   0.348   8.787   7.129
14902SOL    HW359928   0.497   8.796   7.156
14902SOL    MW459929   0.425   8.825   7.116
14903SOL     OW59930   0.311   7.626   5.789
14903SOL    HW259931   0.240   7.681   5.757
14903SOL    HW359932   0.353   7.592   5.710
14903SOL    MW459933   0.307   7.628   5.775
14904SOL     OW59934   1.435   8.123   6.625
14904SOL    HW259935   1.358   8.169   6.591
14904SOL    HW359936   1.492   8.192   6.659
14904SOL    MW459937   1.432   8.138   6.625
14905SOL     OW59938   0.067   7.725   5.638
14905SOL    HW259939   0.034   7.804   5.682
14905SOL    HW359940   0.122   7.758   5.567
14905SOL    MW459941   0.070   7.739   5.635
14906SOL     OW59942   1.373   9.071   6.044
14906SOL    HW259943   1.436   9.061   5.973
14906SOL    HW359944   1.290   9.091   5.999
14906SOL    MW459945   1.370   9.072   6.029
14907SOL     OW59946   3.470   8.271   1.252
14907SOL    HW259947   3.425   8.338   1.303
14907SOL    HW359948   3.558   8.307   1.238
14907SOL    MW459949   3.476   8.284   1.256
14908SOL     OW59950   2.398   8.522   0.486
14908SOL    HW259951   2.488   8.497   0.470
14908SOL    HW359952   2.394   8.615   0.463
14908SOL    MW459953   2.410   8.531   0.481
14909SOL     OW59954   2.893   9.110   1.629
14909SOL    HW259955   2.934   9.146   1.550
14909SOL    HW359956   2.928   9.021   1.636
14909SOL    MW459957   2.904   9.103   1.620
14910SOL     OW59958   3.450   8.665   1.233
14910SOL    HW259959   3.371   8.630   1.191
14910SOL    HW359960   3.477   8.737   1.177
14910SOL    MW459961   3.443   8.670   1.220
14911SOL     OW59962   2.682   7.978   0.499
14911SOL    HW259963   2.657   8.066   0.527
14911SOL    HW359964   2.679   7.981   0.403
14911SOL    MW459965   2.678   7.990   0.491
14912SOL     OW59966   2.124   8.006   0.427
14912SOL    HW259967   2.156   8.094   0.409
14912SOL    HW359968   2.112   8.004   0.522
14912SOL    MW459969   2.127   8.018   0.439
14913SOL     OW59970   2.202   8.419   1.328
14913SOL    HW259971   2.265   8.366   1.279
14913SOL    HW359972   2.183   8.493   1.271
14913SOL    MW459973   2.208   8.421   1.315
14914SOL     OW59974   2.523   7.761   0.514
14914SOL    HW259975   2.581   7.837   0.516
14914SOL    HW359976   2.458   7.782   0.447
14914SOL    MW459977   2.522   7.773   0.505
14915SOL     OW59978   2.610   8.688   0.689
14915SOL    HW259979   2.690   8.691   0.741
14915SOL    HW359980   2.638   8.655   0.603
14915SOL    MW459981   2.624   8.684   0.684
14916SOL     OW59982   2.635   9.029   1.592
14916SOL    HW259983   2.719   9.055   1.631
14916SOL    HW359984   2.659   8.973   1.518
14916SOL    MW459985   2.649   9.025   1.587
14917SOL     OW59986   2.387   8.192   0.680
14917SOL    HW259987   2.372   8.112   0.731
14917SOL    HW359988   2.469   8.227   0.714
14917SOL    MW459989   2.395   8.184   0.692
14918SOL     OW59990   2.724   8.878   1.365
14918SOL    HW259991   2.688   8.944   1.305
14918SOL    HW359992   2.652   8.816   1.378
14918SOL    MW459993   2.710   8.878   1.359
14919SOL     OW59994   2.529   8.018   1.057
14919SOL    HW259995   2.435   8.014   1.075
14919SOL    HW359996   2.559   7.927   1.066
14919SOL    MW459997   2.520   8.006   1.060
14920SOL     OW59998   2.275   8.432   0.961
14920SOL    HW259999   2.230   8.439   0.877
14920SOL    HW360000   2.255   8.515   1.005
14920SOL    MW460001   2.267   8.444   0.955
14921SOL     OW60002   2.236   8.805   0.871
14921SOL    HW260003   2.212   8.858   0.947
14921SOL    HW360004   2.292   8.863   0.819
14921SOL    MW460005   2.240   8.820   0.874
14922SOL     OW60006   2.798   8.449   0.681
14922SOL    HW260007   2.712   8.436   0.721
14922SOL    HW360008   2.851   8.376   0.713
14922SOL    MW460009   2.794   8.438   0.690
14923SOL     OW60010   2.206   9.101   1.466
14923SOL    HW260011   2.114   9.077   1.451
14923SOL    HW360012   2.250   9.018   1.483
14923SOL    MW460013   2.200   9.086   1.465
14924SOL     OW60014   3.662   7.812   0.854
14924SOL    HW260015   3.599   7.792   0.923
14924SOL    HW360016   3.652   7.741   0.791
14924SOL    MW460017   3.652   7.799   0.855
14925SOL     OW60018   2.286   7.784   0.366
14925SOL    HW260019   2.260   7.746   0.282
14925SOL    HW360020   2.223   7.854   0.382
14925SOL    MW460021   2.275   7.787   0.357
14926SOL     OW60022   3.463   8.584   0.506
14926SOL    HW260023   3.373   8.584   0.541
14926SOL    HW360024   3.456   8.630   0.423
14926SOL    MW460025   3.450   8.590   0.500
14927SOL     OW60026   3.263   8.219   1.578
14927SOL    HW260027   3.332   8.157   1.555
14927SOL    HW360028   3.188   8.193   1.525
14927SOL    MW460029   3.263   8.206   1.569
14928SOL     OW60030   2.004   9.099   1.130
14928SOL    HW260031   1.987   9.045   1.207
14928SOL    HW360032   1.992   9.189   1.160
14928SOL    MW460033   2.001   9.103   1.144
14929SOL     OW60034   2.999   8.606   1.570
14929SOL    HW260035   2.984   8.699   1.555
14929SOL    HW360036   3.094   8.596   1.570
14929SOL    MW460037   3.008   8.616   1.567
14930SOL     OW60038   2.795   8.030   1.771
14930SOL    HW260039   2.885   8.031   1.738
14930SOL    HW360040   2.754   7.955   1.729
14930SOL    MW460041   2.801   8.020   1.762
14931SOL     OW60042   3.370   8.562   0.898
14931SOL    HW260043   3.373   8.496   0.829
14931SOL    HW360044   3.455   8.605   0.894
14931SOL    MW460045   3.382   8.558   0.889
14932SOL     OW60046   2.990   8.165   0.467
14932SOL    HW260047   3.016   8.189   0.378
14932SOL    HW360048   2.972   8.072   0.463
14932SOL    MW460049   2.992   8.157   0.454
14933SOL     OW60050   2.575   7.834   1.721
14933SOL    HW260051   2.585   7.760   1.661
14933SOL    HW360052   2.611   7.803   1.804
14933SOL    MW460053   2.581   7.820   1.723
14934SOL     OW60054   3.695   7.563   0.685
14934SOL    HW260055   3.749   7.514   0.747
14934SOL    HW360056   3.638   7.497   0.646
14934SOL    MW460057   3.695   7.547   0.687
14935SOL     OW60058   2.814   7.516   1.098
14935SOL    HW260059   2.773   7.594   1.060
14935SOL    HW360060   2.908   7.534   1.093
14935SOL    MW460061   2.820   7.528   1.093
14936SOL     OW60062   3.443   8.120   0.464
14936SOL    HW260063   3.482   8.120   0.551
14936SOL    HW360064   3.384   8.196   0.464
14936SOL    MW460065   3.440   8.131   0.475
14937SOL     OW60066   2.760   8.487   1.593
14937SOL    HW260067   2.737   8.467   1.683
14937SOL    HW360068   2.845   8.531   1.598
14937SOL    MW460069   2.767   8.490   1.605
14938SOL     OW60070   2.840   7.624   1.353
14938SOL    HW260071   2.846   7.586   1.266
14938SOL    HW360072   2.829   7.718   1.338
14938SOL    MW460073   2.841   7.632   1.341
14939SOL     OW60074   2.929   8.113   1.187
14939SOL    HW260075   3.004   8.142   1.134
14939SOL    HW360076   2.861   8.178   1.171
14939SOL    MW460077   2.930   8.125   1.177
14940SOL     OW60078   3.479   8.081   1.464
14940SOL    HW260079   3.460   7.990   1.443
14940SOL    HW360080   3.457   8.130   1.385
14940SOL    MW460081   3.474   8.074   1.451
14941SOL     OW60082   2.926   7.819   1.570
14941SOL    HW260083   2.892   7.858   1.489
14941SOL    HW360084   2.904   7.727   1.563
14941SOL    MW460085   2.919   7.812   1.560
14942SOL     OW60086   3.335   8.633   1.646
14942SOL    HW260087   3.417   8.674   1.676
14942SOL    HW360088   3.298   8.595   1.726
14942SOL    MW460089   3.341   8.634   1.661
14943SOL     OW60090   3.630   8.006   0.630
14943SOL    HW260091   3.719   7.975   0.647
14943SOL    HW360092   3.573   7.946   0.678
14943SOL    MW460093   3.633   7.994   0.639
14944SOL     OW60094   2.056   7.720   0.659
14944SOL    HW260095   2.047   7.660   0.585
14944SOL    HW360096   1.989   7.691   0.722
14944SOL    MW460097   2.046   7.707   0.657
14945SOL     OW60098   2.003   7.893   1.022
14945SOL    HW260099   1.975   7.984   1.031
14945SOL    HW360100   1.940   7.854   0.961
14945SOL    MW460101   1.990   7.899   1.016
14946SOL     OW60102   3.724   8.386   1.227
14946SOL    HW260103   3.740   8.424   1.140
14946SOL    HW360104   3.758   8.452   1.288
14946SOL    MW460105   3.731   8.399   1.223
14947SOL     OW60106   1.987   8.168   1.192
14947SOL    HW260107   2.049   8.198   1.258
14947SOL    HW360108   1.921   8.237   1.186
14947SOL    MW460109   1.986   8.181   1.199
14948SOL     OW60110   2.134   8.596   1.151
14948SOL    HW260111   2.187   8.671   1.176
14948SOL    HW360112   2.053   8.634   1.117
14948SOL    MW460113   2.130   8.611   1.151
14949SOL     OW60114   2.674   8.500   1.139
14949SOL    HW260115   2.702   8.409   1.151
14949SOL    HW360116   2.603   8.494   1.075
14949SOL    MW460117   2.667   8.488   1.134
14950SOL     OW60118   1.989   8.365   0.557
14950SOL    HW260119   2.080   8.380   0.584
14950SOL    HW360120   1.992   8.286   0.503
14950SOL    MW460121   2.001   8.357   0.555
14951SOL     OW60122   2.225   8.073   1.811
14951SOL    HW260123   2.172   8.153   1.818
14951SOL    HW360124   2.295   8.085   1.876
14951SOL    MW460125   2.227   8.086   1.819
14952SOL     OW60126   2.611   7.623   1.518
14952SOL    HW260127   2.588   7.531   1.520
14952SOL    HW360128   2.697   7.625   1.475
14952SOL    MW460129   2.618   7.613   1.514
14953SOL     OW60130   2.295   8.147   1.557
14953SOL    HW260131   2.375   8.197   1.543
14953SOL    HW360132   2.286   8.141   1.652
14953SOL    MW460133   2.304   8.153   1.567
14954SOL     OW60134   3.272   7.672   1.828
14954SOL    HW260135   3.328   7.599   1.854
14954SOL    HW360136   3.242   7.710   1.910
14954SOL    MW460137   3.276   7.667   1.841
14955SOL     OW60138   1.997   8.977   0.596
14955SOL    HW260139   1.969   9.016   0.678
14955SOL    HW360140   2.017   8.886   0.618
14955SOL    MW460141   1.995   8.969   0.609
14956SOL     OW60142   2.830   9.020   0.631
14956SOL    HW260143   2.913   8.974   0.615
14956SOL    HW360144   2.820   9.019   0.727
14956SOL    MW460145   2.840   9.013   0.641
14957SOL     OW60146   3.662   8.165   0.945
14957SOL    HW260147   3.751   8.195   0.927
14957SOL    HW360148   3.642   8.105   0.874
14957SOL    MW460149   3.671   8.162   0.934
14958SOL     OW60150   3.513   8.344   1.825
14958SOL    HW260151   3.568   8.268   1.806
14958SOL    HW360152   3.515   8.352   1.920
14958SOL    MW460153   3.521   8.335   1.833
14959SOL     OW60154   2.808   7.906   1.344
14959SOL    HW260155   2.727   7.947   1.372
14959SOL    HW360156   2.855   7.974   1.296
14959SOL    MW460157   2.803   7.921   1.342
14960SOL     OW60158   3.068   8.244   0.967
14960SOL    HW260159   3.081   8.338   0.977
14960SOL    HW360160   3.029   8.234   0.881
14960SOL    MW460161   3.064   8.255   0.957
14961SOL     OW60162   2.520   8.439   0.771
14961SOL    HW260163   2.431   8.430   0.804
14961SOL    HW360164   2.524   8.529   0.739
14961SOL    MW460165   2.509   8.450   0.771
14962SOL     OW60166   3.319   8.022   0.766
14962SOL    HW260167   3.264   7.943   0.765
14962SOL    HW360168   3.301   8.063   0.850
14962SOL    MW460169   3.309   8.017   0.775
14963SOL     OW60170   2.290   7.709   1.583
14963SOL    HW260171   2.211   7.727   1.635
14963SOL    HW360172   2.285   7.771   1.510
14963SOL    MW460173   2.280   7.719   1.580
14964SOL     OW60174   2.938   8.226   0.723
14964SOL    HW260175   2.875   8.158   0.747
14964SOL    HW360176   2.958   8.207   0.631
14964SOL    MW460177   2.932   8.213   0.715
14965SOL     OW60178   2.686   8.530   0.449
14965SOL    HW260179   2.688   8.504   0.356
14965SOL    HW360180   2.744   8.467   0.492
14965SOL    MW460181   2.694   8.519   0.443
14966SOL     OW60182   3.196   7.774   0.782
14966SOL    HW260183   3.224   7.706   0.843
14966SOL    HW360184   3.110   7.745   0.752
14966SOL    MW460185   3.189   7.761   0.786
14967SOL     OW60186   2.001   8.708   0.716
14967SOL    HW260187   2.065   8.740   0.779
14967SOL    HW360188   2.050   8.644   0.664
14967SOL    MW460189   2.016   8.704   0.717
14968SOL     OW60190   2.501   8.784   1.698
14968SOL    HW260191   2.549   8.867   1.685
14968SOL    HW360192   2.558   8.732   1.754
14968SOL    MW460193   2.515   8.788   1.704
14969SOL     OW60194   2.077   9.026   1.838
14969SOL    HW260195   2.133   8.950   1.853
14969SOL    HW360196   2.026   9.004   1.760
14969SOL    MW460197   2.077   9.013   1.829
14970SOL     OW60198   2.962   8.863   1.447
14970SOL    HW260199   2.873   8.869   1.415
14970SOL    HW360200   3.006   8.942   1.415
14970SOL    MW460201   2.957   8.873   1.439
14971SOL     OW60202   2.255   7.531   1.789
14971SOL    HW260203   2.183   7.496   1.737
14971SOL    HW360204   2.313   7.572   1.724
14971SOL    MW460205   2.253   7.532   1.774
14972SOL     OW60206   2.279   9.021   1.088
14972SOL    HW260207   2.324   9.083   1.145
14972SOL    HW360208   2.186   9.040   1.101
14972SOL    MW460209   2.272   9.031   1.095
14973SOL     OW60210   3.719   8.550   1.442
14973SOL    HW260211   3.634   8.563   1.401
14973SOL    HW360212   3.699   8.514   1.529
14973SOL    MW460213   3.706   8.546   1.447
14974SOL     OW60214   2.701   9.089   1.196
14974SOL    HW260215   2.725   9.078   1.105
14974SOL    HW360216   2.624   9.146   1.194
14974SOL    MW460217   2.693   9.094   1.185
14975SOL     OW60218   2.496   8.794   0.986
14975SOL    HW260219   2.489   8.773   1.080
14975SOL    HW360220   2.414   8.762   0.949
14975SOL    MW460221   2.484   8.788   0.993
14976SOL     OW60222   3.360   7.804   1.388
14976SOL    HW260223   3.307   7.806   1.468
14976SOL    HW360224   3.345   7.717   1.351
14976SOL    MW460225   3.352   7.794   1.393
14977SOL     OW60226   3.696   7.728   1.261
14977SOL    HW260227   3.677   7.795   1.196
14977SOL    HW360228   3.753   7.666   1.216
14977SOL    MW460229   3.700   7.729   1.247
14978SOL     OW60230   1.942   8.886   1.649
14978SOL    HW260231   1.986   8.819   1.595
14978SOL    HW360232   1.857   8.848   1.669
14978SOL    MW460233   1.937   8.872   1.645
14979SOL     OW60234   2.625   7.561   0.701
14979SOL    HW260235   2.554   7.622   0.683
14979SOL    HW360236   2.676   7.558   0.620
14979SOL    MW460237   2.621   7.567   0.688
14980SOL     OW60238   2.585   8.218   1.831
14980SOL    HW260239   2.655   8.160   1.803
14980SOL    HW360240   2.528   8.163   1.886
14980SOL    MW460241   2.587   8.205   1.835
14981SOL     OW60242   3.372   8.430   1.464
14981SOL    HW260243   3.377   8.483   1.544
14981SOL    HW360244   3.334   8.347   1.492
14981SOL    MW460245   3.368   8.425   1.479
14982SOL     OW60246   3.012   7.565   1.710
14982SOL    HW260247   3.007   7.472   1.691
14982SOL    HW360248   3.095   7.576   1.756
14982SOL    MW460249   3.020   7.554   1.714
14983SOL     OW60250   2.386   8.085   0.164
14983SOL    HW260251   2.352   8.141   0.234
14983SOL    HW360252   2.457   8.035   0.204
14983SOL    MW460253   2.392   8.086   0.178
14984SOL     OW60254   3.482   8.836   0.986
14984SOL    HW260255   3.517   8.818   0.899
14984SOL    HW360256   3.387   8.837   0.973
14984SOL    MW460257   3.474   8.833   0.973
14985SOL     OW60258   2.911   8.484   1.355
14985SOL    HW260259   2.954   8.519   1.433
14985SOL    HW360260   2.894   8.561   1.301
14985SOL    MW460261   2.914   8.499   1.358
14986SOL     OW60262   2.302   7.626   0.657
14986SOL    HW260263   2.352   7.669   0.588
14986SOL    HW360264   2.217   7.670   0.657
14986SOL    MW460265   2.299   7.639   0.648
14987SOL     OW60266   2.061   8.688   1.517
14987SOL    HW260267   2.089   8.641   1.595
14987SOL    HW360268   1.982   8.643   1.488
14987SOL    MW460269   2.054   8.677   1.523
14988SOL     OW60270   2.569   8.015   1.484
14988SOL    HW260271   2.541   8.103   1.508
14988SOL    HW360272   2.538   7.959   1.555
14988SOL    MW460273   2.561   8.018   1.496
14989SOL     OW60274   2.224   8.411   0.697
14989SOL    HW260275   2.282   8.467   0.645
14989SOL    HW360276   2.268   8.326   0.699
14989SOL    MW460277   2.237   8.408   0.690
14990SOL     OW60278   3.364   7.763   0.534
14990SOL    HW260279   3.286   7.713   0.559
14990SOL    HW360280   3.335   7.854   0.534
14990SOL    MW460281   3.350   7.767   0.537
14991SOL     OW60282   2.950   7.725   0.693
14991SOL    HW260283   2.970   7.800   0.637
14991SOL    HW360284   2.930   7.764   0.778
14991SOL    MW460285   2.951   7.741   0.697
14992SOL     OW60286   2.846   8.975   0.025
14992SOL    HW260287   2.873   9.053  -0.023
14992SOL    HW360288   2.753   8.990   0.044
14992SOL    MW460289   2.837   8.988   0.021
14993SOL     OW60290   3.710   8.498   1.712
14993SOL    HW260291   3.623   8.478   1.748
14993SOL    HW360292   3.764   8.424   1.737
14993SOL    MW460293   3.705   8.487   1.720
14994SOL     OW60294   1.931   9.011   0.869
14994SOL    HW260295   1.963   9.015   0.960
14994SOL    HW360296   1.836   9.019   0.877
14994SOL    MW460297   1.923   9.014   0.882
14995SOL     OW60298   1.886   8.137   0.416
14995SOL    HW260299   1.826   8.109   0.486
14995SOL    HW360300   1.960   8.077   0.422
14995SOL    MW460301   1.888   8.126   0.425
14996SOL     OW60302   3.054   8.868   0.576
14996SOL    HW260303   3.077   8.819   0.654
14996SOL    HW360304   3.135   8.910   0.548
14996SOL    MW460305   3.067   8.868   0.583
14997SOL     OW60306   2.312   7.876   1.305
14997SOL    HW260307   2.345   7.957   1.345
14997SOL    HW360308   2.285   7.902   1.217
14997SOL    MW460309   2.311   7.890   1.299
14998SOL     OW60310   2.266   7.843   1.041
14998SOL    HW260311   2.296   7.757   1.012
14998SOL    HW360312   2.171   7.836   1.044
14998SOL    MW460313   2.258   7.832   1.039
14999SOL     OW60314   3.095   8.052   1.732
14999SOL    HW260315   3.147   7.987   1.685
14999SOL    HW360316   3.053   8.103   1.662
14999SOL    MW460317   3.096   8.049   1.715
15000SOL     OW60318   3.194   7.847   1.593
15000SOL    HW260319   3.101   7.831   1.580
15000SOL    HW360320   3.220   7.785   1.661
15000SOL    MW460321   3.184   7.837   1.600
15001SOL     OW60322   2.409   7.621   0.932
15001SOL    HW260323   2.419   7.530   0.958
15001SOL    HW360324   2.365   7.617   0.847
15001SOL    MW460325   2.405   7.609   0.924
15002SOL     OW60326   3.560   7.943   1.103
15002SOL    HW260327   3.493   7.976   1.163
15002SOL    HW360328   3.603   8.021   1.069
15002SOL    MW460329   3.558   7.958   1.107
15003SOL     OW60330   3.738   8.663   1.073
15003SOL    HW260331   3.731   8.603   0.998
15003SOL    HW360332   3.664   8.723   1.062
15003SOL    MW460333   3.728   8.663   1.062
15004SOL     OW60334   3.120   8.525   0.991
15004SOL    HW260335   3.134   8.497   1.082
15004SOL    HW360336   3.206   8.556   0.963
15004SOL    MW460337   3.133   8.526   1.000
15005SOL     OW60338   3.203   8.020   1.270
15005SOL    HW260339   3.224   8.021   1.177
15005SOL    HW360340   3.248   7.942   1.303
15005SOL    MW460341   3.210   8.010   1.262
15006SOL     OW60342   3.696   8.151   1.812
15006SOL    HW260343   3.733   8.096   1.881
15006SOL    HW360344   3.721   8.108   1.730
15006SOL    MW460345   3.703   8.139   1.811
15007SOL     OW60346   3.243   8.449   1.863
15007SOL    HW260347   3.309   8.397   1.817
15007SOL    HW360348   3.263   8.436   1.956
15007SOL    MW460349   3.254   8.440   1.870
15008SOL     OW60350   3.254   8.310   0.490
15008SOL    HW260351   3.169   8.280   0.460
15008SOL    HW360352   3.246   8.317   0.585
15008SOL    MW460353   3.242   8.308   0.499
15009SOL     OW60354   2.330   8.773   1.221
15009SOL    HW260355   2.342   8.800   1.312
15009SOL    HW360356   2.311   8.854   1.174
15009SOL    MW460357   2.329   8.788   1.226
15010SOL     OW60358   2.614   7.753   1.044
15010SOL    HW260359   2.587   7.755   1.135
15010SOL    HW360360   2.544   7.705   0.999
15010SOL    MW460361   2.602   7.749   1.051
15011SOL     OW60362   3.370   8.830   1.438
15011SOL    HW260363   3.355   8.759   1.501
15011SOL    HW360364   3.416   8.788   1.366
15011SOL    MW460365   3.376   8.814   1.438
15012SOL     OW60366   2.444   8.561   1.555
15012SOL    HW260367   2.481   8.566   1.467
15012SOL    HW360368   2.483   8.634   1.602
15012SOL    MW460369   2.454   8.571   1.550
15013SOL     OW60370   2.624   8.604   1.367
15013SOL    HW260371   2.683   8.550   1.420
15013SOL    HW360372   2.639   8.576   1.277
15013SOL    MW460373   2.634   8.593   1.363
15014SOL     OW60374   3.095   7.572   1.130
15014SOL    HW260375   3.150   7.581   1.052
15014SOL    HW360376   3.150   7.606   1.201
15014SOL    MW460377   3.109   7.577   1.129
15015SOL     OW60378   2.102   8.485   0.314
15015SOL    HW260379   2.039   8.501   0.243
15015SOL    HW360380   2.049   8.448   0.385
15015SOL    MW460381   2.087   8.482   0.314
15016SOL     OW60382   2.256   9.228   0.894
15016SOL    HW260383   2.260   9.139   0.929
15016SOL    HW360384   2.282   9.219   0.803
15016SOL    MW460385   2.259   9.216   0.886
15017SOL     OW60386   2.873   8.706   1.137
15017SOL    HW260387   2.805   8.640   1.153
15017SOL    HW360388   2.891   8.700   1.044
15017SOL    MW460389   2.866   8.697   1.128
15018SOL     OW60390   1.962   8.981   1.388
15018SOL    HW260391   1.952   8.939   1.474
15018SOL    HW360392   1.883   9.034   1.378
15018SOL    MW460393   1.951   8.982   1.399
15019SOL     OW60394   2.866   7.845   0.958
15019SOL    HW260395   2.796   7.797   1.003
15019SOL    HW360396   2.898   7.908   1.022
15019SOL    MW460397   2.861   7.847   0.972
15020SOL     OW60398   2.517   8.281   1.578
15020SOL    HW260399   2.510   8.376   1.566
15020SOL    HW360400   2.526   8.270   1.673
15020SOL    MW460401   2.518   8.293   1.588
15021SOL     OW60402   2.238   8.796   1.836
15021SOL    HW260403   2.310   8.798   1.773
15021SOL    HW360404   2.208   8.705   1.835
15021SOL    MW460405   2.243   8.785   1.828
15022SOL     OW60406   3.322   7.559   1.303
15022SOL    HW260407   3.393   7.505   1.267
15022SOL    HW360408   3.321   7.538   1.396
15022SOL    MW460409   3.331   7.550   1.311
15023SOL     OW60410   2.333   7.951   0.771
15023SOL    HW260411   2.404   7.899   0.734
15023SOL    HW360412   2.319   7.916   0.858
15023SOL    MW460413   2.341   7.940   0.778
15024SOL     OW60414   2.649   9.044   0.847
15024SOL    HW260415   2.577   8.981   0.860
15024SOL    HW360416   2.610   9.129   0.865
15024SOL    MW460417   2.633   9.047   0.850
15025SOL     OW60418   2.969   7.892   0.495
15025SOL    HW260419   2.991   7.829   0.427
15025SOL    HW360420   2.874   7.884   0.506
15025SOL    MW460421   2.959   7.883   0.487
15026SOL     OW60422   2.054   7.582   0.427
15026SOL    HW260423   2.125   7.603   0.366
15026SOL    HW360424   2.008   7.510   0.385
15026SOL    MW460425   2.058   7.576   0.413
15027SOL     OW60426   1.885   8.049   1.570
15027SOL    HW260427   1.949   8.115   1.545
15027SOL    HW360428   1.804   8.076   1.527
15027SOL    MW460429   1.883   8.061   1.562
15028SOL     OW60430   2.841   7.553   0.510
15028SOL    HW260431   2.878   7.612   0.575
15028SOL    HW360432   2.818   7.609   0.436
15028SOL    MW460433   2.842   7.568   0.509
15029SOL     OW60434   3.694   8.435   0.932
15029SOL    HW260435   3.685   8.467   0.843
15029SOL    HW360436   3.647   8.351   0.932
15029SOL    MW460437   3.687   8.428   0.922
15030SOL     OW60438   2.070   8.275   1.511
15030SOL    HW260439   2.091   8.344   1.449
15030SOL    HW360440   2.150   8.222   1.516
15030SOL    MW460441   2.083   8.276   1.505
15031SOL     OW60442   3.606   8.366   0.633
15031SOL    HW260443   3.700   8.355   0.621
15031SOL    HW360444   3.582   8.438   0.574
15031SOL    MW460445   3.616   8.374   0.624
15032SOL     OW60446   2.055   8.290   1.778
15032SOL    HW260447   1.981   8.234   1.804
15032SOL    HW360448   2.050   8.293   1.683
15032SOL    MW460449   2.044   8.283   1.768
15033SOL     OW60450   2.221   7.577   1.228
15033SOL    HW260451   2.264   7.661   1.248
15033SOL    HW360452   2.294   7.515   1.221
15033SOL    MW460453   2.236   7.580   1.229
15034SOL     OW60454   2.262   8.244   0.406
15034SOL    HW260455   2.262   8.339   0.391
15034SOL    HW360456   2.339   8.228   0.460
15034SOL    MW460457   2.272   8.255   0.411
15035SOL     OW60458   3.038   8.103   1.470
15035SOL    HW260459   3.074   8.076   1.386
15035SOL    HW360460   2.951   8.137   1.449
15035SOL    MW460461   3.032   8.104   1.457
15036SOL     OW60462   2.021   7.975   0.695
15036SOL    HW260463   2.083   7.982   0.768
15036SOL    HW360464   2.021   7.882   0.672
15036SOL    MW460465   2.029   7.964   0.702
15037SOL     OW60466   2.703   8.236   1.179
15037SOL    HW260467   2.661   8.154   1.155
15037SOL    HW360468   2.704   8.235   1.275
15037SOL    MW460469   2.696   8.225   1.188
15038SOL     OW60470   2.507   7.706   1.284
15038SOL    HW260471   2.438   7.769   1.305
15038SOL    HW360472   2.534   7.670   1.369
15038SOL    MW460473   2.501   7.709   1.297
15039SOL     OW60474   1.890   8.547   0.153
15039SOL    HW260475   1.859   8.612   0.216
15039SOL    HW360476   1.839   8.469   0.172
15039SOL    MW460477   1.880   8.544   0.163
15040SOL     OW60478   3.302   7.559   0.901
15040SOL    HW260479   3.390   7.568   0.938
15040SOL    HW360480   3.312   7.500   0.827
15040SOL    MW460481   3.316   7.553   0.895
15041SOL     OW60482   3.334   8.298   0.745
15041SOL    HW260483   3.414   8.313   0.694
15041SOL    HW360484   3.327   8.203   0.751
15041SOL    MW460485   3.343   8.287   0.740
15042SOL     OW60486   2.784   8.224   1.442
15042SOL    HW260487   2.853   8.291   1.439
15042SOL    HW360488   2.717   8.262   1.498
15042SOL    MW460489   2.785   8.237   1.449
15043SOL     OW60490   2.202   8.524   1.690
15043SOL    HW260491   2.156   8.440   1.692
15043SOL    HW360492   2.259   8.518   1.614
15043SOL    MW460493   2.204   8.512   1.682
15044SOL     OW60494   2.453   8.899   0.691
15044SOL    HW260495   2.518   8.832   0.712
15044SOL    HW360496   2.505   8.976   0.668
15044SOL    MW460497   2.468   8.901   0.690
15045SOL     OW60498   2.714   8.064   0.821
15045SOL    HW260499   2.654   8.082   0.893
15045SOL    HW360500   2.748   7.976   0.840
15045SOL    MW460501   2.710   8.054   0.834
15046SOL     OW60502   3.655   7.563   1.490
15046SOL    HW260503   3.576   7.609   1.518
15046SOL    HW360504   3.690   7.617   1.419
15046SOL    MW460505   3.649   7.576   1.484
15047SOL     OW60506   2.145   8.191   0.974
15047SOL    HW260507   2.095   8.190   1.055
15047SOL    HW360508   2.165   8.283   0.958
15047SOL    MW460509   2.141   8.203   0.982
15048SOL     OW60510   3.212   8.955   1.736
15048SOL    HW260511   3.212   9.049   1.752
15048SOL    HW360512   3.257   8.945   1.652
15048SOL    MW460513   3.218   8.965   1.727
15049SOL     OW60514   2.067   7.859   1.715
15049SOL    HW260515   2.024   7.918   1.652
15049SOL    HW360516   2.135   7.914   1.755
15049SOL    MW460517   2.071   7.874   1.712
15050SOL     OW60518   3.179   8.479   1.260
15050SOL    HW260519   3.242   8.476   1.333
15050SOL    HW360520   3.095   8.497   1.302
15050SOL    MW460521   3.175   8.481   1.275
15051SOL     OW60522   2.723   9.194   0.449
15051SOL    HW260523   2.781   9.265   0.476
15051SOL    HW360524   2.746   9.122   0.507
15051SOL    MW460525   2.734   9.194   0.460
15052SOL     OW60526   3.518   7.656   1.039
15052SOL    HW260527   3.563   7.574   1.058
15052SOL    HW360528   3.538   7.712   1.115
15052SOL    MW460529   3.528   7.652   1.051
15053SOL     OW60530   1.966   7.499   1.138
15053SOL    HW260531   1.957   7.500   1.043
15053SOL    HW360532   2.060   7.511   1.153
15053SOL    MW460533   1.978   7.502   1.129
15054SOL     OW60534   3.603   8.692   0.758
15054SOL    HW260535   3.582   8.638   0.681
15054SOL    HW360536   3.699   8.690   0.762
15054SOL    MW460537   3.612   8.685   0.747
15055SOL     OW60538   2.295   8.837   1.501
15055SOL    HW260539   2.216   8.787   1.524
15055SOL    HW360540   2.365   8.796   1.551
15055SOL    MW460541   2.293   8.825   1.511
15056SOL     OW60542   2.179   7.626   0.184
15056SOL    HW260543   2.108   7.681   0.152
15056SOL    HW360544   2.221   7.592   0.105
15056SOL    MW460545   2.175   7.628   0.170
15057SOL     OW60546   3.303   8.123   1.020
15057SOL    HW260547   3.226   8.169   0.986
15057SOL    HW360548   3.360   8.192   1.054
15057SOL    MW460549   3.300   8.138   1.020
15058SOL     OW60550   1.935   7.725   0.033
15058SOL    HW260551   1.902   7.804   0.077
15058SOL    HW360552   1.990   7.758  -0.038
15058SOL    MW460553   1.938   7.739   0.030
15059SOL     OW60554   3.604   8.339   2.125
15059SOL    HW260555   3.645   8.281   2.190
15059SOL    HW360556   3.511   8.331   2.142
15059SOL    MW460557   3.598   8.331   2.135
15060SOL     OW60558   3.470   8.271   3.120
15060SOL    HW260559   3.425   8.338   3.171
15060SOL    HW360560   3.558   8.307   3.106
15060SOL    MW460561   3.476   8.284   3.124
15061SOL     OW60562   2.398   8.522   2.354
15061SOL    HW260563   2.488   8.497   2.338
15061SOL    HW360564   2.394   8.615   2.331
15061SOL    MW460565   2.410   8.531   2.349
15062SOL     OW60566   2.893   9.110   3.497
15062SOL    HW260567   2.934   9.146   3.418
15062SOL    HW360568   2.928   9.021   3.504
15062SOL    MW460569   2.904   9.103   3.488
15063SOL     OW60570   3.450   8.665   3.101
15063SOL    HW260571   3.371   8.630   3.059
15063SOL    HW360572   3.477   8.737   3.045
15063SOL    MW460573   3.443   8.670   3.088
15064SOL     OW60574   2.682   7.978   2.367
15064SOL    HW260575   2.657   8.066   2.395
15064SOL    HW360576   2.679   7.981   2.271
15064SOL    MW460577   2.678   7.990   2.359
15065SOL     OW60578   2.124   8.006   2.295
15065SOL    HW260579   2.156   8.094   2.277
15065SOL    HW360580   2.112   8.004   2.390
15065SOL    MW460581   2.127   8.018   2.307
15066SOL     OW60582   2.202   8.419   3.196
15066SOL    HW260583   2.265   8.366   3.147
15066SOL    HW360584   2.183   8.493   3.139
15066SOL    MW460585   2.208   8.421   3.183
15067SOL     OW60586   2.523   7.761   2.382
15067SOL    HW260587   2.581   7.837   2.384
15067SOL    HW360588   2.458   7.782   2.315
15067SOL    MW460589   2.522   7.773   2.373
15068SOL     OW60590   2.610   8.688   2.557
15068SOL    HW260591   2.690   8.691   2.609
15068SOL    HW360592   2.638   8.655   2.471
15068SOL    MW460593   2.624   8.684   2.552
15069SOL     OW60594   2.635   9.029   3.460
15069SOL    HW260595   2.719   9.055   3.499
15069SOL    HW360596   2.659   8.973   3.386
15069SOL    MW460597   2.649   9.025   3.455
15070SOL     OW60598   2.387   8.192   2.548
15070SOL    HW260599   2.372   8.112   2.599
15070SOL    HW360600   2.469   8.227   2.582
15070SOL    MW460601   2.395   8.184   2.560
15071SOL     OW60602   2.724   8.878   3.233
15071SOL    HW260603   2.688   8.944   3.173
15071SOL    HW360604   2.652   8.816   3.246
15071SOL    MW460605   2.710   8.878   3.227
15072SOL     OW60606   2.529   8.018   2.925
15072SOL    HW260607   2.435   8.014   2.943
15072SOL    HW360608   2.559   7.927   2.934
15072SOL    MW460609   2.520   8.006   2.928
15073SOL     OW60610   2.275   8.432   2.829
15073SOL    HW260611   2.230   8.439   2.745
15073SOL    HW360612   2.255   8.515   2.873
15073SOL    MW460613   2.267   8.444   2.823
15074SOL     OW60614   3.237   8.670   2.073
15074SOL    HW260615   3.155   8.706   2.039
15074SOL    HW360616   3.305   8.713   2.022
15074SOL    MW460617   3.235   8.680   2.061
15075SOL     OW60618   2.236   8.805   2.739
15075SOL    HW260619   2.212   8.858   2.815
15075SOL    HW360620   2.292   8.863   2.687
15075SOL    MW460621   2.240   8.820   2.742
15076SOL     OW60622   2.798   8.449   2.549
15076SOL    HW260623   2.712   8.436   2.589
15076SOL    HW360624   2.851   8.376   2.581
15076SOL    MW460625   2.794   8.438   2.558
15077SOL     OW60626   2.206   9.101   3.334
15077SOL    HW260627   2.114   9.077   3.319
15077SOL    HW360628   2.250   9.018   3.351
15077SOL    MW460629   2.200   9.086   3.333
15078SOL     OW60630   2.789   8.811   2.266
15078SOL    HW260631   2.766   8.873   2.334
15078SOL    HW360632   2.746   8.729   2.292
15078SOL    MW460633   2.781   8.807   2.277
15079SOL     OW60634   3.662   7.812   2.722
15079SOL    HW260635   3.599   7.792   2.791
15079SOL    HW360636   3.652   7.741   2.659
15079SOL    MW460637   3.652   7.799   2.723
15080SOL     OW60638   2.286   7.784   2.234
15080SOL    HW260639   2.260   7.746   2.150
15080SOL    HW360640   2.223   7.854   2.250
15080SOL    MW460641   2.275   7.787   2.225
15081SOL     OW60642   2.121   8.745   2.271
15081SOL    HW260643   2.069   8.813   2.227
15081SOL    HW360644   2.118   8.671   2.211
15081SOL    MW460645   2.113   8.744   2.258
15082SOL     OW60646   3.718   7.981   2.024
15082SOL    HW260647   3.627   7.983   2.052
15082SOL    HW360648   3.763   8.043   2.082
15082SOL    MW460649   3.711   7.989   2.034
15083SOL     OW60650   3.463   8.584   2.374
15083SOL    HW260651   3.373   8.584   2.409
15083SOL    HW360652   3.456   8.630   2.291
15083SOL    MW460653   3.450   8.590   2.368
15084SOL     OW60654   3.263   8.219   3.446
15084SOL    HW260655   3.332   8.157   3.423
15084SOL    HW360656   3.188   8.193   3.393
15084SOL    MW460657   3.263   8.206   3.437
15085SOL     OW60658   2.004   9.099   2.998
15085SOL    HW260659   1.987   9.045   3.075
15085SOL    HW360660   1.992   9.189   3.028
15085SOL    MW460661   2.001   9.103   3.012
15086SOL     OW60662   2.999   8.606   3.438
15086SOL    HW260663   2.984   8.699   3.423
15086SOL    HW360664   3.094   8.596   3.438
15086SOL    MW460665   3.008   8.616   3.435
15087SOL     OW60666   2.795   8.030   3.639
15087SOL    HW260667   2.885   8.031   3.606
15087SOL    HW360668   2.754   7.955   3.597
15087SOL    MW460669   2.801   8.020   3.630
15088SOL     OW60670   3.370   8.562   2.766
15088SOL    HW260671   3.373   8.496   2.697
15088SOL    HW360672   3.455   8.605   2.762
15088SOL    MW460673   3.382   8.558   2.757
15089SOL     OW60674   2.990   8.165   2.335
15089SOL    HW260675   3.016   8.189   2.246
15089SOL    HW360676   2.972   8.072   2.331
15089SOL    MW460677   2.992   8.157   2.322
15090SOL     OW60678   3.655   8.785   2.186
15090SOL    HW260679   3.611   8.826   2.261
15090SOL    HW360680   3.712   8.853   2.151
15090SOL    MW460681   3.657   8.799   2.191
15091SOL     OW60682   2.575   7.834   3.589
15091SOL    HW260683   2.585   7.760   3.529
15091SOL    HW360684   2.611   7.803   3.672
15091SOL    MW460685   2.581   7.820   3.591
15092SOL     OW60686   3.695   7.563   2.553
15092SOL    HW260687   3.749   7.514   2.615
15092SOL    HW360688   3.638   7.497   2.514
15092SOL    MW460689   3.695   7.547   2.555
15093SOL     OW60690   2.814   7.516   2.966
15093SOL    HW260691   2.773   7.594   2.928
15093SOL    HW360692   2.908   7.534   2.961
15093SOL    MW460693   2.820   7.528   2.961
15094SOL     OW60694   2.829   8.194   1.996
15094SOL    HW260695   2.831   8.141   1.917
15094SOL    HW360696   2.917   8.231   2.002
15094SOL    MW460697   2.841   8.193   1.985
15095SOL     OW60698   3.443   8.120   2.332
15095SOL    HW260699   3.482   8.120   2.419
15095SOL    HW360700   3.384   8.196   2.332
15095SOL    MW460701   3.440   8.131   2.343
15096SOL     OW60702   2.760   8.487   3.461
15096SOL    HW260703   2.737   8.467   3.551
15096SOL    HW360704   2.845   8.531   3.466
15096SOL    MW460705   2.767   8.490   3.473
15097SOL     OW60706   2.840   7.624   3.221
15097SOL    HW260707   2.846   7.586   3.134
15097SOL    HW360708   2.829   7.718   3.206
15097SOL    MW460709   2.841   7.632   3.209
15098SOL     OW60710   2.929   8.113   3.055
15098SOL    HW260711   3.004   8.142   3.002
15098SOL    HW360712   2.861   8.178   3.039
15098SOL    MW460713   2.930   8.125   3.045
15099SOL     OW60714   3.479   8.081   3.332
15099SOL    HW260715   3.460   7.990   3.311
15099SOL    HW360716   3.457   8.130   3.253
15099SOL    MW460717   3.474   8.074   3.319
15100SOL     OW60718   2.926   7.819   3.438
15100SOL    HW260719   2.892   7.858   3.357
15100SOL    HW360720   2.904   7.727   3.431
15100SOL    MW460721   2.919   7.812   3.428
15101SOL     OW60722   3.335   8.633   3.514
15101SOL    HW260723   3.417   8.674   3.544
15101SOL    HW360724   3.298   8.595   3.594
15101SOL    MW460725   3.341   8.634   3.529
15102SOL     OW60726   3.630   8.006   2.498
15102SOL    HW260727   3.719   7.975   2.515
15102SOL    HW360728   3.573   7.946   2.546
15102SOL    MW460729   3.633   7.994   2.507
15103SOL     OW60730   2.056   7.720   2.527
15103SOL    HW260731   2.047   7.660   2.453
15103SOL    HW360732   1.989   7.691   2.590
15103SOL    MW460733   2.046   7.707   2.525
15104SOL     OW60734   2.999   8.813   2.088
15104SOL    HW260735   2.949   8.815   2.170
15104SOL    HW360736   2.933   8.831   2.020
15104SOL    MW460737   2.985   8.815   2.090
15105SOL     OW60738   2.003   7.893   2.890
15105SOL    HW260739   1.975   7.984   2.899
15105SOL    HW360740   1.940   7.854   2.829
15105SOL    MW460741   1.990   7.899   2.884
15106SOL     OW60742   2.598   8.646   1.903
15106SOL    HW260743   2.520   8.592   1.890
15106SOL    HW360744   2.569   8.719   1.956
15106SOL    MW460745   2.584   8.648   1.908
15107SOL     OW60746   3.724   8.386   3.095
15107SOL    HW260747   3.740   8.424   3.008
15107SOL    HW360748   3.758   8.452   3.156
15107SOL    MW460749   3.731   8.399   3.091
15108SOL     OW60750   1.987   8.168   3.060
15108SOL    HW260751   2.049   8.198   3.126
15108SOL    HW360752   1.921   8.237   3.054
15108SOL    MW460753   1.986   8.181   3.067
15109SOL     OW60754   2.628   7.725   1.968
15109SOL    HW260755   2.576   7.645   1.956
15109SOL    HW360756   2.715   7.702   1.936
15109SOL    MW460757   2.631   7.711   1.962
15110SOL     OW60758   2.134   8.596   3.019
15110SOL    HW260759   2.187   8.671   3.044
15110SOL    HW360760   2.053   8.634   2.985
15110SOL    MW460761   2.130   8.611   3.019
15111SOL     OW60762   2.674   8.500   3.007
15111SOL    HW260763   2.702   8.409   3.019
15111SOL    HW360764   2.603   8.494   2.943
15111SOL    MW460765   2.667   8.488   3.002
15112SOL     OW60766   1.989   8.365   2.425
15112SOL    HW260767   2.080   8.380   2.452
15112SOL    HW360768   1.992   8.286   2.371
15112SOL    MW460769   2.001   8.357   2.423
15113SOL     OW60770   2.225   8.073   3.679
15113SOL    HW260771   2.172   8.153   3.686
15113SOL    HW360772   2.295   8.085   3.744
15113SOL    MW460773   2.227   8.086   3.687
15114SOL     OW60774   2.611   7.623   3.386
15114SOL    HW260775   2.588   7.531   3.388
15114SOL    HW360776   2.697   7.625   3.343
15114SOL    MW460777   2.618   7.613   3.382
15115SOL     OW60778   2.295   8.147   3.425
15115SOL    HW260779   2.375   8.197   3.411
15115SOL    HW360780   2.286   8.141   3.520
15115SOL    MW460781   2.304   8.153   3.435
15116SOL     OW60782   3.272   7.672   3.696
15116SOL    HW260783   3.328   7.599   3.722
15116SOL    HW360784   3.242   7.710   3.778
15116SOL    MW460785   3.276   7.667   3.709
15117SOL     OW60786   1.997   8.977   2.464
15117SOL    HW260787   1.969   9.016   2.546
15117SOL    HW360788   2.017   8.886   2.486
15117SOL    MW460789   1.995   8.969   2.477
15118SOL     OW60790   2.830   9.020   2.499
15118SOL    HW260791   2.913   8.974   2.483
15118SOL    HW360792   2.820   9.019   2.595
15118SOL    MW460793   2.840   9.013   2.509
15119SOL     OW60794   3.662   8.165   2.813
15119SOL    HW260795   3.751   8.195   2.795
15119SOL    HW360796   3.642   8.105   2.742
15119SOL    MW460797   3.671   8.162   2.802
15120SOL     OW60798   3.513   8.344   3.693
15120SOL    HW260799   3.568   8.268   3.674
15120SOL    HW360800   3.515   8.352   3.788
15120SOL    MW460801   3.521   8.335   3.701
15121SOL     OW60802   2.563   9.077   1.904
15121SOL    HW260803   2.503   9.146   1.874
15121SOL    HW360804   2.508   9.019   1.957
15121SOL    MW460805   2.547   9.079   1.906
15122SOL     OW60806   3.001   7.722   2.127
15122SOL    HW260807   2.934   7.698   2.064
15122SOL    HW360808   3.066   7.771   2.076
15122SOL    MW460809   3.001   7.724   2.112
15123SOL     OW60810   2.808   7.906   3.212
15123SOL    HW260811   2.727   7.947   3.240
15123SOL    HW360812   2.855   7.974   3.164
15123SOL    MW460813   2.803   7.921   3.210
15124SOL     OW60814   3.068   8.244   2.835
15124SOL    HW260815   3.081   8.338   2.845
15124SOL    HW360816   3.029   8.234   2.749
15124SOL    MW460817   3.064   8.255   2.825
15125SOL     OW60818   2.520   8.439   2.639
15125SOL    HW260819   2.431   8.430   2.672
15125SOL    HW360820   2.524   8.529   2.607
15125SOL    MW460821   2.509   8.450   2.639
15126SOL     OW60822   3.319   8.022   2.634
15126SOL    HW260823   3.264   7.943   2.633
15126SOL    HW360824   3.301   8.063   2.718
15126SOL    MW460825   3.309   8.017   2.643
15127SOL     OW60826   2.290   7.709   3.451
15127SOL    HW260827   2.211   7.727   3.503
15127SOL    HW360828   2.285   7.771   3.378
15127SOL    MW460829   2.280   7.719   3.448
15128SOL     OW60830   2.938   8.226   2.591
15128SOL    HW260831   2.875   8.158   2.615
15128SOL    HW360832   2.958   8.207   2.499
15128SOL    MW460833   2.932   8.213   2.583
15129SOL     OW60834   2.194   9.121   2.293
15129SOL    HW260835   2.155   9.168   2.219
15129SOL    HW360836   2.128   9.056   2.318
15129SOL    MW460837   2.181   9.119   2.287
15130SOL     OW60838   2.686   8.530   2.317
15130SOL    HW260839   2.688   8.504   2.224
15130SOL    HW360840   2.744   8.467   2.360
15130SOL    MW460841   2.694   8.519   2.311
15131SOL     OW60842   3.196   7.774   2.650
15131SOL    HW260843   3.224   7.706   2.711
15131SOL    HW360844   3.110   7.745   2.620
15131SOL    MW460845   3.189   7.761   2.654
15132SOL     OW60846   2.001   8.708   2.584
15132SOL    HW260847   2.065   8.740   2.647
15132SOL    HW360848   2.050   8.644   2.532
15132SOL    MW460849   2.016   8.704   2.585
15133SOL     OW60850   2.501   8.784   3.566
15133SOL    HW260851   2.549   8.867   3.553
15133SOL    HW360852   2.558   8.732   3.622
15133SOL    MW460853   2.515   8.788   3.572
15134SOL     OW60854   2.077   9.026   3.706
15134SOL    HW260855   2.133   8.950   3.721
15134SOL    HW360856   2.026   9.004   3.628
15134SOL    MW460857   2.077   9.013   3.697
15135SOL     OW60858   3.176   7.878   1.985
15135SOL    HW260859   3.149   7.944   1.921
15135SOL    HW360860   3.246   7.921   2.035
15135SOL    MW460861   3.181   7.891   1.982
15136SOL     OW60862   2.844   7.583   1.922
15136SOL    HW260863   2.900   7.575   1.844
15136SOL    HW360864   2.821   7.493   1.944
15136SOL    MW460865   2.849   7.570   1.915
15137SOL     OW60866   3.349   8.434   2.127
15137SOL    HW260867   3.316   8.523   2.117
15137SOL    HW360868   3.314   8.405   2.212
15137SOL    MW460869   3.339   8.443   2.138
15138SOL     OW60870   2.962   8.863   3.315
15138SOL    HW260871   2.873   8.869   3.283
15138SOL    HW360872   3.006   8.942   3.283
15138SOL    MW460873   2.957   8.873   3.307
15139SOL     OW60874   2.255   7.531   3.657
15139SOL    HW260875   2.183   7.496   3.605
15139SOL    HW360876   2.313   7.572   3.592
15139SOL    MW460877   2.253   7.532   3.642
15140SOL     OW60878   2.279   9.021   2.956
15140SOL    HW260879   2.324   9.083   3.013
15140SOL    HW360880   2.186   9.040   2.969
15140SOL    MW460881   2.272   9.031   2.963
15141SOL     OW60882   3.719   8.550   3.310
15141SOL    HW260883   3.634   8.563   3.269
15141SOL    HW360884   3.699   8.514   3.397
15141SOL    MW460885   3.706   8.546   3.315
15142SOL     OW60886   2.701   9.089   3.064
15142SOL    HW260887   2.725   9.078   2.973
15142SOL    HW360888   2.624   9.146   3.062
15142SOL    MW460889   2.693   9.094   3.053
15143SOL     OW60890   2.343   8.472   1.919
15143SOL    HW260891   2.266   8.485   1.975
15143SOL    HW360892   2.307   8.436   1.838
15143SOL    MW460893   2.329   8.468   1.916
15144SOL     OW60894   2.996   8.445   2.162
15144SOL    HW260895   2.906   8.466   2.137
15144SOL    HW360896   3.023   8.518   2.218
15144SOL    MW460897   2.988   8.457   2.165
15145SOL     OW60898   2.496   8.794   2.854
15145SOL    HW260899   2.489   8.773   2.948
15145SOL    HW360900   2.414   8.762   2.817
15145SOL    MW460901   2.484   8.788   2.861
15146SOL     OW60902   3.360   7.804   3.256
15146SOL    HW260903   3.307   7.806   3.336
15146SOL    HW360904   3.345   7.717   3.219
15146SOL    MW460905   3.352   7.794   3.261
15147SOL     OW60906   3.696   7.728   3.129
15147SOL    HW260907   3.677   7.795   3.064
15147SOL    HW360908   3.753   7.666   3.084
15147SOL    MW460909   3.700   7.729   3.115
15148SOL     OW60910   1.942   8.886   3.517
15148SOL    HW260911   1.986   8.819   3.463
15148SOL    HW360912   1.857   8.848   3.537
15148SOL    MW460913   1.937   8.872   3.513
15149SOL     OW60914   2.625   7.561   2.569
15149SOL    HW260915   2.554   7.622   2.551
15149SOL    HW360916   2.676   7.558   2.488
15149SOL    MW460917   2.621   7.567   2.556
15150SOL     OW60918   2.383   8.801   2.318
15150SOL    HW260919   2.376   8.833   2.408
15150SOL    HW360920   2.293   8.785   2.290
15150SOL    MW460921   2.371   8.803   2.325
15151SOL     OW60922   2.585   8.218   3.699
15151SOL    HW260923   2.655   8.160   3.671
15151SOL    HW360924   2.528   8.163   3.754
15151SOL    MW460925   2.587   8.205   3.703
15152SOL     OW60926   3.372   8.430   3.332
15152SOL    HW260927   3.377   8.483   3.412
15152SOL    HW360928   3.334   8.347   3.360
15152SOL    MW460929   3.368   8.425   3.347
15153SOL     OW60930   3.012   7.565   3.578
15153SOL    HW260931   3.007   7.472   3.559
15153SOL    HW360932   3.095   7.576   3.624
15153SOL    MW460933   3.020   7.554   3.582
15154SOL     OW60934   2.386   8.085   2.032
15154SOL    HW260935   2.352   8.141   2.102
15154SOL    HW360936   2.457   8.035   2.072
15154SOL    MW460937   2.392   8.086   2.046
15155SOL     OW60938   3.482   8.836   2.854
15155SOL    HW260939   3.517   8.818   2.767
15155SOL    HW360940   3.387   8.837   2.841
15155SOL    MW460941   3.474   8.833   2.841
15156SOL     OW60942   2.911   8.484   3.223
15156SOL    HW260943   2.954   8.519   3.301
15156SOL    HW360944   2.894   8.561   3.169
15156SOL    MW460945   2.914   8.499   3.226
15157SOL     OW60946   3.442   7.971   2.096
15157SOL    HW260947   3.434   8.042   2.033
15157SOL    HW360948   3.460   8.015   2.179
15157SOL    MW460949   3.443   7.985   2.098
15158SOL     OW60950   2.302   7.626   2.525
15158SOL    HW260951   2.352   7.669   2.456
15158SOL    HW360952   2.217   7.670   2.525
15158SOL    MW460953   2.299   7.639   2.516
15159SOL     OW60954   2.061   8.688   3.385
15159SOL    HW260955   2.089   8.641   3.463
15159SOL    HW360956   1.982   8.643   3.356
15159SOL    MW460957   2.054   8.677   3.391
15160SOL     OW60958   2.569   8.015   3.352
15160SOL    HW260959   2.541   8.103   3.376
15160SOL    HW360960   2.538   7.959   3.423
15160SOL    MW460961   2.561   8.018   3.364
15161SOL     OW60962   3.111   8.233   2.071
15161SOL    HW260963   3.158   8.251   1.990
15161SOL    HW360964   3.077   8.317   2.099
15161SOL    MW460965   3.113   8.247   2.064
15162SOL     OW60966   2.224   8.411   2.565
15162SOL    HW260967   2.282   8.467   2.513
15162SOL    HW360968   2.268   8.326   2.567
15162SOL    MW460969   2.237   8.408   2.558
15163SOL     OW60970   3.364   7.763   2.402
15163SOL    HW260971   3.286   7.713   2.427
15163SOL    HW360972   3.335   7.854   2.402
15163SOL    MW460973   3.350   7.767   2.405
15164SOL     OW60974   2.950   7.725   2.561
15164SOL    HW260975   2.970   7.800   2.505
15164SOL    HW360976   2.930   7.764   2.646
15164SOL    MW460977   2.951   7.741   2.565
15165SOL     OW60978   2.846   8.975   1.893
15165SOL    HW260979   2.873   9.053   1.845
15165SOL    HW360980   2.753   8.990   1.912
15165SOL    MW460981   2.837   8.988   1.889
15166SOL     OW60982   3.710   8.498   3.580
15166SOL    HW260983   3.623   8.478   3.616
15166SOL    HW360984   3.764   8.424   3.605
15166SOL    MW460985   3.705   8.487   3.588
15167SOL     OW60986   1.931   9.011   2.737
15167SOL    HW260987   1.963   9.015   2.828
15167SOL    HW360988   1.836   9.019   2.745
15167SOL    MW460989   1.923   9.014   2.750
15168SOL     OW60990   1.886   8.137   2.284
15168SOL    HW260991   1.826   8.109   2.354
15168SOL    HW360992   1.960   8.077   2.290
15168SOL    MW460993   1.888   8.126   2.293
15169SOL     OW60994   3.054   8.868   2.444
15169SOL    HW260995   3.077   8.819   2.522
15169SOL    HW360996   3.135   8.910   2.416
15169SOL    MW460997   3.067   8.868   2.451
15170SOL     OW60998   2.312   7.876   3.173
15170SOL    HW260999   2.345   7.957   3.213
15170SOL    HW361000   2.285   7.902   3.085
15170SOL    MW461001   2.311   7.890   3.167
15171SOL     OW61002   2.266   7.843   2.909
15171SOL    HW261003   2.296   7.757   2.880
15171SOL    HW361004   2.171   7.836   2.912
15171SOL    MW461005   2.258   7.832   2.907
15172SOL     OW61006   3.095   8.052   3.600
15172SOL    HW261007   3.147   7.987   3.553
15172SOL    HW361008   3.053   8.103   3.530
15172SOL    MW461009   3.096   8.049   3.583
15173SOL     OW61010   3.194   7.847   3.461
15173SOL    HW261011   3.101   7.831   3.448
15173SOL    HW361012   3.220   7.785   3.529
15173SOL    MW461013   3.184   7.837   3.468
15174SOL     OW61014   2.409   7.621   2.800
15174SOL    HW261015   2.419   7.530   2.826
15174SOL    HW361016   2.365   7.617   2.715
15174SOL    MW461017   2.405   7.609   2.792
15175SOL     OW61018   3.738   8.663   2.941
15175SOL    HW261019   3.731   8.603   2.866
15175SOL    HW361020   3.664   8.723   2.930
15175SOL    MW461021   3.728   8.663   2.930
15176SOL     OW61022   3.120   8.525   2.859
15176SOL    HW261023   3.134   8.497   2.950
15176SOL    HW361024   3.206   8.556   2.831
15176SOL    MW461025   3.133   8.526   2.868
15177SOL     OW61026   3.203   8.020   3.138
15177SOL    HW261027   3.224   8.021   3.045
15177SOL    HW361028   3.248   7.942   3.171
15177SOL    MW461029   3.210   8.010   3.130
15178SOL     OW61030   3.696   8.151   3.680
15178SOL    HW261031   3.733   8.096   3.749
15178SOL    HW361032   3.721   8.108   3.598
15178SOL    MW461033   3.703   8.139   3.679
15179SOL     OW61034   3.243   8.449   3.731
15179SOL    HW261035   3.309   8.397   3.685
15179SOL    HW361036   3.263   8.436   3.824
15179SOL    MW461037   3.254   8.440   3.738
15180SOL     OW61038   3.194   7.535   2.080
15180SOL    HW261039   3.268   7.579   2.123
15180SOL    HW361040   3.118   7.589   2.102
15180SOL    MW461041   3.194   7.547   2.088
15181SOL     OW61042   3.254   8.310   2.358
15181SOL    HW261043   3.169   8.280   2.328
15181SOL    HW361044   3.246   8.317   2.453
15181SOL    MW461045   3.242   8.308   2.367
15182SOL     OW61046   2.330   8.773   3.089
15182SOL    HW261047   2.342   8.800   3.180
15182SOL    HW361048   2.311   8.854   3.042
15182SOL    MW461049   2.329   8.788   3.094
15183SOL     OW61050   2.614   7.753   2.912
15183SOL    HW261051   2.587   7.755   3.003
15183SOL    HW361052   2.544   7.705   2.867
15183SOL    MW461053   2.602   7.749   2.919
15184SOL     OW61054   3.370   8.830   3.306
15184SOL    HW261055   3.355   8.759   3.369
15184SOL    HW361056   3.416   8.788   3.234
15184SOL    MW461057   3.376   8.814   3.306
15185SOL     OW61058   2.444   8.561   3.423
15185SOL    HW261059   2.481   8.566   3.335
15185SOL    HW361060   2.483   8.634   3.470
15185SOL    MW461061   2.454   8.571   3.418
15186SOL     OW61062   2.624   8.604   3.235
15186SOL    HW261063   2.683   8.550   3.288
15186SOL    HW361064   2.639   8.576   3.145
15186SOL    MW461065   2.634   8.593   3.231
15187SOL     OW61066   2.627   7.976   2.084
15187SOL    HW261067   2.700   8.025   2.047
15187SOL    HW361068   2.643   7.885   2.058
15187SOL    MW461069   2.639   7.971   2.077
15188SOL     OW61070   3.095   7.572   2.998
15188SOL    HW261071   3.150   7.581   2.920
15188SOL    HW361072   3.150   7.606   3.069
15188SOL    MW461073   3.109   7.577   2.997
15189SOL     OW61074   2.102   8.485   2.182
15189SOL    HW261075   2.039   8.501   2.111
15189SOL    HW361076   2.049   8.448   2.253
15189SOL    MW461077   2.087   8.482   2.182
15190SOL     OW61078   2.458   8.839   2.041
15190SOL    HW261079   2.473   8.815   2.133
15190SOL    HW361080   2.366   8.817   2.025
15190SOL    MW461081   2.448   8.832   2.051
15191SOL     OW61082   2.997   9.070   2.193
15191SOL    HW261083   3.005   8.988   2.144
15191SOL    HW361084   2.916   9.109   2.160
15191SOL    MW461085   2.987   9.065   2.183
15192SOL     OW61086   2.256   9.228   2.762
15192SOL    HW261087   2.260   9.139   2.797
15192SOL    HW361088   2.282   9.219   2.671
15192SOL    MW461089   2.259   9.216   2.754
15193SOL     OW61090   2.873   8.706   3.005
15193SOL    HW261091   2.805   8.640   3.021
15193SOL    HW361092   2.891   8.700   2.912
15193SOL    MW461093   2.866   8.697   2.996
15194SOL     OW61094   1.962   8.981   3.256
15194SOL    HW261095   1.952   8.939   3.342
15194SOL    HW361096   1.883   9.034   3.246
15194SOL    MW461097   1.951   8.982   3.267
15195SOL     OW61098   2.866   7.845   2.826
15195SOL    HW261099   2.796   7.797   2.871
15195SOL    HW361100   2.898   7.908   2.890
15195SOL    MW461101   2.861   7.847   2.840
15196SOL     OW61102   2.517   8.281   3.446
15196SOL    HW261103   2.510   8.376   3.434
15196SOL    HW361104   2.526   8.270   3.541
15196SOL    MW461105   2.518   8.293   3.456
15197SOL     OW61106   2.238   8.796   3.704
15197SOL    HW261107   2.310   8.798   3.641
15197SOL    HW361108   2.208   8.705   3.703
15197SOL    MW461109   2.243   8.785   3.696
15198SOL     OW61110   3.322   7.559   3.171
15198SOL    HW261111   3.393   7.505   3.135
15198SOL    HW361112   3.321   7.538   3.264
15198SOL    MW461113   3.331   7.550   3.179
15199SOL     OW61114   2.333   7.951   2.639
15199SOL    HW261115   2.404   7.899   2.602
15199SOL    HW361116   2.319   7.916   2.726
15199SOL    MW461117   2.341   7.940   2.646
15200SOL     OW61118   2.649   9.044   2.715
15200SOL    HW261119   2.577   8.981   2.728
15200SOL    HW361120   2.610   9.129   2.733
15200SOL    MW461121   2.633   9.047   2.718
15201SOL     OW61122   2.969   7.892   2.363
15201SOL    HW261123   2.991   7.829   2.295
15201SOL    HW361124   2.874   7.884   2.374
15201SOL    MW461125   2.959   7.883   2.355
15202SOL     OW61126   2.054   7.582   2.295
15202SOL    HW261127   2.125   7.603   2.234
15202SOL    HW361128   2.008   7.510   2.253
15202SOL    MW461129   2.058   7.576   2.281
15203SOL     OW61130   1.885   8.049   3.438
15203SOL    HW261131   1.949   8.115   3.413
15203SOL    HW361132   1.804   8.076   3.395
15203SOL    MW461133   1.883   8.061   3.430
15204SOL     OW61134   3.179   8.633   2.325
15204SOL    HW261135   3.151   8.719   2.358
15204SOL    HW361136   3.207   8.649   2.235
15204SOL    MW461137   3.179   8.647   2.317
15205SOL     OW61138   2.841   7.553   2.378
15205SOL    HW261139   2.878   7.612   2.443
15205SOL    HW361140   2.818   7.609   2.304
15205SOL    MW461141   2.842   7.568   2.377
15206SOL     OW61142   3.694   8.435   2.800
15206SOL    HW261143   3.685   8.467   2.711
15206SOL    HW361144   3.647   8.351   2.800
15206SOL    MW461145   3.687   8.428   2.790
15207SOL     OW61146   2.070   8.275   3.379
15207SOL    HW261147   2.091   8.344   3.317
15207SOL    HW361148   2.150   8.222   3.384
15207SOL    MW461149   2.083   8.276   3.373
15208SOL     OW61150   3.606   8.366   2.501
15208SOL    HW261151   3.700   8.355   2.489
15208SOL    HW361152   3.582   8.438   2.442
15208SOL    MW461153   3.616   8.374   2.492
15209SOL     OW61154   2.055   8.290   3.646
15209SOL    HW261155   1.981   8.234   3.672
15209SOL    HW361156   2.050   8.293   3.551
15209SOL    MW461157   2.044   8.283   3.636
15210SOL     OW61158   2.221   7.577   3.096
15210SOL    HW261159   2.264   7.661   3.116
15210SOL    HW361160   2.294   7.515   3.089
15210SOL    MW461161   2.236   7.580   3.097
15211SOL     OW61162   2.262   8.244   2.274
15211SOL    HW261163   2.262   8.339   2.259
15211SOL    HW361164   2.339   8.228   2.328
15211SOL    MW461165   2.272   8.255   2.279
15212SOL     OW61166   3.038   8.103   3.338
15212SOL    HW261167   3.074   8.076   3.254
15212SOL    HW361168   2.951   8.137   3.317
15212SOL    MW461169   3.032   8.104   3.325
15213SOL     OW61170   2.021   7.975   2.563
15213SOL    HW261171   2.083   7.982   2.636
15213SOL    HW361172   2.021   7.882   2.540
15213SOL    MW461173   2.029   7.964   2.570
15214SOL     OW61174   2.703   8.236   3.047
15214SOL    HW261175   2.661   8.154   3.023
15214SOL    HW361176   2.704   8.235   3.143
15214SOL    MW461177   2.696   8.225   3.056
15215SOL     OW61178   2.507   7.706   3.152
15215SOL    HW261179   2.438   7.769   3.173
15215SOL    HW361180   2.534   7.670   3.237
15215SOL    MW461181   2.501   7.709   3.165
15216SOL     OW61182   1.890   8.547   2.021
15216SOL    HW261183   1.859   8.612   2.084
15216SOL    HW361184   1.839   8.469   2.040
15216SOL    MW461185   1.880   8.544   2.031
15217SOL     OW61186   3.302   7.559   2.769
15217SOL    HW261187   3.390   7.568   2.806
15217SOL    HW361188   3.312   7.500   2.695
15217SOL    MW461189   3.316   7.553   2.763
15218SOL     OW61190   3.334   8.298   2.613
15218SOL    HW261191   3.414   8.313   2.562
15218SOL    HW361192   3.327   8.203   2.619
15218SOL    MW461193   3.343   8.287   2.608
15219SOL     OW61194   2.784   8.224   3.310
15219SOL    HW261195   2.853   8.291   3.307
15219SOL    HW361196   2.717   8.262   3.366
15219SOL    MW461197   2.785   8.237   3.317
15220SOL     OW61198   2.202   8.524   3.558
15220SOL    HW261199   2.156   8.440   3.560
15220SOL    HW361200   2.259   8.518   3.482
15220SOL    MW461201   2.204   8.512   3.550
15221SOL     OW61202   3.319   8.167   1.879
15221SOL    HW261203   3.247   8.143   1.821
15221SOL    HW361204   3.385   8.204   1.821
15221SOL    MW461205   3.318   8.169   1.864
15222SOL     OW61206   2.453   8.899   2.559
15222SOL    HW261207   2.518   8.832   2.580
15222SOL    HW361208   2.505   8.976   2.536
15222SOL    MW461209   2.468   8.901   2.558
15223SOL     OW61210   2.714   8.064   2.689
15223SOL    HW261211   2.654   8.082   2.761
15223SOL    HW361212   2.748   7.976   2.708
15223SOL    MW461213   2.710   8.054   2.702
15224SOL     OW61214   3.655   7.563   3.358
15224SOL    HW261215   3.576   7.609   3.386
15224SOL    HW361216   3.690   7.617   3.287
15224SOL    MW461217   3.649   7.576   3.352
15225SOL     OW61218   2.939   8.647   2.708
15225SOL    HW261219   3.031   8.628   2.726
15225SOL    HW361220   2.912   8.577   2.648
15225SOL    MW461221   2.947   8.635   2.702
15226SOL     OW61222   2.732   8.467   2.063
15226SOL    HW261223   2.718   8.379   2.028
15226SOL    HW361224   2.683   8.524   2.004
15226SOL    MW461225   2.724   8.462   2.051
15227SOL     OW61226   2.145   8.191   2.842
15227SOL    HW261227   2.095   8.190   2.923
15227SOL    HW361228   2.165   8.283   2.826
15227SOL    MW461229   2.141   8.203   2.850
15228SOL     OW61230   3.212   8.955   3.604
15228SOL    HW261231   3.212   9.049   3.620
15228SOL    HW361232   3.257   8.945   3.520
15228SOL    MW461233   3.218   8.965   3.595
15229SOL     OW61234   3.451   7.673   2.165
15229SOL    HW261235   3.444   7.677   2.260
15229SOL    HW361236   3.463   7.764   2.138
15229SOL    MW461237   3.452   7.686   2.173
15230SOL     OW61238   2.740   8.236   2.279
15230SOL    HW261239   2.720   8.222   2.186
15230SOL    HW361240   2.833   8.215   2.286
15230SOL    MW461241   2.750   8.231   2.268
15231SOL     OW61242   2.067   7.859   3.583
15231SOL    HW261243   2.024   7.918   3.520
15231SOL    HW361244   2.135   7.914   3.623
15231SOL    MW461245   2.071   7.874   3.580
15232SOL     OW61246   3.179   8.479   3.128
15232SOL    HW261247   3.242   8.476   3.201
15232SOL    HW361248   3.095   8.497   3.170
15232SOL    MW461249   3.175   8.481   3.143
15233SOL     OW61250   2.723   9.194   2.317
15233SOL    HW261251   2.781   9.265   2.344
15233SOL    HW361252   2.746   9.122   2.375
15233SOL    MW461253   2.734   9.194   2.328
15234SOL     OW61254   3.518   7.656   2.907
15234SOL    HW261255   3.563   7.574   2.926
15234SOL    HW361256   3.538   7.712   2.983
15234SOL    MW461257   3.528   7.652   2.919
15235SOL     OW61258   1.966   7.499   3.006
15235SOL    HW261259   1.957   7.500   2.911
15235SOL    HW361260   2.060   7.511   3.021
15235SOL    MW461261   1.978   7.502   2.997
15236SOL     OW61262   3.603   8.692   2.626
15236SOL    HW261263   3.582   8.638   2.549
15236SOL    HW361264   3.699   8.690   2.630
15236SOL    MW461265   3.612   8.685   2.615
15237SOL     OW61266   2.295   8.837   3.369
15237SOL    HW261267   2.216   8.787   3.392
15237SOL    HW361268   2.365   8.796   3.419
15237SOL    MW461269   2.293   8.825   3.379
15238SOL     OW61270   2.179   7.626   2.052
15238SOL    HW261271   2.108   7.681   2.020
15238SOL    HW361272   2.221   7.592   1.973
15238SOL    MW461273   2.175   7.628   2.038
15239SOL     OW61274   3.303   8.123   2.888
15239SOL    HW261275   3.226   8.169   2.854
15239SOL    HW361276   3.360   8.192   2.922
15239SOL    MW461277   3.300   8.138   2.888
15240SOL     OW61278   1.935   7.725   1.901
15240SOL    HW261279   1.902   7.804   1.945
15240SOL    HW361280   1.990   7.758   1.830
15240SOL    MW461281   1.938   7.739   1.898
15241SOL     OW61282   1.969   8.982   2.090
15241SOL    HW261283   1.986   9.066   2.132
15241SOL    HW361284   2.004   8.991   2.002
15241SOL    MW461285   1.974   8.995   2.084
15242SOL     OW61286   3.604   8.339   3.993
15242SOL    HW261287   3.645   8.281   4.058
15242SOL    HW361288   3.511   8.331   4.010
15242SOL    MW461289   3.598   8.331   4.003
15243SOL     OW61290   3.470   8.271   4.988
15243SOL    HW261291   3.425   8.338   5.039
15243SOL    HW361292   3.558   8.307   4.974
15243SOL    MW461293   3.476   8.284   4.992
15244SOL     OW61294   2.398   8.522   4.222
15244SOL    HW261295   2.488   8.497   4.206
15244SOL    HW361296   2.394   8.615   4.199
15244SOL    MW461297   2.410   8.531   4.217
15245SOL     OW61298   2.893   9.110   5.365
15245SOL    HW261299   2.934   9.146   5.286
15245SOL    HW361300   2.928   9.021   5.372
15245SOL    MW461301   2.904   9.103   5.356
15246SOL     OW61302   3.450   8.665   4.969
15246SOL    HW261303   3.371   8.630   4.927
15246SOL    HW361304   3.477   8.737   4.913
15246SOL    MW461305   3.443   8.670   4.956
15247SOL     OW61306   2.682   7.978   4.235
15247SOL    HW261307   2.657   8.066   4.263
15247SOL    HW361308   2.679   7.981   4.139
15247SOL    MW461309   2.678   7.990   4.227
15248SOL     OW61310   2.124   8.006   4.163
15248SOL    HW261311   2.156   8.094   4.145
15248SOL    HW361312   2.112   8.004   4.258
15248SOL    MW461313   2.127   8.018   4.175
15249SOL     OW61314   2.202   8.419   5.064
15249SOL    HW261315   2.265   8.366   5.015
15249SOL    HW361316   2.183   8.493   5.007
15249SOL    MW461317   2.208   8.421   5.051
15250SOL     OW61318   2.523   7.761   4.250
15250SOL    HW261319   2.581   7.837   4.252
15250SOL    HW361320   2.458   7.782   4.183
15250SOL    MW461321   2.522   7.773   4.241
15251SOL     OW61322   2.610   8.688   4.425
15251SOL    HW261323   2.690   8.691   4.477
15251SOL    HW361324   2.638   8.655   4.339
15251SOL    MW461325   2.624   8.684   4.420
15252SOL     OW61326   2.635   9.029   5.328
15252SOL    HW261327   2.719   9.055   5.367
15252SOL    HW361328   2.659   8.973   5.254
15252SOL    MW461329   2.649   9.025   5.323
15253SOL     OW61330   2.387   8.192   4.416
15253SOL    HW261331   2.372   8.112   4.467
15253SOL    HW361332   2.469   8.227   4.450
15253SOL    MW461333   2.395   8.184   4.428
15254SOL     OW61334   2.724   8.878   5.101
15254SOL    HW261335   2.688   8.944   5.041
15254SOL    HW361336   2.652   8.816   5.114
15254SOL    MW461337   2.710   8.878   5.095
15255SOL     OW61338   2.529   8.018   4.793
15255SOL    HW261339   2.435   8.014   4.811
15255SOL    HW361340   2.559   7.927   4.802
15255SOL    MW461341   2.520   8.006   4.796
15256SOL     OW61342   2.275   8.432   4.697
15256SOL    HW261343   2.230   8.439   4.613
15256SOL    HW361344   2.255   8.515   4.741
15256SOL    MW461345   2.267   8.444   4.691
15257SOL     OW61346   3.237   8.670   3.941
15257SOL    HW261347   3.155   8.706   3.907
15257SOL    HW361348   3.305   8.713   3.890
15257SOL    MW461349   3.235   8.680   3.929
15258SOL     OW61350   2.236   8.805   4.607
15258SOL    HW261351   2.212   8.858   4.683
15258SOL    HW361352   2.292   8.863   4.555
15258SOL    MW461353   2.240   8.820   4.610
15259SOL     OW61354   2.798   8.449   4.417
15259SOL    HW261355   2.712   8.436   4.457
15259SOL    HW361356   2.851   8.376   4.449
15259SOL    MW461357   2.794   8.438   4.426
15260SOL     OW61358   2.206   9.101   5.202
15260SOL    HW261359   2.114   9.077   5.187
15260SOL    HW361360   2.250   9.018   5.219
15260SOL    MW461361   2.200   9.086   5.201
15261SOL     OW61362   2.789   8.811   4.134
15261SOL    HW261363   2.766   8.873   4.202
15261SOL    HW361364   2.746   8.729   4.160
15261SOL    MW461365   2.781   8.807   4.145
15262SOL     OW61366   3.662   7.812   4.590
15262SOL    HW261367   3.599   7.792   4.659
15262SOL    HW361368   3.652   7.741   4.527
15262SOL    MW461369   3.652   7.799   4.591
15263SOL     OW61370   2.286   7.784   4.102
15263SOL    HW261371   2.260   7.746   4.018
15263SOL    HW361372   2.223   7.854   4.118
15263SOL    MW461373   2.275   7.787   4.093
15264SOL     OW61374   2.121   8.745   4.139
15264SOL    HW261375   2.069   8.813   4.095
15264SOL    HW361376   2.118   8.671   4.079
15264SOL    MW461377   2.113   8.744   4.126
15265SOL     OW61378   3.718   7.981   3.892
15265SOL    HW261379   3.627   7.983   3.920
15265SOL    HW361380   3.763   8.043   3.950
15265SOL    MW461381   3.711   7.989   3.902
15266SOL     OW61382   3.463   8.584   4.242
15266SOL    HW261383   3.373   8.584   4.277
15266SOL    HW361384   3.456   8.630   4.159
15266SOL    MW461385   3.450   8.590   4.236
15267SOL     OW61386   3.263   8.219   5.314
15267SOL    HW261387   3.332   8.157   5.291
15267SOL    HW361388   3.188   8.193   5.261
15267SOL    MW461389   3.263   8.206   5.305
15268SOL     OW61390   2.004   9.099   4.866
15268SOL    HW261391   1.987   9.045   4.943
15268SOL    HW361392   1.992   9.189   4.896
15268SOL    MW461393   2.001   9.103   4.880
15269SOL     OW61394   2.999   8.606   5.306
15269SOL    HW261395   2.984   8.699   5.291
15269SOL    HW361396   3.094   8.596   5.306
15269SOL    MW461397   3.008   8.616   5.303
15270SOL     OW61398   2.795   8.030   5.507
15270SOL    HW261399   2.885   8.031   5.474
15270SOL    HW361400   2.754   7.955   5.465
15270SOL    MW461401   2.801   8.020   5.498
15271SOL     OW61402   3.370   8.562   4.634
15271SOL    HW261403   3.373   8.496   4.565
15271SOL    HW361404   3.455   8.605   4.630
15271SOL    MW461405   3.382   8.558   4.625
15272SOL     OW61406   2.990   8.165   4.203
15272SOL    HW261407   3.016   8.189   4.114
15272SOL    HW361408   2.972   8.072   4.199
15272SOL    MW461409   2.992   8.157   4.190
15273SOL     OW61410   3.655   8.785   4.054
15273SOL    HW261411   3.611   8.826   4.129
15273SOL    HW361412   3.712   8.853   4.019
15273SOL    MW461413   3.657   8.799   4.059
15274SOL     OW61414   2.575   7.834   5.457
15274SOL    HW261415   2.585   7.760   5.397
15274SOL    HW361416   2.611   7.803   5.540
15274SOL    MW461417   2.581   7.820   5.459
15275SOL     OW61418   3.695   7.563   4.421
15275SOL    HW261419   3.749   7.514   4.483
15275SOL    HW361420   3.638   7.497   4.382
15275SOL    MW461421   3.695   7.547   4.423
15276SOL     OW61422   2.814   7.516   4.834
15276SOL    HW261423   2.773   7.594   4.796
15276SOL    HW361424   2.908   7.534   4.829
15276SOL    MW461425   2.820   7.528   4.829
15277SOL     OW61426   2.829   8.194   3.864
15277SOL    HW261427   2.831   8.141   3.785
15277SOL    HW361428   2.917   8.231   3.870
15277SOL    MW461429   2.841   8.193   3.853
15278SOL     OW61430   3.443   8.120   4.200
15278SOL    HW261431   3.482   8.120   4.287
15278SOL    HW361432   3.384   8.196   4.200
15278SOL    MW461433   3.440   8.131   4.211
15279SOL     OW61434   2.760   8.487   5.329
15279SOL    HW261435   2.737   8.467   5.419
15279SOL    HW361436   2.845   8.531   5.334
15279SOL    MW461437   2.767   8.490   5.341
15280SOL     OW61438   2.840   7.624   5.089
15280SOL    HW261439   2.846   7.586   5.002
15280SOL    HW361440   2.829   7.718   5.074
15280SOL    MW461441   2.841   7.632   5.077
15281SOL     OW61442   2.929   8.113   4.923
15281SOL    HW261443   3.004   8.142   4.870
15281SOL    HW361444   2.861   8.178   4.907
15281SOL    MW461445   2.930   8.125   4.913
15282SOL     OW61446   3.479   8.081   5.200
15282SOL    HW261447   3.460   7.990   5.179
15282SOL    HW361448   3.457   8.130   5.121
15282SOL    MW461449   3.474   8.074   5.187
15283SOL     OW61450   2.926   7.819   5.306
15283SOL    HW261451   2.892   7.858   5.225
15283SOL    HW361452   2.904   7.727   5.299
15283SOL    MW461453   2.919   7.812   5.296
15284SOL     OW61454   3.335   8.633   5.382
15284SOL    HW261455   3.417   8.674   5.412
15284SOL    HW361456   3.298   8.595   5.462
15284SOL    MW461457   3.341   8.634   5.397
15285SOL     OW61458   3.630   8.006   4.366
15285SOL    HW261459   3.719   7.975   4.383
15285SOL    HW361460   3.573   7.946   4.414
15285SOL    MW461461   3.633   7.994   4.375
15286SOL     OW61462   2.056   7.720   4.395
15286SOL    HW261463   2.047   7.660   4.321
15286SOL    HW361464   1.989   7.691   4.458
15286SOL    MW461465   2.046   7.707   4.393
15287SOL     OW61466   2.999   8.813   3.956
15287SOL    HW261467   2.949   8.815   4.038
15287SOL    HW361468   2.933   8.831   3.888
15287SOL    MW461469   2.985   8.815   3.958
15288SOL     OW61470   2.003   7.893   4.758
15288SOL    HW261471   1.975   7.984   4.767
15288SOL    HW361472   1.940   7.854   4.697
15288SOL    MW461473   1.990   7.899   4.752
15289SOL     OW61474   2.598   8.646   3.771
15289SOL    HW261475   2.520   8.592   3.758
15289SOL    HW361476   2.569   8.719   3.824
15289SOL    MW461477   2.584   8.648   3.776
15290SOL     OW61478   3.724   8.386   4.963
15290SOL    HW261479   3.740   8.424   4.876
15290SOL    HW361480   3.758   8.452   5.024
15290SOL    MW461481   3.731   8.399   4.959
15291SOL     OW61482   1.987   8.168   4.928
15291SOL    HW261483   2.049   8.198   4.994
15291SOL    HW361484   1.921   8.237   4.922
15291SOL    MW461485   1.986   8.181   4.935
15292SOL     OW61486   2.628   7.725   3.836
15292SOL    HW261487   2.576   7.645   3.824
15292SOL    HW361488   2.715   7.702   3.804
15292SOL    MW461489   2.631   7.711   3.830
15293SOL     OW61490   2.134   8.596   4.887
15293SOL    HW261491   2.187   8.671   4.912
15293SOL    HW361492   2.053   8.634   4.853
15293SOL    MW461493   2.130   8.611   4.887
15294SOL     OW61494   2.674   8.500   4.875
15294SOL    HW261495   2.702   8.409   4.887
15294SOL    HW361496   2.603   8.494   4.811
15294SOL    MW461497   2.667   8.488   4.870
15295SOL     OW61498   1.989   8.365   4.293
15295SOL    HW261499   2.080   8.380   4.320
15295SOL    HW361500   1.992   8.286   4.239
15295SOL    MW461501   2.001   8.357   4.291
15296SOL     OW61502   2.225   8.073   5.547
15296SOL    HW261503   2.172   8.153   5.554
15296SOL    HW361504   2.295   8.085   5.612
15296SOL    MW461505   2.227   8.086   5.555
15297SOL     OW61506   2.611   7.623   5.254
15297SOL    HW261507   2.588   7.531   5.256
15297SOL    HW361508   2.697   7.625   5.211
15297SOL    MW461509   2.618   7.613   5.250
15298SOL     OW61510   2.295   8.147   5.293
15298SOL    HW261511   2.375   8.197   5.279
15298SOL    HW361512   2.286   8.141   5.388
15298SOL    MW461513   2.304   8.153   5.303
15299SOL     OW61514   3.272   7.672   5.564
15299SOL    HW261515   3.328   7.599   5.590
15299SOL    HW361516   3.242   7.710   5.646
15299SOL    MW461517   3.276   7.667   5.577
15300SOL     OW61518   1.997   8.977   4.332
15300SOL    HW261519   1.969   9.016   4.414
15300SOL    HW361520   2.017   8.886   4.354
15300SOL    MW461521   1.995   8.969   4.345
15301SOL     OW61522   2.830   9.020   4.367
15301SOL    HW261523   2.913   8.974   4.351
15301SOL    HW361524   2.820   9.019   4.463
15301SOL    MW461525   2.840   9.013   4.377
15302SOL     OW61526   3.662   8.165   4.681
15302SOL    HW261527   3.751   8.195   4.663
15302SOL    HW361528   3.642   8.105   4.610
15302SOL    MW461529   3.671   8.162   4.670
15303SOL     OW61530   3.513   8.344   5.561
15303SOL    HW261531   3.568   8.268   5.542
15303SOL    HW361532   3.515   8.352   5.656
15303SOL    MW461533   3.521   8.335   5.569
15304SOL     OW61534   2.563   9.077   3.772
15304SOL    HW261535   2.503   9.146   3.742
15304SOL    HW361536   2.508   9.019   3.825
15304SOL    MW461537   2.547   9.079   3.774
15305SOL     OW61538   3.001   7.722   3.995
15305SOL    HW261539   2.934   7.698   3.932
15305SOL    HW361540   3.066   7.771   3.944
15305SOL    MW461541   3.001   7.724   3.980
15306SOL     OW61542   2.808   7.906   5.080
15306SOL    HW261543   2.727   7.947   5.108
15306SOL    HW361544   2.855   7.974   5.032
15306SOL    MW461545   2.803   7.921   5.078
15307SOL     OW61546   3.068   8.244   4.703
15307SOL    HW261547   3.081   8.338   4.713
15307SOL    HW361548   3.029   8.234   4.617
15307SOL    MW461549   3.064   8.255   4.693
15308SOL     OW61550   2.520   8.439   4.507
15308SOL    HW261551   2.431   8.430   4.540
15308SOL    HW361552   2.524   8.529   4.475
15308SOL    MW461553   2.509   8.450   4.507
15309SOL     OW61554   3.319   8.022   4.502
15309SOL    HW261555   3.264   7.943   4.501
15309SOL    HW361556   3.301   8.063   4.586
15309SOL    MW461557   3.309   8.017   4.511
15310SOL     OW61558   2.290   7.709   5.319
15310SOL    HW261559   2.211   7.727   5.371
15310SOL    HW361560   2.285   7.771   5.246
15310SOL    MW461561   2.280   7.719   5.316
15311SOL     OW61562   2.938   8.226   4.459
15311SOL    HW261563   2.875   8.158   4.483
15311SOL    HW361564   2.958   8.207   4.367
15311SOL    MW461565   2.932   8.213   4.451
15312SOL     OW61566   2.194   9.121   4.161
15312SOL    HW261567   2.155   9.168   4.087
15312SOL    HW361568   2.128   9.056   4.186
15312SOL    MW461569   2.181   9.119   4.155
15313SOL     OW61570   2.686   8.530   4.185
15313SOL    HW261571   2.688   8.504   4.092
15313SOL    HW361572   2.744   8.467   4.228
15313SOL    MW461573   2.694   8.519   4.179
15314SOL     OW61574   3.196   7.774   4.518
15314SOL    HW261575   3.224   7.706   4.579
15314SOL    HW361576   3.110   7.745   4.488
15314SOL    MW461577   3.189   7.761   4.522
15315SOL     OW61578   2.001   8.708   4.452
15315SOL    HW261579   2.065   8.740   4.515
15315SOL    HW361580   2.050   8.644   4.400
15315SOL    MW461581   2.016   8.704   4.453
15316SOL     OW61582   2.501   8.784   5.434
15316SOL    HW261583   2.549   8.867   5.421
15316SOL    HW361584   2.558   8.732   5.490
15316SOL    MW461585   2.515   8.788   5.440
15317SOL     OW61586   2.077   9.026   5.574
15317SOL    HW261587   2.133   8.950   5.589
15317SOL    HW361588   2.026   9.004   5.496
15317SOL    MW461589   2.077   9.013   5.565
15318SOL     OW61590   3.176   7.878   3.853
15318SOL    HW261591   3.149   7.944   3.789
15318SOL    HW361592   3.246   7.921   3.903
15318SOL    MW461593   3.181   7.891   3.850
15319SOL     OW61594   2.844   7.583   3.790
15319SOL    HW261595   2.900   7.575   3.712
15319SOL    HW361596   2.821   7.493   3.812
15319SOL    MW461597   2.849   7.570   3.783
15320SOL     OW61598   3.349   8.434   3.995
15320SOL    HW261599   3.316   8.523   3.985
15320SOL    HW361600   3.314   8.405   4.080
15320SOL    MW461601   3.339   8.443   4.006
15321SOL     OW61602   2.962   8.863   5.183
15321SOL    HW261603   2.873   8.869   5.151
15321SOL    HW361604   3.006   8.942   5.151
15321SOL    MW461605   2.957   8.873   5.175
15322SOL     OW61606   2.255   7.531   5.525
15322SOL    HW261607   2.183   7.496   5.473
15322SOL    HW361608   2.313   7.572   5.460
15322SOL    MW461609   2.253   7.532   5.510
15323SOL     OW61610   2.279   9.021   4.824
15323SOL    HW261611   2.324   9.083   4.881
15323SOL    HW361612   2.186   9.040   4.837
15323SOL    MW461613   2.272   9.031   4.831
15324SOL     OW61614   3.719   8.550   5.178
15324SOL    HW261615   3.634   8.563   5.137
15324SOL    HW361616   3.699   8.514   5.265
15324SOL    MW461617   3.706   8.546   5.183
15325SOL     OW61618   2.701   9.089   4.932
15325SOL    HW261619   2.725   9.078   4.841
15325SOL    HW361620   2.624   9.146   4.930
15325SOL    MW461621   2.693   9.094   4.921
15326SOL     OW61622   2.343   8.472   3.787
15326SOL    HW261623   2.266   8.485   3.843
15326SOL    HW361624   2.307   8.436   3.706
15326SOL    MW461625   2.329   8.468   3.784
15327SOL     OW61626   2.996   8.445   4.030
15327SOL    HW261627   2.906   8.466   4.005
15327SOL    HW361628   3.023   8.518   4.086
15327SOL    MW461629   2.988   8.457   4.033
15328SOL     OW61630   2.496   8.794   4.722
15328SOL    HW261631   2.489   8.773   4.816
15328SOL    HW361632   2.414   8.762   4.685
15328SOL    MW461633   2.484   8.788   4.729
15329SOL     OW61634   3.360   7.804   5.124
15329SOL    HW261635   3.307   7.806   5.204
15329SOL    HW361636   3.345   7.717   5.087
15329SOL    MW461637   3.352   7.794   5.129
15330SOL     OW61638   3.696   7.728   4.997
15330SOL    HW261639   3.677   7.795   4.932
15330SOL    HW361640   3.753   7.666   4.952
15330SOL    MW461641   3.700   7.729   4.983
15331SOL     OW61642   1.942   8.886   5.385
15331SOL    HW261643   1.986   8.819   5.331
15331SOL    HW361644   1.857   8.848   5.405
15331SOL    MW461645   1.937   8.872   5.381
15332SOL     OW61646   2.625   7.561   4.437
15332SOL    HW261647   2.554   7.622   4.419
15332SOL    HW361648   2.676   7.558   4.356
15332SOL    MW461649   2.621   7.567   4.424
15333SOL     OW61650   2.383   8.801   4.186
15333SOL    HW261651   2.376   8.833   4.276
15333SOL    HW361652   2.293   8.785   4.158
15333SOL    MW461653   2.371   8.803   4.193
15334SOL     OW61654   2.585   8.218   5.567
15334SOL    HW261655   2.655   8.160   5.539
15334SOL    HW361656   2.528   8.163   5.622
15334SOL    MW461657   2.587   8.205   5.571
15335SOL     OW61658   3.372   8.430   5.200
15335SOL    HW261659   3.377   8.483   5.280
15335SOL    HW361660   3.334   8.347   5.228
15335SOL    MW461661   3.368   8.425   5.215
15336SOL     OW61662   3.012   7.565   5.446
15336SOL    HW261663   3.007   7.472   5.427
15336SOL    HW361664   3.095   7.576   5.492
15336SOL    MW461665   3.020   7.554   5.450
15337SOL     OW61666   2.386   8.085   3.900
15337SOL    HW261667   2.352   8.141   3.970
15337SOL    HW361668   2.457   8.035   3.940
15337SOL    MW461669   2.392   8.086   3.914
15338SOL     OW61670   3.482   8.836   4.722
15338SOL    HW261671   3.517   8.818   4.635
15338SOL    HW361672   3.387   8.837   4.709
15338SOL    MW461673   3.474   8.833   4.709
15339SOL     OW61674   2.911   8.484   5.091
15339SOL    HW261675   2.954   8.519   5.169
15339SOL    HW361676   2.894   8.561   5.037
15339SOL    MW461677   2.914   8.499   5.094
15340SOL     OW61678   3.442   7.971   3.964
15340SOL    HW261679   3.434   8.042   3.901
15340SOL    HW361680   3.460   8.015   4.047
15340SOL    MW461681   3.443   7.985   3.966
15341SOL     OW61682   2.302   7.626   4.393
15341SOL    HW261683   2.352   7.669   4.324
15341SOL    HW361684   2.217   7.670   4.393
15341SOL    MW461685   2.299   7.639   4.384
15342SOL     OW61686   2.061   8.688   5.253
15342SOL    HW261687   2.089   8.641   5.331
15342SOL    HW361688   1.982   8.643   5.224
15342SOL    MW461689   2.054   8.677   5.259
15343SOL     OW61690   2.569   8.015   5.220
15343SOL    HW261691   2.541   8.103   5.244
15343SOL    HW361692   2.538   7.959   5.291
15343SOL    MW461693   2.561   8.018   5.232
15344SOL     OW61694   3.111   8.233   3.939
15344SOL    HW261695   3.158   8.251   3.858
15344SOL    HW361696   3.077   8.317   3.967
15344SOL    MW461697   3.113   8.247   3.932
15345SOL     OW61698   2.224   8.411   4.433
15345SOL    HW261699   2.282   8.467   4.381
15345SOL    HW361700   2.268   8.326   4.435
15345SOL    MW461701   2.237   8.408   4.426
15346SOL     OW61702   3.364   7.763   4.270
15346SOL    HW261703   3.286   7.713   4.295
15346SOL    HW361704   3.335   7.854   4.270
15346SOL    MW461705   3.350   7.767   4.273
15347SOL     OW61706   2.950   7.725   4.429
15347SOL    HW261707   2.970   7.800   4.373
15347SOL    HW361708   2.930   7.764   4.514
15347SOL    MW461709   2.951   7.741   4.433
15348SOL     OW61710   2.846   8.975   3.761
15348SOL    HW261711   2.873   9.053   3.713
15348SOL    HW361712   2.753   8.990   3.780
15348SOL    MW461713   2.837   8.988   3.757
15349SOL     OW61714   3.710   8.498   5.448
15349SOL    HW261715   3.623   8.478   5.484
15349SOL    HW361716   3.764   8.424   5.473
15349SOL    MW461717   3.705   8.487   5.456
15350SOL     OW61718   1.931   9.011   4.605
15350SOL    HW261719   1.963   9.015   4.696
15350SOL    HW361720   1.836   9.019   4.613
15350SOL    MW461721   1.923   9.014   4.618
15351SOL     OW61722   1.886   8.137   4.152
15351SOL    HW261723   1.826   8.109   4.222
15351SOL    HW361724   1.960   8.077   4.158
15351SOL    MW461725   1.888   8.126   4.161
15352SOL     OW61726   3.054   8.868   4.312
15352SOL    HW261727   3.077   8.819   4.390
15352SOL    HW361728   3.135   8.910   4.284
15352SOL    MW461729   3.067   8.868   4.319
15353SOL     OW61730   2.312   7.876   5.041
15353SOL    HW261731   2.345   7.957   5.081
15353SOL    HW361732   2.285   7.902   4.953
15353SOL    MW461733   2.311   7.890   5.035
15354SOL     OW61734   2.266   7.843   4.777
15354SOL    HW261735   2.296   7.757   4.748
15354SOL    HW361736   2.171   7.836   4.780
15354SOL    MW461737   2.258   7.832   4.775
15355SOL     OW61738   3.095   8.052   5.468
15355SOL    HW261739   3.147   7.987   5.421
15355SOL    HW361740   3.053   8.103   5.398
15355SOL    MW461741   3.096   8.049   5.451
15356SOL     OW61742   3.194   7.847   5.329
15356SOL    HW261743   3.101   7.831   5.316
15356SOL    HW361744   3.220   7.785   5.397
15356SOL    MW461745   3.184   7.837   5.336
15357SOL     OW61746   2.409   7.621   4.668
15357SOL    HW261747   2.419   7.530   4.694
15357SOL    HW361748   2.365   7.617   4.583
15357SOL    MW461749   2.405   7.609   4.660
15358SOL     OW61750   3.560   7.943   4.839
15358SOL    HW261751   3.493   7.976   4.899
15358SOL    HW361752   3.603   8.021   4.805
15358SOL    MW461753   3.558   7.958   4.843
15359SOL     OW61754   3.738   8.663   4.809
15359SOL    HW261755   3.731   8.603   4.734
15359SOL    HW361756   3.664   8.723   4.798
15359SOL    MW461757   3.728   8.663   4.798
15360SOL     OW61758   3.120   8.525   4.727
15360SOL    HW261759   3.134   8.497   4.818
15360SOL    HW361760   3.206   8.556   4.699
15360SOL    MW461761   3.133   8.526   4.736
15361SOL     OW61762   3.203   8.020   5.006
15361SOL    HW261763   3.224   8.021   4.913
15361SOL    HW361764   3.248   7.942   5.039
15361SOL    MW461765   3.210   8.010   4.998
15362SOL     OW61766   3.696   8.151   5.548
15362SOL    HW261767   3.733   8.096   5.617
15362SOL    HW361768   3.721   8.108   5.466
15362SOL    MW461769   3.703   8.139   5.547
15363SOL     OW61770   3.243   8.449   5.600
15363SOL    HW261771   3.309   8.397   5.554
15363SOL    HW361772   3.263   8.436   5.693
15363SOL    MW461773   3.254   8.440   5.607
15364SOL     OW61774   3.194   7.535   3.948
15364SOL    HW261775   3.268   7.579   3.991
15364SOL    HW361776   3.118   7.589   3.970
15364SOL    MW461777   3.194   7.547   3.956
15365SOL     OW61778   3.254   8.310   4.226
15365SOL    HW261779   3.169   8.280   4.196
15365SOL    HW361780   3.246   8.317   4.321
15365SOL    MW461781   3.242   8.308   4.235
15366SOL     OW61782   2.330   8.773   4.957
15366SOL    HW261783   2.342   8.800   5.048
15366SOL    HW361784   2.311   8.854   4.910
15366SOL    MW461785   2.329   8.788   4.962
15367SOL     OW61786   2.614   7.753   4.780
15367SOL    HW261787   2.587   7.755   4.871
15367SOL    HW361788   2.544   7.705   4.735
15367SOL    MW461789   2.602   7.749   4.787
15368SOL     OW61790   3.370   8.830   5.174
15368SOL    HW261791   3.355   8.759   5.237
15368SOL    HW361792   3.416   8.788   5.102
15368SOL    MW461793   3.376   8.814   5.174
15369SOL     OW61794   2.444   8.561   5.291
15369SOL    HW261795   2.481   8.566   5.203
15369SOL    HW361796   2.483   8.634   5.338
15369SOL    MW461797   2.454   8.571   5.286
15370SOL     OW61798   2.624   8.604   5.103
15370SOL    HW261799   2.683   8.550   5.156
15370SOL    HW361800   2.639   8.576   5.013
15370SOL    MW461801   2.634   8.593   5.099
15371SOL     OW61802   2.627   7.976   3.952
15371SOL    HW261803   2.700   8.025   3.915
15371SOL    HW361804   2.643   7.885   3.926
15371SOL    MW461805   2.639   7.971   3.945
15372SOL     OW61806   3.095   7.572   4.866
15372SOL    HW261807   3.150   7.581   4.788
15372SOL    HW361808   3.150   7.606   4.937
15372SOL    MW461809   3.109   7.577   4.865
15373SOL     OW61810   2.102   8.485   4.050
15373SOL    HW261811   2.039   8.501   3.979
15373SOL    HW361812   2.049   8.448   4.121
15373SOL    MW461813   2.087   8.482   4.050
15374SOL     OW61814   2.458   8.839   3.909
15374SOL    HW261815   2.473   8.815   4.001
15374SOL    HW361816   2.366   8.817   3.893
15374SOL    MW461817   2.448   8.832   3.919
15375SOL     OW61818   2.997   9.070   4.061
15375SOL    HW261819   3.005   8.988   4.012
15375SOL    HW361820   2.916   9.109   4.028
15375SOL    MW461821   2.987   9.065   4.051
15376SOL     OW61822   2.256   9.228   4.630
15376SOL    HW261823   2.260   9.139   4.665
15376SOL    HW361824   2.282   9.219   4.539
15376SOL    MW461825   2.259   9.216   4.622
15377SOL     OW61826   1.962   8.981   5.124
15377SOL    HW261827   1.952   8.939   5.210
15377SOL    HW361828   1.883   9.034   5.114
15377SOL    MW461829   1.951   8.982   5.135
15378SOL     OW61830   2.866   7.845   4.694
15378SOL    HW261831   2.796   7.797   4.739
15378SOL    HW361832   2.898   7.908   4.758
15378SOL    MW461833   2.861   7.847   4.708
15379SOL     OW61834   2.517   8.281   5.314
15379SOL    HW261835   2.510   8.376   5.302
15379SOL    HW361836   2.526   8.270   5.409
15379SOL    MW461837   2.518   8.293   5.324
15380SOL     OW61838   2.238   8.796   5.572
15380SOL    HW261839   2.310   8.798   5.509
15380SOL    HW361840   2.208   8.705   5.571
15380SOL    MW461841   2.243   8.785   5.564
15381SOL     OW61842   3.322   7.559   5.039
15381SOL    HW261843   3.393   7.505   5.003
15381SOL    HW361844   3.321   7.538   5.132
15381SOL    MW461845   3.331   7.550   5.047
15382SOL     OW61846   2.333   7.951   4.507
15382SOL    HW261847   2.404   7.899   4.470
15382SOL    HW361848   2.319   7.916   4.594
15382SOL    MW461849   2.341   7.940   4.514
15383SOL     OW61850   2.649   9.044   4.583
15383SOL    HW261851   2.577   8.981   4.596
15383SOL    HW361852   2.610   9.129   4.601
15383SOL    MW461853   2.633   9.047   4.586
15384SOL     OW61854   2.969   7.892   4.231
15384SOL    HW261855   2.991   7.829   4.163
15384SOL    HW361856   2.874   7.884   4.242
15384SOL    MW461857   2.959   7.883   4.223
15385SOL     OW61858   1.885   8.049   5.306
15385SOL    HW261859   1.949   8.115   5.281
15385SOL    HW361860   1.804   8.076   5.263
15385SOL    MW461861   1.883   8.061   5.298
15386SOL     OW61862   3.179   8.633   4.193
15386SOL    HW261863   3.151   8.719   4.226
15386SOL    HW361864   3.207   8.649   4.103
15386SOL    MW461865   3.179   8.647   4.185
15387SOL     OW61866   2.841   7.553   4.246
15387SOL    HW261867   2.878   7.612   4.311
15387SOL    HW361868   2.818   7.609   4.172
15387SOL    MW461869   2.842   7.568   4.245
15388SOL     OW61870   3.694   8.435   4.668
15388SOL    HW261871   3.685   8.467   4.579
15388SOL    HW361872   3.647   8.351   4.668
15388SOL    MW461873   3.687   8.428   4.658
15389SOL     OW61874   2.070   8.275   5.247
15389SOL    HW261875   2.091   8.344   5.185
15389SOL    HW361876   2.150   8.222   5.252
15389SOL    MW461877   2.083   8.276   5.241
15390SOL     OW61878   3.606   8.366   4.369
15390SOL    HW261879   3.700   8.355   4.357
15390SOL    HW361880   3.582   8.438   4.310
15390SOL    MW461881   3.616   8.374   4.360
15391SOL     OW61882   2.055   8.290   5.514
15391SOL    HW261883   1.981   8.234   5.540
15391SOL    HW361884   2.050   8.293   5.419
15391SOL    MW461885   2.044   8.283   5.504
15392SOL     OW61886   2.221   7.577   4.964
15392SOL    HW261887   2.264   7.661   4.984
15392SOL    HW361888   2.294   7.515   4.957
15392SOL    MW461889   2.236   7.580   4.965
15393SOL     OW61890   2.262   8.244   4.142
15393SOL    HW261891   2.262   8.339   4.127
15393SOL    HW361892   2.339   8.228   4.196
15393SOL    MW461893   2.272   8.255   4.147
15394SOL     OW61894   3.038   8.103   5.206
15394SOL    HW261895   3.074   8.076   5.122
15394SOL    HW361896   2.951   8.137   5.185
15394SOL    MW461897   3.032   8.104   5.193
15395SOL     OW61898   2.021   7.975   4.431
15395SOL    HW261899   2.083   7.982   4.504
15395SOL    HW361900   2.021   7.882   4.408
15395SOL    MW461901   2.029   7.964   4.438
15396SOL     OW61902   2.703   8.236   4.915
15396SOL    HW261903   2.661   8.154   4.891
15396SOL    HW361904   2.704   8.235   5.011
15396SOL    MW461905   2.696   8.225   4.924
15397SOL     OW61906   2.507   7.706   5.020
15397SOL    HW261907   2.438   7.769   5.041
15397SOL    HW361908   2.534   7.670   5.105
15397SOL    MW461909   2.501   7.709   5.033
15398SOL     OW61910   1.890   8.547   3.889
15398SOL    HW261911   1.859   8.612   3.952
15398SOL    HW361912   1.839   8.469   3.908
15398SOL    MW461913   1.880   8.544   3.899
15399SOL     OW61914   3.302   7.559   4.637
15399SOL    HW261915   3.390   7.568   4.674
15399SOL    HW361916   3.312   7.500   4.563
15399SOL    MW461917   3.316   7.553   4.631
15400SOL     OW61918   3.334   8.298   4.481
15400SOL    HW261919   3.414   8.313   4.430
15400SOL    HW361920   3.327   8.203   4.487
15400SOL    MW461921   3.343   8.287   4.476
15401SOL     OW61922   2.784   8.224   5.178
15401SOL    HW261923   2.853   8.291   5.175
15401SOL    HW361924   2.717   8.262   5.234
15401SOL    MW461925   2.785   8.237   5.185
15402SOL     OW61926   2.202   8.524   5.426
15402SOL    HW261927   2.156   8.440   5.428
15402SOL    HW361928   2.259   8.518   5.350
15402SOL    MW461929   2.204   8.512   5.418
15403SOL     OW61930   3.319   8.167   3.747
15403SOL    HW261931   3.247   8.143   3.689
15403SOL    HW361932   3.385   8.204   3.689
15403SOL    MW461933   3.318   8.169   3.732
15404SOL     OW61934   2.453   8.899   4.427
15404SOL    HW261935   2.518   8.832   4.448
15404SOL    HW361936   2.505   8.976   4.404
15404SOL    MW461937   2.468   8.901   4.426
15405SOL     OW61938   2.714   8.064   4.557
15405SOL    HW261939   2.654   8.082   4.629
15405SOL    HW361940   2.748   7.976   4.576
15405SOL    MW461941   2.710   8.054   4.570
15406SOL     OW61942   3.655   7.563   5.226
15406SOL    HW261943   3.576   7.609   5.254
15406SOL    HW361944   3.690   7.617   5.155
15406SOL    MW461945   3.649   7.576   5.220
15407SOL     OW61946   2.939   8.647   4.576
15407SOL    HW261947   3.031   8.628   4.594
15407SOL    HW361948   2.912   8.577   4.516
15407SOL    MW461949   2.947   8.635   4.570
15408SOL     OW61950   2.732   8.467   3.931
15408SOL    HW261951   2.718   8.379   3.896
15408SOL    HW361952   2.683   8.524   3.872
15408SOL    MW461953   2.724   8.462   3.919
15409SOL     OW61954   2.145   8.191   4.710
15409SOL    HW261955   2.095   8.190   4.791
15409SOL    HW361956   2.165   8.283   4.694
15409SOL    MW461957   2.141   8.203   4.718
15410SOL     OW61958   3.212   8.955   5.472
15410SOL    HW261959   3.212   9.049   5.488
15410SOL    HW361960   3.257   8.945   5.388
15410SOL    MW461961   3.218   8.965   5.463
15411SOL     OW61962   3.451   7.673   4.033
15411SOL    HW261963   3.444   7.677   4.128
15411SOL    HW361964   3.463   7.764   4.006
15411SOL    MW461965   3.452   7.686   4.041
15412SOL     OW61966   2.740   8.236   4.147
15412SOL    HW261967   2.720   8.222   4.054
15412SOL    HW361968   2.833   8.215   4.154
15412SOL    MW461969   2.750   8.231   4.136
15413SOL     OW61970   2.067   7.859   5.451
15413SOL    HW261971   2.024   7.918   5.388
15413SOL    HW361972   2.135   7.914   5.491
15413SOL    MW461973   2.071   7.874   5.448
15414SOL     OW61974   3.179   8.479   4.996
15414SOL    HW261975   3.242   8.476   5.069
15414SOL    HW361976   3.095   8.497   5.038
15414SOL    MW461977   3.175   8.481   5.011
15415SOL     OW61978   2.723   9.194   4.185
15415SOL    HW261979   2.781   9.265   4.212
15415SOL    HW361980   2.746   9.122   4.243
15415SOL    MW461981   2.734   9.194   4.196
15416SOL     OW61982   3.518   7.656   4.775
15416SOL    HW261983   3.563   7.574   4.794
15416SOL    HW361984   3.538   7.712   4.851
15416SOL    MW461985   3.528   7.652   4.787
15417SOL     OW61986   1.966   7.499   4.874
15417SOL    HW261987   1.957   7.500   4.779
15417SOL    HW361988   2.060   7.511   4.889
15417SOL    MW461989   1.978   7.502   4.865
15418SOL     OW61990   3.603   8.692   4.494
15418SOL    HW261991   3.582   8.638   4.417
15418SOL    HW361992   3.699   8.690   4.498
15418SOL    MW461993   3.612   8.685   4.483
15419SOL     OW61994   2.295   8.837   5.237
15419SOL    HW261995   2.216   8.787   5.260
15419SOL    HW361996   2.365   8.796   5.287
15419SOL    MW461997   2.293   8.825   5.247
15420SOL     OW61998   2.179   7.626   3.920
15420SOL    HW261999   2.108   7.681   3.888
15420SOL    HW362000   2.221   7.592   3.841
15420SOL    MW462001   2.175   7.628   3.906
15421SOL     OW62002   3.303   8.123   4.756
15421SOL    HW262003   3.226   8.169   4.722
15421SOL    HW362004   3.360   8.192   4.790
15421SOL    MW462005   3.300   8.138   4.756
15422SOL     OW62006   1.935   7.725   3.769
15422SOL    HW262007   1.902   7.804   3.813
15422SOL    HW362008   1.990   7.758   3.698
15422SOL    MW462009   1.938   7.739   3.766
15423SOL     OW62010   1.969   8.982   3.958
15423SOL    HW262011   1.986   9.066   4.000
15423SOL    HW362012   2.004   8.991   3.870
15423SOL    MW462013   1.974   8.995   3.952
15424SOL     OW62014   3.604   8.339   5.862
15424SOL    HW262015   3.645   8.281   5.927
15424SOL    HW362016   3.511   8.331   5.879
15424SOL    MW462017   3.598   8.331   5.872
15425SOL     OW62018   3.470   8.271   6.857
15425SOL    HW262019   3.425   8.338   6.908
15425SOL    HW362020   3.558   8.307   6.843
15425SOL    MW462021   3.476   8.284   6.861
15426SOL     OW62022   2.398   8.522   6.091
15426SOL    HW262023   2.488   8.497   6.075
15426SOL    HW362024   2.394   8.615   6.068
15426SOL    MW462025   2.410   8.531   6.086
15427SOL     OW62026   2.893   9.110   7.234
15427SOL    HW262027   2.934   9.146   7.155
15427SOL    HW362028   2.928   9.021   7.241
15427SOL    MW462029   2.904   9.103   7.225
15428SOL     OW62030   3.450   8.665   6.838
15428SOL    HW262031   3.371   8.630   6.796
15428SOL    HW362032   3.477   8.737   6.782
15428SOL    MW462033   3.443   8.670   6.825
15429SOL     OW62034   2.682   7.978   6.104
15429SOL    HW262035   2.657   8.066   6.132
15429SOL    HW362036   2.679   7.981   6.008
15429SOL    MW462037   2.678   7.990   6.096
15430SOL     OW62038   2.124   8.006   6.032
15430SOL    HW262039   2.156   8.094   6.014
15430SOL    HW362040   2.112   8.004   6.127
15430SOL    MW462041   2.127   8.018   6.044
15431SOL     OW62042   2.202   8.419   6.933
15431SOL    HW262043   2.265   8.366   6.884
15431SOL    HW362044   2.183   8.493   6.876
15431SOL    MW462045   2.208   8.421   6.920
15432SOL     OW62046   2.523   7.761   6.119
15432SOL    HW262047   2.581   7.837   6.121
15432SOL    HW362048   2.458   7.782   6.052
15432SOL    MW462049   2.522   7.773   6.110
15433SOL     OW62050   2.610   8.688   6.294
15433SOL    HW262051   2.690   8.691   6.346
15433SOL    HW362052   2.638   8.655   6.208
15433SOL    MW462053   2.624   8.684   6.289
15434SOL     OW62054   2.635   9.029   7.197
15434SOL    HW262055   2.719   9.055   7.236
15434SOL    HW362056   2.659   8.973   7.123
15434SOL    MW462057   2.649   9.025   7.192
15435SOL     OW62058   2.387   8.192   6.285
15435SOL    HW262059   2.372   8.112   6.336
15435SOL    HW362060   2.469   8.227   6.319
15435SOL    MW462061   2.395   8.184   6.297
15436SOL     OW62062   2.724   8.878   6.970
15436SOL    HW262063   2.688   8.944   6.910
15436SOL    HW362064   2.652   8.816   6.983
15436SOL    MW462065   2.710   8.878   6.964
15437SOL     OW62066   2.529   8.018   6.662
15437SOL    HW262067   2.435   8.014   6.680
15437SOL    HW362068   2.559   7.927   6.671
15437SOL    MW462069   2.520   8.006   6.665
15438SOL     OW62070   2.275   8.432   6.566
15438SOL    HW262071   2.230   8.439   6.482
15438SOL    HW362072   2.255   8.515   6.610
15438SOL    MW462073   2.267   8.444   6.560
15439SOL     OW62074   3.237   8.670   5.810
15439SOL    HW262075   3.155   8.706   5.776
15439SOL    HW362076   3.305   8.713   5.759
15439SOL    MW462077   3.235   8.680   5.798
15440SOL     OW62078   2.236   8.805   6.476
15440SOL    HW262079   2.212   8.858   6.552
15440SOL    HW362080   2.292   8.863   6.424
15440SOL    MW462081   2.240   8.820   6.479
15441SOL     OW62082   2.798   8.449   6.286
15441SOL    HW262083   2.712   8.436   6.326
15441SOL    HW362084   2.851   8.376   6.318
15441SOL    MW462085   2.794   8.438   6.295
15442SOL     OW62086   2.206   9.101   7.071
15442SOL    HW262087   2.114   9.077   7.056
15442SOL    HW362088   2.250   9.018   7.088
15442SOL    MW462089   2.200   9.086   7.070
15443SOL     OW62090   2.789   8.811   6.003
15443SOL    HW262091   2.766   8.873   6.071
15443SOL    HW362092   2.746   8.729   6.029
15443SOL    MW462093   2.781   8.807   6.014
15444SOL     OW62094   3.662   7.812   6.459
15444SOL    HW262095   3.599   7.792   6.528
15444SOL    HW362096   3.652   7.741   6.396
15444SOL    MW462097   3.652   7.799   6.460
15445SOL     OW62098   2.286   7.784   5.971
15445SOL    HW262099   2.260   7.746   5.887
15445SOL    HW362100   2.223   7.854   5.987
15445SOL    MW462101   2.275   7.787   5.962
15446SOL     OW62102   2.121   8.745   6.008
15446SOL    HW262103   2.069   8.813   5.964
15446SOL    HW362104   2.118   8.671   5.948
15446SOL    MW462105   2.113   8.744   5.995
15447SOL     OW62106   3.718   7.981   5.761
15447SOL    HW262107   3.627   7.983   5.789
15447SOL    HW362108   3.763   8.043   5.819
15447SOL    MW462109   3.711   7.989   5.771
15448SOL     OW62110   3.463   8.584   6.111
15448SOL    HW262111   3.373   8.584   6.146
15448SOL    HW362112   3.456   8.630   6.028
15448SOL    MW462113   3.450   8.590   6.105
15449SOL     OW62114   3.263   8.219   7.183
15449SOL    HW262115   3.332   8.157   7.160
15449SOL    HW362116   3.188   8.193   7.130
15449SOL    MW462117   3.263   8.206   7.174
15450SOL     OW62118   2.004   9.099   6.735
15450SOL    HW262119   1.987   9.045   6.812
15450SOL    HW362120   1.992   9.189   6.765
15450SOL    MW462121   2.001   9.103   6.749
15451SOL     OW62122   2.999   8.606   7.175
15451SOL    HW262123   2.984   8.699   7.160
15451SOL    HW362124   3.094   8.596   7.175
15451SOL    MW462125   3.008   8.616   7.172
15452SOL     OW62126   2.795   8.030   7.376
15452SOL    HW262127   2.885   8.031   7.343
15452SOL    HW362128   2.754   7.955   7.334
15452SOL    MW462129   2.801   8.020   7.367
15453SOL     OW62130   3.370   8.562   6.503
15453SOL    HW262131   3.373   8.496   6.434
15453SOL    HW362132   3.455   8.605   6.499
15453SOL    MW462133   3.382   8.558   6.494
15454SOL     OW62134   2.990   8.165   6.072
15454SOL    HW262135   3.016   8.189   5.983
15454SOL    HW362136   2.972   8.072   6.068
15454SOL    MW462137   2.992   8.157   6.059
15455SOL     OW62138   3.655   8.785   5.923
15455SOL    HW262139   3.611   8.826   5.998
15455SOL    HW362140   3.712   8.853   5.888
15455SOL    MW462141   3.657   8.799   5.928
15456SOL     OW62142   2.575   7.834   7.326
15456SOL    HW262143   2.585   7.760   7.266
15456SOL    HW362144   2.611   7.803   7.409
15456SOL    MW462145   2.581   7.820   7.328
15457SOL     OW62146   3.695   7.563   6.290
15457SOL    HW262147   3.749   7.514   6.352
15457SOL    HW362148   3.638   7.497   6.251
15457SOL    MW462149   3.695   7.547   6.292
15458SOL     OW62150   2.814   7.516   6.703
15458SOL    HW262151   2.773   7.594   6.665
15458SOL    HW362152   2.908   7.534   6.698
15458SOL    MW462153   2.820   7.528   6.698
15459SOL     OW62154   2.829   8.194   5.733
15459SOL    HW262155   2.831   8.141   5.654
15459SOL    HW362156   2.917   8.231   5.739
15459SOL    MW462157   2.841   8.193   5.722
15460SOL     OW62158   3.443   8.120   6.069
15460SOL    HW262159   3.482   8.120   6.156
15460SOL    HW362160   3.384   8.196   6.069
15460SOL    MW462161   3.440   8.131   6.080
15461SOL     OW62162   2.760   8.487   7.198
15461SOL    HW262163   2.737   8.467   7.288
15461SOL    HW362164   2.845   8.531   7.203
15461SOL    MW462165   2.767   8.490   7.210
15462SOL     OW62166   2.840   7.624   6.958
15462SOL    HW262167   2.846   7.586   6.871
15462SOL    HW362168   2.829   7.718   6.943
15462SOL    MW462169   2.841   7.632   6.946
15463SOL     OW62170   2.929   8.113   6.792
15463SOL    HW262171   3.004   8.142   6.739
15463SOL    HW362172   2.861   8.178   6.776
15463SOL    MW462173   2.930   8.125   6.782
15464SOL     OW62174   3.479   8.081   7.069
15464SOL    HW262175   3.460   7.990   7.048
15464SOL    HW362176   3.457   8.130   6.990
15464SOL    MW462177   3.474   8.074   7.056
15465SOL     OW62178   2.926   7.819   7.175
15465SOL    HW262179   2.892   7.858   7.094
15465SOL    HW362180   2.904   7.727   7.168
15465SOL    MW462181   2.919   7.812   7.165
15466SOL     OW62182   3.335   8.633   7.251
15466SOL    HW262183   3.417   8.674   7.281
15466SOL    HW362184   3.298   8.595   7.331
15466SOL    MW462185   3.341   8.634   7.266
15467SOL     OW62186   3.630   8.006   6.235
15467SOL    HW262187   3.719   7.975   6.252
15467SOL    HW362188   3.573   7.946   6.283
15467SOL    MW462189   3.633   7.994   6.244
15468SOL     OW62190   2.056   7.720   6.264
15468SOL    HW262191   2.047   7.660   6.190
15468SOL    HW362192   1.989   7.691   6.327
15468SOL    MW462193   2.046   7.707   6.262
15469SOL     OW62194   2.999   8.813   5.825
15469SOL    HW262195   2.949   8.815   5.907
15469SOL    HW362196   2.933   8.831   5.757
15469SOL    MW462197   2.985   8.815   5.827
15470SOL     OW62198   2.003   7.893   6.627
15470SOL    HW262199   1.975   7.984   6.636
15470SOL    HW362200   1.940   7.854   6.566
15470SOL    MW462201   1.990   7.899   6.621
15471SOL     OW62202   2.598   8.646   5.640
15471SOL    HW262203   2.520   8.592   5.627
15471SOL    HW362204   2.569   8.719   5.693
15471SOL    MW462205   2.584   8.648   5.645
15472SOL     OW62206   3.724   8.386   6.832
15472SOL    HW262207   3.740   8.424   6.745
15472SOL    HW362208   3.758   8.452   6.893
15472SOL    MW462209   3.731   8.399   6.828
15473SOL     OW62210   1.987   8.168   6.797
15473SOL    HW262211   2.049   8.198   6.863
15473SOL    HW362212   1.921   8.237   6.791
15473SOL    MW462213   1.986   8.181   6.804
15474SOL     OW62214   2.628   7.725   5.705
15474SOL    HW262215   2.576   7.645   5.693
15474SOL    HW362216   2.715   7.702   5.673
15474SOL    MW462217   2.631   7.711   5.699
15475SOL     OW62218   2.134   8.596   6.756
15475SOL    HW262219   2.187   8.671   6.781
15475SOL    HW362220   2.053   8.634   6.722
15475SOL    MW462221   2.130   8.611   6.756
15476SOL     OW62222   2.674   8.500   6.744
15476SOL    HW262223   2.702   8.409   6.756
15476SOL    HW362224   2.603   8.494   6.680
15476SOL    MW462225   2.667   8.488   6.739
15477SOL     OW62226   1.989   8.365   6.162
15477SOL    HW262227   2.080   8.380   6.189
15477SOL    HW362228   1.992   8.286   6.108
15477SOL    MW462229   2.001   8.357   6.160
15478SOL     OW62230   2.225   8.073   7.416
15478SOL    HW262231   2.172   8.153   7.423
15478SOL    HW362232   2.295   8.085   7.481
15478SOL    MW462233   2.227   8.086   7.424
15479SOL     OW62234   2.611   7.623   7.123
15479SOL    HW262235   2.588   7.531   7.125
15479SOL    HW362236   2.697   7.625   7.080
15479SOL    MW462237   2.618   7.613   7.119
15480SOL     OW62238   2.295   8.147   7.162
15480SOL    HW262239   2.375   8.197   7.148
15480SOL    HW362240   2.286   8.141   7.257
15480SOL    MW462241   2.304   8.153   7.172
15481SOL     OW62242   3.272   7.672   7.433
15481SOL    HW262243   3.328   7.599   7.459
15481SOL    HW362244   3.242   7.710   7.515
15481SOL    MW462245   3.276   7.667   7.446
15482SOL     OW62246   1.997   8.977   6.201
15482SOL    HW262247   1.969   9.016   6.283
15482SOL    HW362248   2.017   8.886   6.223
15482SOL    MW462249   1.995   8.969   6.214
15483SOL     OW62250   2.830   9.020   6.236
15483SOL    HW262251   2.913   8.974   6.220
15483SOL    HW362252   2.820   9.019   6.332
15483SOL    MW462253   2.840   9.013   6.246
15484SOL     OW62254   3.662   8.165   6.550
15484SOL    HW262255   3.751   8.195   6.532
15484SOL    HW362256   3.642   8.105   6.479
15484SOL    MW462257   3.671   8.162   6.539
15485SOL     OW62258   3.513   8.344   7.430
15485SOL    HW262259   3.568   8.268   7.411
15485SOL    HW362260   3.515   8.352   7.525
15485SOL    MW462261   3.521   8.335   7.438
15486SOL     OW62262   2.563   9.077   5.641
15486SOL    HW262263   2.503   9.146   5.611
15486SOL    HW362264   2.508   9.019   5.694
15486SOL    MW462265   2.547   9.079   5.643
15487SOL     OW62266   3.001   7.722   5.864
15487SOL    HW262267   2.934   7.698   5.801
15487SOL    HW362268   3.066   7.771   5.813
15487SOL    MW462269   3.001   7.724   5.849
15488SOL     OW62270   2.808   7.906   6.949
15488SOL    HW262271   2.727   7.947   6.977
15488SOL    HW362272   2.855   7.974   6.901
15488SOL    MW462273   2.803   7.921   6.947
15489SOL     OW62274   3.068   8.244   6.572
15489SOL    HW262275   3.081   8.338   6.582
15489SOL    HW362276   3.029   8.234   6.486
15489SOL    MW462277   3.064   8.255   6.562
15490SOL     OW62278   2.520   8.439   6.376
15490SOL    HW262279   2.431   8.430   6.409
15490SOL    HW362280   2.524   8.529   6.344
15490SOL    MW462281   2.509   8.450   6.376
15491SOL     OW62282   3.319   8.022   6.371
15491SOL    HW262283   3.264   7.943   6.370
15491SOL    HW362284   3.301   8.063   6.455
15491SOL    MW462285   3.309   8.017   6.380
15492SOL     OW62286   2.290   7.709   7.188
15492SOL    HW262287   2.211   7.727   7.240
15492SOL    HW362288   2.285   7.771   7.115
15492SOL    MW462289   2.280   7.719   7.185
15493SOL     OW62290   2.938   8.226   6.328
15493SOL    HW262291   2.875   8.158   6.352
15493SOL    HW362292   2.958   8.207   6.236
15493SOL    MW462293   2.932   8.213   6.320
15494SOL     OW62294   2.194   9.121   6.030
15494SOL    HW262295   2.155   9.168   5.956
15494SOL    HW362296   2.128   9.056   6.055
15494SOL    MW462297   2.181   9.119   6.024
15495SOL     OW62298   2.686   8.530   6.054
15495SOL    HW262299   2.688   8.504   5.961
15495SOL    HW362300   2.744   8.467   6.097
15495SOL    MW462301   2.694   8.519   6.048
15496SOL     OW62302   2.001   8.708   6.321
15496SOL    HW262303   2.065   8.740   6.384
15496SOL    HW362304   2.050   8.644   6.269
15496SOL    MW462305   2.016   8.704   6.322
15497SOL     OW62306   2.501   8.784   7.303
15497SOL    HW262307   2.549   8.867   7.290
15497SOL    HW362308   2.558   8.732   7.359
15497SOL    MW462309   2.515   8.788   7.309
15498SOL     OW62310   2.077   9.026   7.443
15498SOL    HW262311   2.133   8.950   7.458
15498SOL    HW362312   2.026   9.004   7.365
15498SOL    MW462313   2.077   9.013   7.434
15499SOL     OW62314   3.176   7.878   5.722
15499SOL    HW262315   3.149   7.944   5.658
15499SOL    HW362316   3.246   7.921   5.772
15499SOL    MW462317   3.181   7.891   5.719
15500SOL     OW62318   2.844   7.583   5.659
15500SOL    HW262319   2.900   7.575   5.581
15500SOL    HW362320   2.821   7.493   5.681
15500SOL    MW462321   2.849   7.570   5.652
15501SOL     OW62322   3.349   8.434   5.864
15501SOL    HW262323   3.316   8.523   5.854
15501SOL    HW362324   3.314   8.405   5.949
15501SOL    MW462325   3.339   8.443   5.875
15502SOL     OW62326   2.962   8.863   7.052
15502SOL    HW262327   2.873   8.869   7.020
15502SOL    HW362328   3.006   8.942   7.020
15502SOL    MW462329   2.957   8.873   7.044
15503SOL     OW62330   2.255   7.531   7.394
15503SOL    HW262331   2.183   7.496   7.342
15503SOL    HW362332   2.313   7.572   7.329
15503SOL    MW462333   2.253   7.532   7.379
15504SOL     OW62334   2.279   9.021   6.693
15504SOL    HW262335   2.324   9.083   6.750
15504SOL    HW362336   2.186   9.040   6.706
15504SOL    MW462337   2.272   9.031   6.700
15505SOL     OW62338   3.719   8.550   7.047
15505SOL    HW262339   3.634   8.563   7.006
15505SOL    HW362340   3.699   8.514   7.134
15505SOL    MW462341   3.706   8.546   7.052
15506SOL     OW62342   2.701   9.089   6.801
15506SOL    HW262343   2.725   9.078   6.710
15506SOL    HW362344   2.624   9.146   6.799
15506SOL    MW462345   2.693   9.094   6.790
15507SOL     OW62346   2.343   8.472   5.656
15507SOL    HW262347   2.266   8.485   5.712
15507SOL    HW362348   2.307   8.436   5.575
15507SOL    MW462349   2.329   8.468   5.653
15508SOL     OW62350   2.996   8.445   5.899
15508SOL    HW262351   2.906   8.466   5.874
15508SOL    HW362352   3.023   8.518   5.955
15508SOL    MW462353   2.988   8.457   5.902
15509SOL     OW62354   2.496   8.794   6.591
15509SOL    HW262355   2.489   8.773   6.685
15509SOL    HW362356   2.414   8.762   6.554
15509SOL    MW462357   2.484   8.788   6.598
15510SOL     OW62358   3.360   7.804   6.993
15510SOL    HW262359   3.307   7.806   7.073
15510SOL    HW362360   3.345   7.717   6.956
15510SOL    MW462361   3.352   7.794   6.998
15511SOL     OW62362   3.696   7.728   6.866
15511SOL    HW262363   3.677   7.795   6.801
15511SOL    HW362364   3.753   7.666   6.821
15511SOL    MW462365   3.700   7.729   6.852
15512SOL     OW62366   1.942   8.886   7.254
15512SOL    HW262367   1.986   8.819   7.200
15512SOL    HW362368   1.857   8.848   7.274
15512SOL    MW462369   1.937   8.872   7.250
15513SOL     OW62370   2.625   7.561   6.306
15513SOL    HW262371   2.554   7.622   6.288
15513SOL    HW362372   2.676   7.558   6.225
15513SOL    MW462373   2.621   7.567   6.293
15514SOL     OW62374   2.383   8.801   6.055
15514SOL    HW262375   2.376   8.833   6.145
15514SOL    HW362376   2.293   8.785   6.027
15514SOL    MW462377   2.371   8.803   6.062
15515SOL     OW62378   2.585   8.218   7.436
15515SOL    HW262379   2.655   8.160   7.408
15515SOL    HW362380   2.528   8.163   7.491
15515SOL    MW462381   2.587   8.205   7.440
15516SOL     OW62382   3.372   8.430   7.069
15516SOL    HW262383   3.377   8.483   7.149
15516SOL    HW362384   3.334   8.347   7.097
15516SOL    MW462385   3.368   8.425   7.084
15517SOL     OW62386   3.012   7.565   7.315
15517SOL    HW262387   3.007   7.472   7.296
15517SOL    HW362388   3.095   7.576   7.361
15517SOL    MW462389   3.020   7.554   7.319
15518SOL     OW62390   2.386   8.085   5.769
15518SOL    HW262391   2.352   8.141   5.839
15518SOL    HW362392   2.457   8.035   5.809
15518SOL    MW462393   2.392   8.086   5.783
15519SOL     OW62394   3.482   8.836   6.591
15519SOL    HW262395   3.517   8.818   6.504
15519SOL    HW362396   3.387   8.837   6.578
15519SOL    MW462397   3.474   8.833   6.578
15520SOL     OW62398   2.911   8.484   6.960
15520SOL    HW262399   2.954   8.519   7.038
15520SOL    HW362400   2.894   8.561   6.906
15520SOL    MW462401   2.914   8.499   6.963
15521SOL     OW62402   3.442   7.971   5.833
15521SOL    HW262403   3.434   8.042   5.770
15521SOL    HW362404   3.460   8.015   5.916
15521SOL    MW462405   3.443   7.985   5.835
15522SOL     OW62406   2.302   7.626   6.262
15522SOL    HW262407   2.352   7.669   6.193
15522SOL    HW362408   2.217   7.670   6.262
15522SOL    MW462409   2.299   7.639   6.253
15523SOL     OW62410   2.061   8.688   7.122
15523SOL    HW262411   2.089   8.641   7.200
15523SOL    HW362412   1.982   8.643   7.093
15523SOL    MW462413   2.054   8.677   7.128
15524SOL     OW62414   2.569   8.015   7.089
15524SOL    HW262415   2.541   8.103   7.113
15524SOL    HW362416   2.538   7.959   7.160
15524SOL    MW462417   2.561   8.018   7.101
15525SOL     OW62418   3.111   8.233   5.808
15525SOL    HW262419   3.158   8.251   5.727
15525SOL    HW362420   3.077   8.317   5.836
15525SOL    MW462421   3.113   8.247   5.801
15526SOL     OW62422   2.224   8.411   6.302
15526SOL    HW262423   2.282   8.467   6.250
15526SOL    HW362424   2.268   8.326   6.304
15526SOL    MW462425   2.237   8.408   6.295
15527SOL     OW62426   3.364   7.763   6.139
15527SOL    HW262427   3.286   7.713   6.164
15527SOL    HW362428   3.335   7.854   6.139
15527SOL    MW462429   3.350   7.767   6.142
15528SOL     OW62430   2.950   7.725   6.298
15528SOL    HW262431   2.970   7.800   6.242
15528SOL    HW362432   2.930   7.764   6.383
15528SOL    MW462433   2.951   7.741   6.302
15529SOL     OW62434   2.846   8.975   5.630
15529SOL    HW262435   2.873   9.053   5.582
15529SOL    HW362436   2.753   8.990   5.649
15529SOL    MW462437   2.837   8.988   5.626
15530SOL     OW62438   3.710   8.498   7.317
15530SOL    HW262439   3.623   8.478   7.353
15530SOL    HW362440   3.764   8.424   7.342
15530SOL    MW462441   3.705   8.487   7.325
15531SOL     OW62442   1.931   9.011   6.474
15531SOL    HW262443   1.963   9.015   6.565
15531SOL    HW362444   1.836   9.019   6.482
15531SOL    MW462445   1.923   9.014   6.487
15532SOL     OW62446   1.886   8.137   6.021
15532SOL    HW262447   1.826   8.109   6.091
15532SOL    HW362448   1.960   8.077   6.027
15532SOL    MW462449   1.888   8.126   6.030
15533SOL     OW62450   3.054   8.868   6.181
15533SOL    HW262451   3.077   8.819   6.259
15533SOL    HW362452   3.135   8.910   6.153
15533SOL    MW462453   3.067   8.868   6.188
15534SOL     OW62454   2.312   7.876   6.910
15534SOL    HW262455   2.345   7.957   6.950
15534SOL    HW362456   2.285   7.902   6.822
15534SOL    MW462457   2.311   7.890   6.904
15535SOL     OW62458   2.266   7.843   6.646
15535SOL    HW262459   2.296   7.757   6.617
15535SOL    HW362460   2.171   7.836   6.649
15535SOL    MW462461   2.258   7.832   6.644
15536SOL     OW62462   3.095   8.052   7.337
15536SOL    HW262463   3.147   7.987   7.290
15536SOL    HW362464   3.053   8.103   7.267
15536SOL    MW462465   3.096   8.049   7.320
15537SOL     OW62466   3.194   7.847   7.198
15537SOL    HW262467   3.101   7.831   7.185
15537SOL    HW362468   3.220   7.785   7.266
15537SOL    MW462469   3.184   7.837   7.205
15538SOL     OW62470   2.409   7.621   6.537
15538SOL    HW262471   2.419   7.530   6.563
15538SOL    HW362472   2.365   7.617   6.452
15538SOL    MW462473   2.405   7.609   6.529
15539SOL     OW62474   3.560   7.943   6.708
15539SOL    HW262475   3.493   7.976   6.768
15539SOL    HW362476   3.603   8.021   6.674
15539SOL    MW462477   3.558   7.958   6.712
15540SOL     OW62478   3.738   8.663   6.678
15540SOL    HW262479   3.731   8.603   6.603
15540SOL    HW362480   3.664   8.723   6.667
15540SOL    MW462481   3.728   8.663   6.667
15541SOL     OW62482   3.120   8.525   6.596
15541SOL    HW262483   3.134   8.497   6.687
15541SOL    HW362484   3.206   8.556   6.568
15541SOL    MW462485   3.133   8.526   6.605
15542SOL     OW62486   3.203   8.020   6.875
15542SOL    HW262487   3.224   8.021   6.782
15542SOL    HW362488   3.248   7.942   6.908
15542SOL    MW462489   3.210   8.010   6.867
15543SOL     OW62490   3.696   8.151   7.417
15543SOL    HW262491   3.733   8.096   7.486
15543SOL    HW362492   3.721   8.108   7.335
15543SOL    MW462493   3.703   8.139   7.416
15544SOL     OW62494   3.194   7.535   5.817
15544SOL    HW262495   3.268   7.579   5.860
15544SOL    HW362496   3.118   7.589   5.839
15544SOL    MW462497   3.194   7.547   5.825
15545SOL     OW62498   3.254   8.310   6.095
15545SOL    HW262499   3.169   8.280   6.065
15545SOL    HW362500   3.246   8.317   6.190
15545SOL    MW462501   3.242   8.308   6.104
15546SOL     OW62502   2.330   8.773   6.826
15546SOL    HW262503   2.342   8.800   6.917
15546SOL    HW362504   2.311   8.854   6.779
15546SOL    MW462505   2.329   8.788   6.831
15547SOL     OW62506   2.614   7.753   6.649
15547SOL    HW262507   2.587   7.755   6.740
15547SOL    HW362508   2.544   7.705   6.604
15547SOL    MW462509   2.602   7.749   6.656
15548SOL     OW62510   3.370   8.830   7.043
15548SOL    HW262511   3.355   8.759   7.106
15548SOL    HW362512   3.416   8.788   6.971
15548SOL    MW462513   3.376   8.814   7.043
15549SOL     OW62514   2.444   8.561   7.160
15549SOL    HW262515   2.481   8.566   7.072
15549SOL    HW362516   2.483   8.634   7.207
15549SOL    MW462517   2.454   8.571   7.155
15550SOL     OW62518   2.624   8.604   6.972
15550SOL    HW262519   2.683   8.550   7.025
15550SOL    HW362520   2.639   8.576   6.882
15550SOL    MW462521   2.634   8.593   6.968
15551SOL     OW62522   2.627   7.976   5.821
15551SOL    HW262523   2.700   8.025   5.784
15551SOL    HW362524   2.643   7.885   5.795
15551SOL    MW462525   2.639   7.971   5.814
15552SOL     OW62526   3.095   7.572   6.735
15552SOL    HW262527   3.150   7.581   6.657
15552SOL    HW362528   3.150   7.606   6.806
15552SOL    MW462529   3.109   7.577   6.734
15553SOL     OW62530   2.102   8.485   5.919
15553SOL    HW262531   2.039   8.501   5.848
15553SOL    HW362532   2.049   8.448   5.990
15553SOL    MW462533   2.087   8.482   5.919
15554SOL     OW62534   2.458   8.839   5.778
15554SOL    HW262535   2.473   8.815   5.870
15554SOL    HW362536   2.366   8.817   5.762
15554SOL    MW462537   2.448   8.832   5.788
15555SOL     OW62538   2.997   9.070   5.930
15555SOL    HW262539   3.005   8.988   5.881
15555SOL    HW362540   2.916   9.109   5.897
15555SOL    MW462541   2.987   9.065   5.920
15556SOL     OW62542   2.256   9.228   6.499
15556SOL    HW262543   2.260   9.139   6.534
15556SOL    HW362544   2.282   9.219   6.408
15556SOL    MW462545   2.259   9.216   6.491
15557SOL     OW62546   2.873   8.706   6.742
15557SOL    HW262547   2.805   8.640   6.758
15557SOL    HW362548   2.891   8.700   6.649
15557SOL    MW462549   2.866   8.697   6.733
15558SOL     OW62550   1.962   8.981   6.993
15558SOL    HW262551   1.952   8.939   7.079
15558SOL    HW362552   1.883   9.034   6.983
15558SOL    MW462553   1.951   8.982   7.004
15559SOL     OW62554   2.866   7.845   6.563
15559SOL    HW262555   2.796   7.797   6.608
15559SOL    HW362556   2.898   7.908   6.627
15559SOL    MW462557   2.861   7.847   6.577
15560SOL     OW62558   2.517   8.281   7.183
15560SOL    HW262559   2.510   8.376   7.171
15560SOL    HW362560   2.526   8.270   7.278
15560SOL    MW462561   2.518   8.293   7.193
15561SOL     OW62562   2.238   8.796   7.441
15561SOL    HW262563   2.310   8.798   7.378
15561SOL    HW362564   2.208   8.705   7.440
15561SOL    MW462565   2.243   8.785   7.433
15562SOL     OW62566   3.322   7.559   6.908
15562SOL    HW262567   3.393   7.505   6.872
15562SOL    HW362568   3.321   7.538   7.001
15562SOL    MW462569   3.331   7.550   6.916
15563SOL     OW62570   2.333   7.951   6.376
15563SOL    HW262571   2.404   7.899   6.339
15563SOL    HW362572   2.319   7.916   6.463
15563SOL    MW462573   2.341   7.940   6.383
15564SOL     OW62574   2.649   9.044   6.452
15564SOL    HW262575   2.577   8.981   6.465
15564SOL    HW362576   2.610   9.129   6.470
15564SOL    MW462577   2.633   9.047   6.455
15565SOL     OW62578   2.969   7.892   6.100
15565SOL    HW262579   2.991   7.829   6.032
15565SOL    HW362580   2.874   7.884   6.111
15565SOL    MW462581   2.959   7.883   6.092
15566SOL     OW62582   2.054   7.582   6.032
15566SOL    HW262583   2.125   7.603   5.971
15566SOL    HW362584   2.008   7.510   5.990
15566SOL    MW462585   2.058   7.576   6.018
15567SOL     OW62586   1.885   8.049   7.175
15567SOL    HW262587   1.949   8.115   7.150
15567SOL    HW362588   1.804   8.076   7.132
15567SOL    MW462589   1.883   8.061   7.167
15568SOL     OW62590   3.179   8.633   6.062
15568SOL    HW262591   3.151   8.719   6.095
15568SOL    HW362592   3.207   8.649   5.972
15568SOL    MW462593   3.179   8.647   6.054
15569SOL     OW62594   2.841   7.553   6.115
15569SOL    HW262595   2.878   7.612   6.180
15569SOL    HW362596   2.818   7.609   6.041
15569SOL    MW462597   2.842   7.568   6.114
15570SOL     OW62598   3.694   8.435   6.537
15570SOL    HW262599   3.685   8.467   6.448
15570SOL    HW362600   3.647   8.351   6.537
15570SOL    MW462601   3.687   8.428   6.527
15571SOL     OW62602   2.070   8.275   7.116
15571SOL    HW262603   2.091   8.344   7.054
15571SOL    HW362604   2.150   8.222   7.121
15571SOL    MW462605   2.083   8.276   7.110
15572SOL     OW62606   3.606   8.366   6.238
15572SOL    HW262607   3.700   8.355   6.226
15572SOL    HW362608   3.582   8.438   6.179
15572SOL    MW462609   3.616   8.374   6.229
15573SOL     OW62610   2.055   8.290   7.383
15573SOL    HW262611   1.981   8.234   7.409
15573SOL    HW362612   2.050   8.293   7.288
15573SOL    MW462613   2.044   8.283   7.373
15574SOL     OW62614   2.221   7.577   6.833
15574SOL    HW262615   2.264   7.661   6.853
15574SOL    HW362616   2.294   7.515   6.826
15574SOL    MW462617   2.236   7.580   6.834
15575SOL     OW62618   3.038   8.103   7.075
15575SOL    HW262619   3.074   8.076   6.991
15575SOL    HW362620   2.951   8.137   7.054
15575SOL    MW462621   3.032   8.104   7.062
15576SOL     OW62622   2.021   7.975   6.300
15576SOL    HW262623   2.083   7.982   6.373
15576SOL    HW362624   2.021   7.882   6.277
15576SOL    MW462625   2.029   7.964   6.307
15577SOL     OW62626   2.703   8.236   6.784
15577SOL    HW262627   2.661   8.154   6.760
15577SOL    HW362628   2.704   8.235   6.880
15577SOL    MW462629   2.696   8.225   6.793
15578SOL     OW62630   2.507   7.706   6.889
15578SOL    HW262631   2.438   7.769   6.910
15578SOL    HW362632   2.534   7.670   6.974
15578SOL    MW462633   2.501   7.709   6.902
15579SOL     OW62634   1.890   8.547   5.758
15579SOL    HW262635   1.859   8.612   5.821
15579SOL    HW362636   1.839   8.469   5.777
15579SOL    MW462637   1.880   8.544   5.768
15580SOL     OW62638   3.302   7.559   6.506
15580SOL    HW262639   3.390   7.568   6.543
15580SOL    HW362640   3.312   7.500   6.432
15580SOL    MW462641   3.316   7.553   6.500
15581SOL     OW62642   3.334   8.298   6.350
15581SOL    HW262643   3.414   8.313   6.299
15581SOL    HW362644   3.327   8.203   6.356
15581SOL    MW462645   3.343   8.287   6.345
15582SOL     OW62646   2.784   8.224   7.047
15582SOL    HW262647   2.853   8.291   7.044
15582SOL    HW362648   2.717   8.262   7.103
15582SOL    MW462649   2.785   8.237   7.054
15583SOL     OW62650   2.202   8.524   7.295
15583SOL    HW262651   2.156   8.440   7.297
15583SOL    HW362652   2.259   8.518   7.219
15583SOL    MW462653   2.204   8.512   7.287
15584SOL     OW62654   3.319   8.167   5.615
15584SOL    HW262655   3.247   8.143   5.557
15584SOL    HW362656   3.385   8.204   5.557
15584SOL    MW462657   3.318   8.169   5.600
15585SOL     OW62658   2.453   8.899   6.296
15585SOL    HW262659   2.518   8.832   6.317
15585SOL    HW362660   2.505   8.976   6.273
15585SOL    MW462661   2.468   8.901   6.295
15586SOL     OW62662   2.714   8.064   6.426
15586SOL    HW262663   2.654   8.082   6.498
15586SOL    HW362664   2.748   7.976   6.445
15586SOL    MW462665   2.710   8.054   6.439
15587SOL     OW62666   3.655   7.563   7.095
15587SOL    HW262667   3.576   7.609   7.123
15587SOL    HW362668   3.690   7.617   7.024
15587SOL    MW462669   3.649   7.576   7.089
15588SOL     OW62670   2.939   8.647   6.445
15588SOL    HW262671   3.031   8.628   6.463
15588SOL    HW362672   2.912   8.577   6.385
15588SOL    MW462673   2.947   8.635   6.439
15589SOL     OW62674   2.732   8.467   5.800
15589SOL    HW262675   2.718   8.379   5.765
15589SOL    HW362676   2.683   8.524   5.741
15589SOL    MW462677   2.724   8.462   5.788
15590SOL     OW62678   2.145   8.191   6.579
15590SOL    HW262679   2.095   8.190   6.660
15590SOL    HW362680   2.165   8.283   6.563
15590SOL    MW462681   2.141   8.203   6.587
15591SOL     OW62682   3.212   8.955   7.341
15591SOL    HW262683   3.212   9.049   7.357
15591SOL    HW362684   3.257   8.945   7.257
15591SOL    MW462685   3.218   8.965   7.332
15592SOL     OW62686   3.451   7.673   5.902
15592SOL    HW262687   3.444   7.677   5.997
15592SOL    HW362688   3.463   7.764   5.875
15592SOL    MW462689   3.452   7.686   5.910
15593SOL     OW62690   2.740   8.236   6.016
15593SOL    HW262691   2.720   8.222   5.923
15593SOL    HW362692   2.833   8.215   6.023
15593SOL    MW462693   2.750   8.231   6.005
15594SOL     OW62694   2.067   7.859   7.320
15594SOL    HW262695   2.024   7.918   7.257
15594SOL    HW362696   2.135   7.914   7.360
15594SOL    MW462697   2.071   7.874   7.317
15595SOL     OW62698   3.179   8.479   6.865
15595SOL    HW262699   3.242   8.476   6.938
15595SOL    HW362700   3.095   8.497   6.907
15595SOL    MW462701   3.175   8.481   6.880
15596SOL     OW62702   2.723   9.194   6.054
15596SOL    HW262703   2.781   9.265   6.081
15596SOL    HW362704   2.746   9.122   6.112
15596SOL    MW462705   2.734   9.194   6.065
15597SOL     OW62706   3.518   7.656   6.644
15597SOL    HW262707   3.563   7.574   6.663
15597SOL    HW362708   3.538   7.712   6.720
15597SOL    MW462709   3.528   7.652   6.656
15598SOL     OW62710   1.966   7.499   6.743
15598SOL    HW262711   1.957   7.500   6.648
15598SOL    HW362712   2.060   7.511   6.758
15598SOL    MW462713   1.978   7.502   6.734
15599SOL     OW62714   3.603   8.692   6.363
15599SOL    HW262715   3.582   8.638   6.286
15599SOL    HW362716   3.699   8.690   6.367
15599SOL    MW462717   3.612   8.685   6.352
15600SOL     OW62718   2.295   8.837   7.106
15600SOL    HW262719   2.216   8.787   7.129
15600SOL    HW362720   2.365   8.796   7.156
15600SOL    MW462721   2.293   8.825   7.116
15601SOL     OW62722   2.179   7.626   5.789
15601SOL    HW262723   2.108   7.681   5.757
15601SOL    HW362724   2.221   7.592   5.710
15601SOL    MW462725   2.175   7.628   5.775
15602SOL     OW62726   3.303   8.123   6.625
15602SOL    HW262727   3.226   8.169   6.591
15602SOL    HW362728   3.360   8.192   6.659
15602SOL    MW462729   3.300   8.138   6.625
15603SOL     OW62730   1.935   7.725   5.638
15603SOL    HW262731   1.902   7.804   5.682
15603SOL    HW362732   1.990   7.758   5.567
15603SOL    MW462733   1.938   7.739   5.635
15604SOL     OW62734   1.969   8.982   5.827
15604SOL    HW262735   1.986   9.066   5.869
15604SOL    HW362736   2.004   8.991   5.739
15604SOL    MW462737   1.974   8.995   5.821
15605SOL     OW62738   5.472   8.339   0.257
15605SOL    HW262739   5.513   8.281   0.322
15605SOL    HW362740   5.379   8.331   0.274
15605SOL    MW462741   5.466   8.331   0.267
15606SOL     OW62742   5.338   8.271   1.252
15606SOL    HW262743   5.293   8.338   1.303
15606SOL    HW362744   5.426   8.307   1.238
15606SOL    MW462745   5.344   8.284   1.256
15607SOL     OW62746   4.266   8.522   0.486
15607SOL    HW262747   4.356   8.497   0.470
15607SOL    HW362748   4.262   8.615   0.463
15607SOL    MW462749   4.278   8.531   0.481
15608SOL     OW62750   5.318   8.665   1.233
15608SOL    HW262751   5.239   8.630   1.191
15608SOL    HW362752   5.345   8.737   1.177
15608SOL    MW462753   5.311   8.670   1.220
15609SOL     OW62754   4.550   7.978   0.499
15609SOL    HW262755   4.525   8.066   0.527
15609SOL    HW362756   4.547   7.981   0.403
15609SOL    MW462757   4.546   7.990   0.491
15610SOL     OW62758   3.992   8.006   0.427
15610SOL    HW262759   4.024   8.094   0.409
15610SOL    HW362760   3.980   8.004   0.522
15610SOL    MW462761   3.995   8.018   0.439
15611SOL     OW62762   4.070   8.419   1.328
15611SOL    HW262763   4.133   8.366   1.279
15611SOL    HW362764   4.051   8.493   1.271
15611SOL    MW462765   4.076   8.421   1.315
15612SOL     OW62766   4.391   7.761   0.514
15612SOL    HW262767   4.449   7.837   0.516
15612SOL    HW362768   4.326   7.782   0.447
15612SOL    MW462769   4.390   7.773   0.505
15613SOL     OW62770   4.478   8.688   0.689
15613SOL    HW262771   4.558   8.691   0.741
15613SOL    HW362772   4.506   8.655   0.603
15613SOL    MW462773   4.492   8.684   0.684
15614SOL     OW62774   4.503   9.029   1.592
15614SOL    HW262775   4.587   9.055   1.631
15614SOL    HW362776   4.527   8.973   1.518
15614SOL    MW462777   4.517   9.025   1.587
15615SOL     OW62778   4.255   8.192   0.680
15615SOL    HW262779   4.240   8.112   0.731
15615SOL    HW362780   4.337   8.227   0.714
15615SOL    MW462781   4.263   8.184   0.692
15616SOL     OW62782   4.397   8.018   1.057
15616SOL    HW262783   4.303   8.014   1.075
15616SOL    HW362784   4.427   7.927   1.066
15616SOL    MW462785   4.388   8.006   1.060
15617SOL     OW62786   4.143   8.432   0.961
15617SOL    HW262787   4.098   8.439   0.877
15617SOL    HW362788   4.123   8.515   1.005
15617SOL    MW462789   4.135   8.444   0.955
15618SOL     OW62790   5.105   8.670   0.205
15618SOL    HW262791   5.023   8.706   0.171
15618SOL    HW362792   5.173   8.713   0.154
15618SOL    MW462793   5.103   8.680   0.193
15619SOL     OW62794   4.104   8.805   0.871
15619SOL    HW262795   4.080   8.858   0.947
15619SOL    HW362796   4.160   8.863   0.819
15619SOL    MW462797   4.108   8.820   0.874
15620SOL     OW62798   4.666   8.449   0.681
15620SOL    HW262799   4.580   8.436   0.721
15620SOL    HW362800   4.719   8.376   0.713
15620SOL    MW462801   4.662   8.438   0.690
15621SOL     OW62802   4.657   8.811   0.398
15621SOL    HW262803   4.634   8.873   0.466
15621SOL    HW362804   4.614   8.729   0.424
15621SOL    MW462805   4.649   8.807   0.409
15622SOL     OW62806   5.530   7.812   0.854
15622SOL    HW262807   5.467   7.792   0.923
15622SOL    HW362808   5.520   7.741   0.791
15622SOL    MW462809   5.520   7.799   0.855
15623SOL     OW62810   4.154   7.784   0.366
15623SOL    HW262811   4.128   7.746   0.282
15623SOL    HW362812   4.091   7.854   0.382
15623SOL    MW462813   4.143   7.787   0.357
15624SOL     OW62814   5.586   7.981   0.156
15624SOL    HW262815   5.495   7.983   0.184
15624SOL    HW362816   5.631   8.043   0.214
15624SOL    MW462817   5.579   7.989   0.166
15625SOL     OW62818   5.331   8.584   0.506
15625SOL    HW262819   5.241   8.584   0.541
15625SOL    HW362820   5.324   8.630   0.423
15625SOL    MW462821   5.318   8.590   0.500
15626SOL     OW62822   5.131   8.219   1.578
15626SOL    HW262823   5.200   8.157   1.555
15626SOL    HW362824   5.056   8.193   1.525
15626SOL    MW462825   5.131   8.206   1.569
15627SOL     OW62826   4.867   8.606   1.570
15627SOL    HW262827   4.852   8.699   1.555
15627SOL    HW362828   4.962   8.596   1.570
15627SOL    MW462829   4.876   8.616   1.567
15628SOL     OW62830   4.663   8.030   1.771
15628SOL    HW262831   4.753   8.031   1.738
15628SOL    HW362832   4.622   7.955   1.729
15628SOL    MW462833   4.669   8.020   1.762
15629SOL     OW62834   5.238   8.562   0.898
15629SOL    HW262835   5.241   8.496   0.829
15629SOL    HW362836   5.323   8.605   0.894
15629SOL    MW462837   5.250   8.558   0.889
15630SOL     OW62838   4.858   8.165   0.467
15630SOL    HW262839   4.884   8.189   0.378
15630SOL    HW362840   4.840   8.072   0.463
15630SOL    MW462841   4.860   8.157   0.454
15631SOL     OW62842   5.523   8.785   0.318
15631SOL    HW262843   5.479   8.826   0.393
15631SOL    HW362844   5.580   8.853   0.283
15631SOL    MW462845   5.525   8.799   0.323
15632SOL     OW62846   4.443   7.834   1.721
15632SOL    HW262847   4.453   7.760   1.661
15632SOL    HW362848   4.479   7.803   1.804
15632SOL    MW462849   4.449   7.820   1.723
15633SOL     OW62850   5.563   7.563   0.685
15633SOL    HW262851   5.617   7.514   0.747
15633SOL    HW362852   5.506   7.497   0.646
15633SOL    MW462853   5.563   7.547   0.687
15634SOL     OW62854   4.682   7.516   1.098
15634SOL    HW262855   4.641   7.594   1.060
15634SOL    HW362856   4.776   7.534   1.093
15634SOL    MW462857   4.688   7.528   1.093
15635SOL     OW62858   4.697   8.194   0.128
15635SOL    HW262859   4.699   8.141   0.049
15635SOL    HW362860   4.785   8.231   0.134
15635SOL    MW462861   4.709   8.193   0.117
15636SOL     OW62862   5.311   8.120   0.464
15636SOL    HW262863   5.350   8.120   0.551
15636SOL    HW362864   5.252   8.196   0.464
15636SOL    MW462865   5.308   8.131   0.475
15637SOL     OW62866   4.628   8.487   1.593
15637SOL    HW262867   4.605   8.467   1.683
15637SOL    HW362868   4.713   8.531   1.598
15637SOL    MW462869   4.635   8.490   1.605
15638SOL     OW62870   4.708   7.624   1.353
15638SOL    HW262871   4.714   7.586   1.266
15638SOL    HW362872   4.697   7.718   1.338
15638SOL    MW462873   4.709   7.632   1.341
15639SOL     OW62874   4.797   8.113   1.187
15639SOL    HW262875   4.872   8.142   1.134
15639SOL    HW362876   4.729   8.178   1.171
15639SOL    MW462877   4.798   8.125   1.177
15640SOL     OW62878   5.347   8.081   1.464
15640SOL    HW262879   5.328   7.990   1.443
15640SOL    HW362880   5.325   8.130   1.385
15640SOL    MW462881   5.342   8.074   1.451
15641SOL     OW62882   4.794   7.819   1.570
15641SOL    HW262883   4.760   7.858   1.489
15641SOL    HW362884   4.772   7.727   1.563
15641SOL    MW462885   4.787   7.812   1.560
15642SOL     OW62886   5.203   8.633   1.646
15642SOL    HW262887   5.285   8.674   1.676
15642SOL    HW362888   5.166   8.595   1.726
15642SOL    MW462889   5.209   8.634   1.661
15643SOL     OW62890   5.498   8.006   0.630
15643SOL    HW262891   5.587   7.975   0.647
15643SOL    HW362892   5.441   7.946   0.678
15643SOL    MW462893   5.501   7.994   0.639
15644SOL     OW62894   3.924   7.720   0.659
15644SOL    HW262895   3.915   7.660   0.585
15644SOL    HW362896   3.857   7.691   0.722
15644SOL    MW462897   3.914   7.707   0.657
15645SOL     OW62898   4.867   8.813   0.220
15645SOL    HW262899   4.817   8.815   0.302
15645SOL    HW362900   4.801   8.831   0.152
15645SOL    MW462901   4.853   8.815   0.222
15646SOL     OW62902   3.871   7.893   1.022
15646SOL    HW262903   3.843   7.984   1.031
15646SOL    HW362904   3.808   7.854   0.961
15646SOL    MW462905   3.858   7.899   1.016
15647SOL     OW62906   5.592   8.386   1.227
15647SOL    HW262907   5.608   8.424   1.140
15647SOL    HW362908   5.626   8.452   1.288
15647SOL    MW462909   5.599   8.399   1.223
15648SOL     OW62910   3.855   8.168   1.192
15648SOL    HW262911   3.917   8.198   1.258
15648SOL    HW362912   3.789   8.237   1.186
15648SOL    MW462913   3.854   8.181   1.199
15649SOL     OW62914   4.496   7.725   0.100
15649SOL    HW262915   4.444   7.645   0.088
15649SOL    HW362916   4.583   7.702   0.068
15649SOL    MW462917   4.499   7.711   0.094
15650SOL     OW62918   4.002   8.596   1.151
15650SOL    HW262919   4.055   8.671   1.176
15650SOL    HW362920   3.921   8.634   1.117
15650SOL    MW462921   3.998   8.611   1.151
15651SOL     OW62922   4.542   8.500   1.139
15651SOL    HW262923   4.570   8.409   1.151
15651SOL    HW362924   4.471   8.494   1.075
15651SOL    MW462925   4.535   8.488   1.134
15652SOL     OW62926   3.857   8.365   0.557
15652SOL    HW262927   3.948   8.380   0.584
15652SOL    HW362928   3.860   8.286   0.503
15652SOL    MW462929   3.869   8.357   0.555
15653SOL     OW62930   4.093   8.073   1.811
15653SOL    HW262931   4.040   8.153   1.818
15653SOL    HW362932   4.163   8.085   1.876
15653SOL    MW462933   4.095   8.086   1.819
15654SOL     OW62934   4.479   7.623   1.518
15654SOL    HW262935   4.456   7.531   1.520
15654SOL    HW362936   4.565   7.625   1.475
15654SOL    MW462937   4.486   7.613   1.514
15655SOL     OW62938   4.163   8.147   1.557
15655SOL    HW262939   4.243   8.197   1.543
15655SOL    HW362940   4.154   8.141   1.652
15655SOL    MW462941   4.172   8.153   1.567
15656SOL     OW62942   5.140   7.672   1.828
15656SOL    HW262943   5.196   7.599   1.854
15656SOL    HW362944   5.110   7.710   1.910
15656SOL    MW462945   5.144   7.667   1.841
15657SOL     OW62946   4.698   9.020   0.631
15657SOL    HW262947   4.781   8.974   0.615
15657SOL    HW362948   4.688   9.019   0.727
15657SOL    MW462949   4.708   9.013   0.641
15658SOL     OW62950   5.530   8.165   0.945
15658SOL    HW262951   5.619   8.195   0.927
15658SOL    HW362952   5.510   8.105   0.874
15658SOL    MW462953   5.539   8.162   0.934
15659SOL     OW62954   5.381   8.344   1.825
15659SOL    HW262955   5.436   8.268   1.806
15659SOL    HW362956   5.383   8.352   1.920
15659SOL    MW462957   5.389   8.335   1.833
15660SOL     OW62958   4.431   9.077   0.036
15660SOL    HW262959   4.371   9.146   0.006
15660SOL    HW362960   4.376   9.019   0.089
15660SOL    MW462961   4.415   9.079   0.038
15661SOL     OW62962   4.869   7.722   0.259
15661SOL    HW262963   4.802   7.698   0.196
15661SOL    HW362964   4.934   7.771   0.208
15661SOL    MW462965   4.869   7.724   0.244
15662SOL     OW62966   4.676   7.906   1.344
15662SOL    HW262967   4.595   7.947   1.372
15662SOL    HW362968   4.723   7.974   1.296
15662SOL    MW462969   4.671   7.921   1.342
15663SOL     OW62970   4.936   8.244   0.967
15663SOL    HW262971   4.949   8.338   0.977
15663SOL    HW362972   4.897   8.234   0.881
15663SOL    MW462973   4.932   8.255   0.957
15664SOL     OW62974   4.388   8.439   0.771
15664SOL    HW262975   4.299   8.430   0.804
15664SOL    HW362976   4.392   8.529   0.739
15664SOL    MW462977   4.377   8.450   0.771
15665SOL     OW62978   5.187   8.022   0.766
15665SOL    HW262979   5.132   7.943   0.765
15665SOL    HW362980   5.169   8.063   0.850
15665SOL    MW462981   5.177   8.017   0.775
15666SOL     OW62982   4.158   7.709   1.583
15666SOL    HW262983   4.079   7.727   1.635
15666SOL    HW362984   4.153   7.771   1.510
15666SOL    MW462985   4.148   7.719   1.580
15667SOL     OW62986   4.806   8.226   0.723
15667SOL    HW262987   4.743   8.158   0.747
15667SOL    HW362988   4.826   8.207   0.631
15667SOL    MW462989   4.800   8.213   0.715
15668SOL     OW62990   4.554   8.530   0.449
15668SOL    HW262991   4.556   8.504   0.356
15668SOL    HW362992   4.612   8.467   0.492
15668SOL    MW462993   4.562   8.519   0.443
15669SOL     OW62994   5.064   7.774   0.782
15669SOL    HW262995   5.092   7.706   0.843
15669SOL    HW362996   4.978   7.745   0.752
15669SOL    MW462997   5.057   7.761   0.786
15670SOL     OW62998   3.869   8.708   0.716
15670SOL    HW262999   3.933   8.740   0.779
15670SOL    HW363000   3.918   8.644   0.664
15670SOL    MW463001   3.884   8.704   0.717
15671SOL     OW63002   5.044   7.878   0.117
15671SOL    HW263003   5.017   7.944   0.053
15671SOL    HW363004   5.114   7.921   0.167
15671SOL    MW463005   5.049   7.891   0.114
15672SOL     OW63006   4.712   7.583   0.054
15672SOL    HW263007   4.768   7.575  -0.024
15672SOL    HW363008   4.689   7.493   0.076
15672SOL    MW463009   4.717   7.570   0.047
15673SOL     OW63010   5.217   8.434   0.259
15673SOL    HW263011   5.184   8.523   0.249
15673SOL    HW363012   5.182   8.405   0.344
15673SOL    MW463013   5.207   8.443   0.270
15674SOL     OW63014   4.123   7.531   1.789
15674SOL    HW263015   4.051   7.496   1.737
15674SOL    HW363016   4.181   7.572   1.724
15674SOL    MW463017   4.121   7.532   1.774
15675SOL     OW63018   5.587   8.550   1.442
15675SOL    HW263019   5.502   8.563   1.401
15675SOL    HW363020   5.567   8.514   1.529
15675SOL    MW463021   5.574   8.546   1.447
15676SOL     OW63022   4.864   8.445   0.294
15676SOL    HW263023   4.774   8.466   0.269
15676SOL    HW363024   4.891   8.518   0.350
15676SOL    MW463025   4.856   8.457   0.297
15677SOL     OW63026   4.364   8.794   0.986
15677SOL    HW263027   4.357   8.773   1.080
15677SOL    HW363028   4.282   8.762   0.949
15677SOL    MW463029   4.352   8.788   0.993
15678SOL     OW63030   5.228   7.804   1.388
15678SOL    HW263031   5.175   7.806   1.468
15678SOL    HW363032   5.213   7.717   1.351
15678SOL    MW463033   5.220   7.794   1.393
15679SOL     OW63034   5.564   7.728   1.261
15679SOL    HW263035   5.545   7.795   1.196
15679SOL    HW363036   5.621   7.666   1.216
15679SOL    MW463037   5.568   7.729   1.247
15680SOL     OW63038   4.493   7.561   0.701
15680SOL    HW263039   4.422   7.622   0.683
15680SOL    HW363040   4.544   7.558   0.620
15680SOL    MW463041   4.489   7.567   0.688
15681SOL     OW63042   4.453   8.218   1.831
15681SOL    HW263043   4.523   8.160   1.803
15681SOL    HW363044   4.396   8.163   1.886
15681SOL    MW463045   4.455   8.205   1.835
15682SOL     OW63046   5.240   8.430   1.464
15682SOL    HW263047   5.245   8.483   1.544
15682SOL    HW363048   5.202   8.347   1.492
15682SOL    MW463049   5.236   8.425   1.479
15683SOL     OW63050   4.880   7.565   1.710
15683SOL    HW263051   4.875   7.472   1.691
15683SOL    HW363052   4.963   7.576   1.756
15683SOL    MW463053   4.888   7.554   1.714
15684SOL     OW63054   4.254   8.085   0.164
15684SOL    HW263055   4.220   8.141   0.234
15684SOL    HW363056   4.325   8.035   0.204
15684SOL    MW463057   4.260   8.086   0.178
15685SOL     OW63058   5.350   8.836   0.986
15685SOL    HW263059   5.385   8.818   0.899
15685SOL    HW363060   5.255   8.837   0.973
15685SOL    MW463061   5.342   8.833   0.973
15686SOL     OW63062   4.779   8.484   1.355
15686SOL    HW263063   4.822   8.519   1.433
15686SOL    HW363064   4.762   8.561   1.301
15686SOL    MW463065   4.782   8.499   1.358
15687SOL     OW63066   5.310   7.971   0.228
15687SOL    HW263067   5.302   8.042   0.165
15687SOL    HW363068   5.328   8.015   0.311
15687SOL    MW463069   5.311   7.985   0.230
15688SOL     OW63070   4.170   7.626   0.657
15688SOL    HW263071   4.220   7.669   0.588
15688SOL    HW363072   4.085   7.670   0.657
15688SOL    MW463073   4.167   7.639   0.648
15689SOL     OW63074   3.929   8.688   1.517
15689SOL    HW263075   3.957   8.641   1.595
15689SOL    HW363076   3.850   8.643   1.488
15689SOL    MW463077   3.922   8.677   1.523
15690SOL     OW63078   4.437   8.015   1.484
15690SOL    HW263079   4.409   8.103   1.508
15690SOL    HW363080   4.406   7.959   1.555
15690SOL    MW463081   4.429   8.018   1.496
15691SOL     OW63082   4.979   8.233   0.203
15691SOL    HW263083   5.026   8.251   0.122
15691SOL    HW363084   4.945   8.317   0.231
15691SOL    MW463085   4.981   8.247   0.196
15692SOL     OW63086   4.092   8.411   0.697
15692SOL    HW263087   4.150   8.467   0.645
15692SOL    HW363088   4.136   8.326   0.699
15692SOL    MW463089   4.105   8.408   0.690
15693SOL     OW63090   5.232   7.763   0.534
15693SOL    HW263091   5.154   7.713   0.559
15693SOL    HW363092   5.203   7.854   0.534
15693SOL    MW463093   5.218   7.767   0.537
15694SOL     OW63094   4.818   7.725   0.693
15694SOL    HW263095   4.838   7.800   0.637
15694SOL    HW363096   4.798   7.764   0.778
15694SOL    MW463097   4.819   7.741   0.697
15695SOL     OW63098   4.714   8.975   0.025
15695SOL    HW263099   4.741   9.053  -0.023
15695SOL    HW363100   4.621   8.990   0.044
15695SOL    MW463101   4.705   8.988   0.021
15696SOL     OW63102   5.578   8.498   1.712
15696SOL    HW263103   5.491   8.478   1.748
15696SOL    HW363104   5.632   8.424   1.737
15696SOL    MW463105   5.573   8.487   1.720
15697SOL     OW63106   3.754   8.137   0.416
15697SOL    HW263107   3.694   8.109   0.486
15697SOL    HW363108   3.828   8.077   0.422
15697SOL    MW463109   3.756   8.126   0.425
15698SOL     OW63110   4.180   7.876   1.305
15698SOL    HW263111   4.213   7.957   1.345
15698SOL    HW363112   4.153   7.902   1.217
15698SOL    MW463113   4.179   7.890   1.299
15699SOL     OW63114   4.134   7.843   1.041
15699SOL    HW263115   4.164   7.757   1.012
15699SOL    HW363116   4.039   7.836   1.044
15699SOL    MW463117   4.126   7.832   1.039
15700SOL     OW63118   4.963   8.052   1.732
15700SOL    HW263119   5.015   7.987   1.685
15700SOL    HW363120   4.921   8.103   1.662
15700SOL    MW463121   4.964   8.049   1.715
15701SOL     OW63122   5.062   7.847   1.593
15701SOL    HW263123   4.969   7.831   1.580
15701SOL    HW363124   5.088   7.785   1.661
15701SOL    MW463125   5.052   7.837   1.600
15702SOL     OW63126   4.277   7.621   0.932
15702SOL    HW263127   4.287   7.530   0.958
15702SOL    HW363128   4.233   7.617   0.847
15702SOL    MW463129   4.273   7.609   0.924
15703SOL     OW63130   5.428   7.943   1.103
15703SOL    HW263131   5.361   7.976   1.163
15703SOL    HW363132   5.471   8.021   1.069
15703SOL    MW463133   5.426   7.958   1.107
15704SOL     OW63134   5.606   8.663   1.073
15704SOL    HW263135   5.599   8.603   0.998
15704SOL    HW363136   5.532   8.723   1.062
15704SOL    MW463137   5.596   8.663   1.062
15705SOL     OW63138   4.988   8.525   0.991
15705SOL    HW263139   5.002   8.497   1.082
15705SOL    HW363140   5.074   8.556   0.963
15705SOL    MW463141   5.001   8.526   1.000
15706SOL     OW63142   5.071   8.020   1.270
15706SOL    HW263143   5.092   8.021   1.177
15706SOL    HW363144   5.116   7.942   1.303
15706SOL    MW463145   5.078   8.010   1.262
15707SOL     OW63146   5.564   8.151   1.812
15707SOL    HW263147   5.601   8.096   1.881
15707SOL    HW363148   5.589   8.108   1.730
15707SOL    MW463149   5.571   8.139   1.811
15708SOL     OW63150   5.111   8.449   1.863
15708SOL    HW263151   5.177   8.397   1.817
15708SOL    HW363152   5.131   8.436   1.956
15708SOL    MW463153   5.122   8.440   1.870
15709SOL     OW63154   5.122   8.310   0.490
15709SOL    HW263155   5.037   8.280   0.460
15709SOL    HW363156   5.114   8.317   0.585
15709SOL    MW463157   5.110   8.308   0.499
15710SOL     OW63158   4.482   7.753   1.044
15710SOL    HW263159   4.455   7.755   1.135
15710SOL    HW363160   4.412   7.705   0.999
15710SOL    MW463161   4.470   7.749   1.051
15711SOL     OW63162   4.312   8.561   1.555
15711SOL    HW263163   4.349   8.566   1.467
15711SOL    HW363164   4.351   8.634   1.602
15711SOL    MW463165   4.322   8.571   1.550
15712SOL     OW63166   4.492   8.604   1.367
15712SOL    HW263167   4.551   8.550   1.420
15712SOL    HW363168   4.507   8.576   1.277
15712SOL    MW463169   4.502   8.593   1.363
15713SOL     OW63170   4.495   7.976   0.216
15713SOL    HW263171   4.568   8.025   0.179
15713SOL    HW363172   4.511   7.885   0.190
15713SOL    MW463173   4.507   7.971   0.209
15714SOL     OW63174   4.963   7.572   1.130
15714SOL    HW263175   5.018   7.581   1.052
15714SOL    HW363176   5.018   7.606   1.201
15714SOL    MW463177   4.977   7.577   1.129
15715SOL     OW63178   3.970   8.485   0.314
15715SOL    HW263179   3.907   8.501   0.243
15715SOL    HW363180   3.917   8.448   0.385
15715SOL    MW463181   3.955   8.482   0.314
15716SOL     OW63182   4.326   8.839   0.173
15716SOL    HW263183   4.341   8.815   0.265
15716SOL    HW363184   4.234   8.817   0.157
15716SOL    MW463185   4.316   8.832   0.183
15717SOL     OW63186   4.741   8.706   1.137
15717SOL    HW263187   4.673   8.640   1.153
15717SOL    HW363188   4.759   8.700   1.044
15717SOL    MW463189   4.734   8.697   1.128
15718SOL     OW63190   4.734   7.845   0.958
15718SOL    HW263191   4.664   7.797   1.003
15718SOL    HW363192   4.766   7.908   1.022
15718SOL    MW463193   4.729   7.847   0.972
15719SOL     OW63194   4.385   8.281   1.578
15719SOL    HW263195   4.378   8.376   1.566
15719SOL    HW363196   4.394   8.270   1.673
15719SOL    MW463197   4.386   8.293   1.588
15720SOL     OW63198   5.190   7.559   1.303
15720SOL    HW263199   5.261   7.505   1.267
15720SOL    HW363200   5.189   7.538   1.396
15720SOL    MW463201   5.199   7.550   1.311
15721SOL     OW63202   4.201   7.951   0.771
15721SOL    HW263203   4.272   7.899   0.734
15721SOL    HW363204   4.187   7.916   0.858
15721SOL    MW463205   4.209   7.940   0.778
15722SOL     OW63206   4.837   7.892   0.495
15722SOL    HW263207   4.859   7.829   0.427
15722SOL    HW363208   4.742   7.884   0.506
15722SOL    MW463209   4.827   7.883   0.487
15723SOL     OW63210   3.922   7.582   0.427
15723SOL    HW263211   3.993   7.603   0.366
15723SOL    HW363212   3.876   7.510   0.385
15723SOL    MW463213   3.926   7.576   0.413
15724SOL     OW63214   3.753   8.049   1.570
15724SOL    HW263215   3.817   8.115   1.545
15724SOL    HW363216   3.672   8.076   1.527
15724SOL    MW463217   3.751   8.061   1.562
15725SOL     OW63218   5.047   8.633   0.457
15725SOL    HW263219   5.019   8.719   0.490
15725SOL    HW363220   5.075   8.649   0.367
15725SOL    MW463221   5.047   8.647   0.449
15726SOL     OW63222   4.709   7.553   0.510
15726SOL    HW263223   4.746   7.612   0.575
15726SOL    HW363224   4.686   7.609   0.436
15726SOL    MW463225   4.710   7.568   0.509
15727SOL     OW63226   5.562   8.435   0.932
15727SOL    HW263227   5.553   8.467   0.843
15727SOL    HW363228   5.515   8.351   0.932
15727SOL    MW463229   5.555   8.428   0.922
15728SOL     OW63230   3.938   8.275   1.511
15728SOL    HW263231   3.959   8.344   1.449
15728SOL    HW363232   4.018   8.222   1.516
15728SOL    MW463233   3.951   8.276   1.505
15729SOL     OW63234   5.474   8.366   0.633
15729SOL    HW263235   5.568   8.355   0.621
15729SOL    HW363236   5.450   8.438   0.574
15729SOL    MW463237   5.484   8.374   0.624
15730SOL     OW63238   3.923   8.290   1.778
15730SOL    HW263239   3.849   8.234   1.804
15730SOL    HW363240   3.918   8.293   1.683
15730SOL    MW463241   3.912   8.283   1.768
15731SOL     OW63242   4.089   7.577   1.228
15731SOL    HW263243   4.132   7.661   1.248
15731SOL    HW363244   4.162   7.515   1.221
15731SOL    MW463245   4.104   7.580   1.229
15732SOL     OW63246   4.130   8.244   0.406
15732SOL    HW263247   4.130   8.339   0.391
15732SOL    HW363248   4.207   8.228   0.460
15732SOL    MW463249   4.140   8.255   0.411
15733SOL     OW63250   4.906   8.103   1.470
15733SOL    HW263251   4.942   8.076   1.386
15733SOL    HW363252   4.819   8.137   1.449
15733SOL    MW463253   4.900   8.104   1.457
15734SOL     OW63254   3.889   7.975   0.695
15734SOL    HW263255   3.951   7.982   0.768
15734SOL    HW363256   3.889   7.882   0.672
15734SOL    MW463257   3.897   7.964   0.702
15735SOL     OW63258   4.571   8.236   1.179
15735SOL    HW263259   4.529   8.154   1.155
15735SOL    HW363260   4.572   8.235   1.275
15735SOL    MW463261   4.564   8.225   1.188
15736SOL     OW63262   4.375   7.706   1.284
15736SOL    HW263263   4.306   7.769   1.305
15736SOL    HW363264   4.402   7.670   1.369
15736SOL    MW463265   4.369   7.709   1.297
15737SOL     OW63266   3.758   8.547   0.153
15737SOL    HW263267   3.727   8.612   0.216
15737SOL    HW363268   3.707   8.469   0.172
15737SOL    MW463269   3.748   8.544   0.163
15738SOL     OW63270   5.170   7.559   0.901
15738SOL    HW263271   5.258   7.568   0.938
15738SOL    HW363272   5.180   7.500   0.827
15738SOL    MW463273   5.184   7.553   0.895
15739SOL     OW63274   5.202   8.298   0.745
15739SOL    HW263275   5.282   8.313   0.694
15739SOL    HW363276   5.195   8.203   0.751
15739SOL    MW463277   5.211   8.287   0.740
15740SOL     OW63278   4.652   8.224   1.442
15740SOL    HW263279   4.721   8.291   1.439
15740SOL    HW363280   4.585   8.262   1.498
15740SOL    MW463281   4.653   8.237   1.449
15741SOL     OW63282   4.070   8.524   1.690
15741SOL    HW263283   4.024   8.440   1.692
15741SOL    HW363284   4.127   8.518   1.614
15741SOL    MW463285   4.072   8.512   1.682
15742SOL     OW63286   5.187   8.167   0.011
15742SOL    HW263287   5.115   8.143  -0.047
15742SOL    HW363288   5.253   8.204  -0.047
15742SOL    MW463289   5.186   8.169  -0.004
15743SOL     OW63290   4.321   8.899   0.691
15743SOL    HW263291   4.386   8.832   0.712
15743SOL    HW363292   4.373   8.976   0.668
15743SOL    MW463293   4.336   8.901   0.690
15744SOL     OW63294   4.582   8.064   0.821
15744SOL    HW263295   4.522   8.082   0.893
15744SOL    HW363296   4.616   7.976   0.840
15744SOL    MW463297   4.578   8.054   0.834
15745SOL     OW63298   5.523   7.563   1.490
15745SOL    HW263299   5.444   7.609   1.518
15745SOL    HW363300   5.558   7.617   1.419
15745SOL    MW463301   5.517   7.576   1.484
15746SOL     OW63302   4.807   8.647   0.840
15746SOL    HW263303   4.899   8.628   0.858
15746SOL    HW363304   4.780   8.577   0.780
15746SOL    MW463305   4.815   8.635   0.834
15747SOL     OW63306   4.600   8.467   0.195
15747SOL    HW263307   4.586   8.379   0.160
15747SOL    HW363308   4.551   8.524   0.136
15747SOL    MW463309   4.592   8.462   0.183
15748SOL     OW63310   4.013   8.191   0.974
15748SOL    HW263311   3.963   8.190   1.055
15748SOL    HW363312   4.033   8.283   0.958
15748SOL    MW463313   4.009   8.203   0.982
15749SOL     OW63314   5.080   8.955   1.736
15749SOL    HW263315   5.080   9.049   1.752
15749SOL    HW363316   5.125   8.945   1.652
15749SOL    MW463317   5.086   8.965   1.727
15750SOL     OW63318   5.319   7.673   0.297
15750SOL    HW263319   5.312   7.677   0.392
15750SOL    HW363320   5.331   7.764   0.270
15750SOL    MW463321   5.320   7.686   0.305
15751SOL     OW63322   4.608   8.236   0.411
15751SOL    HW263323   4.588   8.222   0.318
15751SOL    HW363324   4.701   8.215   0.418
15751SOL    MW463325   4.618   8.231   0.400
15752SOL     OW63326   3.935   7.859   1.715
15752SOL    HW263327   3.892   7.918   1.652
15752SOL    HW363328   4.003   7.914   1.755
15752SOL    MW463329   3.939   7.874   1.712
15753SOL     OW63330   5.047   8.479   1.260
15753SOL    HW263331   5.110   8.476   1.333
15753SOL    HW363332   4.963   8.497   1.302
15753SOL    MW463333   5.043   8.481   1.275
15754SOL     OW63334   5.386   7.656   1.039
15754SOL    HW263335   5.431   7.574   1.058
15754SOL    HW363336   5.406   7.712   1.115
15754SOL    MW463337   5.396   7.652   1.051
15755SOL     OW63338   3.834   7.499   1.138
15755SOL    HW263339   3.825   7.500   1.043
15755SOL    HW363340   3.928   7.511   1.153
15755SOL    MW463341   3.846   7.502   1.129
15756SOL     OW63342   5.471   8.692   0.758
15756SOL    HW263343   5.450   8.638   0.681
15756SOL    HW363344   5.567   8.690   0.762
15756SOL    MW463345   5.480   8.685   0.747
15757SOL     OW63346   4.163   8.837   1.501
15757SOL    HW263347   4.084   8.787   1.524
15757SOL    HW363348   4.233   8.796   1.551
15757SOL    MW463349   4.161   8.825   1.511
15758SOL     OW63350   4.047   7.626   0.184
15758SOL    HW263351   3.976   7.681   0.152
15758SOL    HW363352   4.089   7.592   0.105
15758SOL    MW463353   4.043   7.628   0.170
15759SOL     OW63354   5.171   8.123   1.020
15759SOL    HW263355   5.094   8.169   0.986
15759SOL    HW363356   5.228   8.192   1.054
15759SOL    MW463357   5.168   8.138   1.020
15760SOL     OW63358   3.803   7.725   0.033
15760SOL    HW263359   3.770   7.804   0.077
15760SOL    HW363360   3.858   7.758  -0.038
15760SOL    MW463361   3.806   7.739   0.030
15761SOL     OW63362   5.472   8.339   2.125
15761SOL    HW263363   5.513   8.281   2.190
15761SOL    HW363364   5.379   8.331   2.142
15761SOL    MW463365   5.466   8.331   2.135
15762SOL     OW63366   5.338   8.271   3.120
15762SOL    HW263367   5.293   8.338   3.171
15762SOL    HW363368   5.426   8.307   3.106
15762SOL    MW463369   5.344   8.284   3.124
15763SOL     OW63370   4.266   8.522   2.354
15763SOL    HW263371   4.356   8.497   2.338
15763SOL    HW363372   4.262   8.615   2.331
15763SOL    MW463373   4.278   8.531   2.349
15764SOL     OW63374   5.318   8.665   3.101
15764SOL    HW263375   5.239   8.630   3.059
15764SOL    HW363376   5.345   8.737   3.045
15764SOL    MW463377   5.311   8.670   3.088
15765SOL     OW63378   4.550   7.978   2.367
15765SOL    HW263379   4.525   8.066   2.395
15765SOL    HW363380   4.547   7.981   2.271
15765SOL    MW463381   4.546   7.990   2.359
15766SOL     OW63382   3.992   8.006   2.295
15766SOL    HW263383   4.024   8.094   2.277
15766SOL    HW363384   3.980   8.004   2.390
15766SOL    MW463385   3.995   8.018   2.307
15767SOL     OW63386   4.070   8.419   3.196
15767SOL    HW263387   4.133   8.366   3.147
15767SOL    HW363388   4.051   8.493   3.139
15767SOL    MW463389   4.076   8.421   3.183
15768SOL     OW63390   4.391   7.761   2.382
15768SOL    HW263391   4.449   7.837   2.384
15768SOL    HW363392   4.326   7.782   2.315
15768SOL    MW463393   4.390   7.773   2.373
15769SOL     OW63394   4.478   8.688   2.557
15769SOL    HW263395   4.558   8.691   2.609
15769SOL    HW363396   4.506   8.655   2.471
15769SOL    MW463397   4.492   8.684   2.552
15770SOL     OW63398   4.503   9.029   3.460
15770SOL    HW263399   4.587   9.055   3.499
15770SOL    HW363400   4.527   8.973   3.386
15770SOL    MW463401   4.517   9.025   3.455
15771SOL     OW63402   4.255   8.192   2.548
15771SOL    HW263403   4.240   8.112   2.599
15771SOL    HW363404   4.337   8.227   2.582
15771SOL    MW463405   4.263   8.184   2.560
15772SOL     OW63406   4.397   8.018   2.925
15772SOL    HW263407   4.303   8.014   2.943
15772SOL    HW363408   4.427   7.927   2.934
15772SOL    MW463409   4.388   8.006   2.928
15773SOL     OW63410   4.143   8.432   2.829
15773SOL    HW263411   4.098   8.439   2.745
15773SOL    HW363412   4.123   8.515   2.873
15773SOL    MW463413   4.135   8.444   2.823
15774SOL     OW63414   5.105   8.670   2.073
15774SOL    HW263415   5.023   8.706   2.039
15774SOL    HW363416   5.173   8.713   2.022
15774SOL    MW463417   5.103   8.680   2.061
15775SOL     OW63418   4.104   8.805   2.739
15775SOL    HW263419   4.080   8.858   2.815
15775SOL    HW363420   4.160   8.863   2.687
15775SOL    MW463421   4.108   8.820   2.742
15776SOL     OW63422   4.666   8.449   2.549
15776SOL    HW263423   4.580   8.436   2.589
15776SOL    HW363424   4.719   8.376   2.581
15776SOL    MW463425   4.662   8.438   2.558
15777SOL     OW63426   4.657   8.811   2.266
15777SOL    HW263427   4.634   8.873   2.334
15777SOL    HW363428   4.614   8.729   2.292
15777SOL    MW463429   4.649   8.807   2.277
15778SOL     OW63430   5.530   7.812   2.722
15778SOL    HW263431   5.467   7.792   2.791
15778SOL    HW363432   5.520   7.741   2.659
15778SOL    MW463433   5.520   7.799   2.723
15779SOL     OW63434   4.154   7.784   2.234
15779SOL    HW263435   4.128   7.746   2.150
15779SOL    HW363436   4.091   7.854   2.250
15779SOL    MW463437   4.143   7.787   2.225
15780SOL     OW63438   3.989   8.745   2.271
15780SOL    HW263439   3.937   8.813   2.227
15780SOL    HW363440   3.986   8.671   2.211
15780SOL    MW463441   3.981   8.744   2.258
15781SOL     OW63442   5.586   7.981   2.024
15781SOL    HW263443   5.495   7.983   2.052
15781SOL    HW363444   5.631   8.043   2.082
15781SOL    MW463445   5.579   7.989   2.034
15782SOL     OW63446   5.331   8.584   2.374
15782SOL    HW263447   5.241   8.584   2.409
15782SOL    HW363448   5.324   8.630   2.291
15782SOL    MW463449   5.318   8.590   2.368
15783SOL     OW63450   5.131   8.219   3.446
15783SOL    HW263451   5.200   8.157   3.423
15783SOL    HW363452   5.056   8.193   3.393
15783SOL    MW463453   5.131   8.206   3.437
15784SOL     OW63454   4.867   8.606   3.438
15784SOL    HW263455   4.852   8.699   3.423
15784SOL    HW363456   4.962   8.596   3.438
15784SOL    MW463457   4.876   8.616   3.435
15785SOL     OW63458   4.663   8.030   3.639
15785SOL    HW263459   4.753   8.031   3.606
15785SOL    HW363460   4.622   7.955   3.597
15785SOL    MW463461   4.669   8.020   3.630
15786SOL     OW63462   5.238   8.562   2.766
15786SOL    HW263463   5.241   8.496   2.697
15786SOL    HW363464   5.323   8.605   2.762
15786SOL    MW463465   5.250   8.558   2.757
15787SOL     OW63466   4.858   8.165   2.335
15787SOL    HW263467   4.884   8.189   2.246
15787SOL    HW363468   4.840   8.072   2.331
15787SOL    MW463469   4.860   8.157   2.322
15788SOL     OW63470   5.523   8.785   2.186
15788SOL    HW263471   5.479   8.826   2.261
15788SOL    HW363472   5.580   8.853   2.151
15788SOL    MW463473   5.525   8.799   2.191
15789SOL     OW63474   4.443   7.834   3.589
15789SOL    HW263475   4.453   7.760   3.529
15789SOL    HW363476   4.479   7.803   3.672
15789SOL    MW463477   4.449   7.820   3.591
15790SOL     OW63478   5.563   7.563   2.553
15790SOL    HW263479   5.617   7.514   2.615
15790SOL    HW363480   5.506   7.497   2.514
15790SOL    MW463481   5.563   7.547   2.555
15791SOL     OW63482   4.682   7.516   2.966
15791SOL    HW263483   4.641   7.594   2.928
15791SOL    HW363484   4.776   7.534   2.961
15791SOL    MW463485   4.688   7.528   2.961
15792SOL     OW63486   4.697   8.194   1.996
15792SOL    HW263487   4.699   8.141   1.917
15792SOL    HW363488   4.785   8.231   2.002
15792SOL    MW463489   4.709   8.193   1.985
15793SOL     OW63490   5.311   8.120   2.332
15793SOL    HW263491   5.350   8.120   2.419
15793SOL    HW363492   5.252   8.196   2.332
15793SOL    MW463493   5.308   8.131   2.343
15794SOL     OW63494   4.628   8.487   3.461
15794SOL    HW263495   4.605   8.467   3.551
15794SOL    HW363496   4.713   8.531   3.466
15794SOL    MW463497   4.635   8.490   3.473
15795SOL     OW63498   4.708   7.624   3.221
15795SOL    HW263499   4.714   7.586   3.134
15795SOL    HW363500   4.697   7.718   3.206
15795SOL    MW463501   4.709   7.632   3.209
15796SOL     OW63502   4.797   8.113   3.055
15796SOL    HW263503   4.872   8.142   3.002
15796SOL    HW363504   4.729   8.178   3.039
15796SOL    MW463505   4.798   8.125   3.045
15797SOL     OW63506   5.347   8.081   3.332
15797SOL    HW263507   5.328   7.990   3.311
15797SOL    HW363508   5.325   8.130   3.253
15797SOL    MW463509   5.342   8.074   3.319
15798SOL     OW63510   4.794   7.819   3.438
15798SOL    HW263511   4.760   7.858   3.357
15798SOL    HW363512   4.772   7.727   3.431
15798SOL    MW463513   4.787   7.812   3.428
15799SOL     OW63514   5.203   8.633   3.514
15799SOL    HW263515   5.285   8.674   3.544
15799SOL    HW363516   5.166   8.595   3.594
15799SOL    MW463517   5.209   8.634   3.529
15800SOL     OW63518   5.498   8.006   2.498
15800SOL    HW263519   5.587   7.975   2.515
15800SOL    HW363520   5.441   7.946   2.546
15800SOL    MW463521   5.501   7.994   2.507
15801SOL     OW63522   3.924   7.720   2.527
15801SOL    HW263523   3.915   7.660   2.453
15801SOL    HW363524   3.857   7.691   2.590
15801SOL    MW463525   3.914   7.707   2.525
15802SOL     OW63526   4.867   8.813   2.088
15802SOL    HW263527   4.817   8.815   2.170
15802SOL    HW363528   4.801   8.831   2.020
15802SOL    MW463529   4.853   8.815   2.090
15803SOL     OW63530   3.871   7.893   2.890
15803SOL    HW263531   3.843   7.984   2.899
15803SOL    HW363532   3.808   7.854   2.829
15803SOL    MW463533   3.858   7.899   2.884
15804SOL     OW63534   4.466   8.646   1.903
15804SOL    HW263535   4.388   8.592   1.890
15804SOL    HW363536   4.437   8.719   1.956
15804SOL    MW463537   4.452   8.648   1.908
15805SOL     OW63538   5.592   8.386   3.095
15805SOL    HW263539   5.608   8.424   3.008
15805SOL    HW363540   5.626   8.452   3.156
15805SOL    MW463541   5.599   8.399   3.091
15806SOL     OW63542   3.855   8.168   3.060
15806SOL    HW263543   3.917   8.198   3.126
15806SOL    HW363544   3.789   8.237   3.054
15806SOL    MW463545   3.854   8.181   3.067
15807SOL     OW63546   4.496   7.725   1.968
15807SOL    HW263547   4.444   7.645   1.956
15807SOL    HW363548   4.583   7.702   1.936
15807SOL    MW463549   4.499   7.711   1.962
15808SOL     OW63550   4.542   8.500   3.007
15808SOL    HW263551   4.570   8.409   3.019
15808SOL    HW363552   4.471   8.494   2.943
15808SOL    MW463553   4.535   8.488   3.002
15809SOL     OW63554   3.857   8.365   2.425
15809SOL    HW263555   3.948   8.380   2.452
15809SOL    HW363556   3.860   8.286   2.371
15809SOL    MW463557   3.869   8.357   2.423
15810SOL     OW63558   4.093   8.073   3.679
15810SOL    HW263559   4.040   8.153   3.686
15810SOL    HW363560   4.163   8.085   3.744
15810SOL    MW463561   4.095   8.086   3.687
15811SOL     OW63562   4.479   7.623   3.386
15811SOL    HW263563   4.456   7.531   3.388
15811SOL    HW363564   4.565   7.625   3.343
15811SOL    MW463565   4.486   7.613   3.382
15812SOL     OW63566   4.163   8.147   3.425
15812SOL    HW263567   4.243   8.197   3.411
15812SOL    HW363568   4.154   8.141   3.520
15812SOL    MW463569   4.172   8.153   3.435
15813SOL     OW63570   5.140   7.672   3.696
15813SOL    HW263571   5.196   7.599   3.722
15813SOL    HW363572   5.110   7.710   3.778
15813SOL    MW463573   5.144   7.667   3.709
15814SOL     OW63574   4.698   9.020   2.499
15814SOL    HW263575   4.781   8.974   2.483
15814SOL    HW363576   4.688   9.019   2.595
15814SOL    MW463577   4.708   9.013   2.509
15815SOL     OW63578   5.530   8.165   2.813
15815SOL    HW263579   5.619   8.195   2.795
15815SOL    HW363580   5.510   8.105   2.742
15815SOL    MW463581   5.539   8.162   2.802
15816SOL     OW63582   5.381   8.344   3.693
15816SOL    HW263583   5.436   8.268   3.674
15816SOL    HW363584   5.383   8.352   3.788
15816SOL    MW463585   5.389   8.335   3.701
15817SOL     OW63586   4.869   7.722   2.127
15817SOL    HW263587   4.802   7.698   2.064
15817SOL    HW363588   4.934   7.771   2.076
15817SOL    MW463589   4.869   7.724   2.112
15818SOL     OW63590   4.676   7.906   3.212
15818SOL    HW263591   4.595   7.947   3.240
15818SOL    HW363592   4.723   7.974   3.164
15818SOL    MW463593   4.671   7.921   3.210
15819SOL     OW63594   4.936   8.244   2.835
15819SOL    HW263595   4.949   8.338   2.845
15819SOL    HW363596   4.897   8.234   2.749
15819SOL    MW463597   4.932   8.255   2.825
15820SOL     OW63598   4.388   8.439   2.639
15820SOL    HW263599   4.299   8.430   2.672
15820SOL    HW363600   4.392   8.529   2.607
15820SOL    MW463601   4.377   8.450   2.639
15821SOL     OW63602   5.187   8.022   2.634
15821SOL    HW263603   5.132   7.943   2.633
15821SOL    HW363604   5.169   8.063   2.718
15821SOL    MW463605   5.177   8.017   2.643
15822SOL     OW63606   4.158   7.709   3.451
15822SOL    HW263607   4.079   7.727   3.503
15822SOL    HW363608   4.153   7.771   3.378
15822SOL    MW463609   4.148   7.719   3.448
15823SOL     OW63610   4.806   8.226   2.591
15823SOL    HW263611   4.743   8.158   2.615
15823SOL    HW363612   4.826   8.207   2.499
15823SOL    MW463613   4.800   8.213   2.583
15824SOL     OW63614   4.554   8.530   2.317
15824SOL    HW263615   4.556   8.504   2.224
15824SOL    HW363616   4.612   8.467   2.360
15824SOL    MW463617   4.562   8.519   2.311
15825SOL     OW63618   5.064   7.774   2.650
15825SOL    HW263619   5.092   7.706   2.711
15825SOL    HW363620   4.978   7.745   2.620
15825SOL    MW463621   5.057   7.761   2.654
15826SOL     OW63622   3.869   8.708   2.584
15826SOL    HW263623   3.933   8.740   2.647
15826SOL    HW363624   3.918   8.644   2.532
15826SOL    MW463625   3.884   8.704   2.585
15827SOL     OW63626   5.044   7.878   1.985
15827SOL    HW263627   5.017   7.944   1.921
15827SOL    HW363628   5.114   7.921   2.035
15827SOL    MW463629   5.049   7.891   1.982
15828SOL     OW63630   4.712   7.583   1.922
15828SOL    HW263631   4.768   7.575   1.844
15828SOL    HW363632   4.689   7.493   1.944
15828SOL    MW463633   4.717   7.570   1.915
15829SOL     OW63634   5.217   8.434   2.127
15829SOL    HW263635   5.184   8.523   2.117
15829SOL    HW363636   5.182   8.405   2.212
15829SOL    MW463637   5.207   8.443   2.138
15830SOL     OW63638   4.123   7.531   3.657
15830SOL    HW263639   4.051   7.496   3.605
15830SOL    HW363640   4.181   7.572   3.592
15830SOL    MW463641   4.121   7.532   3.642
15831SOL     OW63642   5.587   8.550   3.310
15831SOL    HW263643   5.502   8.563   3.269
15831SOL    HW363644   5.567   8.514   3.397
15831SOL    MW463645   5.574   8.546   3.315
15832SOL     OW63646   4.211   8.472   1.919
15832SOL    HW263647   4.134   8.485   1.975
15832SOL    HW363648   4.175   8.436   1.838
15832SOL    MW463649   4.197   8.468   1.916
15833SOL     OW63650   4.864   8.445   2.162
15833SOL    HW263651   4.774   8.466   2.137
15833SOL    HW363652   4.891   8.518   2.218
15833SOL    MW463653   4.856   8.457   2.165
15834SOL     OW63654   4.364   8.794   2.854
15834SOL    HW263655   4.357   8.773   2.948
15834SOL    HW363656   4.282   8.762   2.817
15834SOL    MW463657   4.352   8.788   2.861
15835SOL     OW63658   5.228   7.804   3.256
15835SOL    HW263659   5.175   7.806   3.336
15835SOL    HW363660   5.213   7.717   3.219
15835SOL    MW463661   5.220   7.794   3.261
15836SOL     OW63662   5.564   7.728   3.129
15836SOL    HW263663   5.545   7.795   3.064
15836SOL    HW363664   5.621   7.666   3.084
15836SOL    MW463665   5.568   7.729   3.115
15837SOL     OW63666   4.493   7.561   2.569
15837SOL    HW263667   4.422   7.622   2.551
15837SOL    HW363668   4.544   7.558   2.488
15837SOL    MW463669   4.489   7.567   2.556
15838SOL     OW63670   4.251   8.801   2.318
15838SOL    HW263671   4.244   8.833   2.408
15838SOL    HW363672   4.161   8.785   2.290
15838SOL    MW463673   4.239   8.803   2.325
15839SOL     OW63674   4.453   8.218   3.699
15839SOL    HW263675   4.523   8.160   3.671
15839SOL    HW363676   4.396   8.163   3.754
15839SOL    MW463677   4.455   8.205   3.703
15840SOL     OW63678   5.240   8.430   3.332
15840SOL    HW263679   5.245   8.483   3.412
15840SOL    HW363680   5.202   8.347   3.360
15840SOL    MW463681   5.236   8.425   3.347
15841SOL     OW63682   4.880   7.565   3.578
15841SOL    HW263683   4.875   7.472   3.559
15841SOL    HW363684   4.963   7.576   3.624
15841SOL    MW463685   4.888   7.554   3.582
15842SOL     OW63686   4.254   8.085   2.032
15842SOL    HW263687   4.220   8.141   2.102
15842SOL    HW363688   4.325   8.035   2.072
15842SOL    MW463689   4.260   8.086   2.046
15843SOL     OW63690   5.350   8.836   2.854
15843SOL    HW263691   5.385   8.818   2.767
15843SOL    HW363692   5.255   8.837   2.841
15843SOL    MW463693   5.342   8.833   2.841
15844SOL     OW63694   4.779   8.484   3.223
15844SOL    HW263695   4.822   8.519   3.301
15844SOL    HW363696   4.762   8.561   3.169
15844SOL    MW463697   4.782   8.499   3.226
15845SOL     OW63698   5.310   7.971   2.096
15845SOL    HW263699   5.302   8.042   2.033
15845SOL    HW363700   5.328   8.015   2.179
15845SOL    MW463701   5.311   7.985   2.098
15846SOL     OW63702   4.170   7.626   2.525
15846SOL    HW263703   4.220   7.669   2.456
15846SOL    HW363704   4.085   7.670   2.525
15846SOL    MW463705   4.167   7.639   2.516
15847SOL     OW63706   3.929   8.688   3.385
15847SOL    HW263707   3.957   8.641   3.463
15847SOL    HW363708   3.850   8.643   3.356
15847SOL    MW463709   3.922   8.677   3.391
15848SOL     OW63710   4.437   8.015   3.352
15848SOL    HW263711   4.409   8.103   3.376
15848SOL    HW363712   4.406   7.959   3.423
15848SOL    MW463713   4.429   8.018   3.364
15849SOL     OW63714   4.979   8.233   2.071
15849SOL    HW263715   5.026   8.251   1.990
15849SOL    HW363716   4.945   8.317   2.099
15849SOL    MW463717   4.981   8.247   2.064
15850SOL     OW63718   4.092   8.411   2.565
15850SOL    HW263719   4.150   8.467   2.513
15850SOL    HW363720   4.136   8.326   2.567
15850SOL    MW463721   4.105   8.408   2.558
15851SOL     OW63722   5.232   7.763   2.402
15851SOL    HW263723   5.154   7.713   2.427
15851SOL    HW363724   5.203   7.854   2.402
15851SOL    MW463725   5.218   7.767   2.405
15852SOL     OW63726   4.818   7.725   2.561
15852SOL    HW263727   4.838   7.800   2.505
15852SOL    HW363728   4.798   7.764   2.646
15852SOL    MW463729   4.819   7.741   2.565
15853SOL     OW63730   5.578   8.498   3.580
15853SOL    HW263731   5.491   8.478   3.616
15853SOL    HW363732   5.632   8.424   3.605
15853SOL    MW463733   5.573   8.487   3.588
15854SOL     OW63734   3.754   8.137   2.284
15854SOL    HW263735   3.694   8.109   2.354
15854SOL    HW363736   3.828   8.077   2.290
15854SOL    MW463737   3.756   8.126   2.293
15855SOL     OW63738   4.180   7.876   3.173
15855SOL    HW263739   4.213   7.957   3.213
15855SOL    HW363740   4.153   7.902   3.085
15855SOL    MW463741   4.179   7.890   3.167
15856SOL     OW63742   4.134   7.843   2.909
15856SOL    HW263743   4.164   7.757   2.880
15856SOL    HW363744   4.039   7.836   2.912
15856SOL    MW463745   4.126   7.832   2.907
15857SOL     OW63746   4.963   8.052   3.600
15857SOL    HW263747   5.015   7.987   3.553
15857SOL    HW363748   4.921   8.103   3.530
15857SOL    MW463749   4.964   8.049   3.583
15858SOL     OW63750   5.062   7.847   3.461
15858SOL    HW263751   4.969   7.831   3.448
15858SOL    HW363752   5.088   7.785   3.529
15858SOL    MW463753   5.052   7.837   3.468
15859SOL     OW63754   4.277   7.621   2.800
15859SOL    HW263755   4.287   7.530   2.826
15859SOL    HW363756   4.233   7.617   2.715
15859SOL    MW463757   4.273   7.609   2.792
15860SOL     OW63758   5.428   7.943   2.971
15860SOL    HW263759   5.361   7.976   3.031
15860SOL    HW363760   5.471   8.021   2.937
15860SOL    MW463761   5.426   7.958   2.975
15861SOL     OW63762   5.606   8.663   2.941
15861SOL    HW263763   5.599   8.603   2.866
15861SOL    HW363764   5.532   8.723   2.930
15861SOL    MW463765   5.596   8.663   2.930
15862SOL     OW63766   4.988   8.525   2.859
15862SOL    HW263767   5.002   8.497   2.950
15862SOL    HW363768   5.074   8.556   2.831
15862SOL    MW463769   5.001   8.526   2.868
15863SOL     OW63770   5.071   8.020   3.138
15863SOL    HW263771   5.092   8.021   3.045
15863SOL    HW363772   5.116   7.942   3.171
15863SOL    MW463773   5.078   8.010   3.130
15864SOL     OW63774   5.564   8.151   3.680
15864SOL    HW263775   5.601   8.096   3.749
15864SOL    HW363776   5.589   8.108   3.598
15864SOL    MW463777   5.571   8.139   3.679
15865SOL     OW63778   5.111   8.449   3.731
15865SOL    HW263779   5.177   8.397   3.685
15865SOL    HW363780   5.131   8.436   3.824
15865SOL    MW463781   5.122   8.440   3.738
15866SOL     OW63782   5.062   7.535   2.080
15866SOL    HW263783   5.136   7.579   2.123
15866SOL    HW363784   4.986   7.589   2.102
15866SOL    MW463785   5.062   7.547   2.088
15867SOL     OW63786   5.122   8.310   2.358
15867SOL    HW263787   5.037   8.280   2.328
15867SOL    HW363788   5.114   8.317   2.453
15867SOL    MW463789   5.110   8.308   2.367
15868SOL     OW63790   4.482   7.753   2.912
15868SOL    HW263791   4.455   7.755   3.003
15868SOL    HW363792   4.412   7.705   2.867
15868SOL    MW463793   4.470   7.749   2.919
15869SOL     OW63794   5.238   8.830   3.306
15869SOL    HW263795   5.223   8.759   3.369
15869SOL    HW363796   5.284   8.788   3.234
15869SOL    MW463797   5.244   8.814   3.306
15870SOL     OW63798   4.312   8.561   3.423
15870SOL    HW263799   4.349   8.566   3.335
15870SOL    HW363800   4.351   8.634   3.470
15870SOL    MW463801   4.322   8.571   3.418
15871SOL     OW63802   4.492   8.604   3.235
15871SOL    HW263803   4.551   8.550   3.288
15871SOL    HW363804   4.507   8.576   3.145
15871SOL    MW463805   4.502   8.593   3.231
15872SOL     OW63806   4.495   7.976   2.084
15872SOL    HW263807   4.568   8.025   2.047
15872SOL    HW363808   4.511   7.885   2.058
15872SOL    MW463809   4.507   7.971   2.077
15873SOL     OW63810   4.963   7.572   2.998
15873SOL    HW263811   5.018   7.581   2.920
15873SOL    HW363812   5.018   7.606   3.069
15873SOL    MW463813   4.977   7.577   2.997
15874SOL     OW63814   3.970   8.485   2.182
15874SOL    HW263815   3.907   8.501   2.111
15874SOL    HW363816   3.917   8.448   2.253
15874SOL    MW463817   3.955   8.482   2.182
15875SOL     OW63818   4.326   8.839   2.041
15875SOL    HW263819   4.341   8.815   2.133
15875SOL    HW363820   4.234   8.817   2.025
15875SOL    MW463821   4.316   8.832   2.051
15876SOL     OW63822   4.734   7.845   2.826
15876SOL    HW263823   4.664   7.797   2.871
15876SOL    HW363824   4.766   7.908   2.890
15876SOL    MW463825   4.729   7.847   2.840
15877SOL     OW63826   4.385   8.281   3.446
15877SOL    HW263827   4.378   8.376   3.434
15877SOL    HW363828   4.394   8.270   3.541
15877SOL    MW463829   4.386   8.293   3.456
15878SOL     OW63830   5.190   7.559   3.171
15878SOL    HW263831   5.261   7.505   3.135
15878SOL    HW363832   5.189   7.538   3.264
15878SOL    MW463833   5.199   7.550   3.179
15879SOL     OW63834   4.201   7.951   2.639
15879SOL    HW263835   4.272   7.899   2.602
15879SOL    HW363836   4.187   7.916   2.726
15879SOL    MW463837   4.209   7.940   2.646
15880SOL     OW63838   4.837   7.892   2.363
15880SOL    HW263839   4.859   7.829   2.295
15880SOL    HW363840   4.742   7.884   2.374
15880SOL    MW463841   4.827   7.883   2.355
15881SOL     OW63842   3.922   7.582   2.295
15881SOL    HW263843   3.993   7.603   2.234
15881SOL    HW363844   3.876   7.510   2.253
15881SOL    MW463845   3.926   7.576   2.281
15882SOL     OW63846   3.753   8.049   3.438
15882SOL    HW263847   3.817   8.115   3.413
15882SOL    HW363848   3.672   8.076   3.395
15882SOL    MW463849   3.751   8.061   3.430
15883SOL     OW63850   5.047   8.633   2.325
15883SOL    HW263851   5.019   8.719   2.358
15883SOL    HW363852   5.075   8.649   2.235
15883SOL    MW463853   5.047   8.647   2.317
15884SOL     OW63854   4.709   7.553   2.378
15884SOL    HW263855   4.746   7.612   2.443
15884SOL    HW363856   4.686   7.609   2.304
15884SOL    MW463857   4.710   7.568   2.377
15885SOL     OW63858   5.562   8.435   2.800
15885SOL    HW263859   5.553   8.467   2.711
15885SOL    HW363860   5.515   8.351   2.800
15885SOL    MW463861   5.555   8.428   2.790
15886SOL     OW63862   3.938   8.275   3.379
15886SOL    HW263863   3.959   8.344   3.317
15886SOL    HW363864   4.018   8.222   3.384
15886SOL    MW463865   3.951   8.276   3.373
15887SOL     OW63866   5.474   8.366   2.501
15887SOL    HW263867   5.568   8.355   2.489
15887SOL    HW363868   5.450   8.438   2.442
15887SOL    MW463869   5.484   8.374   2.492
15888SOL     OW63870   3.923   8.290   3.646
15888SOL    HW263871   3.849   8.234   3.672
15888SOL    HW363872   3.918   8.293   3.551
15888SOL    MW463873   3.912   8.283   3.636
15889SOL     OW63874   4.089   7.577   3.096
15889SOL    HW263875   4.132   7.661   3.116
15889SOL    HW363876   4.162   7.515   3.089
15889SOL    MW463877   4.104   7.580   3.097
15890SOL     OW63878   4.130   8.244   2.274
15890SOL    HW263879   4.130   8.339   2.259
15890SOL    HW363880   4.207   8.228   2.328
15890SOL    MW463881   4.140   8.255   2.279
15891SOL     OW63882   4.906   8.103   3.338
15891SOL    HW263883   4.942   8.076   3.254
15891SOL    HW363884   4.819   8.137   3.317
15891SOL    MW463885   4.900   8.104   3.325
15892SOL     OW63886   3.889   7.975   2.563
15892SOL    HW263887   3.951   7.982   2.636
15892SOL    HW363888   3.889   7.882   2.540
15892SOL    MW463889   3.897   7.964   2.570
15893SOL     OW63890   4.571   8.236   3.047
15893SOL    HW263891   4.529   8.154   3.023
15893SOL    HW363892   4.572   8.235   3.143
15893SOL    MW463893   4.564   8.225   3.056
15894SOL     OW63894   4.375   7.706   3.152
15894SOL    HW263895   4.306   7.769   3.173
15894SOL    HW363896   4.402   7.670   3.237
15894SOL    MW463897   4.369   7.709   3.165
15895SOL     OW63898   3.758   8.547   2.021
15895SOL    HW263899   3.727   8.612   2.084
15895SOL    HW363900   3.707   8.469   2.040
15895SOL    MW463901   3.748   8.544   2.031
15896SOL     OW63902   5.170   7.559   2.769
15896SOL    HW263903   5.258   7.568   2.806
15896SOL    HW363904   5.180   7.500   2.695
15896SOL    MW463905   5.184   7.553   2.763
15897SOL     OW63906   5.202   8.298   2.613
15897SOL    HW263907   5.282   8.313   2.562
15897SOL    HW363908   5.195   8.203   2.619
15897SOL    MW463909   5.211   8.287   2.608
15898SOL     OW63910   4.652   8.224   3.310
15898SOL    HW263911   4.721   8.291   3.307
15898SOL    HW363912   4.585   8.262   3.366
15898SOL    MW463913   4.653   8.237   3.317
15899SOL     OW63914   4.070   8.524   3.558
15899SOL    HW263915   4.024   8.440   3.560
15899SOL    HW363916   4.127   8.518   3.482
15899SOL    MW463917   4.072   8.512   3.550
15900SOL     OW63918   5.187   8.167   1.879
15900SOL    HW263919   5.115   8.143   1.821
15900SOL    HW363920   5.253   8.204   1.821
15900SOL    MW463921   5.186   8.169   1.864
15901SOL     OW63922   4.321   8.899   2.559
15901SOL    HW263923   4.386   8.832   2.580
15901SOL    HW363924   4.373   8.976   2.536
15901SOL    MW463925   4.336   8.901   2.558
15902SOL     OW63926   4.582   8.064   2.689
15902SOL    HW263927   4.522   8.082   2.761
15902SOL    HW363928   4.616   7.976   2.708
15902SOL    MW463929   4.578   8.054   2.702
15903SOL     OW63930   5.523   7.563   3.358
15903SOL    HW263931   5.444   7.609   3.386
15903SOL    HW363932   5.558   7.617   3.287
15903SOL    MW463933   5.517   7.576   3.352
15904SOL     OW63934   4.807   8.647   2.708
15904SOL    HW263935   4.899   8.628   2.726
15904SOL    HW363936   4.780   8.577   2.648
15904SOL    MW463937   4.815   8.635   2.702
15905SOL     OW63938   4.600   8.467   2.063
15905SOL    HW263939   4.586   8.379   2.028
15905SOL    HW363940   4.551   8.524   2.004
15905SOL    MW463941   4.592   8.462   2.051
15906SOL     OW63942   4.013   8.191   2.842
15906SOL    HW263943   3.963   8.190   2.923
15906SOL    HW363944   4.033   8.283   2.826
15906SOL    MW463945   4.009   8.203   2.850
15907SOL     OW63946   5.080   8.955   3.604
15907SOL    HW263947   5.080   9.049   3.620
15907SOL    HW363948   5.125   8.945   3.520
15907SOL    MW463949   5.086   8.965   3.595
15908SOL     OW63950   5.319   7.673   2.165
15908SOL    HW263951   5.312   7.677   2.260
15908SOL    HW363952   5.331   7.764   2.138
15908SOL    MW463953   5.320   7.686   2.173
15909SOL     OW63954   4.608   8.236   2.279
15909SOL    HW263955   4.588   8.222   2.186
15909SOL    HW363956   4.701   8.215   2.286
15909SOL    MW463957   4.618   8.231   2.268
15910SOL     OW63958   3.935   7.859   3.583
15910SOL    HW263959   3.892   7.918   3.520
15910SOL    HW363960   4.003   7.914   3.623
15910SOL    MW463961   3.939   7.874   3.580
15911SOL     OW63962   5.047   8.479   3.128
15911SOL    HW263963   5.110   8.476   3.201
15911SOL    HW363964   4.963   8.497   3.170
15911SOL    MW463965   5.043   8.481   3.143
15912SOL     OW63966   5.386   7.656   2.907
15912SOL    HW263967   5.431   7.574   2.926
15912SOL    HW363968   5.406   7.712   2.983
15912SOL    MW463969   5.396   7.652   2.919
15913SOL     OW63970   3.834   7.499   3.006
15913SOL    HW263971   3.825   7.500   2.911
15913SOL    HW363972   3.928   7.511   3.021
15913SOL    MW463973   3.846   7.502   2.997
15914SOL     OW63974   5.471   8.692   2.626
15914SOL    HW263975   5.450   8.638   2.549
15914SOL    HW363976   5.567   8.690   2.630
15914SOL    MW463977   5.480   8.685   2.615
15915SOL     OW63978   4.163   8.837   3.369
15915SOL    HW263979   4.084   8.787   3.392
15915SOL    HW363980   4.233   8.796   3.419
15915SOL    MW463981   4.161   8.825   3.379
15916SOL     OW63982   4.047   7.626   2.052
15916SOL    HW263983   3.976   7.681   2.020
15916SOL    HW363984   4.089   7.592   1.973
15916SOL    MW463985   4.043   7.628   2.038
15917SOL     OW63986   5.171   8.123   2.888
15917SOL    HW263987   5.094   8.169   2.854
15917SOL    HW363988   5.228   8.192   2.922
15917SOL    MW463989   5.168   8.138   2.888
15918SOL     OW63990   3.803   7.725   1.901
15918SOL    HW263991   3.770   7.804   1.945
15918SOL    HW363992   3.858   7.758   1.830
15918SOL    MW463993   3.806   7.739   1.898
15919SOL     OW63994   5.472   8.339   3.993
15919SOL    HW263995   5.513   8.281   4.058
15919SOL    HW363996   5.379   8.331   4.010
15919SOL    MW463997   5.466   8.331   4.003
15920SOL     OW63998   5.338   8.271   4.988
15920SOL    HW263999   5.293   8.338   5.039
15920SOL    HW364000   5.426   8.307   4.974
15920SOL    MW464001   5.344   8.284   4.992
15921SOL     OW64002   4.266   8.522   4.222
15921SOL    HW264003   4.356   8.497   4.206
15921SOL    HW364004   4.262   8.615   4.199
15921SOL    MW464005   4.278   8.531   4.217
15922SOL     OW64006   5.318   8.665   4.969
15922SOL    HW264007   5.239   8.630   4.927
15922SOL    HW364008   5.345   8.737   4.913
15922SOL    MW464009   5.311   8.670   4.956
15923SOL     OW64010   4.550   7.978   4.235
15923SOL    HW264011   4.525   8.066   4.263
15923SOL    HW364012   4.547   7.981   4.139
15923SOL    MW464013   4.546   7.990   4.227
15924SOL     OW64014   3.992   8.006   4.163
15924SOL    HW264015   4.024   8.094   4.145
15924SOL    HW364016   3.980   8.004   4.258
15924SOL    MW464017   3.995   8.018   4.175
15925SOL     OW64018   4.070   8.419   5.064
15925SOL    HW264019   4.133   8.366   5.015
15925SOL    HW364020   4.051   8.493   5.007
15925SOL    MW464021   4.076   8.421   5.051
15926SOL     OW64022   4.391   7.761   4.250
15926SOL    HW264023   4.449   7.837   4.252
15926SOL    HW364024   4.326   7.782   4.183
15926SOL    MW464025   4.390   7.773   4.241
15927SOL     OW64026   4.478   8.688   4.425
15927SOL    HW264027   4.558   8.691   4.477
15927SOL    HW364028   4.506   8.655   4.339
15927SOL    MW464029   4.492   8.684   4.420
15928SOL     OW64030   4.503   9.029   5.328
15928SOL    HW264031   4.587   9.055   5.367
15928SOL    HW364032   4.527   8.973   5.254
15928SOL    MW464033   4.517   9.025   5.323
15929SOL     OW64034   4.255   8.192   4.416
15929SOL    HW264035   4.240   8.112   4.467
15929SOL    HW364036   4.337   8.227   4.450
15929SOL    MW464037   4.263   8.184   4.428
15930SOL     OW64038   4.397   8.018   4.793
15930SOL    HW264039   4.303   8.014   4.811
15930SOL    HW364040   4.427   7.927   4.802
15930SOL    MW464041   4.388   8.006   4.796
15931SOL     OW64042   4.143   8.432   4.697
15931SOL    HW264043   4.098   8.439   4.613
15931SOL    HW364044   4.123   8.515   4.741
15931SOL    MW464045   4.135   8.444   4.691
15932SOL     OW64046   5.105   8.670   3.941
15932SOL    HW264047   5.023   8.706   3.907
15932SOL    HW364048   5.173   8.713   3.890
15932SOL    MW464049   5.103   8.680   3.929
15933SOL     OW64050   4.104   8.805   4.607
15933SOL    HW264051   4.080   8.858   4.683
15933SOL    HW364052   4.160   8.863   4.555
15933SOL    MW464053   4.108   8.820   4.610
15934SOL     OW64054   4.666   8.449   4.417
15934SOL    HW264055   4.580   8.436   4.457
15934SOL    HW364056   4.719   8.376   4.449
15934SOL    MW464057   4.662   8.438   4.426
15935SOL     OW64058   4.657   8.811   4.134
15935SOL    HW264059   4.634   8.873   4.202
15935SOL    HW364060   4.614   8.729   4.160
15935SOL    MW464061   4.649   8.807   4.145
15936SOL     OW64062   5.530   7.812   4.590
15936SOL    HW264063   5.467   7.792   4.659
15936SOL    HW364064   5.520   7.741   4.527
15936SOL    MW464065   5.520   7.799   4.591
15937SOL     OW64066   4.154   7.784   4.102
15937SOL    HW264067   4.128   7.746   4.018
15937SOL    HW364068   4.091   7.854   4.118
15937SOL    MW464069   4.143   7.787   4.093
15938SOL     OW64070   3.989   8.745   4.139
15938SOL    HW264071   3.937   8.813   4.095
15938SOL    HW364072   3.986   8.671   4.079
15938SOL    MW464073   3.981   8.744   4.126
15939SOL     OW64074   5.586   7.981   3.892
15939SOL    HW264075   5.495   7.983   3.920
15939SOL    HW364076   5.631   8.043   3.950
15939SOL    MW464077   5.579   7.989   3.902
15940SOL     OW64078   5.331   8.584   4.242
15940SOL    HW264079   5.241   8.584   4.277
15940SOL    HW364080   5.324   8.630   4.159
15940SOL    MW464081   5.318   8.590   4.236
15941SOL     OW64082   5.131   8.219   5.314
15941SOL    HW264083   5.200   8.157   5.291
15941SOL    HW364084   5.056   8.193   5.261
15941SOL    MW464085   5.131   8.206   5.305
15942SOL     OW64086   4.867   8.606   5.306
15942SOL    HW264087   4.852   8.699   5.291
15942SOL    HW364088   4.962   8.596   5.306
15942SOL    MW464089   4.876   8.616   5.303
15943SOL     OW64090   4.663   8.030   5.507
15943SOL    HW264091   4.753   8.031   5.474
15943SOL    HW364092   4.622   7.955   5.465
15943SOL    MW464093   4.669   8.020   5.498
15944SOL     OW64094   5.238   8.562   4.634
15944SOL    HW264095   5.241   8.496   4.565
15944SOL    HW364096   5.323   8.605   4.630
15944SOL    MW464097   5.250   8.558   4.625
15945SOL     OW64098   4.858   8.165   4.203
15945SOL    HW264099   4.884   8.189   4.114
15945SOL    HW364100   4.840   8.072   4.199
15945SOL    MW464101   4.860   8.157   4.190
15946SOL     OW64102   5.523   8.785   4.054
15946SOL    HW264103   5.479   8.826   4.129
15946SOL    HW364104   5.580   8.853   4.019
15946SOL    MW464105   5.525   8.799   4.059
15947SOL     OW64106   4.443   7.834   5.457
15947SOL    HW264107   4.453   7.760   5.397
15947SOL    HW364108   4.479   7.803   5.540
15947SOL    MW464109   4.449   7.820   5.459
15948SOL     OW64110   5.563   7.563   4.421
15948SOL    HW264111   5.617   7.514   4.483
15948SOL    HW364112   5.506   7.497   4.382
15948SOL    MW464113   5.563   7.547   4.423
15949SOL     OW64114   4.682   7.516   4.834
15949SOL    HW264115   4.641   7.594   4.796
15949SOL    HW364116   4.776   7.534   4.829
15949SOL    MW464117   4.688   7.528   4.829
15950SOL     OW64118   4.697   8.194   3.864
15950SOL    HW264119   4.699   8.141   3.785
15950SOL    HW364120   4.785   8.231   3.870
15950SOL    MW464121   4.709   8.193   3.853
15951SOL     OW64122   5.311   8.120   4.200
15951SOL    HW264123   5.350   8.120   4.287
15951SOL    HW364124   5.252   8.196   4.200
15951SOL    MW464125   5.308   8.131   4.211
15952SOL     OW64126   4.628   8.487   5.329
15952SOL    HW264127   4.605   8.467   5.419
15952SOL    HW364128   4.713   8.531   5.334
15952SOL    MW464129   4.635   8.490   5.341
15953SOL     OW64130   4.708   7.624   5.089
15953SOL    HW264131   4.714   7.586   5.002
15953SOL    HW364132   4.697   7.718   5.074
15953SOL    MW464133   4.709   7.632   5.077
15954SOL     OW64134   4.797   8.113   4.923
15954SOL    HW264135   4.872   8.142   4.870
15954SOL    HW364136   4.729   8.178   4.907
15954SOL    MW464137   4.798   8.125   4.913
15955SOL     OW64138   5.347   8.081   5.200
15955SOL    HW264139   5.328   7.990   5.179
15955SOL    HW364140   5.325   8.130   5.121
15955SOL    MW464141   5.342   8.074   5.187
15956SOL     OW64142   4.794   7.819   5.306
15956SOL    HW264143   4.760   7.858   5.225
15956SOL    HW364144   4.772   7.727   5.299
15956SOL    MW464145   4.787   7.812   5.296
15957SOL     OW64146   5.203   8.633   5.382
15957SOL    HW264147   5.285   8.674   5.412
15957SOL    HW364148   5.166   8.595   5.462
15957SOL    MW464149   5.209   8.634   5.397
15958SOL     OW64150   5.498   8.006   4.366
15958SOL    HW264151   5.587   7.975   4.383
15958SOL    HW364152   5.441   7.946   4.414
15958SOL    MW464153   5.501   7.994   4.375
15959SOL     OW64154   3.924   7.720   4.395
15959SOL    HW264155   3.915   7.660   4.321
15959SOL    HW364156   3.857   7.691   4.458
15959SOL    MW464157   3.914   7.707   4.393
15960SOL     OW64158   4.867   8.813   3.956
15960SOL    HW264159   4.817   8.815   4.038
15960SOL    HW364160   4.801   8.831   3.888
15960SOL    MW464161   4.853   8.815   3.958
15961SOL     OW64162   3.871   7.893   4.758
15961SOL    HW264163   3.843   7.984   4.767
15961SOL    HW364164   3.808   7.854   4.697
15961SOL    MW464165   3.858   7.899   4.752
15962SOL     OW64166   4.466   8.646   3.771
15962SOL    HW264167   4.388   8.592   3.758
15962SOL    HW364168   4.437   8.719   3.824
15962SOL    MW464169   4.452   8.648   3.776
15963SOL     OW64170   5.592   8.386   4.963
15963SOL    HW264171   5.608   8.424   4.876
15963SOL    HW364172   5.626   8.452   5.024
15963SOL    MW464173   5.599   8.399   4.959
15964SOL     OW64174   3.855   8.168   4.928
15964SOL    HW264175   3.917   8.198   4.994
15964SOL    HW364176   3.789   8.237   4.922
15964SOL    MW464177   3.854   8.181   4.935
15965SOL     OW64178   4.496   7.725   3.836
15965SOL    HW264179   4.444   7.645   3.824
15965SOL    HW364180   4.583   7.702   3.804
15965SOL    MW464181   4.499   7.711   3.830
15966SOL     OW64182   4.002   8.596   4.887
15966SOL    HW264183   4.055   8.671   4.912
15966SOL    HW364184   3.921   8.634   4.853
15966SOL    MW464185   3.998   8.611   4.887
15967SOL     OW64186   4.542   8.500   4.875
15967SOL    HW264187   4.570   8.409   4.887
15967SOL    HW364188   4.471   8.494   4.811
15967SOL    MW464189   4.535   8.488   4.870
15968SOL     OW64190   3.857   8.365   4.293
15968SOL    HW264191   3.948   8.380   4.320
15968SOL    HW364192   3.860   8.286   4.239
15968SOL    MW464193   3.869   8.357   4.291
15969SOL     OW64194   4.093   8.073   5.547
15969SOL    HW264195   4.040   8.153   5.554
15969SOL    HW364196   4.163   8.085   5.612
15969SOL    MW464197   4.095   8.086   5.555
15970SOL     OW64198   4.479   7.623   5.254
15970SOL    HW264199   4.456   7.531   5.256
15970SOL    HW364200   4.565   7.625   5.211
15970SOL    MW464201   4.486   7.613   5.250
15971SOL     OW64202   4.163   8.147   5.293
15971SOL    HW264203   4.243   8.197   5.279
15971SOL    HW364204   4.154   8.141   5.388
15971SOL    MW464205   4.172   8.153   5.303
15972SOL     OW64206   5.140   7.672   5.564
15972SOL    HW264207   5.196   7.599   5.590
15972SOL    HW364208   5.110   7.710   5.646
15972SOL    MW464209   5.144   7.667   5.577
15973SOL     OW64210   4.698   9.020   4.367
15973SOL    HW264211   4.781   8.974   4.351
15973SOL    HW364212   4.688   9.019   4.463
15973SOL    MW464213   4.708   9.013   4.377
15974SOL     OW64214   5.530   8.165   4.681
15974SOL    HW264215   5.619   8.195   4.663
15974SOL    HW364216   5.510   8.105   4.610
15974SOL    MW464217   5.539   8.162   4.670
15975SOL     OW64218   5.381   8.344   5.561
15975SOL    HW264219   5.436   8.268   5.542
15975SOL    HW364220   5.383   8.352   5.656
15975SOL    MW464221   5.389   8.335   5.569
15976SOL     OW64222   4.869   7.722   3.995
15976SOL    HW264223   4.802   7.698   3.932
15976SOL    HW364224   4.934   7.771   3.944
15976SOL    MW464225   4.869   7.724   3.980
15977SOL     OW64226   4.676   7.906   5.080
15977SOL    HW264227   4.595   7.947   5.108
15977SOL    HW364228   4.723   7.974   5.032
15977SOL    MW464229   4.671   7.921   5.078
15978SOL     OW64230   4.936   8.244   4.703
15978SOL    HW264231   4.949   8.338   4.713
15978SOL    HW364232   4.897   8.234   4.617
15978SOL    MW464233   4.932   8.255   4.693
15979SOL     OW64234   4.388   8.439   4.507
15979SOL    HW264235   4.299   8.430   4.540
15979SOL    HW364236   4.392   8.529   4.475
15979SOL    MW464237   4.377   8.450   4.507
15980SOL     OW64238   5.187   8.022   4.502
15980SOL    HW264239   5.132   7.943   4.501
15980SOL    HW364240   5.169   8.063   4.586
15980SOL    MW464241   5.177   8.017   4.511
15981SOL     OW64242   4.158   7.709   5.319
15981SOL    HW264243   4.079   7.727   5.371
15981SOL    HW364244   4.153   7.771   5.246
15981SOL    MW464245   4.148   7.719   5.316
15982SOL     OW64246   4.806   8.226   4.459
15982SOL    HW264247   4.743   8.158   4.483
15982SOL    HW364248   4.826   8.207   4.367
15982SOL    MW464249   4.800   8.213   4.451
15983SOL     OW64250   4.554   8.530   4.185
15983SOL    HW264251   4.556   8.504   4.092
15983SOL    HW364252   4.612   8.467   4.228
15983SOL    MW464253   4.562   8.519   4.179
15984SOL     OW64254   5.064   7.774   4.518
15984SOL    HW264255   5.092   7.706   4.579
15984SOL    HW364256   4.978   7.745   4.488
15984SOL    MW464257   5.057   7.761   4.522
15985SOL     OW64258   3.869   8.708   4.452
15985SOL    HW264259   3.933   8.740   4.515
15985SOL    HW364260   3.918   8.644   4.400
15985SOL    MW464261   3.884   8.704   4.453
15986SOL     OW64262   5.044   7.878   3.853
15986SOL    HW264263   5.017   7.944   3.789
15986SOL    HW364264   5.114   7.921   3.903
15986SOL    MW464265   5.049   7.891   3.850
15987SOL     OW64266   5.217   8.434   3.995
15987SOL    HW264267   5.184   8.523   3.985
15987SOL    HW364268   5.182   8.405   4.080
15987SOL    MW464269   5.207   8.443   4.006
15988SOL     OW64270   4.123   7.531   5.525
15988SOL    HW264271   4.051   7.496   5.473
15988SOL    HW364272   4.181   7.572   5.460
15988SOL    MW464273   4.121   7.532   5.510
15989SOL     OW64274   5.587   8.550   5.178
15989SOL    HW264275   5.502   8.563   5.137
15989SOL    HW364276   5.567   8.514   5.265
15989SOL    MW464277   5.574   8.546   5.183
15990SOL     OW64278   4.211   8.472   3.787
15990SOL    HW264279   4.134   8.485   3.843
15990SOL    HW364280   4.175   8.436   3.706
15990SOL    MW464281   4.197   8.468   3.784
15991SOL     OW64282   4.864   8.445   4.030
15991SOL    HW264283   4.774   8.466   4.005
15991SOL    HW364284   4.891   8.518   4.086
15991SOL    MW464285   4.856   8.457   4.033
15992SOL     OW64286   4.364   8.794   4.722
15992SOL    HW264287   4.357   8.773   4.816
15992SOL    HW364288   4.282   8.762   4.685
15992SOL    MW464289   4.352   8.788   4.729
15993SOL     OW64290   5.228   7.804   5.124
15993SOL    HW264291   5.175   7.806   5.204
15993SOL    HW364292   5.213   7.717   5.087
15993SOL    MW464293   5.220   7.794   5.129
15994SOL     OW64294   5.564   7.728   4.997
15994SOL    HW264295   5.545   7.795   4.932
15994SOL    HW364296   5.621   7.666   4.952
15994SOL    MW464297   5.568   7.729   4.983
15995SOL     OW64298   4.493   7.561   4.437
15995SOL    HW264299   4.422   7.622   4.419
15995SOL    HW364300   4.544   7.558   4.356
15995SOL    MW464301   4.489   7.567   4.424
15996SOL     OW64302   4.251   8.801   4.186
15996SOL    HW264303   4.244   8.833   4.276
15996SOL    HW364304   4.161   8.785   4.158
15996SOL    MW464305   4.239   8.803   4.193
15997SOL     OW64306   4.453   8.218   5.567
15997SOL    HW264307   4.523   8.160   5.539
15997SOL    HW364308   4.396   8.163   5.622
15997SOL    MW464309   4.455   8.205   5.571
15998SOL     OW64310   5.240   8.430   5.200
15998SOL    HW264311   5.245   8.483   5.280
15998SOL    HW364312   5.202   8.347   5.228
15998SOL    MW464313   5.236   8.425   5.215
15999SOL     OW64314   4.880   7.565   5.446
15999SOL    HW264315   4.875   7.472   5.427
15999SOL    HW364316   4.963   7.576   5.492
15999SOL    MW464317   4.888   7.554   5.450
16000SOL     OW64318   4.254   8.085   3.900
16000SOL    HW264319   4.220   8.141   3.970
16000SOL    HW364320   4.325   8.035   3.940
16000SOL    MW464321   4.260   8.086   3.914
16001SOL     OW64322   5.350   8.836   4.722
16001SOL    HW264323   5.385   8.818   4.635
16001SOL    HW364324   5.255   8.837   4.709
16001SOL    MW464325   5.342   8.833   4.709
16002SOL     OW64326   4.779   8.484   5.091
16002SOL    HW264327   4.822   8.519   5.169
16002SOL    HW364328   4.762   8.561   5.037
16002SOL    MW464329   4.782   8.499   5.094
16003SOL     OW64330   5.310   7.971   3.964
16003SOL    HW264331   5.302   8.042   3.901
16003SOL    HW364332   5.328   8.015   4.047
16003SOL    MW464333   5.311   7.985   3.966
16004SOL     OW64334   4.170   7.626   4.393
16004SOL    HW264335   4.220   7.669   4.324
16004SOL    HW364336   4.085   7.670   4.393
16004SOL    MW464337   4.167   7.639   4.384
16005SOL     OW64338   3.929   8.688   5.253
16005SOL    HW264339   3.957   8.641   5.331
16005SOL    HW364340   3.850   8.643   5.224
16005SOL    MW464341   3.922   8.677   5.259
16006SOL     OW64342   4.437   8.015   5.220
16006SOL    HW264343   4.409   8.103   5.244
16006SOL    HW364344   4.406   7.959   5.291
16006SOL    MW464345   4.429   8.018   5.232
16007SOL     OW64346   4.979   8.233   3.939
16007SOL    HW264347   5.026   8.251   3.858
16007SOL    HW364348   4.945   8.317   3.967
16007SOL    MW464349   4.981   8.247   3.932
16008SOL     OW64350   4.092   8.411   4.433
16008SOL    HW264351   4.150   8.467   4.381
16008SOL    HW364352   4.136   8.326   4.435
16008SOL    MW464353   4.105   8.408   4.426
16009SOL     OW64354   5.232   7.763   4.270
16009SOL    HW264355   5.154   7.713   4.295
16009SOL    HW364356   5.203   7.854   4.270
16009SOL    MW464357   5.218   7.767   4.273
16010SOL     OW64358   4.818   7.725   4.429
16010SOL    HW264359   4.838   7.800   4.373
16010SOL    HW364360   4.798   7.764   4.514
16010SOL    MW464361   4.819   7.741   4.433
16011SOL     OW64362   5.578   8.498   5.448
16011SOL    HW264363   5.491   8.478   5.484
16011SOL    HW364364   5.632   8.424   5.473
16011SOL    MW464365   5.573   8.487   5.456
16012SOL     OW64366   3.754   8.137   4.152
16012SOL    HW264367   3.694   8.109   4.222
16012SOL    HW364368   3.828   8.077   4.158
16012SOL    MW464369   3.756   8.126   4.161
16013SOL     OW64370   4.180   7.876   5.041
16013SOL    HW264371   4.213   7.957   5.081
16013SOL    HW364372   4.153   7.902   4.953
16013SOL    MW464373   4.179   7.890   5.035
16014SOL     OW64374   4.134   7.843   4.777
16014SOL    HW264375   4.164   7.757   4.748
16014SOL    HW364376   4.039   7.836   4.780
16014SOL    MW464377   4.126   7.832   4.775
16015SOL     OW64378   4.963   8.052   5.468
16015SOL    HW264379   5.015   7.987   5.421
16015SOL    HW364380   4.921   8.103   5.398
16015SOL    MW464381   4.964   8.049   5.451
16016SOL     OW64382   5.062   7.847   5.329
16016SOL    HW264383   4.969   7.831   5.316
16016SOL    HW364384   5.088   7.785   5.397
16016SOL    MW464385   5.052   7.837   5.336
16017SOL     OW64386   4.277   7.621   4.668
16017SOL    HW264387   4.287   7.530   4.694
16017SOL    HW364388   4.233   7.617   4.583
16017SOL    MW464389   4.273   7.609   4.660
16018SOL     OW64390   5.428   7.943   4.839
16018SOL    HW264391   5.361   7.976   4.899
16018SOL    HW364392   5.471   8.021   4.805
16018SOL    MW464393   5.426   7.958   4.843
16019SOL     OW64394   5.606   8.663   4.809
16019SOL    HW264395   5.599   8.603   4.734
16019SOL    HW364396   5.532   8.723   4.798
16019SOL    MW464397   5.596   8.663   4.798
16020SOL     OW64398   4.988   8.525   4.727
16020SOL    HW264399   5.002   8.497   4.818
16020SOL    HW364400   5.074   8.556   4.699
16020SOL    MW464401   5.001   8.526   4.736
16021SOL     OW64402   5.071   8.020   5.006
16021SOL    HW264403   5.092   8.021   4.913
16021SOL    HW364404   5.116   7.942   5.039
16021SOL    MW464405   5.078   8.010   4.998
16022SOL     OW64406   5.564   8.151   5.548
16022SOL    HW264407   5.601   8.096   5.617
16022SOL    HW364408   5.589   8.108   5.466
16022SOL    MW464409   5.571   8.139   5.547
16023SOL     OW64410   5.111   8.449   5.600
16023SOL    HW264411   5.177   8.397   5.554
16023SOL    HW364412   5.131   8.436   5.693
16023SOL    MW464413   5.122   8.440   5.607
16024SOL     OW64414   5.062   7.535   3.948
16024SOL    HW264415   5.136   7.579   3.991
16024SOL    HW364416   4.986   7.589   3.970
16024SOL    MW464417   5.062   7.547   3.956
16025SOL     OW64418   5.122   8.310   4.226
16025SOL    HW264419   5.037   8.280   4.196
16025SOL    HW364420   5.114   8.317   4.321
16025SOL    MW464421   5.110   8.308   4.235
16026SOL     OW64422   4.482   7.753   4.780
16026SOL    HW264423   4.455   7.755   4.871
16026SOL    HW364424   4.412   7.705   4.735
16026SOL    MW464425   4.470   7.749   4.787
16027SOL     OW64426   5.238   8.830   5.174
16027SOL    HW264427   5.223   8.759   5.237
16027SOL    HW364428   5.284   8.788   5.102
16027SOL    MW464429   5.244   8.814   5.174
16028SOL     OW64430   4.312   8.561   5.291
16028SOL    HW264431   4.349   8.566   5.203
16028SOL    HW364432   4.351   8.634   5.338
16028SOL    MW464433   4.322   8.571   5.286
16029SOL     OW64434   4.492   8.604   5.103
16029SOL    HW264435   4.551   8.550   5.156
16029SOL    HW364436   4.507   8.576   5.013
16029SOL    MW464437   4.502   8.593   5.099
16030SOL     OW64438   4.495   7.976   3.952
16030SOL    HW264439   4.568   8.025   3.915
16030SOL    HW364440   4.511   7.885   3.926
16030SOL    MW464441   4.507   7.971   3.945
16031SOL     OW64442   4.963   7.572   4.866
16031SOL    HW264443   5.018   7.581   4.788
16031SOL    HW364444   5.018   7.606   4.937
16031SOL    MW464445   4.977   7.577   4.865
16032SOL     OW64446   3.970   8.485   4.050
16032SOL    HW264447   3.907   8.501   3.979
16032SOL    HW364448   3.917   8.448   4.121
16032SOL    MW464449   3.955   8.482   4.050
16033SOL     OW64450   4.326   8.839   3.909
16033SOL    HW264451   4.341   8.815   4.001
16033SOL    HW364452   4.234   8.817   3.893
16033SOL    MW464453   4.316   8.832   3.919
16034SOL     OW64454   4.741   8.706   4.873
16034SOL    HW264455   4.673   8.640   4.889
16034SOL    HW364456   4.759   8.700   4.780
16034SOL    MW464457   4.734   8.697   4.864
16035SOL     OW64458   4.734   7.845   4.694
16035SOL    HW264459   4.664   7.797   4.739
16035SOL    HW364460   4.766   7.908   4.758
16035SOL    MW464461   4.729   7.847   4.708
16036SOL     OW64462   4.385   8.281   5.314
16036SOL    HW264463   4.378   8.376   5.302
16036SOL    HW364464   4.394   8.270   5.409
16036SOL    MW464465   4.386   8.293   5.324
16037SOL     OW64466   5.190   7.559   5.039
16037SOL    HW264467   5.261   7.505   5.003
16037SOL    HW364468   5.189   7.538   5.132
16037SOL    MW464469   5.199   7.550   5.047
16038SOL     OW64470   4.201   7.951   4.507
16038SOL    HW264471   4.272   7.899   4.470
16038SOL    HW364472   4.187   7.916   4.594
16038SOL    MW464473   4.209   7.940   4.514
16039SOL     OW64474   4.837   7.892   4.231
16039SOL    HW264475   4.859   7.829   4.163
16039SOL    HW364476   4.742   7.884   4.242
16039SOL    MW464477   4.827   7.883   4.223
16040SOL     OW64478   3.922   7.582   4.163
16040SOL    HW264479   3.993   7.603   4.102
16040SOL    HW364480   3.876   7.510   4.121
16040SOL    MW464481   3.926   7.576   4.149
16041SOL     OW64482   3.753   8.049   5.306
16041SOL    HW264483   3.817   8.115   5.281
16041SOL    HW364484   3.672   8.076   5.263
16041SOL    MW464485   3.751   8.061   5.298
16042SOL     OW64486   5.047   8.633   4.193
16042SOL    HW264487   5.019   8.719   4.226
16042SOL    HW364488   5.075   8.649   4.103
16042SOL    MW464489   5.047   8.647   4.185
16043SOL     OW64490   4.709   7.553   4.246
16043SOL    HW264491   4.746   7.612   4.311
16043SOL    HW364492   4.686   7.609   4.172
16043SOL    MW464493   4.710   7.568   4.245
16044SOL     OW64494   5.562   8.435   4.668
16044SOL    HW264495   5.553   8.467   4.579
16044SOL    HW364496   5.515   8.351   4.668
16044SOL    MW464497   5.555   8.428   4.658
16045SOL     OW64498   3.938   8.275   5.247
16045SOL    HW264499   3.959   8.344   5.185
16045SOL    HW364500   4.018   8.222   5.252
16045SOL    MW464501   3.951   8.276   5.241
16046SOL     OW64502   5.474   8.366   4.369
16046SOL    HW264503   5.568   8.355   4.357
16046SOL    HW364504   5.450   8.438   4.310
16046SOL    MW464505   5.484   8.374   4.360
16047SOL     OW64506   3.923   8.290   5.514
16047SOL    HW264507   3.849   8.234   5.540
16047SOL    HW364508   3.918   8.293   5.419
16047SOL    MW464509   3.912   8.283   5.504
16048SOL     OW64510   4.089   7.577   4.964
16048SOL    HW264511   4.132   7.661   4.984
16048SOL    HW364512   4.162   7.515   4.957
16048SOL    MW464513   4.104   7.580   4.965
16049SOL     OW64514   4.130   8.244   4.142
16049SOL    HW264515   4.130   8.339   4.127
16049SOL    HW364516   4.207   8.228   4.196
16049SOL    MW464517   4.140   8.255   4.147
16050SOL     OW64518   4.906   8.103   5.206
16050SOL    HW264519   4.942   8.076   5.122
16050SOL    HW364520   4.819   8.137   5.185
16050SOL    MW464521   4.900   8.104   5.193
16051SOL     OW64522   3.889   7.975   4.431
16051SOL    HW264523   3.951   7.982   4.504
16051SOL    HW364524   3.889   7.882   4.408
16051SOL    MW464525   3.897   7.964   4.438
16052SOL     OW64526   4.571   8.236   4.915
16052SOL    HW264527   4.529   8.154   4.891
16052SOL    HW364528   4.572   8.235   5.011
16052SOL    MW464529   4.564   8.225   4.924
16053SOL     OW64530   4.375   7.706   5.020
16053SOL    HW264531   4.306   7.769   5.041
16053SOL    HW364532   4.402   7.670   5.105
16053SOL    MW464533   4.369   7.709   5.033
16054SOL     OW64534   3.758   8.547   3.889
16054SOL    HW264535   3.727   8.612   3.952
16054SOL    HW364536   3.707   8.469   3.908
16054SOL    MW464537   3.748   8.544   3.899
16055SOL     OW64538   5.170   7.559   4.637
16055SOL    HW264539   5.258   7.568   4.674
16055SOL    HW364540   5.180   7.500   4.563
16055SOL    MW464541   5.184   7.553   4.631
16056SOL     OW64542   5.202   8.298   4.481
16056SOL    HW264543   5.282   8.313   4.430
16056SOL    HW364544   5.195   8.203   4.487
16056SOL    MW464545   5.211   8.287   4.476
16057SOL     OW64546   4.652   8.224   5.178
16057SOL    HW264547   4.721   8.291   5.175
16057SOL    HW364548   4.585   8.262   5.234
16057SOL    MW464549   4.653   8.237   5.185
16058SOL     OW64550   4.070   8.524   5.426
16058SOL    HW264551   4.024   8.440   5.428
16058SOL    HW364552   4.127   8.518   5.350
16058SOL    MW464553   4.072   8.512   5.418
16059SOL     OW64554   5.187   8.167   3.747
16059SOL    HW264555   5.115   8.143   3.689
16059SOL    HW364556   5.253   8.204   3.689
16059SOL    MW464557   5.186   8.169   3.732
16060SOL     OW64558   4.321   8.899   4.427
16060SOL    HW264559   4.386   8.832   4.448
16060SOL    HW364560   4.373   8.976   4.404
16060SOL    MW464561   4.336   8.901   4.426
16061SOL     OW64562   4.582   8.064   4.557
16061SOL    HW264563   4.522   8.082   4.629
16061SOL    HW364564   4.616   7.976   4.576
16061SOL    MW464565   4.578   8.054   4.570
16062SOL     OW64566   5.523   7.563   5.226
16062SOL    HW264567   5.444   7.609   5.254
16062SOL    HW364568   5.558   7.617   5.155
16062SOL    MW464569   5.517   7.576   5.220
16063SOL     OW64570   4.807   8.647   4.576
16063SOL    HW264571   4.899   8.628   4.594
16063SOL    HW364572   4.780   8.577   4.516
16063SOL    MW464573   4.815   8.635   4.570
16064SOL     OW64574   4.600   8.467   3.931
16064SOL    HW264575   4.586   8.379   3.896
16064SOL    HW364576   4.551   8.524   3.872
16064SOL    MW464577   4.592   8.462   3.919
16065SOL     OW64578   4.013   8.191   4.710
16065SOL    HW264579   3.963   8.190   4.791
16065SOL    HW364580   4.033   8.283   4.694
16065SOL    MW464581   4.009   8.203   4.718
16066SOL     OW64582   5.080   8.955   5.472
16066SOL    HW264583   5.080   9.049   5.488
16066SOL    HW364584   5.125   8.945   5.388
16066SOL    MW464585   5.086   8.965   5.463
16067SOL     OW64586   5.319   7.673   4.033
16067SOL    HW264587   5.312   7.677   4.128
16067SOL    HW364588   5.331   7.764   4.006
16067SOL    MW464589   5.320   7.686   4.041
16068SOL     OW64590   4.608   8.236   4.147
16068SOL    HW264591   4.588   8.222   4.054
16068SOL    HW364592   4.701   8.215   4.154
16068SOL    MW464593   4.618   8.231   4.136
16069SOL     OW64594   3.935   7.859   5.451
16069SOL    HW264595   3.892   7.918   5.388
16069SOL    HW364596   4.003   7.914   5.491
16069SOL    MW464597   3.939   7.874   5.448
16070SOL     OW64598   5.047   8.479   4.996
16070SOL    HW264599   5.110   8.476   5.069
16070SOL    HW364600   4.963   8.497   5.038
16070SOL    MW464601   5.043   8.481   5.011
16071SOL     OW64602   5.386   7.656   4.775
16071SOL    HW264603   5.431   7.574   4.794
16071SOL    HW364604   5.406   7.712   4.851
16071SOL    MW464605   5.396   7.652   4.787
16072SOL     OW64606   5.471   8.692   4.494
16072SOL    HW264607   5.450   8.638   4.417
16072SOL    HW364608   5.567   8.690   4.498
16072SOL    MW464609   5.480   8.685   4.483
16073SOL     OW64610   4.163   8.837   5.237
16073SOL    HW264611   4.084   8.787   5.260
16073SOL    HW364612   4.233   8.796   5.287
16073SOL    MW464613   4.161   8.825   5.247
16074SOL     OW64614   4.047   7.626   3.920
16074SOL    HW264615   3.976   7.681   3.888
16074SOL    HW364616   4.089   7.592   3.841
16074SOL    MW464617   4.043   7.628   3.906
16075SOL     OW64618   5.171   8.123   4.756
16075SOL    HW264619   5.094   8.169   4.722
16075SOL    HW364620   5.228   8.192   4.790
16075SOL    MW464621   5.168   8.138   4.756
16076SOL     OW64622   3.803   7.725   3.769
16076SOL    HW264623   3.770   7.804   3.813
16076SOL    HW364624   3.858   7.758   3.698
16076SOL    MW464625   3.806   7.739   3.766
16077SOL     OW64626   5.472   8.339   5.862
16077SOL    HW264627   5.513   8.281   5.927
16077SOL    HW364628   5.379   8.331   5.879
16077SOL    MW464629   5.466   8.331   5.872
16078SOL     OW64630   5.338   8.271   6.857
16078SOL    HW264631   5.293   8.338   6.908
16078SOL    HW364632   5.426   8.307   6.843
16078SOL    MW464633   5.344   8.284   6.861
16079SOL     OW64634   4.266   8.522   6.091
16079SOL    HW264635   4.356   8.497   6.075
16079SOL    HW364636   4.262   8.615   6.068
16079SOL    MW464637   4.278   8.531   6.086
16080SOL     OW64638   5.318   8.665   6.838
16080SOL    HW264639   5.239   8.630   6.796
16080SOL    HW364640   5.345   8.737   6.782
16080SOL    MW464641   5.311   8.670   6.825
16081SOL     OW64642   4.550   7.978   6.104
16081SOL    HW264643   4.525   8.066   6.132
16081SOL    HW364644   4.547   7.981   6.008
16081SOL    MW464645   4.546   7.990   6.096
16082SOL     OW64646   3.992   8.006   6.032
16082SOL    HW264647   4.024   8.094   6.014
16082SOL    HW364648   3.980   8.004   6.127
16082SOL    MW464649   3.995   8.018   6.044
16083SOL     OW64650   4.070   8.419   6.933
16083SOL    HW264651   4.133   8.366   6.884
16083SOL    HW364652   4.051   8.493   6.876
16083SOL    MW464653   4.076   8.421   6.920
16084SOL     OW64654   4.391   7.761   6.119
16084SOL    HW264655   4.449   7.837   6.121
16084SOL    HW364656   4.326   7.782   6.052
16084SOL    MW464657   4.390   7.773   6.110
16085SOL     OW64658   4.478   8.688   6.294
16085SOL    HW264659   4.558   8.691   6.346
16085SOL    HW364660   4.506   8.655   6.208
16085SOL    MW464661   4.492   8.684   6.289
16086SOL     OW64662   4.503   9.029   7.197
16086SOL    HW264663   4.587   9.055   7.236
16086SOL    HW364664   4.527   8.973   7.123
16086SOL    MW464665   4.517   9.025   7.192
16087SOL     OW64666   4.255   8.192   6.285
16087SOL    HW264667   4.240   8.112   6.336
16087SOL    HW364668   4.337   8.227   6.319
16087SOL    MW464669   4.263   8.184   6.297
16088SOL     OW64670   4.397   8.018   6.662
16088SOL    HW264671   4.303   8.014   6.680
16088SOL    HW364672   4.427   7.927   6.671
16088SOL    MW464673   4.388   8.006   6.665
16089SOL     OW64674   4.143   8.432   6.566
16089SOL    HW264675   4.098   8.439   6.482
16089SOL    HW364676   4.123   8.515   6.610
16089SOL    MW464677   4.135   8.444   6.560
16090SOL     OW64678   5.105   8.670   5.810
16090SOL    HW264679   5.023   8.706   5.776
16090SOL    HW364680   5.173   8.713   5.759
16090SOL    MW464681   5.103   8.680   5.798
16091SOL     OW64682   4.104   8.805   6.476
16091SOL    HW264683   4.080   8.858   6.552
16091SOL    HW364684   4.160   8.863   6.424
16091SOL    MW464685   4.108   8.820   6.479
16092SOL     OW64686   4.657   8.811   6.003
16092SOL    HW264687   4.634   8.873   6.071
16092SOL    HW364688   4.614   8.729   6.029
16092SOL    MW464689   4.649   8.807   6.014
16093SOL     OW64690   5.530   7.812   6.459
16093SOL    HW264691   5.467   7.792   6.528
16093SOL    HW364692   5.520   7.741   6.396
16093SOL    MW464693   5.520   7.799   6.460
16094SOL     OW64694   4.154   7.784   5.971
16094SOL    HW264695   4.128   7.746   5.887
16094SOL    HW364696   4.091   7.854   5.987
16094SOL    MW464697   4.143   7.787   5.962
16095SOL     OW64698   3.989   8.745   6.008
16095SOL    HW264699   3.937   8.813   5.964
16095SOL    HW364700   3.986   8.671   5.948
16095SOL    MW464701   3.981   8.744   5.995
16096SOL     OW64702   5.586   7.981   5.761
16096SOL    HW264703   5.495   7.983   5.789
16096SOL    HW364704   5.631   8.043   5.819
16096SOL    MW464705   5.579   7.989   5.771
16097SOL     OW64706   5.331   8.584   6.111
16097SOL    HW264707   5.241   8.584   6.146
16097SOL    HW364708   5.324   8.630   6.028
16097SOL    MW464709   5.318   8.590   6.105
16098SOL     OW64710   5.131   8.219   7.183
16098SOL    HW264711   5.200   8.157   7.160
16098SOL    HW364712   5.056   8.193   7.130
16098SOL    MW464713   5.131   8.206   7.174
16099SOL     OW64714   4.867   8.606   7.175
16099SOL    HW264715   4.852   8.699   7.160
16099SOL    HW364716   4.962   8.596   7.175
16099SOL    MW464717   4.876   8.616   7.172
16100SOL     OW64718   4.663   8.030   7.376
16100SOL    HW264719   4.753   8.031   7.343
16100SOL    HW364720   4.622   7.955   7.334
16100SOL    MW464721   4.669   8.020   7.367
16101SOL     OW64722   5.238   8.562   6.503
16101SOL    HW264723   5.241   8.496   6.434
16101SOL    HW364724   5.323   8.605   6.499
16101SOL    MW464725   5.250   8.558   6.494
16102SOL     OW64726   4.858   8.165   6.072
16102SOL    HW264727   4.884   8.189   5.983
16102SOL    HW364728   4.840   8.072   6.068
16102SOL    MW464729   4.860   8.157   6.059
16103SOL     OW64730   5.523   8.785   5.923
16103SOL    HW264731   5.479   8.826   5.998
16103SOL    HW364732   5.580   8.853   5.888
16103SOL    MW464733   5.525   8.799   5.928
16104SOL     OW64734   4.443   7.834   7.326
16104SOL    HW264735   4.453   7.760   7.266
16104SOL    HW364736   4.479   7.803   7.409
16104SOL    MW464737   4.449   7.820   7.328
16105SOL     OW64738   5.563   7.563   6.290
16105SOL    HW264739   5.617   7.514   6.352
16105SOL    HW364740   5.506   7.497   6.251
16105SOL    MW464741   5.563   7.547   6.292
16106SOL     OW64742   4.682   7.516   6.703
16106SOL    HW264743   4.641   7.594   6.665
16106SOL    HW364744   4.776   7.534   6.698
16106SOL    MW464745   4.688   7.528   6.698
16107SOL     OW64746   4.697   8.194   5.733
16107SOL    HW264747   4.699   8.141   5.654
16107SOL    HW364748   4.785   8.231   5.739
16107SOL    MW464749   4.709   8.193   5.722
16108SOL     OW64750   5.311   8.120   6.069
16108SOL    HW264751   5.350   8.120   6.156
16108SOL    HW364752   5.252   8.196   6.069
16108SOL    MW464753   5.308   8.131   6.080
16109SOL     OW64754   4.628   8.487   7.198
16109SOL    HW264755   4.605   8.467   7.288
16109SOL    HW364756   4.713   8.531   7.203
16109SOL    MW464757   4.635   8.490   7.210
16110SOL     OW64758   4.708   7.624   6.958
16110SOL    HW264759   4.714   7.586   6.871
16110SOL    HW364760   4.697   7.718   6.943
16110SOL    MW464761   4.709   7.632   6.946
16111SOL     OW64762   4.797   8.113   6.792
16111SOL    HW264763   4.872   8.142   6.739
16111SOL    HW364764   4.729   8.178   6.776
16111SOL    MW464765   4.798   8.125   6.782
16112SOL     OW64766   5.347   8.081   7.069
16112SOL    HW264767   5.328   7.990   7.048
16112SOL    HW364768   5.325   8.130   6.990
16112SOL    MW464769   5.342   8.074   7.056
16113SOL     OW64770   4.794   7.819   7.175
16113SOL    HW264771   4.760   7.858   7.094
16113SOL    HW364772   4.772   7.727   7.168
16113SOL    MW464773   4.787   7.812   7.165
16114SOL     OW64774   5.203   8.633   7.251
16114SOL    HW264775   5.285   8.674   7.281
16114SOL    HW364776   5.166   8.595   7.331
16114SOL    MW464777   5.209   8.634   7.266
16115SOL     OW64778   5.498   8.006   6.235
16115SOL    HW264779   5.587   7.975   6.252
16115SOL    HW364780   5.441   7.946   6.283
16115SOL    MW464781   5.501   7.994   6.244
16116SOL     OW64782   3.924   7.720   6.264
16116SOL    HW264783   3.915   7.660   6.190
16116SOL    HW364784   3.857   7.691   6.327
16116SOL    MW464785   3.914   7.707   6.262
16117SOL     OW64786   4.867   8.813   5.825
16117SOL    HW264787   4.817   8.815   5.907
16117SOL    HW364788   4.801   8.831   5.757
16117SOL    MW464789   4.853   8.815   5.827
16118SOL     OW64790   3.871   7.893   6.627
16118SOL    HW264791   3.843   7.984   6.636
16118SOL    HW364792   3.808   7.854   6.566
16118SOL    MW464793   3.858   7.899   6.621
16119SOL     OW64794   4.466   8.646   5.640
16119SOL    HW264795   4.388   8.592   5.627
16119SOL    HW364796   4.437   8.719   5.693
16119SOL    MW464797   4.452   8.648   5.645
16120SOL     OW64798   5.592   8.386   6.832
16120SOL    HW264799   5.608   8.424   6.745
16120SOL    HW364800   5.626   8.452   6.893
16120SOL    MW464801   5.599   8.399   6.828
16121SOL     OW64802   3.855   8.168   6.797
16121SOL    HW264803   3.917   8.198   6.863
16121SOL    HW364804   3.789   8.237   6.791
16121SOL    MW464805   3.854   8.181   6.804
16122SOL     OW64806   4.496   7.725   5.705
16122SOL    HW264807   4.444   7.645   5.693
16122SOL    HW364808   4.583   7.702   5.673
16122SOL    MW464809   4.499   7.711   5.699
16123SOL     OW64810   4.002   8.596   6.756
16123SOL    HW264811   4.055   8.671   6.781
16123SOL    HW364812   3.921   8.634   6.722
16123SOL    MW464813   3.998   8.611   6.756
16124SOL     OW64814   4.542   8.500   6.744
16124SOL    HW264815   4.570   8.409   6.756
16124SOL    HW364816   4.471   8.494   6.680
16124SOL    MW464817   4.535   8.488   6.739
16125SOL     OW64818   3.857   8.365   6.162
16125SOL    HW264819   3.948   8.380   6.189
16125SOL    HW364820   3.860   8.286   6.108
16125SOL    MW464821   3.869   8.357   6.160
16126SOL     OW64822   4.093   8.073   7.416
16126SOL    HW264823   4.040   8.153   7.423
16126SOL    HW364824   4.163   8.085   7.481
16126SOL    MW464825   4.095   8.086   7.424
16127SOL     OW64826   4.479   7.623   7.123
16127SOL    HW264827   4.456   7.531   7.125
16127SOL    HW364828   4.565   7.625   7.080
16127SOL    MW464829   4.486   7.613   7.119
16128SOL     OW64830   4.163   8.147   7.162
16128SOL    HW264831   4.243   8.197   7.148
16128SOL    HW364832   4.154   8.141   7.257
16128SOL    MW464833   4.172   8.153   7.172
16129SOL     OW64834   5.140   7.672   7.433
16129SOL    HW264835   5.196   7.599   7.459
16129SOL    HW364836   5.110   7.710   7.515
16129SOL    MW464837   5.144   7.667   7.446
16130SOL     OW64838   4.698   9.020   6.236
16130SOL    HW264839   4.781   8.974   6.220
16130SOL    HW364840   4.688   9.019   6.332
16130SOL    MW464841   4.708   9.013   6.246
16131SOL     OW64842   5.530   8.165   6.550
16131SOL    HW264843   5.619   8.195   6.532
16131SOL    HW364844   5.510   8.105   6.479
16131SOL    MW464845   5.539   8.162   6.539
16132SOL     OW64846   5.381   8.344   7.430
16132SOL    HW264847   5.436   8.268   7.411
16132SOL    HW364848   5.383   8.352   7.525
16132SOL    MW464849   5.389   8.335   7.438
16133SOL     OW64850   4.869   7.722   5.864
16133SOL    HW264851   4.802   7.698   5.801
16133SOL    HW364852   4.934   7.771   5.813
16133SOL    MW464853   4.869   7.724   5.849
16134SOL     OW64854   4.676   7.906   6.949
16134SOL    HW264855   4.595   7.947   6.977
16134SOL    HW364856   4.723   7.974   6.901
16134SOL    MW464857   4.671   7.921   6.947
16135SOL     OW64858   4.936   8.244   6.572
16135SOL    HW264859   4.949   8.338   6.582
16135SOL    HW364860   4.897   8.234   6.486
16135SOL    MW464861   4.932   8.255   6.562
16136SOL     OW64862   4.388   8.439   6.376
16136SOL    HW264863   4.299   8.430   6.409
16136SOL    HW364864   4.392   8.529   6.344
16136SOL    MW464865   4.377   8.450   6.376
16137SOL     OW64866   5.187   8.022   6.371
16137SOL    HW264867   5.132   7.943   6.370
16137SOL    HW364868   5.169   8.063   6.455
16137SOL    MW464869   5.177   8.017   6.380
16138SOL     OW64870   4.158   7.709   7.188
16138SOL    HW264871   4.079   7.727   7.240
16138SOL    HW364872   4.153   7.771   7.115
16138SOL    MW464873   4.148   7.719   7.185
16139SOL     OW64874   4.806   8.226   6.328
16139SOL    HW264875   4.743   8.158   6.352
16139SOL    HW364876   4.826   8.207   6.236
16139SOL    MW464877   4.800   8.213   6.320
16140SOL     OW64878   4.554   8.530   6.054
16140SOL    HW264879   4.556   8.504   5.961
16140SOL    HW364880   4.612   8.467   6.097
16140SOL    MW464881   4.562   8.519   6.048
16141SOL     OW64882   5.064   7.774   6.387
16141SOL    HW264883   5.092   7.706   6.448
16141SOL    HW364884   4.978   7.745   6.357
16141SOL    MW464885   5.057   7.761   6.391
16142SOL     OW64886   3.869   8.708   6.321
16142SOL    HW264887   3.933   8.740   6.384
16142SOL    HW364888   3.918   8.644   6.269
16142SOL    MW464889   3.884   8.704   6.322
16143SOL     OW64890   5.044   7.878   5.722
16143SOL    HW264891   5.017   7.944   5.658
16143SOL    HW364892   5.114   7.921   5.772
16143SOL    MW464893   5.049   7.891   5.719
16144SOL     OW64894   4.712   7.583   5.659
16144SOL    HW264895   4.768   7.575   5.581
16144SOL    HW364896   4.689   7.493   5.681
16144SOL    MW464897   4.717   7.570   5.652
16145SOL     OW64898   5.217   8.434   5.864
16145SOL    HW264899   5.184   8.523   5.854
16145SOL    HW364900   5.182   8.405   5.949
16145SOL    MW464901   5.207   8.443   5.875
16146SOL     OW64902   4.123   7.531   7.394
16146SOL    HW264903   4.051   7.496   7.342
16146SOL    HW364904   4.181   7.572   7.329
16146SOL    MW464905   4.121   7.532   7.379
16147SOL     OW64906   5.587   8.550   7.047
16147SOL    HW264907   5.502   8.563   7.006
16147SOL    HW364908   5.567   8.514   7.134
16147SOL    MW464909   5.574   8.546   7.052
16148SOL     OW64910   4.211   8.472   5.656
16148SOL    HW264911   4.134   8.485   5.712
16148SOL    HW364912   4.175   8.436   5.575
16148SOL    MW464913   4.197   8.468   5.653
16149SOL     OW64914   4.864   8.445   5.899
16149SOL    HW264915   4.774   8.466   5.874
16149SOL    HW364916   4.891   8.518   5.955
16149SOL    MW464917   4.856   8.457   5.902
16150SOL     OW64918   4.364   8.794   6.591
16150SOL    HW264919   4.357   8.773   6.685
16150SOL    HW364920   4.282   8.762   6.554
16150SOL    MW464921   4.352   8.788   6.598
16151SOL     OW64922   5.228   7.804   6.993
16151SOL    HW264923   5.175   7.806   7.073
16151SOL    HW364924   5.213   7.717   6.956
16151SOL    MW464925   5.220   7.794   6.998
16152SOL     OW64926   5.564   7.728   6.866
16152SOL    HW264927   5.545   7.795   6.801
16152SOL    HW364928   5.621   7.666   6.821
16152SOL    MW464929   5.568   7.729   6.852
16153SOL     OW64930   4.493   7.561   6.306
16153SOL    HW264931   4.422   7.622   6.288
16153SOL    HW364932   4.544   7.558   6.225
16153SOL    MW464933   4.489   7.567   6.293
16154SOL     OW64934   4.251   8.801   6.055
16154SOL    HW264935   4.244   8.833   6.145
16154SOL    HW364936   4.161   8.785   6.027
16154SOL    MW464937   4.239   8.803   6.062
16155SOL     OW64938   4.453   8.218   7.436
16155SOL    HW264939   4.523   8.160   7.408
16155SOL    HW364940   4.396   8.163   7.491
16155SOL    MW464941   4.455   8.205   7.440
16156SOL     OW64942   5.240   8.430   7.069
16156SOL    HW264943   5.245   8.483   7.149
16156SOL    HW364944   5.202   8.347   7.097
16156SOL    MW464945   5.236   8.425   7.084
16157SOL     OW64946   4.880   7.565   7.315
16157SOL    HW264947   4.875   7.472   7.296
16157SOL    HW364948   4.963   7.576   7.361
16157SOL    MW464949   4.888   7.554   7.319
16158SOL     OW64950   4.254   8.085   5.769
16158SOL    HW264951   4.220   8.141   5.839
16158SOL    HW364952   4.325   8.035   5.809
16158SOL    MW464953   4.260   8.086   5.783
16159SOL     OW64954   5.350   8.836   6.591
16159SOL    HW264955   5.385   8.818   6.504
16159SOL    HW364956   5.255   8.837   6.578
16159SOL    MW464957   5.342   8.833   6.578
16160SOL     OW64958   4.779   8.484   6.960
16160SOL    HW264959   4.822   8.519   7.038
16160SOL    HW364960   4.762   8.561   6.906
16160SOL    MW464961   4.782   8.499   6.963
16161SOL     OW64962   5.310   7.971   5.833
16161SOL    HW264963   5.302   8.042   5.770
16161SOL    HW364964   5.328   8.015   5.916
16161SOL    MW464965   5.311   7.985   5.835
16162SOL     OW64966   4.170   7.626   6.262
16162SOL    HW264967   4.220   7.669   6.193
16162SOL    HW364968   4.085   7.670   6.262
16162SOL    MW464969   4.167   7.639   6.253
16163SOL     OW64970   3.929   8.688   7.122
16163SOL    HW264971   3.957   8.641   7.200
16163SOL    HW364972   3.850   8.643   7.093
16163SOL    MW464973   3.922   8.677   7.128
16164SOL     OW64974   4.437   8.015   7.089
16164SOL    HW264975   4.409   8.103   7.113
16164SOL    HW364976   4.406   7.959   7.160
16164SOL    MW464977   4.429   8.018   7.101
16165SOL     OW64978   4.979   8.233   5.808
16165SOL    HW264979   5.026   8.251   5.727
16165SOL    HW364980   4.945   8.317   5.836
16165SOL    MW464981   4.981   8.247   5.801
16166SOL     OW64982   4.092   8.411   6.302
16166SOL    HW264983   4.150   8.467   6.250
16166SOL    HW364984   4.136   8.326   6.304
16166SOL    MW464985   4.105   8.408   6.295
16167SOL     OW64986   5.232   7.763   6.139
16167SOL    HW264987   5.154   7.713   6.164
16167SOL    HW364988   5.203   7.854   6.139
16167SOL    MW464989   5.218   7.767   6.142
16168SOL     OW64990   4.818   7.725   6.298
16168SOL    HW264991   4.838   7.800   6.242
16168SOL    HW364992   4.798   7.764   6.383
16168SOL    MW464993   4.819   7.741   6.302
16169SOL     OW64994   5.578   8.498   7.317
16169SOL    HW264995   5.491   8.478   7.353
16169SOL    HW364996   5.632   8.424   7.342
16169SOL    MW464997   5.573   8.487   7.325
16170SOL     OW64998   3.754   8.137   6.021
16170SOL    HW264999   3.694   8.109   6.091
16170SOL    HW365000   3.828   8.077   6.027
16170SOL    MW465001   3.756   8.126   6.030
16171SOL     OW65002   4.180   7.876   6.910
16171SOL    HW265003   4.213   7.957   6.950
16171SOL    HW365004   4.153   7.902   6.822
16171SOL    MW465005   4.179   7.890   6.904
16172SOL     OW65006   4.134   7.843   6.646
16172SOL    HW265007   4.164   7.757   6.617
16172SOL    HW365008   4.039   7.836   6.649
16172SOL    MW465009   4.126   7.832   6.644
16173SOL     OW65010   4.963   8.052   7.337
16173SOL    HW265011   5.015   7.987   7.290
16173SOL    HW365012   4.921   8.103   7.267
16173SOL    MW465013   4.964   8.049   7.320
16174SOL     OW65014   5.062   7.847   7.198
16174SOL    HW265015   4.969   7.831   7.185
16174SOL    HW365016   5.088   7.785   7.266
16174SOL    MW465017   5.052   7.837   7.205
16175SOL     OW65018   4.277   7.621   6.537
16175SOL    HW265019   4.287   7.530   6.563
16175SOL    HW365020   4.233   7.617   6.452
16175SOL    MW465021   4.273   7.609   6.529
16176SOL     OW65022   5.428   7.943   6.708
16176SOL    HW265023   5.361   7.976   6.768
16176SOL    HW365024   5.471   8.021   6.674
16176SOL    MW465025   5.426   7.958   6.712
16177SOL     OW65026   5.606   8.663   6.678
16177SOL    HW265027   5.599   8.603   6.603
16177SOL    HW365028   5.532   8.723   6.667
16177SOL    MW465029   5.596   8.663   6.667
16178SOL     OW65030   4.988   8.525   6.596
16178SOL    HW265031   5.002   8.497   6.687
16178SOL    HW365032   5.074   8.556   6.568
16178SOL    MW465033   5.001   8.526   6.605
16179SOL     OW65034   5.071   8.020   6.875
16179SOL    HW265035   5.092   8.021   6.782
16179SOL    HW365036   5.116   7.942   6.908
16179SOL    MW465037   5.078   8.010   6.867
16180SOL     OW65038   5.564   8.151   7.417
16180SOL    HW265039   5.601   8.096   7.486
16180SOL    HW365040   5.589   8.108   7.335
16180SOL    MW465041   5.571   8.139   7.416
16181SOL     OW65042   5.111   8.449   7.468
16181SOL    HW265043   5.177   8.397   7.422
16181SOL    HW365044   5.131   8.436   7.561
16181SOL    MW465045   5.122   8.440   7.475
16182SOL     OW65046   5.062   7.535   5.817
16182SOL    HW265047   5.136   7.579   5.860
16182SOL    HW365048   4.986   7.589   5.839
16182SOL    MW465049   5.062   7.547   5.825
16183SOL     OW65050   5.122   8.310   6.095
16183SOL    HW265051   5.037   8.280   6.065
16183SOL    HW365052   5.114   8.317   6.190
16183SOL    MW465053   5.110   8.308   6.104
16184SOL     OW65054   4.482   7.753   6.649
16184SOL    HW265055   4.455   7.755   6.740
16184SOL    HW365056   4.412   7.705   6.604
16184SOL    MW465057   4.470   7.749   6.656
16185SOL     OW65058   5.238   8.830   7.043
16185SOL    HW265059   5.223   8.759   7.106
16185SOL    HW365060   5.284   8.788   6.971
16185SOL    MW465061   5.244   8.814   7.043
16186SOL     OW65062   4.312   8.561   7.160
16186SOL    HW265063   4.349   8.566   7.072
16186SOL    HW365064   4.351   8.634   7.207
16186SOL    MW465065   4.322   8.571   7.155
16187SOL     OW65066   4.492   8.604   6.972
16187SOL    HW265067   4.551   8.550   7.025
16187SOL    HW365068   4.507   8.576   6.882
16187SOL    MW465069   4.502   8.593   6.968
16188SOL     OW65070   4.495   7.976   5.821
16188SOL    HW265071   4.568   8.025   5.784
16188SOL    HW365072   4.511   7.885   5.795
16188SOL    MW465073   4.507   7.971   5.814
16189SOL     OW65074   4.963   7.572   6.735
16189SOL    HW265075   5.018   7.581   6.657
16189SOL    HW365076   5.018   7.606   6.806
16189SOL    MW465077   4.977   7.577   6.734
16190SOL     OW65078   3.970   8.485   5.919
16190SOL    HW265079   3.907   8.501   5.848
16190SOL    HW365080   3.917   8.448   5.990
16190SOL    MW465081   3.955   8.482   5.919
16191SOL     OW65082   4.326   8.839   5.778
16191SOL    HW265083   4.341   8.815   5.870
16191SOL    HW365084   4.234   8.817   5.762
16191SOL    MW465085   4.316   8.832   5.788
16192SOL     OW65086   4.741   8.706   6.742
16192SOL    HW265087   4.673   8.640   6.758
16192SOL    HW365088   4.759   8.700   6.649
16192SOL    MW465089   4.734   8.697   6.733
16193SOL     OW65090   4.734   7.845   6.563
16193SOL    HW265091   4.664   7.797   6.608
16193SOL    HW365092   4.766   7.908   6.627
16193SOL    MW465093   4.729   7.847   6.577
16194SOL     OW65094   4.385   8.281   7.183
16194SOL    HW265095   4.378   8.376   7.171
16194SOL    HW365096   4.394   8.270   7.278
16194SOL    MW465097   4.386   8.293   7.193
16195SOL     OW65098   4.106   8.796   7.441
16195SOL    HW265099   4.178   8.798   7.378
16195SOL    HW365100   4.076   8.705   7.440
16195SOL    MW465101   4.111   8.785   7.433
16196SOL     OW65102   5.190   7.559   6.908
16196SOL    HW265103   5.261   7.505   6.872
16196SOL    HW365104   5.189   7.538   7.001
16196SOL    MW465105   5.199   7.550   6.916
16197SOL     OW65106   4.201   7.951   6.376
16197SOL    HW265107   4.272   7.899   6.339
16197SOL    HW365108   4.187   7.916   6.463
16197SOL    MW465109   4.209   7.940   6.383
16198SOL     OW65110   4.837   7.892   6.100
16198SOL    HW265111   4.859   7.829   6.032
16198SOL    HW365112   4.742   7.884   6.111
16198SOL    MW465113   4.827   7.883   6.092
16199SOL     OW65114   3.922   7.582   6.032
16199SOL    HW265115   3.993   7.603   5.971
16199SOL    HW365116   3.876   7.510   5.990
16199SOL    MW465117   3.926   7.576   6.018
16200SOL     OW65118   3.753   8.049   7.175
16200SOL    HW265119   3.817   8.115   7.150
16200SOL    HW365120   3.672   8.076   7.132
16200SOL    MW465121   3.751   8.061   7.167
16201SOL     OW65122   5.047   8.633   6.062
16201SOL    HW265123   5.019   8.719   6.095
16201SOL    HW365124   5.075   8.649   5.972
16201SOL    MW465125   5.047   8.647   6.054
16202SOL     OW65126   4.709   7.553   6.115
16202SOL    HW265127   4.746   7.612   6.180
16202SOL    HW365128   4.686   7.609   6.041
16202SOL    MW465129   4.710   7.568   6.114
16203SOL     OW65130   5.562   8.435   6.537
16203SOL    HW265131   5.553   8.467   6.448
16203SOL    HW365132   5.515   8.351   6.537
16203SOL    MW465133   5.555   8.428   6.527
16204SOL     OW65134   3.938   8.275   7.116
16204SOL    HW265135   3.959   8.344   7.054
16204SOL    HW365136   4.018   8.222   7.121
16204SOL    MW465137   3.951   8.276   7.110
16205SOL     OW65138   5.474   8.366   6.238
16205SOL    HW265139   5.568   8.355   6.226
16205SOL    HW365140   5.450   8.438   6.179
16205SOL    MW465141   5.484   8.374   6.229
16206SOL     OW65142   3.923   8.290   7.383
16206SOL    HW265143   3.849   8.234   7.409
16206SOL    HW365144   3.918   8.293   7.288
16206SOL    MW465145   3.912   8.283   7.373
16207SOL     OW65146   4.089   7.577   6.833
16207SOL    HW265147   4.132   7.661   6.853
16207SOL    HW365148   4.162   7.515   6.826
16207SOL    MW465149   4.104   7.580   6.834
16208SOL     OW65150   4.130   8.244   6.011
16208SOL    HW265151   4.130   8.339   5.996
16208SOL    HW365152   4.207   8.228   6.065
16208SOL    MW465153   4.140   8.255   6.016
16209SOL     OW65154   4.906   8.103   7.075
16209SOL    HW265155   4.942   8.076   6.991
16209SOL    HW365156   4.819   8.137   7.054
16209SOL    MW465157   4.900   8.104   7.062
16210SOL     OW65158   3.889   7.975   6.300
16210SOL    HW265159   3.951   7.982   6.373
16210SOL    HW365160   3.889   7.882   6.277
16210SOL    MW465161   3.897   7.964   6.307
16211SOL     OW65162   4.571   8.236   6.784
16211SOL    HW265163   4.529   8.154   6.760
16211SOL    HW365164   4.572   8.235   6.880
16211SOL    MW465165   4.564   8.225   6.793
16212SOL     OW65166   4.375   7.706   6.889
16212SOL    HW265167   4.306   7.769   6.910
16212SOL    HW365168   4.402   7.670   6.974
16212SOL    MW465169   4.369   7.709   6.902
16213SOL     OW65170   3.758   8.547   5.758
16213SOL    HW265171   3.727   8.612   5.821
16213SOL    HW365172   3.707   8.469   5.777
16213SOL    MW465173   3.748   8.544   5.768
16214SOL     OW65174   5.170   7.559   6.506
16214SOL    HW265175   5.258   7.568   6.543
16214SOL    HW365176   5.180   7.500   6.432
16214SOL    MW465177   5.184   7.553   6.500
16215SOL     OW65178   5.202   8.298   6.350
16215SOL    HW265179   5.282   8.313   6.299
16215SOL    HW365180   5.195   8.203   6.356
16215SOL    MW465181   5.211   8.287   6.345
16216SOL     OW65182   4.652   8.224   7.047
16216SOL    HW265183   4.721   8.291   7.044
16216SOL    HW365184   4.585   8.262   7.103
16216SOL    MW465185   4.653   8.237   7.054
16217SOL     OW65186   4.070   8.524   7.295
16217SOL    HW265187   4.024   8.440   7.297
16217SOL    HW365188   4.127   8.518   7.219
16217SOL    MW465189   4.072   8.512   7.287
16218SOL     OW65190   5.187   8.167   5.615
16218SOL    HW265191   5.115   8.143   5.557
16218SOL    HW365192   5.253   8.204   5.557
16218SOL    MW465193   5.186   8.169   5.600
16219SOL     OW65194   4.321   8.899   6.296
16219SOL    HW265195   4.386   8.832   6.317
16219SOL    HW365196   4.373   8.976   6.273
16219SOL    MW465197   4.336   8.901   6.295
16220SOL     OW65198   4.582   8.064   6.426
16220SOL    HW265199   4.522   8.082   6.498
16220SOL    HW365200   4.616   7.976   6.445
16220SOL    MW465201   4.578   8.054   6.439
16221SOL     OW65202   5.523   7.563   7.095
16221SOL    HW265203   5.444   7.609   7.123
16221SOL    HW365204   5.558   7.617   7.024
16221SOL    MW465205   5.517   7.576   7.089
16222SOL     OW65206   4.807   8.647   6.445
16222SOL    HW265207   4.899   8.628   6.463
16222SOL    HW365208   4.780   8.577   6.385
16222SOL    MW465209   4.815   8.635   6.439
16223SOL     OW65210   4.600   8.467   5.800
16223SOL    HW265211   4.586   8.379   5.765
16223SOL    HW365212   4.551   8.524   5.741
16223SOL    MW465213   4.592   8.462   5.788
16224SOL     OW65214   4.013   8.191   6.579
16224SOL    HW265215   3.963   8.190   6.660
16224SOL    HW365216   4.033   8.283   6.563
16224SOL    MW465217   4.009   8.203   6.587
16225SOL     OW65218   5.080   8.955   7.341
16225SOL    HW265219   5.080   9.049   7.357
16225SOL    HW365220   5.125   8.945   7.257
16225SOL    MW465221   5.086   8.965   7.332
16226SOL     OW65222   5.319   7.673   5.902
16226SOL    HW265223   5.312   7.677   5.997
16226SOL    HW365224   5.331   7.764   5.875
16226SOL    MW465225   5.320   7.686   5.910
16227SOL     OW65226   4.608   8.236   6.016
16227SOL    HW265227   4.588   8.222   5.923
16227SOL    HW365228   4.701   8.215   6.023
16227SOL    MW465229   4.618   8.231   6.005
16228SOL     OW65230   3.935   7.859   7.320
16228SOL    HW265231   3.892   7.918   7.257
16228SOL    HW365232   4.003   7.914   7.360
16228SOL    MW465233   3.939   7.874   7.317
16229SOL     OW65234   5.047   8.479   6.865
16229SOL    HW265235   5.110   8.476   6.938
16229SOL    HW365236   4.963   8.497   6.907
16229SOL    MW465237   5.043   8.481   6.880
16230SOL     OW65238   5.386   7.656   6.644
16230SOL    HW265239   5.431   7.574   6.663
16230SOL    HW365240   5.406   7.712   6.720
16230SOL    MW465241   5.396   7.652   6.656
16231SOL     OW65242   3.834   7.499   6.743
16231SOL    HW265243   3.825   7.500   6.648
16231SOL    HW365244   3.928   7.511   6.758
16231SOL    MW465245   3.846   7.502   6.734
16232SOL     OW65246   4.163   8.837   7.106
16232SOL    HW265247   4.084   8.787   7.129
16232SOL    HW365248   4.233   8.796   7.156
16232SOL    MW465249   4.161   8.825   7.116
16233SOL     OW65250   4.047   7.626   5.789
16233SOL    HW265251   3.976   7.681   5.757
16233SOL    HW365252   4.089   7.592   5.710
16233SOL    MW465253   4.043   7.628   5.775
16234SOL     OW65254   5.171   8.123   6.625
16234SOL    HW265255   5.094   8.169   6.591
16234SOL    HW365256   5.228   8.192   6.659
16234SOL    MW465257   5.168   8.138   6.625
16235SOL     OW65258   3.803   7.725   5.638
16235SOL    HW265259   3.770   7.804   5.682
16235SOL    HW365260   3.858   7.758   5.567
16235SOL    MW465261   3.806   7.739   5.635
16236SOL     OW65262   7.207   8.271   1.252
16236SOL    HW265263   7.162   8.338   1.303
16236SOL    HW365264   7.295   8.307   1.238
16236SOL    MW465265   7.213   8.284   1.256
16237SOL     OW65266   6.135   8.522   0.486
16237SOL    HW265267   6.225   8.497   0.470
16237SOL    HW365268   6.131   8.615   0.463
16237SOL    MW465269   6.147   8.531   0.481
16238SOL     OW65270   7.187   8.665   1.233
16238SOL    HW265271   7.108   8.630   1.191
16238SOL    HW365272   7.214   8.737   1.177
16238SOL    MW465273   7.180   8.670   1.220
16239SOL     OW65274   6.419   7.978   0.499
16239SOL    HW265275   6.394   8.066   0.527
16239SOL    HW365276   6.416   7.981   0.403
16239SOL    MW465277   6.415   7.990   0.491
16240SOL     OW65278   5.861   8.006   0.427
16240SOL    HW265279   5.893   8.094   0.409
16240SOL    HW365280   5.849   8.004   0.522
16240SOL    MW465281   5.864   8.018   0.439
16241SOL     OW65282   5.939   8.419   1.328
16241SOL    HW265283   6.002   8.366   1.279
16241SOL    HW365284   5.920   8.493   1.271
16241SOL    MW465285   5.945   8.421   1.315
16242SOL     OW65286   6.260   7.761   0.514
16242SOL    HW265287   6.318   7.837   0.516
16242SOL    HW365288   6.195   7.782   0.447
16242SOL    MW465289   6.259   7.773   0.505
16243SOL     OW65290   6.347   8.688   0.689
16243SOL    HW265291   6.427   8.691   0.741
16243SOL    HW365292   6.375   8.655   0.603
16243SOL    MW465293   6.361   8.684   0.684
16244SOL     OW65294   6.372   9.029   1.592
16244SOL    HW265295   6.456   9.055   1.631
16244SOL    HW365296   6.396   8.973   1.518
16244SOL    MW465297   6.386   9.025   1.587
16245SOL     OW65298   6.124   8.192   0.680
16245SOL    HW265299   6.109   8.112   0.731
16245SOL    HW365300   6.206   8.227   0.714
16245SOL    MW465301   6.132   8.184   0.692
16246SOL     OW65302   6.266   8.018   1.057
16246SOL    HW265303   6.172   8.014   1.075
16246SOL    HW365304   6.296   7.927   1.066
16246SOL    MW465305   6.257   8.006   1.060
16247SOL     OW65306   6.012   8.432   0.961
16247SOL    HW265307   5.967   8.439   0.877
16247SOL    HW365308   5.992   8.515   1.005
16247SOL    MW465309   6.004   8.444   0.955
16248SOL     OW65310   5.973   8.805   0.871
16248SOL    HW265311   5.949   8.858   0.947
16248SOL    HW365312   6.029   8.863   0.819
16248SOL    MW465313   5.977   8.820   0.874
16249SOL     OW65314   6.535   8.449   0.681
16249SOL    HW265315   6.449   8.436   0.721
16249SOL    HW365316   6.588   8.376   0.713
16249SOL    MW465317   6.531   8.438   0.690
16250SOL     OW65318   7.399   7.812   0.854
16250SOL    HW265319   7.336   7.792   0.923
16250SOL    HW365320   7.389   7.741   0.791
16250SOL    MW465321   7.389   7.799   0.855
16251SOL     OW65322   6.023   7.784   0.366
16251SOL    HW265323   5.997   7.746   0.282
16251SOL    HW365324   5.960   7.854   0.382
16251SOL    MW465325   6.012   7.787   0.357
16252SOL     OW65326   5.858   8.745   0.403
16252SOL    HW265327   5.806   8.813   0.359
16252SOL    HW365328   5.855   8.671   0.343
16252SOL    MW465329   5.850   8.744   0.390
16253SOL     OW65330   7.200   8.584   0.506
16253SOL    HW265331   7.110   8.584   0.541
16253SOL    HW365332   7.193   8.630   0.423
16253SOL    MW465333   7.187   8.590   0.500
16254SOL     OW65334   7.000   8.219   1.578
16254SOL    HW265335   7.069   8.157   1.555
16254SOL    HW365336   6.925   8.193   1.525
16254SOL    MW465337   7.000   8.206   1.569
16255SOL     OW65338   6.736   8.606   1.570
16255SOL    HW265339   6.721   8.699   1.555
16255SOL    HW365340   6.831   8.596   1.570
16255SOL    MW465341   6.745   8.616   1.567
16256SOL     OW65342   6.532   8.030   1.771
16256SOL    HW265343   6.622   8.031   1.738
16256SOL    HW365344   6.491   7.955   1.729
16256SOL    MW465345   6.538   8.020   1.762
16257SOL     OW65346   7.107   8.562   0.898
16257SOL    HW265347   7.110   8.496   0.829
16257SOL    HW365348   7.192   8.605   0.894
16257SOL    MW465349   7.119   8.558   0.889
16258SOL     OW65350   6.727   8.165   0.467
16258SOL    HW265351   6.753   8.189   0.378
16258SOL    HW365352   6.709   8.072   0.463
16258SOL    MW465353   6.729   8.157   0.454
16259SOL     OW65354   6.312   7.834   1.721
16259SOL    HW265355   6.322   7.760   1.661
16259SOL    HW365356   6.348   7.803   1.804
16259SOL    MW465357   6.318   7.820   1.723
16260SOL     OW65358   7.432   7.563   0.685
16260SOL    HW265359   7.486   7.514   0.747
16260SOL    HW365360   7.375   7.497   0.646
16260SOL    MW465361   7.432   7.547   0.687
16261SOL     OW65362   6.551   7.516   1.098
16261SOL    HW265363   6.510   7.594   1.060
16261SOL    HW365364   6.645   7.534   1.093
16261SOL    MW465365   6.557   7.528   1.093
16262SOL     OW65366   7.180   8.120   0.464
16262SOL    HW265367   7.219   8.120   0.551
16262SOL    HW365368   7.121   8.196   0.464
16262SOL    MW465369   7.177   8.131   0.475
16263SOL     OW65370   6.497   8.487   1.593
16263SOL    HW265371   6.474   8.467   1.683
16263SOL    HW365372   6.582   8.531   1.598
16263SOL    MW465373   6.504   8.490   1.605
16264SOL     OW65374   6.577   7.624   1.353
16264SOL    HW265375   6.583   7.586   1.266
16264SOL    HW365376   6.566   7.718   1.338
16264SOL    MW465377   6.578   7.632   1.341
16265SOL     OW65378   6.666   8.113   1.187
16265SOL    HW265379   6.741   8.142   1.134
16265SOL    HW365380   6.598   8.178   1.171
16265SOL    MW465381   6.667   8.125   1.177
16266SOL     OW65382   7.216   8.081   1.464
16266SOL    HW265383   7.197   7.990   1.443
16266SOL    HW365384   7.194   8.130   1.385
16266SOL    MW465385   7.211   8.074   1.451
16267SOL     OW65386   6.663   7.819   1.570
16267SOL    HW265387   6.629   7.858   1.489
16267SOL    HW365388   6.641   7.727   1.563
16267SOL    MW465389   6.656   7.812   1.560
16268SOL     OW65390   7.072   8.633   1.646
16268SOL    HW265391   7.154   8.674   1.676
16268SOL    HW365392   7.035   8.595   1.726
16268SOL    MW465393   7.078   8.634   1.661
16269SOL     OW65394   7.367   8.006   0.630
16269SOL    HW265395   7.456   7.975   0.647
16269SOL    HW365396   7.310   7.946   0.678
16269SOL    MW465397   7.370   7.994   0.639
16270SOL     OW65398   5.793   7.720   0.659
16270SOL    HW265399   5.784   7.660   0.585
16270SOL    HW365400   5.726   7.691   0.722
16270SOL    MW465401   5.783   7.707   0.657
16271SOL     OW65402   5.740   7.893   1.022
16271SOL    HW265403   5.712   7.984   1.031
16271SOL    HW365404   5.677   7.854   0.961
16271SOL    MW465405   5.727   7.899   1.016
16272SOL     OW65406   6.335   8.646   0.035
16272SOL    HW265407   6.257   8.592   0.022
16272SOL    HW365408   6.306   8.719   0.088
16272SOL    MW465409   6.321   8.648   0.040
16273SOL     OW65410   7.461   8.386   1.227
16273SOL    HW265411   7.477   8.424   1.140
16273SOL    HW365412   7.495   8.452   1.288
16273SOL    MW465413   7.468   8.399   1.223
16274SOL     OW65414   5.724   8.168   1.192
16274SOL    HW265415   5.786   8.198   1.258
16274SOL    HW365416   5.658   8.237   1.186
16274SOL    MW465417   5.723   8.181   1.199
16275SOL     OW65418   5.871   8.596   1.151
16275SOL    HW265419   5.924   8.671   1.176
16275SOL    HW365420   5.790   8.634   1.117
16275SOL    MW465421   5.867   8.611   1.151
16276SOL     OW65422   6.411   8.500   1.139
16276SOL    HW265423   6.439   8.409   1.151
16276SOL    HW365424   6.340   8.494   1.075
16276SOL    MW465425   6.404   8.488   1.134
16277SOL     OW65426   5.726   8.365   0.557
16277SOL    HW265427   5.817   8.380   0.584
16277SOL    HW365428   5.729   8.286   0.503
16277SOL    MW465429   5.738   8.357   0.555
16278SOL     OW65430   5.962   8.073   1.811
16278SOL    HW265431   5.909   8.153   1.818
16278SOL    HW365432   6.032   8.085   1.876
16278SOL    MW465433   5.964   8.086   1.819
16279SOL     OW65434   6.348   7.623   1.518
16279SOL    HW265435   6.325   7.531   1.520
16279SOL    HW365436   6.434   7.625   1.475
16279SOL    MW465437   6.355   7.613   1.514
16280SOL     OW65438   6.032   8.147   1.557
16280SOL    HW265439   6.112   8.197   1.543
16280SOL    HW365440   6.023   8.141   1.652
16280SOL    MW465441   6.041   8.153   1.567
16281SOL     OW65442   7.009   7.672   1.828
16281SOL    HW265443   7.065   7.599   1.854
16281SOL    HW365444   6.979   7.710   1.910
16281SOL    MW465445   7.013   7.667   1.841
16282SOL     OW65446   6.567   9.020   0.631
16282SOL    HW265447   6.650   8.974   0.615
16282SOL    HW365448   6.557   9.019   0.727
16282SOL    MW465449   6.577   9.013   0.641
16283SOL     OW65450   7.399   8.165   0.945
16283SOL    HW265451   7.488   8.195   0.927
16283SOL    HW365452   7.379   8.105   0.874
16283SOL    MW465453   7.408   8.162   0.934
16284SOL     OW65454   7.250   8.344   1.825
16284SOL    HW265455   7.305   8.268   1.806
16284SOL    HW365456   7.252   8.352   1.920
16284SOL    MW465457   7.258   8.335   1.833
16285SOL     OW65458   6.300   9.077   0.036
16285SOL    HW265459   6.240   9.146   0.006
16285SOL    HW365460   6.245   9.019   0.089
16285SOL    MW465461   6.284   9.079   0.038
16286SOL     OW65462   6.545   7.906   1.344
16286SOL    HW265463   6.464   7.947   1.372
16286SOL    HW365464   6.592   7.974   1.296
16286SOL    MW465465   6.540   7.921   1.342
16287SOL     OW65466   6.805   8.244   0.967
16287SOL    HW265467   6.818   8.338   0.977
16287SOL    HW365468   6.766   8.234   0.881
16287SOL    MW465469   6.801   8.255   0.957
16288SOL     OW65470   6.257   8.439   0.771
16288SOL    HW265471   6.168   8.430   0.804
16288SOL    HW365472   6.261   8.529   0.739
16288SOL    MW465473   6.246   8.450   0.771
16289SOL     OW65474   7.056   8.022   0.766
16289SOL    HW265475   7.001   7.943   0.765
16289SOL    HW365476   7.038   8.063   0.850
16289SOL    MW465477   7.046   8.017   0.775
16290SOL     OW65478   6.027   7.709   1.583
16290SOL    HW265479   5.948   7.727   1.635
16290SOL    HW365480   6.022   7.771   1.510
16290SOL    MW465481   6.017   7.719   1.580
16291SOL     OW65482   6.675   8.226   0.723
16291SOL    HW265483   6.612   8.158   0.747
16291SOL    HW365484   6.695   8.207   0.631
16291SOL    MW465485   6.669   8.213   0.715
16292SOL     OW65486   6.423   8.530   0.449
16292SOL    HW265487   6.425   8.504   0.356
16292SOL    HW365488   6.481   8.467   0.492
16292SOL    MW465489   6.431   8.519   0.443
16293SOL     OW65490   6.933   7.774   0.782
16293SOL    HW265491   6.961   7.706   0.843
16293SOL    HW365492   6.847   7.745   0.752
16293SOL    MW465493   6.926   7.761   0.786
16294SOL     OW65494   5.738   8.708   0.716
16294SOL    HW265495   5.802   8.740   0.779
16294SOL    HW365496   5.787   8.644   0.664
16294SOL    MW465497   5.753   8.704   0.717
16295SOL     OW65498   5.992   7.531   1.789
16295SOL    HW265499   5.920   7.496   1.737
16295SOL    HW365500   6.050   7.572   1.724
16295SOL    MW465501   5.990   7.532   1.774
16296SOL     OW65502   7.456   8.550   1.442
16296SOL    HW265503   7.371   8.563   1.401
16296SOL    HW365504   7.436   8.514   1.529
16296SOL    MW465505   7.443   8.546   1.447
16297SOL     OW65506   6.080   8.472   0.051
16297SOL    HW265507   6.003   8.485   0.107
16297SOL    HW365508   6.044   8.436  -0.030
16297SOL    MW465509   6.066   8.468   0.048
16298SOL     OW65510   6.233   8.794   0.986
16298SOL    HW265511   6.226   8.773   1.080
16298SOL    HW365512   6.151   8.762   0.949
16298SOL    MW465513   6.221   8.788   0.993
16299SOL     OW65514   7.097   7.804   1.388
16299SOL    HW265515   7.044   7.806   1.468
16299SOL    HW365516   7.082   7.717   1.351
16299SOL    MW465517   7.089   7.794   1.393
16300SOL     OW65518   7.433   7.728   1.261
16300SOL    HW265519   7.414   7.795   1.196
16300SOL    HW365520   7.490   7.666   1.216
16300SOL    MW465521   7.437   7.729   1.247
16301SOL     OW65522   6.362   7.561   0.701
16301SOL    HW265523   6.291   7.622   0.683
16301SOL    HW365524   6.413   7.558   0.620
16301SOL    MW465525   6.358   7.567   0.688
16302SOL     OW65526   6.120   8.801   0.450
16302SOL    HW265527   6.113   8.833   0.540
16302SOL    HW365528   6.030   8.785   0.422
16302SOL    MW465529   6.108   8.803   0.457
16303SOL     OW65530   6.322   8.218   1.831
16303SOL    HW265531   6.392   8.160   1.803
16303SOL    HW365532   6.265   8.163   1.886
16303SOL    MW465533   6.324   8.205   1.835
16304SOL     OW65534   7.109   8.430   1.464
16304SOL    HW265535   7.114   8.483   1.544
16304SOL    HW365536   7.071   8.347   1.492
16304SOL    MW465537   7.105   8.425   1.479
16305SOL     OW65538   6.749   7.565   1.710
16305SOL    HW265539   6.744   7.472   1.691
16305SOL    HW365540   6.832   7.576   1.756
16305SOL    MW465541   6.757   7.554   1.714
16306SOL     OW65542   6.123   8.085   0.164
16306SOL    HW265543   6.089   8.141   0.234
16306SOL    HW365544   6.194   8.035   0.204
16306SOL    MW465545   6.129   8.086   0.178
16307SOL     OW65546   7.219   8.836   0.986
16307SOL    HW265547   7.254   8.818   0.899
16307SOL    HW365548   7.124   8.837   0.973
16307SOL    MW465549   7.211   8.833   0.973
16308SOL     OW65550   6.648   8.484   1.355
16308SOL    HW265551   6.691   8.519   1.433
16308SOL    HW365552   6.631   8.561   1.301
16308SOL    MW465553   6.651   8.499   1.358
16309SOL     OW65554   6.039   7.626   0.657
16309SOL    HW265555   6.089   7.669   0.588
16309SOL    HW365556   5.954   7.670   0.657
16309SOL    MW465557   6.036   7.639   0.648
16310SOL     OW65558   5.798   8.688   1.517
16310SOL    HW265559   5.826   8.641   1.595
16310SOL    HW365560   5.719   8.643   1.488
16310SOL    MW465561   5.791   8.677   1.523
16311SOL     OW65562   6.306   8.015   1.484
16311SOL    HW265563   6.278   8.103   1.508
16311SOL    HW365564   6.275   7.959   1.555
16311SOL    MW465565   6.298   8.018   1.496
16312SOL     OW65566   6.848   8.233   0.203
16312SOL    HW265567   6.895   8.251   0.122
16312SOL    HW365568   6.814   8.317   0.231
16312SOL    MW465569   6.850   8.247   0.196
16313SOL     OW65570   5.961   8.411   0.697
16313SOL    HW265571   6.019   8.467   0.645
16313SOL    HW365572   6.005   8.326   0.699
16313SOL    MW465573   5.974   8.408   0.690
16314SOL     OW65574   7.101   7.763   0.534
16314SOL    HW265575   7.023   7.713   0.559
16314SOL    HW365576   7.072   7.854   0.534
16314SOL    MW465577   7.087   7.767   0.537
16315SOL     OW65578   6.687   7.725   0.693
16315SOL    HW265579   6.707   7.800   0.637
16315SOL    HW365580   6.667   7.764   0.778
16315SOL    MW465581   6.688   7.741   0.697
16316SOL     OW65582   6.583   8.975   0.025
16316SOL    HW265583   6.610   9.053  -0.023
16316SOL    HW365584   6.490   8.990   0.044
16316SOL    MW465585   6.574   8.988   0.021
16317SOL     OW65586   7.447   8.498   1.712
16317SOL    HW265587   7.360   8.478   1.748
16317SOL    HW365588   7.501   8.424   1.737
16317SOL    MW465589   7.442   8.487   1.720
16318SOL     OW65590   5.623   8.137   0.416
16318SOL    HW265591   5.563   8.109   0.486
16318SOL    HW365592   5.697   8.077   0.422
16318SOL    MW465593   5.625   8.126   0.425
16319SOL     OW65594   6.049   7.876   1.305
16319SOL    HW265595   6.082   7.957   1.345
16319SOL    HW365596   6.022   7.902   1.217
16319SOL    MW465597   6.048   7.890   1.299
16320SOL     OW65598   6.003   7.843   1.041
16320SOL    HW265599   6.033   7.757   1.012
16320SOL    HW365600   5.908   7.836   1.044
16320SOL    MW465601   5.995   7.832   1.039
16321SOL     OW65602   6.832   8.052   1.732
16321SOL    HW265603   6.884   7.987   1.685
16321SOL    HW365604   6.790   8.103   1.662
16321SOL    MW465605   6.833   8.049   1.715
16322SOL     OW65606   6.931   7.847   1.593
16322SOL    HW265607   6.838   7.831   1.580
16322SOL    HW365608   6.957   7.785   1.661
16322SOL    MW465609   6.921   7.837   1.600
16323SOL     OW65610   6.146   7.621   0.932
16323SOL    HW265611   6.156   7.530   0.958
16323SOL    HW365612   6.102   7.617   0.847
16323SOL    MW465613   6.142   7.609   0.924
16324SOL     OW65614   7.297   7.943   1.103
16324SOL    HW265615   7.230   7.976   1.163
16324SOL    HW365616   7.340   8.021   1.069
16324SOL    MW465617   7.295   7.958   1.107
16325SOL     OW65618   7.475   8.663   1.073
16325SOL    HW265619   7.468   8.603   0.998
16325SOL    HW365620   7.401   8.723   1.062
16325SOL    MW465621   7.465   8.663   1.062
16326SOL     OW65622   6.857   8.525   0.991
16326SOL    HW265623   6.871   8.497   1.082
16326SOL    HW365624   6.943   8.556   0.963
16326SOL    MW465625   6.870   8.526   1.000
16327SOL     OW65626   6.940   8.020   1.270
16327SOL    HW265627   6.961   8.021   1.177
16327SOL    HW365628   6.985   7.942   1.303
16327SOL    MW465629   6.947   8.010   1.262
16328SOL     OW65630   7.433   8.151   1.812
16328SOL    HW265631   7.470   8.096   1.881
16328SOL    HW365632   7.458   8.108   1.730
16328SOL    MW465633   7.440   8.139   1.811
16329SOL     OW65634   6.980   8.449   1.863
16329SOL    HW265635   7.046   8.397   1.817
16329SOL    HW365636   7.000   8.436   1.956
16329SOL    MW465637   6.991   8.440   1.870
16330SOL     OW65638   6.991   8.310   0.490
16330SOL    HW265639   6.906   8.280   0.460
16330SOL    HW365640   6.983   8.317   0.585
16330SOL    MW465641   6.979   8.308   0.499
16331SOL     OW65642   6.351   7.753   1.044
16331SOL    HW265643   6.324   7.755   1.135
16331SOL    HW365644   6.281   7.705   0.999
16331SOL    MW465645   6.339   7.749   1.051
16332SOL     OW65646   7.107   8.830   1.438
16332SOL    HW265647   7.092   8.759   1.501
16332SOL    HW365648   7.153   8.788   1.366
16332SOL    MW465649   7.113   8.814   1.438
16333SOL     OW65650   6.181   8.561   1.555
16333SOL    HW265651   6.218   8.566   1.467
16333SOL    HW365652   6.220   8.634   1.602
16333SOL    MW465653   6.191   8.571   1.550
16334SOL     OW65654   6.361   8.604   1.367
16334SOL    HW265655   6.420   8.550   1.420
16334SOL    HW365656   6.376   8.576   1.277
16334SOL    MW465657   6.371   8.593   1.363
16335SOL     OW65658   6.832   7.572   1.130
16335SOL    HW265659   6.887   7.581   1.052
16335SOL    HW365660   6.887   7.606   1.201
16335SOL    MW465661   6.846   7.577   1.129
16336SOL     OW65662   5.839   8.485   0.314
16336SOL    HW265663   5.776   8.501   0.243
16336SOL    HW365664   5.786   8.448   0.385
16336SOL    MW465665   5.824   8.482   0.314
16337SOL     OW65666   6.195   8.839   0.173
16337SOL    HW265667   6.210   8.815   0.265
16337SOL    HW365668   6.103   8.817   0.157
16337SOL    MW465669   6.185   8.832   0.183
16338SOL     OW65670   6.610   8.706   1.137
16338SOL    HW265671   6.542   8.640   1.153
16338SOL    HW365672   6.628   8.700   1.044
16338SOL    MW465673   6.603   8.697   1.128
16339SOL     OW65674   6.603   7.845   0.958
16339SOL    HW265675   6.533   7.797   1.003
16339SOL    HW365676   6.635   7.908   1.022
16339SOL    MW465677   6.598   7.847   0.972
16340SOL     OW65678   6.254   8.281   1.578
16340SOL    HW265679   6.247   8.376   1.566
16340SOL    HW365680   6.263   8.270   1.673
16340SOL    MW465681   6.255   8.293   1.588
16341SOL     OW65682   7.059   7.559   1.303
16341SOL    HW265683   7.130   7.505   1.267
16341SOL    HW365684   7.058   7.538   1.396
16341SOL    MW465685   7.068   7.550   1.311
16342SOL     OW65686   6.070   7.951   0.771
16342SOL    HW265687   6.141   7.899   0.734
16342SOL    HW365688   6.056   7.916   0.858
16342SOL    MW465689   6.078   7.940   0.778
16343SOL     OW65690   6.706   7.892   0.495
16343SOL    HW265691   6.728   7.829   0.427
16343SOL    HW365692   6.611   7.884   0.506
16343SOL    MW465693   6.696   7.883   0.487
16344SOL     OW65694   5.791   7.582   0.427
16344SOL    HW265695   5.862   7.603   0.366
16344SOL    HW365696   5.745   7.510   0.385
16344SOL    MW465697   5.795   7.576   0.413
16345SOL     OW65698   5.622   8.049   1.570
16345SOL    HW265699   5.686   8.115   1.545
16345SOL    HW365700   5.541   8.076   1.527
16345SOL    MW465701   5.620   8.061   1.562
16346SOL     OW65702   6.916   8.633   0.457
16346SOL    HW265703   6.888   8.719   0.490
16346SOL    HW365704   6.944   8.649   0.367
16346SOL    MW465705   6.916   8.647   0.449
16347SOL     OW65706   6.578   7.553   0.510
16347SOL    HW265707   6.615   7.612   0.575
16347SOL    HW365708   6.555   7.609   0.436
16347SOL    MW465709   6.579   7.568   0.509
16348SOL     OW65710   7.431   8.435   0.932
16348SOL    HW265711   7.422   8.467   0.843
16348SOL    HW365712   7.384   8.351   0.932
16348SOL    MW465713   7.424   8.428   0.922
16349SOL     OW65714   5.807   8.275   1.511
16349SOL    HW265715   5.828   8.344   1.449
16349SOL    HW365716   5.887   8.222   1.516
16349SOL    MW465717   5.820   8.276   1.505
16350SOL     OW65718   7.343   8.366   0.633
16350SOL    HW265719   7.437   8.355   0.621
16350SOL    HW365720   7.319   8.438   0.574
16350SOL    MW465721   7.353   8.374   0.624
16351SOL     OW65722   5.792   8.290   1.778
16351SOL    HW265723   5.718   8.234   1.804
16351SOL    HW365724   5.787   8.293   1.683
16351SOL    MW465725   5.781   8.283   1.768
16352SOL     OW65726   5.958   7.577   1.228
16352SOL    HW265727   6.001   7.661   1.248
16352SOL    HW365728   6.031   7.515   1.221
16352SOL    MW465729   5.973   7.580   1.229
16353SOL     OW65730   5.999   8.244   0.406
16353SOL    HW265731   5.999   8.339   0.391
16353SOL    HW365732   6.076   8.228   0.460
16353SOL    MW465733   6.009   8.255   0.411
16354SOL     OW65734   6.775   8.103   1.470
16354SOL    HW265735   6.811   8.076   1.386
16354SOL    HW365736   6.688   8.137   1.449
16354SOL    MW465737   6.769   8.104   1.457
16355SOL     OW65738   5.758   7.975   0.695
16355SOL    HW265739   5.820   7.982   0.768
16355SOL    HW365740   5.758   7.882   0.672
16355SOL    MW465741   5.766   7.964   0.702
16356SOL     OW65742   6.440   8.236   1.179
16356SOL    HW265743   6.398   8.154   1.155
16356SOL    HW365744   6.441   8.235   1.275
16356SOL    MW465745   6.433   8.225   1.188
16357SOL     OW65746   6.244   7.706   1.284
16357SOL    HW265747   6.175   7.769   1.305
16357SOL    HW365748   6.271   7.670   1.369
16357SOL    MW465749   6.238   7.709   1.297
16358SOL     OW65750   5.627   8.547   0.153
16358SOL    HW265751   5.596   8.612   0.216
16358SOL    HW365752   5.576   8.469   0.172
16358SOL    MW465753   5.617   8.544   0.163
16359SOL     OW65754   7.039   7.559   0.901
16359SOL    HW265755   7.127   7.568   0.938
16359SOL    HW365756   7.049   7.500   0.827
16359SOL    MW465757   7.053   7.553   0.895
16360SOL     OW65758   7.071   8.298   0.745
16360SOL    HW265759   7.151   8.313   0.694
16360SOL    HW365760   7.064   8.203   0.751
16360SOL    MW465761   7.080   8.287   0.740
16361SOL     OW65762   6.521   8.224   1.442
16361SOL    HW265763   6.590   8.291   1.439
16361SOL    HW365764   6.454   8.262   1.498
16361SOL    MW465765   6.522   8.237   1.449
16362SOL     OW65766   5.939   8.524   1.690
16362SOL    HW265767   5.893   8.440   1.692
16362SOL    HW365768   5.996   8.518   1.614
16362SOL    MW465769   5.941   8.512   1.682
16363SOL     OW65770   6.190   8.899   0.691
16363SOL    HW265771   6.255   8.832   0.712
16363SOL    HW365772   6.242   8.976   0.668
16363SOL    MW465773   6.205   8.901   0.690
16364SOL     OW65774   6.451   8.064   0.821
16364SOL    HW265775   6.391   8.082   0.893
16364SOL    HW365776   6.485   7.976   0.840
16364SOL    MW465777   6.447   8.054   0.834
16365SOL     OW65778   7.392   7.563   1.490
16365SOL    HW265779   7.313   7.609   1.518
16365SOL    HW365780   7.427   7.617   1.419
16365SOL    MW465781   7.386   7.576   1.484
16366SOL     OW65782   6.676   8.647   0.840
16366SOL    HW265783   6.768   8.628   0.858
16366SOL    HW365784   6.649   8.577   0.780
16366SOL    MW465785   6.684   8.635   0.834
16367SOL     OW65786   5.882   8.191   0.974
16367SOL    HW265787   5.832   8.190   1.055
16367SOL    HW365788   5.902   8.283   0.958
16367SOL    MW465789   5.878   8.203   0.982
16368SOL     OW65790   6.949   8.955   1.736
16368SOL    HW265791   6.949   9.049   1.752
16368SOL    HW365792   6.994   8.945   1.652
16368SOL    MW465793   6.955   8.965   1.727
16369SOL     OW65794   7.188   7.673   0.297
16369SOL    HW265795   7.181   7.677   0.392
16369SOL    HW365796   7.200   7.764   0.270
16369SOL    MW465797   7.189   7.686   0.305
16370SOL     OW65798   5.804   7.859   1.715
16370SOL    HW265799   5.761   7.918   1.652
16370SOL    HW365800   5.872   7.914   1.755
16370SOL    MW465801   5.808   7.874   1.712
16371SOL     OW65802   6.916   8.479   1.260
16371SOL    HW265803   6.979   8.476   1.333
16371SOL    HW365804   6.832   8.497   1.302
16371SOL    MW465805   6.912   8.481   1.275
16372SOL     OW65806   7.255   7.656   1.039
16372SOL    HW265807   7.300   7.574   1.058
16372SOL    HW365808   7.275   7.712   1.115
16372SOL    MW465809   7.265   7.652   1.051
16373SOL     OW65810   5.703   7.499   1.138
16373SOL    HW265811   5.694   7.500   1.043
16373SOL    HW365812   5.797   7.511   1.153
16373SOL    MW465813   5.715   7.502   1.129
16374SOL     OW65814   7.340   8.692   0.758
16374SOL    HW265815   7.319   8.638   0.681
16374SOL    HW365816   7.436   8.690   0.762
16374SOL    MW465817   7.349   8.685   0.747
16375SOL     OW65818   6.032   8.837   1.501
16375SOL    HW265819   5.953   8.787   1.524
16375SOL    HW365820   6.102   8.796   1.551
16375SOL    MW465821   6.030   8.825   1.511
16376SOL     OW65822   5.916   7.626   0.184
16376SOL    HW265823   5.845   7.681   0.152
16376SOL    HW365824   5.958   7.592   0.105
16376SOL    MW465825   5.912   7.628   0.170
16377SOL     OW65826   7.040   8.123   1.020
16377SOL    HW265827   6.963   8.169   0.986
16377SOL    HW365828   7.097   8.192   1.054
16377SOL    MW465829   7.037   8.138   1.020
16378SOL     OW65830   5.672   7.725   0.033
16378SOL    HW265831   5.639   7.804   0.077
16378SOL    HW365832   5.727   7.758  -0.038
16378SOL    MW465833   5.675   7.739   0.030
16379SOL     OW65834   7.341   8.339   2.125
16379SOL    HW265835   7.382   8.281   2.190
16379SOL    HW365836   7.248   8.331   2.142
16379SOL    MW465837   7.335   8.331   2.135
16380SOL     OW65838   7.207   8.271   3.120
16380SOL    HW265839   7.162   8.338   3.171
16380SOL    HW365840   7.295   8.307   3.106
16380SOL    MW465841   7.213   8.284   3.124
16381SOL     OW65842   6.135   8.522   2.354
16381SOL    HW265843   6.225   8.497   2.338
16381SOL    HW365844   6.131   8.615   2.331
16381SOL    MW465845   6.147   8.531   2.349
16382SOL     OW65846   7.187   8.665   3.101
16382SOL    HW265847   7.108   8.630   3.059
16382SOL    HW365848   7.214   8.737   3.045
16382SOL    MW465849   7.180   8.670   3.088
16383SOL     OW65850   6.419   7.978   2.367
16383SOL    HW265851   6.394   8.066   2.395
16383SOL    HW365852   6.416   7.981   2.271
16383SOL    MW465853   6.415   7.990   2.359
16384SOL     OW65854   5.861   8.006   2.295
16384SOL    HW265855   5.893   8.094   2.277
16384SOL    HW365856   5.849   8.004   2.390
16384SOL    MW465857   5.864   8.018   2.307
16385SOL     OW65858   5.939   8.419   3.196
16385SOL    HW265859   6.002   8.366   3.147
16385SOL    HW365860   5.920   8.493   3.139
16385SOL    MW465861   5.945   8.421   3.183
16386SOL     OW65862   6.260   7.761   2.382
16386SOL    HW265863   6.318   7.837   2.384
16386SOL    HW365864   6.195   7.782   2.315
16386SOL    MW465865   6.259   7.773   2.373
16387SOL     OW65866   6.347   8.688   2.557
16387SOL    HW265867   6.427   8.691   2.609
16387SOL    HW365868   6.375   8.655   2.471
16387SOL    MW465869   6.361   8.684   2.552
16388SOL     OW65870   6.372   9.029   3.460
16388SOL    HW265871   6.456   9.055   3.499
16388SOL    HW365872   6.396   8.973   3.386
16388SOL    MW465873   6.386   9.025   3.455
16389SOL     OW65874   6.124   8.192   2.548
16389SOL    HW265875   6.109   8.112   2.599
16389SOL    HW365876   6.206   8.227   2.582
16389SOL    MW465877   6.132   8.184   2.560
16390SOL     OW65878   6.266   8.018   2.925
16390SOL    HW265879   6.172   8.014   2.943
16390SOL    HW365880   6.296   7.927   2.934
16390SOL    MW465881   6.257   8.006   2.928
16391SOL     OW65882   6.012   8.432   2.829
16391SOL    HW265883   5.967   8.439   2.745
16391SOL    HW365884   5.992   8.515   2.873
16391SOL    MW465885   6.004   8.444   2.823
16392SOL     OW65886   6.974   8.670   2.073
16392SOL    HW265887   6.892   8.706   2.039
16392SOL    HW365888   7.042   8.713   2.022
16392SOL    MW465889   6.972   8.680   2.061
16393SOL     OW65890   5.973   8.805   2.739
16393SOL    HW265891   5.949   8.858   2.815
16393SOL    HW365892   6.029   8.863   2.687
16393SOL    MW465893   5.977   8.820   2.742
16394SOL     OW65894   6.535   8.449   2.549
16394SOL    HW265895   6.449   8.436   2.589
16394SOL    HW365896   6.588   8.376   2.581
16394SOL    MW465897   6.531   8.438   2.558
16395SOL     OW65898   6.526   8.811   2.266
16395SOL    HW265899   6.503   8.873   2.334
16395SOL    HW365900   6.483   8.729   2.292
16395SOL    MW465901   6.518   8.807   2.277
16396SOL     OW65902   7.399   7.812   2.722
16396SOL    HW265903   7.336   7.792   2.791
16396SOL    HW365904   7.389   7.741   2.659
16396SOL    MW465905   7.389   7.799   2.723
16397SOL     OW65906   6.023   7.784   2.234
16397SOL    HW265907   5.997   7.746   2.150
16397SOL    HW365908   5.960   7.854   2.250
16397SOL    MW465909   6.012   7.787   2.225
16398SOL     OW65910   5.858   8.745   2.271
16398SOL    HW265911   5.806   8.813   2.227
16398SOL    HW365912   5.855   8.671   2.211
16398SOL    MW465913   5.850   8.744   2.258
16399SOL     OW65914   7.455   7.981   2.024
16399SOL    HW265915   7.364   7.983   2.052
16399SOL    HW365916   7.500   8.043   2.082
16399SOL    MW465917   7.448   7.989   2.034
16400SOL     OW65918   7.200   8.584   2.374
16400SOL    HW265919   7.110   8.584   2.409
16400SOL    HW365920   7.193   8.630   2.291
16400SOL    MW465921   7.187   8.590   2.368
16401SOL     OW65922   7.000   8.219   3.446
16401SOL    HW265923   7.069   8.157   3.423
16401SOL    HW365924   6.925   8.193   3.393
16401SOL    MW465925   7.000   8.206   3.437
16402SOL     OW65926   6.736   8.606   3.438
16402SOL    HW265927   6.721   8.699   3.423
16402SOL    HW365928   6.831   8.596   3.438
16402SOL    MW465929   6.745   8.616   3.435
16403SOL     OW65930   6.532   8.030   3.639
16403SOL    HW265931   6.622   8.031   3.606
16403SOL    HW365932   6.491   7.955   3.597
16403SOL    MW465933   6.538   8.020   3.630
16404SOL     OW65934   7.107   8.562   2.766
16404SOL    HW265935   7.110   8.496   2.697
16404SOL    HW365936   7.192   8.605   2.762
16404SOL    MW465937   7.119   8.558   2.757
16405SOL     OW65938   6.727   8.165   2.335
16405SOL    HW265939   6.753   8.189   2.246
16405SOL    HW365940   6.709   8.072   2.331
16405SOL    MW465941   6.729   8.157   2.322
16406SOL     OW65942   7.392   8.785   2.186
16406SOL    HW265943   7.348   8.826   2.261
16406SOL    HW365944   7.449   8.853   2.151
16406SOL    MW465945   7.394   8.799   2.191
16407SOL     OW65946   6.312   7.834   3.589
16407SOL    HW265947   6.322   7.760   3.529
16407SOL    HW365948   6.348   7.803   3.672
16407SOL    MW465949   6.318   7.820   3.591
16408SOL     OW65950   7.432   7.563   2.553
16408SOL    HW265951   7.486   7.514   2.615
16408SOL    HW365952   7.375   7.497   2.514
16408SOL    MW465953   7.432   7.547   2.555
16409SOL     OW65954   6.551   7.516   2.966
16409SOL    HW265955   6.510   7.594   2.928
16409SOL    HW365956   6.645   7.534   2.961
16409SOL    MW465957   6.557   7.528   2.961
16410SOL     OW65958   6.566   8.194   1.996
16410SOL    HW265959   6.568   8.141   1.917
16410SOL    HW365960   6.654   8.231   2.002
16410SOL    MW465961   6.578   8.193   1.985
16411SOL     OW65962   7.180   8.120   2.332
16411SOL    HW265963   7.219   8.120   2.419
16411SOL    HW365964   7.121   8.196   2.332
16411SOL    MW465965   7.177   8.131   2.343
16412SOL     OW65966   6.497   8.487   3.461
16412SOL    HW265967   6.474   8.467   3.551
16412SOL    HW365968   6.582   8.531   3.466
16412SOL    MW465969   6.504   8.490   3.473
16413SOL     OW65970   6.577   7.624   3.221
16413SOL    HW265971   6.583   7.586   3.134
16413SOL    HW365972   6.566   7.718   3.206
16413SOL    MW465973   6.578   7.632   3.209
16414SOL     OW65974   6.666   8.113   3.055
16414SOL    HW265975   6.741   8.142   3.002
16414SOL    HW365976   6.598   8.178   3.039
16414SOL    MW465977   6.667   8.125   3.045
16415SOL     OW65978   7.216   8.081   3.332
16415SOL    HW265979   7.197   7.990   3.311
16415SOL    HW365980   7.194   8.130   3.253
16415SOL    MW465981   7.211   8.074   3.319
16416SOL     OW65982   6.663   7.819   3.438
16416SOL    HW265983   6.629   7.858   3.357
16416SOL    HW365984   6.641   7.727   3.431
16416SOL    MW465985   6.656   7.812   3.428
16417SOL     OW65986   7.072   8.633   3.514
16417SOL    HW265987   7.154   8.674   3.544
16417SOL    HW365988   7.035   8.595   3.594
16417SOL    MW465989   7.078   8.634   3.529
16418SOL     OW65990   7.367   8.006   2.498
16418SOL    HW265991   7.456   7.975   2.515
16418SOL    HW365992   7.310   7.946   2.546
16418SOL    MW465993   7.370   7.994   2.507
16419SOL     OW65994   5.793   7.720   2.527
16419SOL    HW265995   5.784   7.660   2.453
16419SOL    HW365996   5.726   7.691   2.590
16419SOL    MW465997   5.783   7.707   2.525
16420SOL     OW65998   6.736   8.813   2.088
16420SOL    HW265999   6.686   8.815   2.170
16420SOL    HW366000   6.670   8.831   2.020
16420SOL    MW466001   6.722   8.815   2.090
16421SOL     OW66002   5.740   7.893   2.890
16421SOL    HW266003   5.712   7.984   2.899
16421SOL    HW366004   5.677   7.854   2.829
16421SOL    MW466005   5.727   7.899   2.884
16422SOL     OW66006   6.335   8.646   1.903
16422SOL    HW266007   6.257   8.592   1.890
16422SOL    HW366008   6.306   8.719   1.956
16422SOL    MW466009   6.321   8.648   1.908
16423SOL     OW66010   7.461   8.386   3.095
16423SOL    HW266011   7.477   8.424   3.008
16423SOL    HW366012   7.495   8.452   3.156
16423SOL    MW466013   7.468   8.399   3.091
16424SOL     OW66014   5.724   8.168   3.060
16424SOL    HW266015   5.786   8.198   3.126
16424SOL    HW366016   5.658   8.237   3.054
16424SOL    MW466017   5.723   8.181   3.067
16425SOL     OW66018   6.365   7.725   1.968
16425SOL    HW266019   6.313   7.645   1.956
16425SOL    HW366020   6.452   7.702   1.936
16425SOL    MW466021   6.368   7.711   1.962
16426SOL     OW66022   5.871   8.596   3.019
16426SOL    HW266023   5.924   8.671   3.044
16426SOL    HW366024   5.790   8.634   2.985
16426SOL    MW466025   5.867   8.611   3.019
16427SOL     OW66026   6.411   8.500   3.007
16427SOL    HW266027   6.439   8.409   3.019
16427SOL    HW366028   6.340   8.494   2.943
16427SOL    MW466029   6.404   8.488   3.002
16428SOL     OW66030   5.726   8.365   2.425
16428SOL    HW266031   5.817   8.380   2.452
16428SOL    HW366032   5.729   8.286   2.371
16428SOL    MW466033   5.738   8.357   2.423
16429SOL     OW66034   5.962   8.073   3.679
16429SOL    HW266035   5.909   8.153   3.686
16429SOL    HW366036   6.032   8.085   3.744
16429SOL    MW466037   5.964   8.086   3.687
16430SOL     OW66038   6.348   7.623   3.386
16430SOL    HW266039   6.325   7.531   3.388
16430SOL    HW366040   6.434   7.625   3.343
16430SOL    MW466041   6.355   7.613   3.382
16431SOL     OW66042   6.032   8.147   3.425
16431SOL    HW266043   6.112   8.197   3.411
16431SOL    HW366044   6.023   8.141   3.520
16431SOL    MW466045   6.041   8.153   3.435
16432SOL     OW66046   7.009   7.672   3.696
16432SOL    HW266047   7.065   7.599   3.722
16432SOL    HW366048   6.979   7.710   3.778
16432SOL    MW466049   7.013   7.667   3.709
16433SOL     OW66050   6.567   9.020   2.499
16433SOL    HW266051   6.650   8.974   2.483
16433SOL    HW366052   6.557   9.019   2.595
16433SOL    MW466053   6.577   9.013   2.509
16434SOL     OW66054   7.399   8.165   2.813
16434SOL    HW266055   7.488   8.195   2.795
16434SOL    HW366056   7.379   8.105   2.742
16434SOL    MW466057   7.408   8.162   2.802
16435SOL     OW66058   7.250   8.344   3.693
16435SOL    HW266059   7.305   8.268   3.674
16435SOL    HW366060   7.252   8.352   3.788
16435SOL    MW466061   7.258   8.335   3.701
16436SOL     OW66062   6.738   7.722   2.127
16436SOL    HW266063   6.671   7.698   2.064
16436SOL    HW366064   6.803   7.771   2.076
16436SOL    MW466065   6.738   7.724   2.112
16437SOL     OW66066   6.545   7.906   3.212
16437SOL    HW266067   6.464   7.947   3.240
16437SOL    HW366068   6.592   7.974   3.164
16437SOL    MW466069   6.540   7.921   3.210
16438SOL     OW66070   6.805   8.244   2.835
16438SOL    HW266071   6.818   8.338   2.845
16438SOL    HW366072   6.766   8.234   2.749
16438SOL    MW466073   6.801   8.255   2.825
16439SOL     OW66074   6.257   8.439   2.639
16439SOL    HW266075   6.168   8.430   2.672
16439SOL    HW366076   6.261   8.529   2.607
16439SOL    MW466077   6.246   8.450   2.639
16440SOL     OW66078   7.056   8.022   2.634
16440SOL    HW266079   7.001   7.943   2.633
16440SOL    HW366080   7.038   8.063   2.718
16440SOL    MW466081   7.046   8.017   2.643
16441SOL     OW66082   6.027   7.709   3.451
16441SOL    HW266083   5.948   7.727   3.503
16441SOL    HW366084   6.022   7.771   3.378
16441SOL    MW466085   6.017   7.719   3.448
16442SOL     OW66086   6.675   8.226   2.591
16442SOL    HW266087   6.612   8.158   2.615
16442SOL    HW366088   6.695   8.207   2.499
16442SOL    MW466089   6.669   8.213   2.583
16443SOL     OW66090   6.423   8.530   2.317
16443SOL    HW266091   6.425   8.504   2.224
16443SOL    HW366092   6.481   8.467   2.360
16443SOL    MW466093   6.431   8.519   2.311
16444SOL     OW66094   6.933   7.774   2.650
16444SOL    HW266095   6.961   7.706   2.711
16444SOL    HW366096   6.847   7.745   2.620
16444SOL    MW466097   6.926   7.761   2.654
16445SOL     OW66098   5.738   8.708   2.584
16445SOL    HW266099   5.802   8.740   2.647
16445SOL    HW366100   5.787   8.644   2.532
16445SOL    MW466101   5.753   8.704   2.585
16446SOL     OW66102   6.913   7.878   1.985
16446SOL    HW266103   6.886   7.944   1.921
16446SOL    HW366104   6.983   7.921   2.035
16446SOL    MW466105   6.918   7.891   1.982
16447SOL     OW66106   6.581   7.583   1.922
16447SOL    HW266107   6.637   7.575   1.844
16447SOL    HW366108   6.558   7.493   1.944
16447SOL    MW466109   6.586   7.570   1.915
16448SOL     OW66110   7.086   8.434   2.127
16448SOL    HW266111   7.053   8.523   2.117
16448SOL    HW366112   7.051   8.405   2.212
16448SOL    MW466113   7.076   8.443   2.138
16449SOL     OW66114   5.992   7.531   3.657
16449SOL    HW266115   5.920   7.496   3.605
16449SOL    HW366116   6.050   7.572   3.592
16449SOL    MW466117   5.990   7.532   3.642
16450SOL     OW66118   7.456   8.550   3.310
16450SOL    HW266119   7.371   8.563   3.269
16450SOL    HW366120   7.436   8.514   3.397
16450SOL    MW466121   7.443   8.546   3.315
16451SOL     OW66122   6.080   8.472   1.919
16451SOL    HW266123   6.003   8.485   1.975
16451SOL    HW366124   6.044   8.436   1.838
16451SOL    MW466125   6.066   8.468   1.916
16452SOL     OW66126   6.733   8.445   2.162
16452SOL    HW266127   6.643   8.466   2.137
16452SOL    HW366128   6.760   8.518   2.218
16452SOL    MW466129   6.725   8.457   2.165
16453SOL     OW66130   6.233   8.794   2.854
16453SOL    HW266131   6.226   8.773   2.948
16453SOL    HW366132   6.151   8.762   2.817
16453SOL    MW466133   6.221   8.788   2.861
16454SOL     OW66134   7.097   7.804   3.256
16454SOL    HW266135   7.044   7.806   3.336
16454SOL    HW366136   7.082   7.717   3.219
16454SOL    MW466137   7.089   7.794   3.261
16455SOL     OW66138   7.433   7.728   3.129
16455SOL    HW266139   7.414   7.795   3.064
16455SOL    HW366140   7.490   7.666   3.084
16455SOL    MW466141   7.437   7.729   3.115
16456SOL     OW66142   6.362   7.561   2.569
16456SOL    HW266143   6.291   7.622   2.551
16456SOL    HW366144   6.413   7.558   2.488
16456SOL    MW466145   6.358   7.567   2.556
16457SOL     OW66146   6.120   8.801   2.318
16457SOL    HW266147   6.113   8.833   2.408
16457SOL    HW366148   6.030   8.785   2.290
16457SOL    MW466149   6.108   8.803   2.325
16458SOL     OW66150   6.322   8.218   3.699
16458SOL    HW266151   6.392   8.160   3.671
16458SOL    HW366152   6.265   8.163   3.754
16458SOL    MW466153   6.324   8.205   3.703
16459SOL     OW66154   7.109   8.430   3.332
16459SOL    HW266155   7.114   8.483   3.412
16459SOL    HW366156   7.071   8.347   3.360
16459SOL    MW466157   7.105   8.425   3.347
16460SOL     OW66158   6.749   7.565   3.578
16460SOL    HW266159   6.744   7.472   3.559
16460SOL    HW366160   6.832   7.576   3.624
16460SOL    MW466161   6.757   7.554   3.582
16461SOL     OW66162   6.123   8.085   2.032
16461SOL    HW266163   6.089   8.141   2.102
16461SOL    HW366164   6.194   8.035   2.072
16461SOL    MW466165   6.129   8.086   2.046
16462SOL     OW66166   7.219   8.836   2.854
16462SOL    HW266167   7.254   8.818   2.767
16462SOL    HW366168   7.124   8.837   2.841
16462SOL    MW466169   7.211   8.833   2.841
16463SOL     OW66170   6.648   8.484   3.223
16463SOL    HW266171   6.691   8.519   3.301
16463SOL    HW366172   6.631   8.561   3.169
16463SOL    MW466173   6.651   8.499   3.226
16464SOL     OW66174   7.179   7.971   2.096
16464SOL    HW266175   7.171   8.042   2.033
16464SOL    HW366176   7.197   8.015   2.179
16464SOL    MW466177   7.180   7.985   2.098
16465SOL     OW66178   6.039   7.626   2.525
16465SOL    HW266179   6.089   7.669   2.456
16465SOL    HW366180   5.954   7.670   2.525
16465SOL    MW466181   6.036   7.639   2.516
16466SOL     OW66182   5.798   8.688   3.385
16466SOL    HW266183   5.826   8.641   3.463
16466SOL    HW366184   5.719   8.643   3.356
16466SOL    MW466185   5.791   8.677   3.391
16467SOL     OW66186   6.306   8.015   3.352
16467SOL    HW266187   6.278   8.103   3.376
16467SOL    HW366188   6.275   7.959   3.423
16467SOL    MW466189   6.298   8.018   3.364
16468SOL     OW66190   6.848   8.233   2.071
16468SOL    HW266191   6.895   8.251   1.990
16468SOL    HW366192   6.814   8.317   2.099
16468SOL    MW466193   6.850   8.247   2.064
16469SOL     OW66194   5.961   8.411   2.565
16469SOL    HW266195   6.019   8.467   2.513
16469SOL    HW366196   6.005   8.326   2.567
16469SOL    MW466197   5.974   8.408   2.558
16470SOL     OW66198   7.101   7.763   2.402
16470SOL    HW266199   7.023   7.713   2.427
16470SOL    HW366200   7.072   7.854   2.402
16470SOL    MW466201   7.087   7.767   2.405
16471SOL     OW66202   6.687   7.725   2.561
16471SOL    HW266203   6.707   7.800   2.505
16471SOL    HW366204   6.667   7.764   2.646
16471SOL    MW466205   6.688   7.741   2.565
16472SOL     OW66206   7.447   8.498   3.580
16472SOL    HW266207   7.360   8.478   3.616
16472SOL    HW366208   7.501   8.424   3.605
16472SOL    MW466209   7.442   8.487   3.588
16473SOL     OW66210   5.623   8.137   2.284
16473SOL    HW266211   5.563   8.109   2.354
16473SOL    HW366212   5.697   8.077   2.290
16473SOL    MW466213   5.625   8.126   2.293
16474SOL     OW66214   6.049   7.876   3.173
16474SOL    HW266215   6.082   7.957   3.213
16474SOL    HW366216   6.022   7.902   3.085
16474SOL    MW466217   6.048   7.890   3.167
16475SOL     OW66218   6.003   7.843   2.909
16475SOL    HW266219   6.033   7.757   2.880
16475SOL    HW366220   5.908   7.836   2.912
16475SOL    MW466221   5.995   7.832   2.907
16476SOL     OW66222   6.832   8.052   3.600
16476SOL    HW266223   6.884   7.987   3.553
16476SOL    HW366224   6.790   8.103   3.530
16476SOL    MW466225   6.833   8.049   3.583
16477SOL     OW66226   6.931   7.847   3.461
16477SOL    HW266227   6.838   7.831   3.448
16477SOL    HW366228   6.957   7.785   3.529
16477SOL    MW466229   6.921   7.837   3.468
16478SOL     OW66230   6.146   7.621   2.800
16478SOL    HW266231   6.156   7.530   2.826
16478SOL    HW366232   6.102   7.617   2.715
16478SOL    MW466233   6.142   7.609   2.792
16479SOL     OW66234   7.297   7.943   2.971
16479SOL    HW266235   7.230   7.976   3.031
16479SOL    HW366236   7.340   8.021   2.937
16479SOL    MW466237   7.295   7.958   2.975
16480SOL     OW66238   7.475   8.663   2.941
16480SOL    HW266239   7.468   8.603   2.866
16480SOL    HW366240   7.401   8.723   2.930
16480SOL    MW466241   7.465   8.663   2.930
16481SOL     OW66242   6.857   8.525   2.859
16481SOL    HW266243   6.871   8.497   2.950
16481SOL    HW366244   6.943   8.556   2.831
16481SOL    MW466245   6.870   8.526   2.868
16482SOL     OW66246   6.940   8.020   3.138
16482SOL    HW266247   6.961   8.021   3.045
16482SOL    HW366248   6.985   7.942   3.171
16482SOL    MW466249   6.947   8.010   3.130
16483SOL     OW66250   7.433   8.151   3.680
16483SOL    HW266251   7.470   8.096   3.749
16483SOL    HW366252   7.458   8.108   3.598
16483SOL    MW466253   7.440   8.139   3.679
16484SOL     OW66254   6.980   8.449   3.731
16484SOL    HW266255   7.046   8.397   3.685
16484SOL    HW366256   7.000   8.436   3.824
16484SOL    MW466257   6.991   8.440   3.738
16485SOL     OW66258   6.931   7.535   2.080
16485SOL    HW266259   7.005   7.579   2.123
16485SOL    HW366260   6.855   7.589   2.102
16485SOL    MW466261   6.931   7.547   2.088
16486SOL     OW66262   6.991   8.310   2.358
16486SOL    HW266263   6.906   8.280   2.328
16486SOL    HW366264   6.983   8.317   2.453
16486SOL    MW466265   6.979   8.308   2.367
16487SOL     OW66266   6.351   7.753   2.912
16487SOL    HW266267   6.324   7.755   3.003
16487SOL    HW366268   6.281   7.705   2.867
16487SOL    MW466269   6.339   7.749   2.919
16488SOL     OW66270   7.107   8.830   3.306
16488SOL    HW266271   7.092   8.759   3.369
16488SOL    HW366272   7.153   8.788   3.234
16488SOL    MW466273   7.113   8.814   3.306
16489SOL     OW66274   6.181   8.561   3.423
16489SOL    HW266275   6.218   8.566   3.335
16489SOL    HW366276   6.220   8.634   3.470
16489SOL    MW466277   6.191   8.571   3.418
16490SOL     OW66278   6.361   8.604   3.235
16490SOL    HW266279   6.420   8.550   3.288
16490SOL    HW366280   6.376   8.576   3.145
16490SOL    MW466281   6.371   8.593   3.231
16491SOL     OW66282   6.364   7.976   2.084
16491SOL    HW266283   6.437   8.025   2.047
16491SOL    HW366284   6.380   7.885   2.058
16491SOL    MW466285   6.376   7.971   2.077
16492SOL     OW66286   6.832   7.572   2.998
16492SOL    HW266287   6.887   7.581   2.920
16492SOL    HW366288   6.887   7.606   3.069
16492SOL    MW466289   6.846   7.577   2.997
16493SOL     OW66290   5.839   8.485   2.182
16493SOL    HW266291   5.776   8.501   2.111
16493SOL    HW366292   5.786   8.448   2.253
16493SOL    MW466293   5.824   8.482   2.182
16494SOL     OW66294   6.195   8.839   2.041
16494SOL    HW266295   6.210   8.815   2.133
16494SOL    HW366296   6.103   8.817   2.025
16494SOL    MW466297   6.185   8.832   2.051
16495SOL     OW66298   6.610   8.706   3.005
16495SOL    HW266299   6.542   8.640   3.021
16495SOL    HW366300   6.628   8.700   2.912
16495SOL    MW466301   6.603   8.697   2.996
16496SOL     OW66302   6.603   7.845   2.826
16496SOL    HW266303   6.533   7.797   2.871
16496SOL    HW366304   6.635   7.908   2.890
16496SOL    MW466305   6.598   7.847   2.840
16497SOL     OW66306   6.254   8.281   3.446
16497SOL    HW266307   6.247   8.376   3.434
16497SOL    HW366308   6.263   8.270   3.541
16497SOL    MW466309   6.255   8.293   3.456
16498SOL     OW66310   7.059   7.559   3.171
16498SOL    HW266311   7.130   7.505   3.135
16498SOL    HW366312   7.058   7.538   3.264
16498SOL    MW466313   7.068   7.550   3.179
16499SOL     OW66314   6.070   7.951   2.639
16499SOL    HW266315   6.141   7.899   2.602
16499SOL    HW366316   6.056   7.916   2.726
16499SOL    MW466317   6.078   7.940   2.646
16500SOL     OW66318   6.706   7.892   2.363
16500SOL    HW266319   6.728   7.829   2.295
16500SOL    HW366320   6.611   7.884   2.374
16500SOL    MW466321   6.696   7.883   2.355
16501SOL     OW66322   5.791   7.582   2.295
16501SOL    HW266323   5.862   7.603   2.234
16501SOL    HW366324   5.745   7.510   2.253
16501SOL    MW466325   5.795   7.576   2.281
16502SOL     OW66326   5.622   8.049   3.438
16502SOL    HW266327   5.686   8.115   3.413
16502SOL    HW366328   5.541   8.076   3.395
16502SOL    MW466329   5.620   8.061   3.430
16503SOL     OW66330   6.916   8.633   2.325
16503SOL    HW266331   6.888   8.719   2.358
16503SOL    HW366332   6.944   8.649   2.235
16503SOL    MW466333   6.916   8.647   2.317
16504SOL     OW66334   6.578   7.553   2.378
16504SOL    HW266335   6.615   7.612   2.443
16504SOL    HW366336   6.555   7.609   2.304
16504SOL    MW466337   6.579   7.568   2.377
16505SOL     OW66338   7.431   8.435   2.800
16505SOL    HW266339   7.422   8.467   2.711
16505SOL    HW366340   7.384   8.351   2.800
16505SOL    MW466341   7.424   8.428   2.790
16506SOL     OW66342   5.807   8.275   3.379
16506SOL    HW266343   5.828   8.344   3.317
16506SOL    HW366344   5.887   8.222   3.384
16506SOL    MW466345   5.820   8.276   3.373
16507SOL     OW66346   7.343   8.366   2.501
16507SOL    HW266347   7.437   8.355   2.489
16507SOL    HW366348   7.319   8.438   2.442
16507SOL    MW466349   7.353   8.374   2.492
16508SOL     OW66350   5.792   8.290   3.646
16508SOL    HW266351   5.718   8.234   3.672
16508SOL    HW366352   5.787   8.293   3.551
16508SOL    MW466353   5.781   8.283   3.636
16509SOL     OW66354   5.958   7.577   3.096
16509SOL    HW266355   6.001   7.661   3.116
16509SOL    HW366356   6.031   7.515   3.089
16509SOL    MW466357   5.973   7.580   3.097
16510SOL     OW66358   5.999   8.244   2.274
16510SOL    HW266359   5.999   8.339   2.259
16510SOL    HW366360   6.076   8.228   2.328
16510SOL    MW466361   6.009   8.255   2.279
16511SOL     OW66362   6.775   8.103   3.338
16511SOL    HW266363   6.811   8.076   3.254
16511SOL    HW366364   6.688   8.137   3.317
16511SOL    MW466365   6.769   8.104   3.325
16512SOL     OW66366   5.758   7.975   2.563
16512SOL    HW266367   5.820   7.982   2.636
16512SOL    HW366368   5.758   7.882   2.540
16512SOL    MW466369   5.766   7.964   2.570
16513SOL     OW66370   6.440   8.236   3.047
16513SOL    HW266371   6.398   8.154   3.023
16513SOL    HW366372   6.441   8.235   3.143
16513SOL    MW466373   6.433   8.225   3.056
16514SOL     OW66374   6.244   7.706   3.152
16514SOL    HW266375   6.175   7.769   3.173
16514SOL    HW366376   6.271   7.670   3.237
16514SOL    MW466377   6.238   7.709   3.165
16515SOL     OW66378   5.627   8.547   2.021
16515SOL    HW266379   5.596   8.612   2.084
16515SOL    HW366380   5.576   8.469   2.040
16515SOL    MW466381   5.617   8.544   2.031
16516SOL     OW66382   7.039   7.559   2.769
16516SOL    HW266383   7.127   7.568   2.806
16516SOL    HW366384   7.049   7.500   2.695
16516SOL    MW466385   7.053   7.553   2.763
16517SOL     OW66386   7.071   8.298   2.613
16517SOL    HW266387   7.151   8.313   2.562
16517SOL    HW366388   7.064   8.203   2.619
16517SOL    MW466389   7.080   8.287   2.608
16518SOL     OW66390   6.521   8.224   3.310
16518SOL    HW266391   6.590   8.291   3.307
16518SOL    HW366392   6.454   8.262   3.366
16518SOL    MW466393   6.522   8.237   3.317
16519SOL     OW66394   5.939   8.524   3.558
16519SOL    HW266395   5.893   8.440   3.560
16519SOL    HW366396   5.996   8.518   3.482
16519SOL    MW466397   5.941   8.512   3.550
16520SOL     OW66398   7.056   8.167   1.879
16520SOL    HW266399   6.984   8.143   1.821
16520SOL    HW366400   7.122   8.204   1.821
16520SOL    MW466401   7.055   8.169   1.864
16521SOL     OW66402   6.190   8.899   2.559
16521SOL    HW266403   6.255   8.832   2.580
16521SOL    HW366404   6.242   8.976   2.536
16521SOL    MW466405   6.205   8.901   2.558
16522SOL     OW66406   6.451   8.064   2.689
16522SOL    HW266407   6.391   8.082   2.761
16522SOL    HW366408   6.485   7.976   2.708
16522SOL    MW466409   6.447   8.054   2.702
16523SOL     OW66410   7.392   7.563   3.358
16523SOL    HW266411   7.313   7.609   3.386
16523SOL    HW366412   7.427   7.617   3.287
16523SOL    MW466413   7.386   7.576   3.352
16524SOL     OW66414   6.676   8.647   2.708
16524SOL    HW266415   6.768   8.628   2.726
16524SOL    HW366416   6.649   8.577   2.648
16524SOL    MW466417   6.684   8.635   2.702
16525SOL     OW66418   6.469   8.467   2.063
16525SOL    HW266419   6.455   8.379   2.028
16525SOL    HW366420   6.420   8.524   2.004
16525SOL    MW466421   6.461   8.462   2.051
16526SOL     OW66422   5.882   8.191   2.842
16526SOL    HW266423   5.832   8.190   2.923
16526SOL    HW366424   5.902   8.283   2.826
16526SOL    MW466425   5.878   8.203   2.850
16527SOL     OW66426   6.949   8.955   3.604
16527SOL    HW266427   6.949   9.049   3.620
16527SOL    HW366428   6.994   8.945   3.520
16527SOL    MW466429   6.955   8.965   3.595
16528SOL     OW66430   7.188   7.673   2.165
16528SOL    HW266431   7.181   7.677   2.260
16528SOL    HW366432   7.200   7.764   2.138
16528SOL    MW466433   7.189   7.686   2.173
16529SOL     OW66434   6.477   8.236   2.279
16529SOL    HW266435   6.457   8.222   2.186
16529SOL    HW366436   6.570   8.215   2.286
16529SOL    MW466437   6.487   8.231   2.268
16530SOL     OW66438   5.804   7.859   3.583
16530SOL    HW266439   5.761   7.918   3.520
16530SOL    HW366440   5.872   7.914   3.623
16530SOL    MW466441   5.808   7.874   3.580
16531SOL     OW66442   6.916   8.479   3.128
16531SOL    HW266443   6.979   8.476   3.201
16531SOL    HW366444   6.832   8.497   3.170
16531SOL    MW466445   6.912   8.481   3.143
16532SOL     OW66446   7.255   7.656   2.907
16532SOL    HW266447   7.300   7.574   2.926
16532SOL    HW366448   7.275   7.712   2.983
16532SOL    MW466449   7.265   7.652   2.919
16533SOL     OW66450   5.703   7.499   3.006
16533SOL    HW266451   5.694   7.500   2.911
16533SOL    HW366452   5.797   7.511   3.021
16533SOL    MW466453   5.715   7.502   2.997
16534SOL     OW66454   7.340   8.692   2.626
16534SOL    HW266455   7.319   8.638   2.549
16534SOL    HW366456   7.436   8.690   2.630
16534SOL    MW466457   7.349   8.685   2.615
16535SOL     OW66458   6.032   8.837   3.369
16535SOL    HW266459   5.953   8.787   3.392
16535SOL    HW366460   6.102   8.796   3.419
16535SOL    MW466461   6.030   8.825   3.379
16536SOL     OW66462   5.916   7.626   2.052
16536SOL    HW266463   5.845   7.681   2.020
16536SOL    HW366464   5.958   7.592   1.973
16536SOL    MW466465   5.912   7.628   2.038
16537SOL     OW66466   7.040   8.123   2.888
16537SOL    HW266467   6.963   8.169   2.854
16537SOL    HW366468   7.097   8.192   2.922
16537SOL    MW466469   7.037   8.138   2.888
16538SOL     OW66470   5.672   7.725   1.901
16538SOL    HW266471   5.639   7.804   1.945
16538SOL    HW366472   5.727   7.758   1.830
16538SOL    MW466473   5.675   7.739   1.898
16539SOL     OW66474   7.341   8.339   3.993
16539SOL    HW266475   7.382   8.281   4.058
16539SOL    HW366476   7.248   8.331   4.010
16539SOL    MW466477   7.335   8.331   4.003
16540SOL     OW66478   7.207   8.271   4.988
16540SOL    HW266479   7.162   8.338   5.039
16540SOL    HW366480   7.295   8.307   4.974
16540SOL    MW466481   7.213   8.284   4.992
16541SOL     OW66482   6.135   8.522   4.222
16541SOL    HW266483   6.225   8.497   4.206
16541SOL    HW366484   6.131   8.615   4.199
16541SOL    MW466485   6.147   8.531   4.217
16542SOL     OW66486   7.187   8.665   4.969
16542SOL    HW266487   7.108   8.630   4.927
16542SOL    HW366488   7.214   8.737   4.913
16542SOL    MW466489   7.180   8.670   4.956
16543SOL     OW66490   6.419   7.978   4.235
16543SOL    HW266491   6.394   8.066   4.263
16543SOL    HW366492   6.416   7.981   4.139
16543SOL    MW466493   6.415   7.990   4.227
16544SOL     OW66494   5.861   8.006   4.163
16544SOL    HW266495   5.893   8.094   4.145
16544SOL    HW366496   5.849   8.004   4.258
16544SOL    MW466497   5.864   8.018   4.175
16545SOL     OW66498   5.939   8.419   5.064
16545SOL    HW266499   6.002   8.366   5.015
16545SOL    HW366500   5.920   8.493   5.007
16545SOL    MW466501   5.945   8.421   5.051
16546SOL     OW66502   6.260   7.761   4.250
16546SOL    HW266503   6.318   7.837   4.252
16546SOL    HW366504   6.195   7.782   4.183
16546SOL    MW466505   6.259   7.773   4.241
16547SOL     OW66506   6.347   8.688   4.425
16547SOL    HW266507   6.427   8.691   4.477
16547SOL    HW366508   6.375   8.655   4.339
16547SOL    MW466509   6.361   8.684   4.420
16548SOL     OW66510   6.372   9.029   5.328
16548SOL    HW266511   6.456   9.055   5.367
16548SOL    HW366512   6.396   8.973   5.254
16548SOL    MW466513   6.386   9.025   5.323
16549SOL     OW66514   6.124   8.192   4.416
16549SOL    HW266515   6.109   8.112   4.467
16549SOL    HW366516   6.206   8.227   4.450
16549SOL    MW466517   6.132   8.184   4.428
16550SOL     OW66518   6.266   8.018   4.793
16550SOL    HW266519   6.172   8.014   4.811
16550SOL    HW366520   6.296   7.927   4.802
16550SOL    MW466521   6.257   8.006   4.796
16551SOL     OW66522   6.012   8.432   4.697
16551SOL    HW266523   5.967   8.439   4.613
16551SOL    HW366524   5.992   8.515   4.741
16551SOL    MW466525   6.004   8.444   4.691
16552SOL     OW66526   6.974   8.670   3.941
16552SOL    HW266527   6.892   8.706   3.907
16552SOL    HW366528   7.042   8.713   3.890
16552SOL    MW466529   6.972   8.680   3.929
16553SOL     OW66530   5.973   8.805   4.607
16553SOL    HW266531   5.949   8.858   4.683
16553SOL    HW366532   6.029   8.863   4.555
16553SOL    MW466533   5.977   8.820   4.610
16554SOL     OW66534   6.535   8.449   4.417
16554SOL    HW266535   6.449   8.436   4.457
16554SOL    HW366536   6.588   8.376   4.449
16554SOL    MW466537   6.531   8.438   4.426
16555SOL     OW66538   6.526   8.811   4.134
16555SOL    HW266539   6.503   8.873   4.202
16555SOL    HW366540   6.483   8.729   4.160
16555SOL    MW466541   6.518   8.807   4.145
16556SOL     OW66542   7.399   7.812   4.590
16556SOL    HW266543   7.336   7.792   4.659
16556SOL    HW366544   7.389   7.741   4.527
16556SOL    MW466545   7.389   7.799   4.591
16557SOL     OW66546   6.023   7.784   4.102
16557SOL    HW266547   5.997   7.746   4.018
16557SOL    HW366548   5.960   7.854   4.118
16557SOL    MW466549   6.012   7.787   4.093
16558SOL     OW66550   5.858   8.745   4.139
16558SOL    HW266551   5.806   8.813   4.095
16558SOL    HW366552   5.855   8.671   4.079
16558SOL    MW466553   5.850   8.744   4.126
16559SOL     OW66554   7.455   7.981   3.892
16559SOL    HW266555   7.364   7.983   3.920
16559SOL    HW366556   7.500   8.043   3.950
16559SOL    MW466557   7.448   7.989   3.902
16560SOL     OW66558   7.200   8.584   4.242
16560SOL    HW266559   7.110   8.584   4.277
16560SOL    HW366560   7.193   8.630   4.159
16560SOL    MW466561   7.187   8.590   4.236
16561SOL     OW66562   7.000   8.219   5.314
16561SOL    HW266563   7.069   8.157   5.291
16561SOL    HW366564   6.925   8.193   5.261
16561SOL    MW466565   7.000   8.206   5.305
16562SOL     OW66566   6.736   8.606   5.306
16562SOL    HW266567   6.721   8.699   5.291
16562SOL    HW366568   6.831   8.596   5.306
16562SOL    MW466569   6.745   8.616   5.303
16563SOL     OW66570   6.532   8.030   5.507
16563SOL    HW266571   6.622   8.031   5.474
16563SOL    HW366572   6.491   7.955   5.465
16563SOL    MW466573   6.538   8.020   5.498
16564SOL     OW66574   7.107   8.562   4.634
16564SOL    HW266575   7.110   8.496   4.565
16564SOL    HW366576   7.192   8.605   4.630
16564SOL    MW466577   7.119   8.558   4.625
16565SOL     OW66578   6.727   8.165   4.203
16565SOL    HW266579   6.753   8.189   4.114
16565SOL    HW366580   6.709   8.072   4.199
16565SOL    MW466581   6.729   8.157   4.190
16566SOL     OW66582   7.392   8.785   4.054
16566SOL    HW266583   7.348   8.826   4.129
16566SOL    HW366584   7.449   8.853   4.019
16566SOL    MW466585   7.394   8.799   4.059
16567SOL     OW66586   6.312   7.834   5.457
16567SOL    HW266587   6.322   7.760   5.397
16567SOL    HW366588   6.348   7.803   5.540
16567SOL    MW466589   6.318   7.820   5.459
16568SOL     OW66590   7.432   7.563   4.421
16568SOL    HW266591   7.486   7.514   4.483
16568SOL    HW366592   7.375   7.497   4.382
16568SOL    MW466593   7.432   7.547   4.423
16569SOL     OW66594   6.551   7.516   4.834
16569SOL    HW266595   6.510   7.594   4.796
16569SOL    HW366596   6.645   7.534   4.829
16569SOL    MW466597   6.557   7.528   4.829
16570SOL     OW66598   6.566   8.194   3.864
16570SOL    HW266599   6.568   8.141   3.785
16570SOL    HW366600   6.654   8.231   3.870
16570SOL    MW466601   6.578   8.193   3.853
16571SOL     OW66602   7.180   8.120   4.200
16571SOL    HW266603   7.219   8.120   4.287
16571SOL    HW366604   7.121   8.196   4.200
16571SOL    MW466605   7.177   8.131   4.211
16572SOL     OW66606   6.497   8.487   5.329
16572SOL    HW266607   6.474   8.467   5.419
16572SOL    HW366608   6.582   8.531   5.334
16572SOL    MW466609   6.504   8.490   5.341
16573SOL     OW66610   6.577   7.624   5.089
16573SOL    HW266611   6.583   7.586   5.002
16573SOL    HW366612   6.566   7.718   5.074
16573SOL    MW466613   6.578   7.632   5.077
16574SOL     OW66614   6.666   8.113   4.923
16574SOL    HW266615   6.741   8.142   4.870
16574SOL    HW366616   6.598   8.178   4.907
16574SOL    MW466617   6.667   8.125   4.913
16575SOL     OW66618   7.216   8.081   5.200
16575SOL    HW266619   7.197   7.990   5.179
16575SOL    HW366620   7.194   8.130   5.121
16575SOL    MW466621   7.211   8.074   5.187
16576SOL     OW66622   6.663   7.819   5.306
16576SOL    HW266623   6.629   7.858   5.225
16576SOL    HW366624   6.641   7.727   5.299
16576SOL    MW466625   6.656   7.812   5.296
16577SOL     OW66626   7.072   8.633   5.382
16577SOL    HW266627   7.154   8.674   5.412
16577SOL    HW366628   7.035   8.595   5.462
16577SOL    MW466629   7.078   8.634   5.397
16578SOL     OW66630   7.367   8.006   4.366
16578SOL    HW266631   7.456   7.975   4.383
16578SOL    HW366632   7.310   7.946   4.414
16578SOL    MW466633   7.370   7.994   4.375
16579SOL     OW66634   5.793   7.720   4.395
16579SOL    HW266635   5.784   7.660   4.321
16579SOL    HW366636   5.726   7.691   4.458
16579SOL    MW466637   5.783   7.707   4.393
16580SOL     OW66638   6.736   8.813   3.956
16580SOL    HW266639   6.686   8.815   4.038
16580SOL    HW366640   6.670   8.831   3.888
16580SOL    MW466641   6.722   8.815   3.958
16581SOL     OW66642   5.740   7.893   4.758
16581SOL    HW266643   5.712   7.984   4.767
16581SOL    HW366644   5.677   7.854   4.697
16581SOL    MW466645   5.727   7.899   4.752
16582SOL     OW66646   6.335   8.646   3.771
16582SOL    HW266647   6.257   8.592   3.758
16582SOL    HW366648   6.306   8.719   3.824
16582SOL    MW466649   6.321   8.648   3.776
16583SOL     OW66650   7.461   8.386   4.963
16583SOL    HW266651   7.477   8.424   4.876
16583SOL    HW366652   7.495   8.452   5.024
16583SOL    MW466653   7.468   8.399   4.959
16584SOL     OW66654   5.724   8.168   4.928
16584SOL    HW266655   5.786   8.198   4.994
16584SOL    HW366656   5.658   8.237   4.922
16584SOL    MW466657   5.723   8.181   4.935
16585SOL     OW66658   6.365   7.725   3.836
16585SOL    HW266659   6.313   7.645   3.824
16585SOL    HW366660   6.452   7.702   3.804
16585SOL    MW466661   6.368   7.711   3.830
16586SOL     OW66662   5.871   8.596   4.887
16586SOL    HW266663   5.924   8.671   4.912
16586SOL    HW366664   5.790   8.634   4.853
16586SOL    MW466665   5.867   8.611   4.887
16587SOL     OW66666   6.411   8.500   4.875
16587SOL    HW266667   6.439   8.409   4.887
16587SOL    HW366668   6.340   8.494   4.811
16587SOL    MW466669   6.404   8.488   4.870
16588SOL     OW66670   5.726   8.365   4.293
16588SOL    HW266671   5.817   8.380   4.320
16588SOL    HW366672   5.729   8.286   4.239
16588SOL    MW466673   5.738   8.357   4.291
16589SOL     OW66674   5.962   8.073   5.547
16589SOL    HW266675   5.909   8.153   5.554
16589SOL    HW366676   6.032   8.085   5.612
16589SOL    MW466677   5.964   8.086   5.555
16590SOL     OW66678   6.348   7.623   5.254
16590SOL    HW266679   6.325   7.531   5.256
16590SOL    HW366680   6.434   7.625   5.211
16590SOL    MW466681   6.355   7.613   5.250
16591SOL     OW66682   6.032   8.147   5.293
16591SOL    HW266683   6.112   8.197   5.279
16591SOL    HW366684   6.023   8.141   5.388
16591SOL    MW466685   6.041   8.153   5.303
16592SOL     OW66686   7.009   7.672   5.564
16592SOL    HW266687   7.065   7.599   5.590
16592SOL    HW366688   6.979   7.710   5.646
16592SOL    MW466689   7.013   7.667   5.577
16593SOL     OW66690   6.567   9.020   4.367
16593SOL    HW266691   6.650   8.974   4.351
16593SOL    HW366692   6.557   9.019   4.463
16593SOL    MW466693   6.577   9.013   4.377
16594SOL     OW66694   7.399   8.165   4.681
16594SOL    HW266695   7.488   8.195   4.663
16594SOL    HW366696   7.379   8.105   4.610
16594SOL    MW466697   7.408   8.162   4.670
16595SOL     OW66698   7.250   8.344   5.561
16595SOL    HW266699   7.305   8.268   5.542
16595SOL    HW366700   7.252   8.352   5.656
16595SOL    MW466701   7.258   8.335   5.569
16596SOL     OW66702   6.738   7.722   3.995
16596SOL    HW266703   6.671   7.698   3.932
16596SOL    HW366704   6.803   7.771   3.944
16596SOL    MW466705   6.738   7.724   3.980
16597SOL     OW66706   6.545   7.906   5.080
16597SOL    HW266707   6.464   7.947   5.108
16597SOL    HW366708   6.592   7.974   5.032
16597SOL    MW466709   6.540   7.921   5.078
16598SOL     OW66710   6.805   8.244   4.703
16598SOL    HW266711   6.818   8.338   4.713
16598SOL    HW366712   6.766   8.234   4.617
16598SOL    MW466713   6.801   8.255   4.693
16599SOL     OW66714   6.257   8.439   4.507
16599SOL    HW266715   6.168   8.430   4.540
16599SOL    HW366716   6.261   8.529   4.475
16599SOL    MW466717   6.246   8.450   4.507
16600SOL     OW66718   7.056   8.022   4.502
16600SOL    HW266719   7.001   7.943   4.501
16600SOL    HW366720   7.038   8.063   4.586
16600SOL    MW466721   7.046   8.017   4.511
16601SOL     OW66722   6.027   7.709   5.319
16601SOL    HW266723   5.948   7.727   5.371
16601SOL    HW366724   6.022   7.771   5.246
16601SOL    MW466725   6.017   7.719   5.316
16602SOL     OW66726   6.675   8.226   4.459
16602SOL    HW266727   6.612   8.158   4.483
16602SOL    HW366728   6.695   8.207   4.367
16602SOL    MW466729   6.669   8.213   4.451
16603SOL     OW66730   6.423   8.530   4.185
16603SOL    HW266731   6.425   8.504   4.092
16603SOL    HW366732   6.481   8.467   4.228
16603SOL    MW466733   6.431   8.519   4.179
16604SOL     OW66734   6.933   7.774   4.518
16604SOL    HW266735   6.961   7.706   4.579
16604SOL    HW366736   6.847   7.745   4.488
16604SOL    MW466737   6.926   7.761   4.522
16605SOL     OW66738   5.738   8.708   4.452
16605SOL    HW266739   5.802   8.740   4.515
16605SOL    HW366740   5.787   8.644   4.400
16605SOL    MW466741   5.753   8.704   4.453
16606SOL     OW66742   6.913   7.878   3.853
16606SOL    HW266743   6.886   7.944   3.789
16606SOL    HW366744   6.983   7.921   3.903
16606SOL    MW466745   6.918   7.891   3.850
16607SOL     OW66746   6.581   7.583   3.790
16607SOL    HW266747   6.637   7.575   3.712
16607SOL    HW366748   6.558   7.493   3.812
16607SOL    MW466749   6.586   7.570   3.783
16608SOL     OW66750   7.086   8.434   3.995
16608SOL    HW266751   7.053   8.523   3.985
16608SOL    HW366752   7.051   8.405   4.080
16608SOL    MW466753   7.076   8.443   4.006
16609SOL     OW66754   5.992   7.531   5.525
16609SOL    HW266755   5.920   7.496   5.473
16609SOL    HW366756   6.050   7.572   5.460
16609SOL    MW466757   5.990   7.532   5.510
16610SOL     OW66758   7.456   8.550   5.178
16610SOL    HW266759   7.371   8.563   5.137
16610SOL    HW366760   7.436   8.514   5.265
16610SOL    MW466761   7.443   8.546   5.183
16611SOL     OW66762   6.080   8.472   3.787
16611SOL    HW266763   6.003   8.485   3.843
16611SOL    HW366764   6.044   8.436   3.706
16611SOL    MW466765   6.066   8.468   3.784
16612SOL     OW66766   6.733   8.445   4.030
16612SOL    HW266767   6.643   8.466   4.005
16612SOL    HW366768   6.760   8.518   4.086
16612SOL    MW466769   6.725   8.457   4.033
16613SOL     OW66770   6.233   8.794   4.722
16613SOL    HW266771   6.226   8.773   4.816
16613SOL    HW366772   6.151   8.762   4.685
16613SOL    MW466773   6.221   8.788   4.729
16614SOL     OW66774   7.097   7.804   5.124
16614SOL    HW266775   7.044   7.806   5.204
16614SOL    HW366776   7.082   7.717   5.087
16614SOL    MW466777   7.089   7.794   5.129
16615SOL     OW66778   7.433   7.728   4.997
16615SOL    HW266779   7.414   7.795   4.932
16615SOL    HW366780   7.490   7.666   4.952
16615SOL    MW466781   7.437   7.729   4.983
16616SOL     OW66782   6.362   7.561   4.437
16616SOL    HW266783   6.291   7.622   4.419
16616SOL    HW366784   6.413   7.558   4.356
16616SOL    MW466785   6.358   7.567   4.424
16617SOL     OW66786   6.120   8.801   4.186
16617SOL    HW266787   6.113   8.833   4.276
16617SOL    HW366788   6.030   8.785   4.158
16617SOL    MW466789   6.108   8.803   4.193
16618SOL     OW66790   6.322   8.218   5.567
16618SOL    HW266791   6.392   8.160   5.539
16618SOL    HW366792   6.265   8.163   5.622
16618SOL    MW466793   6.324   8.205   5.571
16619SOL     OW66794   7.109   8.430   5.200
16619SOL    HW266795   7.114   8.483   5.280
16619SOL    HW366796   7.071   8.347   5.228
16619SOL    MW466797   7.105   8.425   5.215
16620SOL     OW66798   6.749   7.565   5.446
16620SOL    HW266799   6.744   7.472   5.427
16620SOL    HW366800   6.832   7.576   5.492
16620SOL    MW466801   6.757   7.554   5.450
16621SOL     OW66802   6.123   8.085   3.900
16621SOL    HW266803   6.089   8.141   3.970
16621SOL    HW366804   6.194   8.035   3.940
16621SOL    MW466805   6.129   8.086   3.914
16622SOL     OW66806   7.219   8.836   4.722
16622SOL    HW266807   7.254   8.818   4.635
16622SOL    HW366808   7.124   8.837   4.709
16622SOL    MW466809   7.211   8.833   4.709
16623SOL     OW66810   6.648   8.484   5.091
16623SOL    HW266811   6.691   8.519   5.169
16623SOL    HW366812   6.631   8.561   5.037
16623SOL    MW466813   6.651   8.499   5.094
16624SOL     OW66814   7.179   7.971   3.964
16624SOL    HW266815   7.171   8.042   3.901
16624SOL    HW366816   7.197   8.015   4.047
16624SOL    MW466817   7.180   7.985   3.966
16625SOL     OW66818   6.039   7.626   4.393
16625SOL    HW266819   6.089   7.669   4.324
16625SOL    HW366820   5.954   7.670   4.393
16625SOL    MW466821   6.036   7.639   4.384
16626SOL     OW66822   5.798   8.688   5.253
16626SOL    HW266823   5.826   8.641   5.331
16626SOL    HW366824   5.719   8.643   5.224
16626SOL    MW466825   5.791   8.677   5.259
16627SOL     OW66826   6.306   8.015   5.220
16627SOL    HW266827   6.278   8.103   5.244
16627SOL    HW366828   6.275   7.959   5.291
16627SOL    MW466829   6.298   8.018   5.232
16628SOL     OW66830   6.848   8.233   3.939
16628SOL    HW266831   6.895   8.251   3.858
16628SOL    HW366832   6.814   8.317   3.967
16628SOL    MW466833   6.850   8.247   3.932
16629SOL     OW66834   5.961   8.411   4.433
16629SOL    HW266835   6.019   8.467   4.381
16629SOL    HW366836   6.005   8.326   4.435
16629SOL    MW466837   5.974   8.408   4.426
16630SOL     OW66838   7.101   7.763   4.270
16630SOL    HW266839   7.023   7.713   4.295
16630SOL    HW366840   7.072   7.854   4.270
16630SOL    MW466841   7.087   7.767   4.273
16631SOL     OW66842   6.687   7.725   4.429
16631SOL    HW266843   6.707   7.800   4.373
16631SOL    HW366844   6.667   7.764   4.514
16631SOL    MW466845   6.688   7.741   4.433
16632SOL     OW66846   7.447   8.498   5.448
16632SOL    HW266847   7.360   8.478   5.484
16632SOL    HW366848   7.501   8.424   5.473
16632SOL    MW466849   7.442   8.487   5.456
16633SOL     OW66850   5.623   8.137   4.152
16633SOL    HW266851   5.563   8.109   4.222
16633SOL    HW366852   5.697   8.077   4.158
16633SOL    MW466853   5.625   8.126   4.161
16634SOL     OW66854   6.049   7.876   5.041
16634SOL    HW266855   6.082   7.957   5.081
16634SOL    HW366856   6.022   7.902   4.953
16634SOL    MW466857   6.048   7.890   5.035
16635SOL     OW66858   6.003   7.843   4.777
16635SOL    HW266859   6.033   7.757   4.748
16635SOL    HW366860   5.908   7.836   4.780
16635SOL    MW466861   5.995   7.832   4.775
16636SOL     OW66862   6.832   8.052   5.468
16636SOL    HW266863   6.884   7.987   5.421
16636SOL    HW366864   6.790   8.103   5.398
16636SOL    MW466865   6.833   8.049   5.451
16637SOL     OW66866   6.931   7.847   5.329
16637SOL    HW266867   6.838   7.831   5.316
16637SOL    HW366868   6.957   7.785   5.397
16637SOL    MW466869   6.921   7.837   5.336
16638SOL     OW66870   6.146   7.621   4.668
16638SOL    HW266871   6.156   7.530   4.694
16638SOL    HW366872   6.102   7.617   4.583
16638SOL    MW466873   6.142   7.609   4.660
16639SOL     OW66874   7.297   7.943   4.839
16639SOL    HW266875   7.230   7.976   4.899
16639SOL    HW366876   7.340   8.021   4.805
16639SOL    MW466877   7.295   7.958   4.843
16640SOL     OW66878   7.475   8.663   4.809
16640SOL    HW266879   7.468   8.603   4.734
16640SOL    HW366880   7.401   8.723   4.798
16640SOL    MW466881   7.465   8.663   4.798
16641SOL     OW66882   6.857   8.525   4.727
16641SOL    HW266883   6.871   8.497   4.818
16641SOL    HW366884   6.943   8.556   4.699
16641SOL    MW466885   6.870   8.526   4.736
16642SOL     OW66886   6.940   8.020   5.006
16642SOL    HW266887   6.961   8.021   4.913
16642SOL    HW366888   6.985   7.942   5.039
16642SOL    MW466889   6.947   8.010   4.998
16643SOL     OW66890   7.433   8.151   5.548
16643SOL    HW266891   7.470   8.096   5.617
16643SOL    HW366892   7.458   8.108   5.466
16643SOL    MW466893   7.440   8.139   5.547
16644SOL     OW66894   6.980   8.449   5.600
16644SOL    HW266895   7.046   8.397   5.554
16644SOL    HW366896   7.000   8.436   5.693
16644SOL    MW466897   6.991   8.440   5.607
16645SOL     OW66898   6.931   7.535   3.948
16645SOL    HW266899   7.005   7.579   3.991
16645SOL    HW366900   6.855   7.589   3.970
16645SOL    MW466901   6.931   7.547   3.956
16646SOL     OW66902   6.991   8.310   4.226
16646SOL    HW266903   6.906   8.280   4.196
16646SOL    HW366904   6.983   8.317   4.321
16646SOL    MW466905   6.979   8.308   4.235
16647SOL     OW66906   6.351   7.753   4.780
16647SOL    HW266907   6.324   7.755   4.871
16647SOL    HW366908   6.281   7.705   4.735
16647SOL    MW466909   6.339   7.749   4.787
16648SOL     OW66910   7.107   8.830   5.174
16648SOL    HW266911   7.092   8.759   5.237
16648SOL    HW366912   7.153   8.788   5.102
16648SOL    MW466913   7.113   8.814   5.174
16649SOL     OW66914   6.181   8.561   5.291
16649SOL    HW266915   6.218   8.566   5.203
16649SOL    HW366916   6.220   8.634   5.338
16649SOL    MW466917   6.191   8.571   5.286
16650SOL     OW66918   6.361   8.604   5.103
16650SOL    HW266919   6.420   8.550   5.156
16650SOL    HW366920   6.376   8.576   5.013
16650SOL    MW466921   6.371   8.593   5.099
16651SOL     OW66922   6.364   7.976   3.952
16651SOL    HW266923   6.437   8.025   3.915
16651SOL    HW366924   6.380   7.885   3.926
16651SOL    MW466925   6.376   7.971   3.945
16652SOL     OW66926   6.832   7.572   4.866
16652SOL    HW266927   6.887   7.581   4.788
16652SOL    HW366928   6.887   7.606   4.937
16652SOL    MW466929   6.846   7.577   4.865
16653SOL     OW66930   5.839   8.485   4.050
16653SOL    HW266931   5.776   8.501   3.979
16653SOL    HW366932   5.786   8.448   4.121
16653SOL    MW466933   5.824   8.482   4.050
16654SOL     OW66934   6.195   8.839   3.909
16654SOL    HW266935   6.210   8.815   4.001
16654SOL    HW366936   6.103   8.817   3.893
16654SOL    MW466937   6.185   8.832   3.919
16655SOL     OW66938   6.610   8.706   4.873
16655SOL    HW266939   6.542   8.640   4.889
16655SOL    HW366940   6.628   8.700   4.780
16655SOL    MW466941   6.603   8.697   4.864
16656SOL     OW66942   6.603   7.845   4.694
16656SOL    HW266943   6.533   7.797   4.739
16656SOL    HW366944   6.635   7.908   4.758
16656SOL    MW466945   6.598   7.847   4.708
16657SOL     OW66946   6.254   8.281   5.314
16657SOL    HW266947   6.247   8.376   5.302
16657SOL    HW366948   6.263   8.270   5.409
16657SOL    MW466949   6.255   8.293   5.324
16658SOL     OW66950   7.059   7.559   5.039
16658SOL    HW266951   7.130   7.505   5.003
16658SOL    HW366952   7.058   7.538   5.132
16658SOL    MW466953   7.068   7.550   5.047
16659SOL     OW66954   6.070   7.951   4.507
16659SOL    HW266955   6.141   7.899   4.470
16659SOL    HW366956   6.056   7.916   4.594
16659SOL    MW466957   6.078   7.940   4.514
16660SOL     OW66958   6.706   7.892   4.231
16660SOL    HW266959   6.728   7.829   4.163
16660SOL    HW366960   6.611   7.884   4.242
16660SOL    MW466961   6.696   7.883   4.223
16661SOL     OW66962   5.791   7.582   4.163
16661SOL    HW266963   5.862   7.603   4.102
16661SOL    HW366964   5.745   7.510   4.121
16661SOL    MW466965   5.795   7.576   4.149
16662SOL     OW66966   5.622   8.049   5.306
16662SOL    HW266967   5.686   8.115   5.281
16662SOL    HW366968   5.541   8.076   5.263
16662SOL    MW466969   5.620   8.061   5.298
16663SOL     OW66970   6.916   8.633   4.193
16663SOL    HW266971   6.888   8.719   4.226
16663SOL    HW366972   6.944   8.649   4.103
16663SOL    MW466973   6.916   8.647   4.185
16664SOL     OW66974   6.578   7.553   4.246
16664SOL    HW266975   6.615   7.612   4.311
16664SOL    HW366976   6.555   7.609   4.172
16664SOL    MW466977   6.579   7.568   4.245
16665SOL     OW66978   7.431   8.435   4.668
16665SOL    HW266979   7.422   8.467   4.579
16665SOL    HW366980   7.384   8.351   4.668
16665SOL    MW466981   7.424   8.428   4.658
16666SOL     OW66982   5.807   8.275   5.247
16666SOL    HW266983   5.828   8.344   5.185
16666SOL    HW366984   5.887   8.222   5.252
16666SOL    MW466985   5.820   8.276   5.241
16667SOL     OW66986   7.343   8.366   4.369
16667SOL    HW266987   7.437   8.355   4.357
16667SOL    HW366988   7.319   8.438   4.310
16667SOL    MW466989   7.353   8.374   4.360
16668SOL     OW66990   5.792   8.290   5.514
16668SOL    HW266991   5.718   8.234   5.540
16668SOL    HW366992   5.787   8.293   5.419
16668SOL    MW466993   5.781   8.283   5.504
16669SOL     OW66994   5.958   7.577   4.964
16669SOL    HW266995   6.001   7.661   4.984
16669SOL    HW366996   6.031   7.515   4.957
16669SOL    MW466997   5.973   7.580   4.965
16670SOL     OW66998   5.999   8.244   4.142
16670SOL    HW266999   5.999   8.339   4.127
16670SOL    HW367000   6.076   8.228   4.196
16670SOL    MW467001   6.009   8.255   4.147
16671SOL     OW67002   6.775   8.103   5.206
16671SOL    HW267003   6.811   8.076   5.122
16671SOL    HW367004   6.688   8.137   5.185
16671SOL    MW467005   6.769   8.104   5.193
16672SOL     OW67006   5.758   7.975   4.431
16672SOL    HW267007   5.820   7.982   4.504
16672SOL    HW367008   5.758   7.882   4.408
16672SOL    MW467009   5.766   7.964   4.438
16673SOL     OW67010   6.440   8.236   4.915
16673SOL    HW267011   6.398   8.154   4.891
16673SOL    HW367012   6.441   8.235   5.011
16673SOL    MW467013   6.433   8.225   4.924
16674SOL     OW67014   6.244   7.706   5.020
16674SOL    HW267015   6.175   7.769   5.041
16674SOL    HW367016   6.271   7.670   5.105
16674SOL    MW467017   6.238   7.709   5.033
16675SOL     OW67018   5.627   8.547   3.889
16675SOL    HW267019   5.596   8.612   3.952
16675SOL    HW367020   5.576   8.469   3.908
16675SOL    MW467021   5.617   8.544   3.899
16676SOL     OW67022   7.039   7.559   4.637
16676SOL    HW267023   7.127   7.568   4.674
16676SOL    HW367024   7.049   7.500   4.563
16676SOL    MW467025   7.053   7.553   4.631
16677SOL     OW67026   7.071   8.298   4.481
16677SOL    HW267027   7.151   8.313   4.430
16677SOL    HW367028   7.064   8.203   4.487
16677SOL    MW467029   7.080   8.287   4.476
16678SOL     OW67030   6.521   8.224   5.178
16678SOL    HW267031   6.590   8.291   5.175
16678SOL    HW367032   6.454   8.262   5.234
16678SOL    MW467033   6.522   8.237   5.185
16679SOL     OW67034   5.939   8.524   5.426
16679SOL    HW267035   5.893   8.440   5.428
16679SOL    HW367036   5.996   8.518   5.350
16679SOL    MW467037   5.941   8.512   5.418
16680SOL     OW67038   7.056   8.167   3.747
16680SOL    HW267039   6.984   8.143   3.689
16680SOL    HW367040   7.122   8.204   3.689
16680SOL    MW467041   7.055   8.169   3.732
16681SOL     OW67042   6.190   8.899   4.427
16681SOL    HW267043   6.255   8.832   4.448
16681SOL    HW367044   6.242   8.976   4.404
16681SOL    MW467045   6.205   8.901   4.426
16682SOL     OW67046   6.451   8.064   4.557
16682SOL    HW267047   6.391   8.082   4.629
16682SOL    HW367048   6.485   7.976   4.576
16682SOL    MW467049   6.447   8.054   4.570
16683SOL     OW67050   7.392   7.563   5.226
16683SOL    HW267051   7.313   7.609   5.254
16683SOL    HW367052   7.427   7.617   5.155
16683SOL    MW467053   7.386   7.576   5.220
16684SOL     OW67054   6.676   8.647   4.576
16684SOL    HW267055   6.768   8.628   4.594
16684SOL    HW367056   6.649   8.577   4.516
16684SOL    MW467057   6.684   8.635   4.570
16685SOL     OW67058   6.469   8.467   3.931
16685SOL    HW267059   6.455   8.379   3.896
16685SOL    HW367060   6.420   8.524   3.872
16685SOL    MW467061   6.461   8.462   3.919
16686SOL     OW67062   5.882   8.191   4.710
16686SOL    HW267063   5.832   8.190   4.791
16686SOL    HW367064   5.902   8.283   4.694
16686SOL    MW467065   5.878   8.203   4.718
16687SOL     OW67066   6.949   8.955   5.472
16687SOL    HW267067   6.949   9.049   5.488
16687SOL    HW367068   6.994   8.945   5.388
16687SOL    MW467069   6.955   8.965   5.463
16688SOL     OW67070   7.188   7.673   4.033
16688SOL    HW267071   7.181   7.677   4.128
16688SOL    HW367072   7.200   7.764   4.006
16688SOL    MW467073   7.189   7.686   4.041
16689SOL     OW67074   6.477   8.236   4.147
16689SOL    HW267075   6.457   8.222   4.054
16689SOL    HW367076   6.570   8.215   4.154
16689SOL    MW467077   6.487   8.231   4.136
16690SOL     OW67078   5.804   7.859   5.451
16690SOL    HW267079   5.761   7.918   5.388
16690SOL    HW367080   5.872   7.914   5.491
16690SOL    MW467081   5.808   7.874   5.448
16691SOL     OW67082   6.916   8.479   4.996
16691SOL    HW267083   6.979   8.476   5.069
16691SOL    HW367084   6.832   8.497   5.038
16691SOL    MW467085   6.912   8.481   5.011
16692SOL     OW67086   7.255   7.656   4.775
16692SOL    HW267087   7.300   7.574   4.794
16692SOL    HW367088   7.275   7.712   4.851
16692SOL    MW467089   7.265   7.652   4.787
16693SOL     OW67090   5.703   7.499   4.874
16693SOL    HW267091   5.694   7.500   4.779
16693SOL    HW367092   5.797   7.511   4.889
16693SOL    MW467093   5.715   7.502   4.865
16694SOL     OW67094   7.340   8.692   4.494
16694SOL    HW267095   7.319   8.638   4.417
16694SOL    HW367096   7.436   8.690   4.498
16694SOL    MW467097   7.349   8.685   4.483
16695SOL     OW67098   6.032   8.837   5.237
16695SOL    HW267099   5.953   8.787   5.260
16695SOL    HW367100   6.102   8.796   5.287
16695SOL    MW467101   6.030   8.825   5.247
16696SOL     OW67102   5.916   7.626   3.920
16696SOL    HW267103   5.845   7.681   3.888
16696SOL    HW367104   5.958   7.592   3.841
16696SOL    MW467105   5.912   7.628   3.906
16697SOL     OW67106   7.040   8.123   4.756
16697SOL    HW267107   6.963   8.169   4.722
16697SOL    HW367108   7.097   8.192   4.790
16697SOL    MW467109   7.037   8.138   4.756
16698SOL     OW67110   5.672   7.725   3.769
16698SOL    HW267111   5.639   7.804   3.813
16698SOL    HW367112   5.727   7.758   3.698
16698SOL    MW467113   5.675   7.739   3.766
16699SOL     OW67114   7.341   8.339   5.862
16699SOL    HW267115   7.382   8.281   5.927
16699SOL    HW367116   7.248   8.331   5.879
16699SOL    MW467117   7.335   8.331   5.872
16700SOL     OW67118   7.207   8.271   6.857
16700SOL    HW267119   7.162   8.338   6.908
16700SOL    HW367120   7.295   8.307   6.843
16700SOL    MW467121   7.213   8.284   6.861
16701SOL     OW67122   6.135   8.522   6.091
16701SOL    HW267123   6.225   8.497   6.075
16701SOL    HW367124   6.131   8.615   6.068
16701SOL    MW467125   6.147   8.531   6.086
16702SOL     OW67126   7.187   8.665   6.838
16702SOL    HW267127   7.108   8.630   6.796
16702SOL    HW367128   7.214   8.737   6.782
16702SOL    MW467129   7.180   8.670   6.825
16703SOL     OW67130   6.419   7.978   6.104
16703SOL    HW267131   6.394   8.066   6.132
16703SOL    HW367132   6.416   7.981   6.008
16703SOL    MW467133   6.415   7.990   6.096
16704SOL     OW67134   5.861   8.006   6.032
16704SOL    HW267135   5.893   8.094   6.014
16704SOL    HW367136   5.849   8.004   6.127
16704SOL    MW467137   5.864   8.018   6.044
16705SOL     OW67138   5.939   8.419   6.933
16705SOL    HW267139   6.002   8.366   6.884
16705SOL    HW367140   5.920   8.493   6.876
16705SOL    MW467141   5.945   8.421   6.920
16706SOL     OW67142   6.260   7.761   6.119
16706SOL    HW267143   6.318   7.837   6.121
16706SOL    HW367144   6.195   7.782   6.052
16706SOL    MW467145   6.259   7.773   6.110
16707SOL     OW67146   6.347   8.688   6.294
16707SOL    HW267147   6.427   8.691   6.346
16707SOL    HW367148   6.375   8.655   6.208
16707SOL    MW467149   6.361   8.684   6.289
16708SOL     OW67150   6.372   9.029   7.197
16708SOL    HW267151   6.456   9.055   7.236
16708SOL    HW367152   6.396   8.973   7.123
16708SOL    MW467153   6.386   9.025   7.192
16709SOL     OW67154   6.124   8.192   6.285
16709SOL    HW267155   6.109   8.112   6.336
16709SOL    HW367156   6.206   8.227   6.319
16709SOL    MW467157   6.132   8.184   6.297
16710SOL     OW67158   6.266   8.018   6.662
16710SOL    HW267159   6.172   8.014   6.680
16710SOL    HW367160   6.296   7.927   6.671
16710SOL    MW467161   6.257   8.006   6.665
16711SOL     OW67162   6.012   8.432   6.566
16711SOL    HW267163   5.967   8.439   6.482
16711SOL    HW367164   5.992   8.515   6.610
16711SOL    MW467165   6.004   8.444   6.560
16712SOL     OW67166   6.974   8.670   5.810
16712SOL    HW267167   6.892   8.706   5.776
16712SOL    HW367168   7.042   8.713   5.759
16712SOL    MW467169   6.972   8.680   5.798
16713SOL     OW67170   5.973   8.805   6.476
16713SOL    HW267171   5.949   8.858   6.552
16713SOL    HW367172   6.029   8.863   6.424
16713SOL    MW467173   5.977   8.820   6.479
16714SOL     OW67174   6.535   8.449   6.286
16714SOL    HW267175   6.449   8.436   6.326
16714SOL    HW367176   6.588   8.376   6.318
16714SOL    MW467177   6.531   8.438   6.295
16715SOL     OW67178   6.526   8.811   6.003
16715SOL    HW267179   6.503   8.873   6.071
16715SOL    HW367180   6.483   8.729   6.029
16715SOL    MW467181   6.518   8.807   6.014
16716SOL     OW67182   7.399   7.812   6.459
16716SOL    HW267183   7.336   7.792   6.528
16716SOL    HW367184   7.389   7.741   6.396
16716SOL    MW467185   7.389   7.799   6.460
16717SOL     OW67186   6.023   7.784   5.971
16717SOL    HW267187   5.997   7.746   5.887
16717SOL    HW367188   5.960   7.854   5.987
16717SOL    MW467189   6.012   7.787   5.962
16718SOL     OW67190   5.858   8.745   6.008
16718SOL    HW267191   5.806   8.813   5.964
16718SOL    HW367192   5.855   8.671   5.948
16718SOL    MW467193   5.850   8.744   5.995
16719SOL     OW67194   7.455   7.981   5.761
16719SOL    HW267195   7.364   7.983   5.789
16719SOL    HW367196   7.500   8.043   5.819
16719SOL    MW467197   7.448   7.989   5.771
16720SOL     OW67198   7.200   8.584   6.111
16720SOL    HW267199   7.110   8.584   6.146
16720SOL    HW367200   7.193   8.630   6.028
16720SOL    MW467201   7.187   8.590   6.105
16721SOL     OW67202   7.000   8.219   7.183
16721SOL    HW267203   7.069   8.157   7.160
16721SOL    HW367204   6.925   8.193   7.130
16721SOL    MW467205   7.000   8.206   7.174
16722SOL     OW67206   6.736   8.606   7.175
16722SOL    HW267207   6.721   8.699   7.160
16722SOL    HW367208   6.831   8.596   7.175
16722SOL    MW467209   6.745   8.616   7.172
16723SOL     OW67210   6.532   8.030   7.376
16723SOL    HW267211   6.622   8.031   7.343
16723SOL    HW367212   6.491   7.955   7.334
16723SOL    MW467213   6.538   8.020   7.367
16724SOL     OW67214   7.107   8.562   6.503
16724SOL    HW267215   7.110   8.496   6.434
16724SOL    HW367216   7.192   8.605   6.499
16724SOL    MW467217   7.119   8.558   6.494
16725SOL     OW67218   6.727   8.165   6.072
16725SOL    HW267219   6.753   8.189   5.983
16725SOL    HW367220   6.709   8.072   6.068
16725SOL    MW467221   6.729   8.157   6.059
16726SOL     OW67222   7.392   8.785   5.923
16726SOL    HW267223   7.348   8.826   5.998
16726SOL    HW367224   7.449   8.853   5.888
16726SOL    MW467225   7.394   8.799   5.928
16727SOL     OW67226   6.312   7.834   7.326
16727SOL    HW267227   6.322   7.760   7.266
16727SOL    HW367228   6.348   7.803   7.409
16727SOL    MW467229   6.318   7.820   7.328
16728SOL     OW67230   7.432   7.563   6.290
16728SOL    HW267231   7.486   7.514   6.352
16728SOL    HW367232   7.375   7.497   6.251
16728SOL    MW467233   7.432   7.547   6.292
16729SOL     OW67234   6.551   7.516   6.703
16729SOL    HW267235   6.510   7.594   6.665
16729SOL    HW367236   6.645   7.534   6.698
16729SOL    MW467237   6.557   7.528   6.698
16730SOL     OW67238   6.566   8.194   5.733
16730SOL    HW267239   6.568   8.141   5.654
16730SOL    HW367240   6.654   8.231   5.739
16730SOL    MW467241   6.578   8.193   5.722
16731SOL     OW67242   7.180   8.120   6.069
16731SOL    HW267243   7.219   8.120   6.156
16731SOL    HW367244   7.121   8.196   6.069
16731SOL    MW467245   7.177   8.131   6.080
16732SOL     OW67246   6.497   8.487   7.198
16732SOL    HW267247   6.474   8.467   7.288
16732SOL    HW367248   6.582   8.531   7.203
16732SOL    MW467249   6.504   8.490   7.210
16733SOL     OW67250   6.577   7.624   6.958
16733SOL    HW267251   6.583   7.586   6.871
16733SOL    HW367252   6.566   7.718   6.943
16733SOL    MW467253   6.578   7.632   6.946
16734SOL     OW67254   6.666   8.113   6.792
16734SOL    HW267255   6.741   8.142   6.739
16734SOL    HW367256   6.598   8.178   6.776
16734SOL    MW467257   6.667   8.125   6.782
16735SOL     OW67258   7.216   8.081   7.069
16735SOL    HW267259   7.197   7.990   7.048
16735SOL    HW367260   7.194   8.130   6.990
16735SOL    MW467261   7.211   8.074   7.056
16736SOL     OW67262   6.663   7.819   7.175
16736SOL    HW267263   6.629   7.858   7.094
16736SOL    HW367264   6.641   7.727   7.168
16736SOL    MW467265   6.656   7.812   7.165
16737SOL     OW67266   7.072   8.633   7.251
16737SOL    HW267267   7.154   8.674   7.281
16737SOL    HW367268   7.035   8.595   7.331
16737SOL    MW467269   7.078   8.634   7.266
16738SOL     OW67270   7.367   8.006   6.235
16738SOL    HW267271   7.456   7.975   6.252
16738SOL    HW367272   7.310   7.946   6.283
16738SOL    MW467273   7.370   7.994   6.244
16739SOL     OW67274   5.793   7.720   6.264
16739SOL    HW267275   5.784   7.660   6.190
16739SOL    HW367276   5.726   7.691   6.327
16739SOL    MW467277   5.783   7.707   6.262
16740SOL     OW67278   6.736   8.813   5.825
16740SOL    HW267279   6.686   8.815   5.907
16740SOL    HW367280   6.670   8.831   5.757
16740SOL    MW467281   6.722   8.815   5.827
16741SOL     OW67282   5.740   7.893   6.627
16741SOL    HW267283   5.712   7.984   6.636
16741SOL    HW367284   5.677   7.854   6.566
16741SOL    MW467285   5.727   7.899   6.621
16742SOL     OW67286   6.335   8.646   5.640
16742SOL    HW267287   6.257   8.592   5.627
16742SOL    HW367288   6.306   8.719   5.693
16742SOL    MW467289   6.321   8.648   5.645
16743SOL     OW67290   7.461   8.386   6.832
16743SOL    HW267291   7.477   8.424   6.745
16743SOL    HW367292   7.495   8.452   6.893
16743SOL    MW467293   7.468   8.399   6.828
16744SOL     OW67294   5.724   8.168   6.797
16744SOL    HW267295   5.786   8.198   6.863
16744SOL    HW367296   5.658   8.237   6.791
16744SOL    MW467297   5.723   8.181   6.804
16745SOL     OW67298   6.365   7.725   5.705
16745SOL    HW267299   6.313   7.645   5.693
16745SOL    HW367300   6.452   7.702   5.673
16745SOL    MW467301   6.368   7.711   5.699
16746SOL     OW67302   5.871   8.596   6.756
16746SOL    HW267303   5.924   8.671   6.781
16746SOL    HW367304   5.790   8.634   6.722
16746SOL    MW467305   5.867   8.611   6.756
16747SOL     OW67306   6.411   8.500   6.744
16747SOL    HW267307   6.439   8.409   6.756
16747SOL    HW367308   6.340   8.494   6.680
16747SOL    MW467309   6.404   8.488   6.739
16748SOL     OW67310   5.726   8.365   6.162
16748SOL    HW267311   5.817   8.380   6.189
16748SOL    HW367312   5.729   8.286   6.108
16748SOL    MW467313   5.738   8.357   6.160
16749SOL     OW67314   5.962   8.073   7.416
16749SOL    HW267315   5.909   8.153   7.423
16749SOL    HW367316   6.032   8.085   7.481
16749SOL    MW467317   5.964   8.086   7.424
16750SOL     OW67318   6.348   7.623   7.123
16750SOL    HW267319   6.325   7.531   7.125
16750SOL    HW367320   6.434   7.625   7.080
16750SOL    MW467321   6.355   7.613   7.119
16751SOL     OW67322   6.032   8.147   7.162
16751SOL    HW267323   6.112   8.197   7.148
16751SOL    HW367324   6.023   8.141   7.257
16751SOL    MW467325   6.041   8.153   7.172
16752SOL     OW67326   7.009   7.672   7.433
16752SOL    HW267327   7.065   7.599   7.459
16752SOL    HW367328   6.979   7.710   7.515
16752SOL    MW467329   7.013   7.667   7.446
16753SOL     OW67330   6.567   9.020   6.236
16753SOL    HW267331   6.650   8.974   6.220
16753SOL    HW367332   6.557   9.019   6.332
16753SOL    MW467333   6.577   9.013   6.246
16754SOL     OW67334   7.399   8.165   6.550
16754SOL    HW267335   7.488   8.195   6.532
16754SOL    HW367336   7.379   8.105   6.479
16754SOL    MW467337   7.408   8.162   6.539
16755SOL     OW67338   7.250   8.344   7.430
16755SOL    HW267339   7.305   8.268   7.411
16755SOL    HW367340   7.252   8.352   7.525
16755SOL    MW467341   7.258   8.335   7.438
16756SOL     OW67342   6.738   7.722   5.864
16756SOL    HW267343   6.671   7.698   5.801
16756SOL    HW367344   6.803   7.771   5.813
16756SOL    MW467345   6.738   7.724   5.849
16757SOL     OW67346   6.545   7.906   6.949
16757SOL    HW267347   6.464   7.947   6.977
16757SOL    HW367348   6.592   7.974   6.901
16757SOL    MW467349   6.540   7.921   6.947
16758SOL     OW67350   6.805   8.244   6.572
16758SOL    HW267351   6.818   8.338   6.582
16758SOL    HW367352   6.766   8.234   6.486
16758SOL    MW467353   6.801   8.255   6.562
16759SOL     OW67354   6.257   8.439   6.376
16759SOL    HW267355   6.168   8.430   6.409
16759SOL    HW367356   6.261   8.529   6.344
16759SOL    MW467357   6.246   8.450   6.376
16760SOL     OW67358   7.056   8.022   6.371
16760SOL    HW267359   7.001   7.943   6.370
16760SOL    HW367360   7.038   8.063   6.455
16760SOL    MW467361   7.046   8.017   6.380
16761SOL     OW67362   6.027   7.709   7.188
16761SOL    HW267363   5.948   7.727   7.240
16761SOL    HW367364   6.022   7.771   7.115
16761SOL    MW467365   6.017   7.719   7.185
16762SOL     OW67366   6.675   8.226   6.328
16762SOL    HW267367   6.612   8.158   6.352
16762SOL    HW367368   6.695   8.207   6.236
16762SOL    MW467369   6.669   8.213   6.320
16763SOL     OW67370   6.423   8.530   6.054
16763SOL    HW267371   6.425   8.504   5.961
16763SOL    HW367372   6.481   8.467   6.097
16763SOL    MW467373   6.431   8.519   6.048
16764SOL     OW67374   6.933   7.774   6.387
16764SOL    HW267375   6.961   7.706   6.448
16764SOL    HW367376   6.847   7.745   6.357
16764SOL    MW467377   6.926   7.761   6.391
16765SOL     OW67378   5.738   8.708   6.321
16765SOL    HW267379   5.802   8.740   6.384
16765SOL    HW367380   5.787   8.644   6.269
16765SOL    MW467381   5.753   8.704   6.322
16766SOL     OW67382   6.913   7.878   5.722
16766SOL    HW267383   6.886   7.944   5.658
16766SOL    HW367384   6.983   7.921   5.772
16766SOL    MW467385   6.918   7.891   5.719
16767SOL     OW67386   6.581   7.583   5.659
16767SOL    HW267387   6.637   7.575   5.581
16767SOL    HW367388   6.558   7.493   5.681
16767SOL    MW467389   6.586   7.570   5.652
16768SOL     OW67390   7.086   8.434   5.864
16768SOL    HW267391   7.053   8.523   5.854
16768SOL    HW367392   7.051   8.405   5.949
16768SOL    MW467393   7.076   8.443   5.875
16769SOL     OW67394   5.992   7.531   7.394
16769SOL    HW267395   5.920   7.496   7.342
16769SOL    HW367396   6.050   7.572   7.329
16769SOL    MW467397   5.990   7.532   7.379
16770SOL     OW67398   7.456   8.550   7.047
16770SOL    HW267399   7.371   8.563   7.006
16770SOL    HW367400   7.436   8.514   7.134
16770SOL    MW467401   7.443   8.546   7.052
16771SOL     OW67402   6.080   8.472   5.656
16771SOL    HW267403   6.003   8.485   5.712
16771SOL    HW367404   6.044   8.436   5.575
16771SOL    MW467405   6.066   8.468   5.653
16772SOL     OW67406   6.733   8.445   5.899
16772SOL    HW267407   6.643   8.466   5.874
16772SOL    HW367408   6.760   8.518   5.955
16772SOL    MW467409   6.725   8.457   5.902
16773SOL     OW67410   6.233   8.794   6.591
16773SOL    HW267411   6.226   8.773   6.685
16773SOL    HW367412   6.151   8.762   6.554
16773SOL    MW467413   6.221   8.788   6.598
16774SOL     OW67414   7.097   7.804   6.993
16774SOL    HW267415   7.044   7.806   7.073
16774SOL    HW367416   7.082   7.717   6.956
16774SOL    MW467417   7.089   7.794   6.998
16775SOL     OW67418   7.433   7.728   6.866
16775SOL    HW267419   7.414   7.795   6.801
16775SOL    HW367420   7.490   7.666   6.821
16775SOL    MW467421   7.437   7.729   6.852
16776SOL     OW67422   6.362   7.561   6.306
16776SOL    HW267423   6.291   7.622   6.288
16776SOL    HW367424   6.413   7.558   6.225
16776SOL    MW467425   6.358   7.567   6.293
16777SOL     OW67426   6.120   8.801   6.055
16777SOL    HW267427   6.113   8.833   6.145
16777SOL    HW367428   6.030   8.785   6.027
16777SOL    MW467429   6.108   8.803   6.062
16778SOL     OW67430   6.322   8.218   7.436
16778SOL    HW267431   6.392   8.160   7.408
16778SOL    HW367432   6.265   8.163   7.491
16778SOL    MW467433   6.324   8.205   7.440
16779SOL     OW67434   7.109   8.430   7.069
16779SOL    HW267435   7.114   8.483   7.149
16779SOL    HW367436   7.071   8.347   7.097
16779SOL    MW467437   7.105   8.425   7.084
16780SOL     OW67438   6.749   7.565   7.315
16780SOL    HW267439   6.744   7.472   7.296
16780SOL    HW367440   6.832   7.576   7.361
16780SOL    MW467441   6.757   7.554   7.319
16781SOL     OW67442   6.123   8.085   5.769
16781SOL    HW267443   6.089   8.141   5.839
16781SOL    HW367444   6.194   8.035   5.809
16781SOL    MW467445   6.129   8.086   5.783
16782SOL     OW67446   7.219   8.836   6.591
16782SOL    HW267447   7.254   8.818   6.504
16782SOL    HW367448   7.124   8.837   6.578
16782SOL    MW467449   7.211   8.833   6.578
16783SOL     OW67450   6.648   8.484   6.960
16783SOL    HW267451   6.691   8.519   7.038
16783SOL    HW367452   6.631   8.561   6.906
16783SOL    MW467453   6.651   8.499   6.963
16784SOL     OW67454   7.179   7.971   5.833
16784SOL    HW267455   7.171   8.042   5.770
16784SOL    HW367456   7.197   8.015   5.916
16784SOL    MW467457   7.180   7.985   5.835
16785SOL     OW67458   6.039   7.626   6.262
16785SOL    HW267459   6.089   7.669   6.193
16785SOL    HW367460   5.954   7.670   6.262
16785SOL    MW467461   6.036   7.639   6.253
16786SOL     OW67462   5.798   8.688   7.122
16786SOL    HW267463   5.826   8.641   7.200
16786SOL    HW367464   5.719   8.643   7.093
16786SOL    MW467465   5.791   8.677   7.128
16787SOL     OW67466   6.306   8.015   7.089
16787SOL    HW267467   6.278   8.103   7.113
16787SOL    HW367468   6.275   7.959   7.160
16787SOL    MW467469   6.298   8.018   7.101
16788SOL     OW67470   6.848   8.233   5.808
16788SOL    HW267471   6.895   8.251   5.727
16788SOL    HW367472   6.814   8.317   5.836
16788SOL    MW467473   6.850   8.247   5.801
16789SOL     OW67474   5.961   8.411   6.302
16789SOL    HW267475   6.019   8.467   6.250
16789SOL    HW367476   6.005   8.326   6.304
16789SOL    MW467477   5.974   8.408   6.295
16790SOL     OW67478   7.101   7.763   6.139
16790SOL    HW267479   7.023   7.713   6.164
16790SOL    HW367480   7.072   7.854   6.139
16790SOL    MW467481   7.087   7.767   6.142
16791SOL     OW67482   6.687   7.725   6.298
16791SOL    HW267483   6.707   7.800   6.242
16791SOL    HW367484   6.667   7.764   6.383
16791SOL    MW467485   6.688   7.741   6.302
16792SOL     OW67486   7.447   8.498   7.317
16792SOL    HW267487   7.360   8.478   7.353
16792SOL    HW367488   7.501   8.424   7.342
16792SOL    MW467489   7.442   8.487   7.325
16793SOL     OW67490   5.623   8.137   6.021
16793SOL    HW267491   5.563   8.109   6.091
16793SOL    HW367492   5.697   8.077   6.027
16793SOL    MW467493   5.625   8.126   6.030
16794SOL     OW67494   6.049   7.876   6.910
16794SOL    HW267495   6.082   7.957   6.950
16794SOL    HW367496   6.022   7.902   6.822
16794SOL    MW467497   6.048   7.890   6.904
16795SOL     OW67498   6.003   7.843   6.646
16795SOL    HW267499   6.033   7.757   6.617
16795SOL    HW367500   5.908   7.836   6.649
16795SOL    MW467501   5.995   7.832   6.644
16796SOL     OW67502   6.832   8.052   7.337
16796SOL    HW267503   6.884   7.987   7.290
16796SOL    HW367504   6.790   8.103   7.267
16796SOL    MW467505   6.833   8.049   7.320
16797SOL     OW67506   6.931   7.847   7.198
16797SOL    HW267507   6.838   7.831   7.185
16797SOL    HW367508   6.957   7.785   7.266
16797SOL    MW467509   6.921   7.837   7.205
16798SOL     OW67510   6.146   7.621   6.537
16798SOL    HW267511   6.156   7.530   6.563
16798SOL    HW367512   6.102   7.617   6.452
16798SOL    MW467513   6.142   7.609   6.529
16799SOL     OW67514   7.297   7.943   6.708
16799SOL    HW267515   7.230   7.976   6.768
16799SOL    HW367516   7.340   8.021   6.674
16799SOL    MW467517   7.295   7.958   6.712
16800SOL     OW67518   7.475   8.663   6.678
16800SOL    HW267519   7.468   8.603   6.603
16800SOL    HW367520   7.401   8.723   6.667
16800SOL    MW467521   7.465   8.663   6.667
16801SOL     OW67522   6.857   8.525   6.596
16801SOL    HW267523   6.871   8.497   6.687
16801SOL    HW367524   6.943   8.556   6.568
16801SOL    MW467525   6.870   8.526   6.605
16802SOL     OW67526   6.940   8.020   6.875
16802SOL    HW267527   6.961   8.021   6.782
16802SOL    HW367528   6.985   7.942   6.908
16802SOL    MW467529   6.947   8.010   6.867
16803SOL     OW67530   7.433   8.151   7.417
16803SOL    HW267531   7.470   8.096   7.486
16803SOL    HW367532   7.458   8.108   7.335
16803SOL    MW467533   7.440   8.139   7.416
16804SOL     OW67534   6.980   8.449   7.468
16804SOL    HW267535   7.046   8.397   7.422
16804SOL    HW367536   7.000   8.436   7.561
16804SOL    MW467537   6.991   8.440   7.475
16805SOL     OW67538   6.931   7.535   5.817
16805SOL    HW267539   7.005   7.579   5.860
16805SOL    HW367540   6.855   7.589   5.839
16805SOL    MW467541   6.931   7.547   5.825
16806SOL     OW67542   6.991   8.310   6.095
16806SOL    HW267543   6.906   8.280   6.065
16806SOL    HW367544   6.983   8.317   6.190
16806SOL    MW467545   6.979   8.308   6.104
16807SOL     OW67546   6.351   7.753   6.649
16807SOL    HW267547   6.324   7.755   6.740
16807SOL    HW367548   6.281   7.705   6.604
16807SOL    MW467549   6.339   7.749   6.656
16808SOL     OW67550   7.107   8.830   7.043
16808SOL    HW267551   7.092   8.759   7.106
16808SOL    HW367552   7.153   8.788   6.971
16808SOL    MW467553   7.113   8.814   7.043
16809SOL     OW67554   6.181   8.561   7.160
16809SOL    HW267555   6.218   8.566   7.072
16809SOL    HW367556   6.220   8.634   7.207
16809SOL    MW467557   6.191   8.571   7.155
16810SOL     OW67558   6.361   8.604   6.972
16810SOL    HW267559   6.420   8.550   7.025
16810SOL    HW367560   6.376   8.576   6.882
16810SOL    MW467561   6.371   8.593   6.968
16811SOL     OW67562   6.364   7.976   5.821
16811SOL    HW267563   6.437   8.025   5.784
16811SOL    HW367564   6.380   7.885   5.795
16811SOL    MW467565   6.376   7.971   5.814
16812SOL     OW67566   6.832   7.572   6.735
16812SOL    HW267567   6.887   7.581   6.657
16812SOL    HW367568   6.887   7.606   6.806
16812SOL    MW467569   6.846   7.577   6.734
16813SOL     OW67570   5.839   8.485   5.919
16813SOL    HW267571   5.776   8.501   5.848
16813SOL    HW367572   5.786   8.448   5.990
16813SOL    MW467573   5.824   8.482   5.919
16814SOL     OW67574   6.195   8.839   5.778
16814SOL    HW267575   6.210   8.815   5.870
16814SOL    HW367576   6.103   8.817   5.762
16814SOL    MW467577   6.185   8.832   5.788
16815SOL     OW67578   6.610   8.706   6.742
16815SOL    HW267579   6.542   8.640   6.758
16815SOL    HW367580   6.628   8.700   6.649
16815SOL    MW467581   6.603   8.697   6.733
16816SOL     OW67582   6.603   7.845   6.563
16816SOL    HW267583   6.533   7.797   6.608
16816SOL    HW367584   6.635   7.908   6.627
16816SOL    MW467585   6.598   7.847   6.577
16817SOL     OW67586   6.254   8.281   7.183
16817SOL    HW267587   6.247   8.376   7.171
16817SOL    HW367588   6.263   8.270   7.278
16817SOL    MW467589   6.255   8.293   7.193
16818SOL     OW67590   5.975   8.796   7.441
16818SOL    HW267591   6.047   8.798   7.378
16818SOL    HW367592   5.945   8.705   7.440
16818SOL    MW467593   5.980   8.785   7.433
16819SOL     OW67594   7.059   7.559   6.908
16819SOL    HW267595   7.130   7.505   6.872
16819SOL    HW367596   7.058   7.538   7.001
16819SOL    MW467597   7.068   7.550   6.916
16820SOL     OW67598   6.070   7.951   6.376
16820SOL    HW267599   6.141   7.899   6.339
16820SOL    HW367600   6.056   7.916   6.463
16820SOL    MW467601   6.078   7.940   6.383
16821SOL     OW67602   6.706   7.892   6.100
16821SOL    HW267603   6.728   7.829   6.032
16821SOL    HW367604   6.611   7.884   6.111
16821SOL    MW467605   6.696   7.883   6.092
16822SOL     OW67606   5.791   7.582   6.032
16822SOL    HW267607   5.862   7.603   5.971
16822SOL    HW367608   5.745   7.510   5.990
16822SOL    MW467609   5.795   7.576   6.018
16823SOL     OW67610   5.622   8.049   7.175
16823SOL    HW267611   5.686   8.115   7.150
16823SOL    HW367612   5.541   8.076   7.132
16823SOL    MW467613   5.620   8.061   7.167
16824SOL     OW67614   6.916   8.633   6.062
16824SOL    HW267615   6.888   8.719   6.095
16824SOL    HW367616   6.944   8.649   5.972
16824SOL    MW467617   6.916   8.647   6.054
16825SOL     OW67618   6.578   7.553   6.115
16825SOL    HW267619   6.615   7.612   6.180
16825SOL    HW367620   6.555   7.609   6.041
16825SOL    MW467621   6.579   7.568   6.114
16826SOL     OW67622   7.431   8.435   6.537
16826SOL    HW267623   7.422   8.467   6.448
16826SOL    HW367624   7.384   8.351   6.537
16826SOL    MW467625   7.424   8.428   6.527
16827SOL     OW67626   5.807   8.275   7.116
16827SOL    HW267627   5.828   8.344   7.054
16827SOL    HW367628   5.887   8.222   7.121
16827SOL    MW467629   5.820   8.276   7.110
16828SOL     OW67630   7.343   8.366   6.238
16828SOL    HW267631   7.437   8.355   6.226
16828SOL    HW367632   7.319   8.438   6.179
16828SOL    MW467633   7.353   8.374   6.229
16829SOL     OW67634   5.792   8.290   7.383
16829SOL    HW267635   5.718   8.234   7.409
16829SOL    HW367636   5.787   8.293   7.288
16829SOL    MW467637   5.781   8.283   7.373
16830SOL     OW67638   5.958   7.577   6.833
16830SOL    HW267639   6.001   7.661   6.853
16830SOL    HW367640   6.031   7.515   6.826
16830SOL    MW467641   5.973   7.580   6.834
16831SOL     OW67642   5.999   8.244   6.011
16831SOL    HW267643   5.999   8.339   5.996
16831SOL    HW367644   6.076   8.228   6.065
16831SOL    MW467645   6.009   8.255   6.016
16832SOL     OW67646   6.775   8.103   7.075
16832SOL    HW267647   6.811   8.076   6.991
16832SOL    HW367648   6.688   8.137   7.054
16832SOL    MW467649   6.769   8.104   7.062
16833SOL     OW67650   5.758   7.975   6.300
16833SOL    HW267651   5.820   7.982   6.373
16833SOL    HW367652   5.758   7.882   6.277
16833SOL    MW467653   5.766   7.964   6.307
16834SOL     OW67654   6.440   8.236   6.784
16834SOL    HW267655   6.398   8.154   6.760
16834SOL    HW367656   6.441   8.235   6.880
16834SOL    MW467657   6.433   8.225   6.793
16835SOL     OW67658   6.244   7.706   6.889
16835SOL    HW267659   6.175   7.769   6.910
16835SOL    HW367660   6.271   7.670   6.974
16835SOL    MW467661   6.238   7.709   6.902
16836SOL     OW67662   5.627   8.547   5.758
16836SOL    HW267663   5.596   8.612   5.821
16836SOL    HW367664   5.576   8.469   5.777
16836SOL    MW467665   5.617   8.544   5.768
16837SOL     OW67666   7.039   7.559   6.506
16837SOL    HW267667   7.127   7.568   6.543
16837SOL    HW367668   7.049   7.500   6.432
16837SOL    MW467669   7.053   7.553   6.500
16838SOL     OW67670   7.071   8.298   6.350
16838SOL    HW267671   7.151   8.313   6.299
16838SOL    HW367672   7.064   8.203   6.356
16838SOL    MW467673   7.080   8.287   6.345
16839SOL     OW67674   6.521   8.224   7.047
16839SOL    HW267675   6.590   8.291   7.044
16839SOL    HW367676   6.454   8.262   7.103
16839SOL    MW467677   6.522   8.237   7.054
16840SOL     OW67678   5.939   8.524   7.295
16840SOL    HW267679   5.893   8.440   7.297
16840SOL    HW367680   5.996   8.518   7.219
16840SOL    MW467681   5.941   8.512   7.287
16841SOL     OW67682   7.056   8.167   5.615
16841SOL    HW267683   6.984   8.143   5.557
16841SOL    HW367684   7.122   8.204   5.557
16841SOL    MW467685   7.055   8.169   5.600
16842SOL     OW67686   6.190   8.899   6.296
16842SOL    HW267687   6.255   8.832   6.317
16842SOL    HW367688   6.242   8.976   6.273
16842SOL    MW467689   6.205   8.901   6.295
16843SOL     OW67690   6.451   8.064   6.426
16843SOL    HW267691   6.391   8.082   6.498
16843SOL    HW367692   6.485   7.976   6.445
16843SOL    MW467693   6.447   8.054   6.439
16844SOL     OW67694   7.392   7.563   7.095
16844SOL    HW267695   7.313   7.609   7.123
16844SOL    HW367696   7.427   7.617   7.024
16844SOL    MW467697   7.386   7.576   7.089
16845SOL     OW67698   6.676   8.647   6.445
16845SOL    HW267699   6.768   8.628   6.463
16845SOL    HW367700   6.649   8.577   6.385
16845SOL    MW467701   6.684   8.635   6.439
16846SOL     OW67702   6.469   8.467   5.800
16846SOL    HW267703   6.455   8.379   5.765
16846SOL    HW367704   6.420   8.524   5.741
16846SOL    MW467705   6.461   8.462   5.788
16847SOL     OW67706   5.882   8.191   6.579
16847SOL    HW267707   5.832   8.190   6.660
16847SOL    HW367708   5.902   8.283   6.563
16847SOL    MW467709   5.878   8.203   6.587
16848SOL     OW67710   6.949   8.955   7.341
16848SOL    HW267711   6.949   9.049   7.357
16848SOL    HW367712   6.994   8.945   7.257
16848SOL    MW467713   6.955   8.965   7.332
16849SOL     OW67714   7.188   7.673   5.902
16849SOL    HW267715   7.181   7.677   5.997
16849SOL    HW367716   7.200   7.764   5.875
16849SOL    MW467717   7.189   7.686   5.910
16850SOL     OW67718   6.477   8.236   6.016
16850SOL    HW267719   6.457   8.222   5.923
16850SOL    HW367720   6.570   8.215   6.023
16850SOL    MW467721   6.487   8.231   6.005
16851SOL     OW67722   5.804   7.859   7.320
16851SOL    HW267723   5.761   7.918   7.257
16851SOL    HW367724   5.872   7.914   7.360
16851SOL    MW467725   5.808   7.874   7.317
16852SOL     OW67726   6.916   8.479   6.865
16852SOL    HW267727   6.979   8.476   6.938
16852SOL    HW367728   6.832   8.497   6.907
16852SOL    MW467729   6.912   8.481   6.880
16853SOL     OW67730   7.255   7.656   6.644
16853SOL    HW267731   7.300   7.574   6.663
16853SOL    HW367732   7.275   7.712   6.720
16853SOL    MW467733   7.265   7.652   6.656
16854SOL     OW67734   5.703   7.499   6.743
16854SOL    HW267735   5.694   7.500   6.648
16854SOL    HW367736   5.797   7.511   6.758
16854SOL    MW467737   5.715   7.502   6.734
16855SOL     OW67738   7.340   8.692   6.363
16855SOL    HW267739   7.319   8.638   6.286
16855SOL    HW367740   7.436   8.690   6.367
16855SOL    MW467741   7.349   8.685   6.352
16856SOL     OW67742   6.032   8.837   7.106
16856SOL    HW267743   5.953   8.787   7.129
16856SOL    HW367744   6.102   8.796   7.156
16856SOL    MW467745   6.030   8.825   7.116
16857SOL     OW67746   5.916   7.626   5.789
16857SOL    HW267747   5.845   7.681   5.757
16857SOL    HW367748   5.958   7.592   5.710
16857SOL    MW467749   5.912   7.628   5.775
16858SOL     OW67750   7.040   8.123   6.625
16858SOL    HW267751   6.963   8.169   6.591
16858SOL    HW367752   7.097   8.192   6.659
16858SOL    MW467753   7.037   8.138   6.625
16859SOL     OW67754   5.672   7.725   5.638
16859SOL    HW267755   5.639   7.804   5.682
16859SOL    HW367756   5.727   7.758   5.567
16859SOL    MW467757   5.675   7.739   5.635
16860SOL     OW67758   1.369   8.670   7.705
16860SOL    HW267759   1.287   8.706   7.671
16860SOL    HW367760   1.437   8.713   7.654
16860SOL    MW467761   1.367   8.680   7.693
16861SOL     OW67762   0.921   8.811   7.898
16861SOL    HW267763   0.898   8.873   7.966
16861SOL    HW367764   0.878   8.729   7.924
16861SOL    MW467765   0.913   8.807   7.909
16862SOL     OW67766   1.595   8.584   8.006
16862SOL    HW267767   1.505   8.584   8.041
16862SOL    HW367768   1.588   8.630   7.923
16862SOL    MW467769   1.582   8.590   8.000
16863SOL     OW67770   1.563   9.069   7.684
16863SOL    HW267771   1.611   9.138   7.730
16863SOL    HW367772   1.484   9.113   7.653
16863SOL    MW467773   1.558   9.083   7.687
16864SOL     OW67774   0.961   8.194   7.628
16864SOL    HW267775   0.963   8.141   7.549
16864SOL    HW367776   1.049   8.231   7.634
16864SOL    MW467777   0.973   8.193   7.617
16865SOL     OW67778   0.730   8.646   7.535
16865SOL    HW267779   0.652   8.592   7.522
16865SOL    HW367780   0.701   8.719   7.588
16865SOL    MW467781   0.716   8.648   7.540
16866SOL     OW67782   1.535   8.836   7.545
16866SOL    HW267783   1.482   8.885   7.481
16866SOL    HW367784   1.566   8.902   7.606
16866SOL    MW467785   1.533   8.850   7.543
16867SOL     OW67786   0.760   7.725   7.600
16867SOL    HW267787   0.708   7.645   7.588
16867SOL    HW367788   0.847   7.702   7.568
16867SOL    MW467789   0.763   7.711   7.594
16868SOL     OW67790   0.976   7.583   7.554
16868SOL    HW267791   1.032   7.575   7.476
16868SOL    HW367792   0.953   7.493   7.576
16868SOL    MW467793   0.981   7.570   7.547
16869SOL     OW67794   0.475   8.472   7.551
16869SOL    HW267795   0.398   8.485   7.607
16869SOL    HW367796   0.439   8.436   7.470
16869SOL    MW467797   0.461   8.468   7.548
16870SOL     OW67798   1.128   8.445   7.794
16870SOL    HW267799   1.038   8.466   7.769
16870SOL    HW367800   1.155   8.518   7.850
16870SOL    MW467801   1.120   8.457   7.797
16871SOL     OW67802   0.518   8.085   7.664
16871SOL    HW267803   0.484   8.141   7.734
16871SOL    HW367804   0.589   8.035   7.704
16871SOL    MW467805   0.524   8.086   7.678
16872SOL     OW67806   0.978   8.975   7.525
16872SOL    HW267807   1.005   9.053   7.477
16872SOL    HW367808   0.885   8.990   7.544
16872SOL    MW467809   0.969   8.988   7.521
16873SOL     OW67810   1.386   8.310   7.990
16873SOL    HW267811   1.301   8.280   7.960
16873SOL    HW367812   1.378   8.317   8.085
16873SOL    MW467813   1.374   8.308   7.999
16874SOL     OW67814   0.759   7.976   7.716
16874SOL    HW267815   0.832   8.025   7.679
16874SOL    HW367816   0.775   7.885   7.690
16874SOL    MW467817   0.771   7.971   7.709
16875SOL     OW67818   0.234   8.485   7.814
16875SOL    HW267819   0.171   8.501   7.743
16875SOL    HW367820   0.181   8.448   7.885
16875SOL    MW467821   0.219   8.482   7.814
16876SOL     OW67822   1.451   8.167   7.511
16876SOL    HW267823   1.379   8.143   7.453
16876SOL    HW367824   1.517   8.204   7.453
16876SOL    MW467825   1.450   8.169   7.496
16877SOL     OW67826   0.067   7.725   7.533
16877SOL    HW267827   0.034   7.804   7.577
16877SOL    HW367828   0.122   7.758   7.462
16877SOL    MW467829   0.070   7.739   7.530
16878SOL     OW67830   3.237   8.670   7.705
16878SOL    HW267831   3.155   8.706   7.671
16878SOL    HW367832   3.305   8.713   7.654
16878SOL    MW467833   3.235   8.680   7.693
16879SOL     OW67834   2.789   8.811   7.898
16879SOL    HW267835   2.766   8.873   7.966
16879SOL    HW367836   2.746   8.729   7.924
16879SOL    MW467837   2.781   8.807   7.909
16880SOL     OW67838   3.463   8.584   8.006
16880SOL    HW267839   3.373   8.584   8.041
16880SOL    HW367840   3.456   8.630   7.923
16880SOL    MW467841   3.450   8.590   8.000
16881SOL     OW67842   2.829   8.194   7.628
16881SOL    HW267843   2.831   8.141   7.549
16881SOL    HW367844   2.917   8.231   7.634
16881SOL    MW467845   2.841   8.193   7.617
16882SOL     OW67846   2.598   8.646   7.535
16882SOL    HW267847   2.520   8.592   7.522
16882SOL    HW367848   2.569   8.719   7.588
16882SOL    MW467849   2.584   8.648   7.540
16883SOL     OW67850   2.628   7.725   7.600
16883SOL    HW267851   2.576   7.645   7.588
16883SOL    HW367852   2.715   7.702   7.568
16883SOL    MW467853   2.631   7.711   7.594
16884SOL     OW67854   2.563   9.077   7.536
16884SOL    HW267855   2.503   9.146   7.506
16884SOL    HW367856   2.508   9.019   7.589
16884SOL    MW467857   2.547   9.079   7.538
16885SOL     OW67858   2.844   7.583   7.554
16885SOL    HW267859   2.900   7.575   7.476
16885SOL    HW367860   2.821   7.493   7.576
16885SOL    MW467861   2.849   7.570   7.547
16886SOL     OW67862   2.343   8.472   7.551
16886SOL    HW267863   2.266   8.485   7.607
16886SOL    HW367864   2.307   8.436   7.470
16886SOL    MW467865   2.329   8.468   7.548
16887SOL     OW67866   2.996   8.445   7.794
16887SOL    HW267867   2.906   8.466   7.769
16887SOL    HW367868   3.023   8.518   7.850
16887SOL    MW467869   2.988   8.457   7.797
16888SOL     OW67870   2.386   8.085   7.664
16888SOL    HW267871   2.352   8.141   7.734
16888SOL    HW367872   2.457   8.035   7.704
16888SOL    MW467873   2.392   8.086   7.678
16889SOL     OW67874   2.846   8.975   7.525
16889SOL    HW267875   2.873   9.053   7.477
16889SOL    HW367876   2.753   8.990   7.544
16889SOL    MW467877   2.837   8.988   7.521
16890SOL     OW67878   3.254   8.310   7.990
16890SOL    HW267879   3.169   8.280   7.960
16890SOL    HW367880   3.246   8.317   8.085
16890SOL    MW467881   3.242   8.308   7.999
16891SOL     OW67882   2.627   7.976   7.716
16891SOL    HW267883   2.700   8.025   7.679
16891SOL    HW367884   2.643   7.885   7.690
16891SOL    MW467885   2.639   7.971   7.709
16892SOL     OW67886   2.102   8.485   7.814
16892SOL    HW267887   2.039   8.501   7.743
16892SOL    HW367888   2.049   8.448   7.885
16892SOL    MW467889   2.087   8.482   7.814
16893SOL     OW67890   2.458   8.839   7.673
16893SOL    HW267891   2.473   8.815   7.765
16893SOL    HW367892   2.366   8.817   7.657
16893SOL    MW467893   2.448   8.832   7.683
16894SOL     OW67894   3.319   8.167   7.511
16894SOL    HW267895   3.247   8.143   7.453
16894SOL    HW367896   3.385   8.204   7.453
16894SOL    MW467897   3.318   8.169   7.496
16895SOL     OW67898   1.935   7.725   7.533
16895SOL    HW267899   1.902   7.804   7.577
16895SOL    HW367900   1.990   7.758   7.462
16895SOL    MW467901   1.938   7.739   7.530
16896SOL     OW67902   5.472   8.339   7.757
16896SOL    HW267903   5.513   8.281   7.822
16896SOL    HW367904   5.379   8.331   7.774
16896SOL    MW467905   5.466   8.331   7.767
16897SOL     OW67906   4.550   7.978   7.999
16897SOL    HW267907   4.525   8.066   8.027
16897SOL    HW367908   4.547   7.981   7.903
16897SOL    MW467909   4.546   7.990   7.991
16898SOL     OW67910   5.105   8.670   7.705
16898SOL    HW267911   5.023   8.706   7.671
16898SOL    HW367912   5.173   8.713   7.654
16898SOL    MW467913   5.103   8.680   7.693
16899SOL     OW67914   4.657   8.811   7.898
16899SOL    HW267915   4.634   8.873   7.966
16899SOL    HW367916   4.614   8.729   7.924
16899SOL    MW467917   4.649   8.807   7.909
16900SOL     OW67918   5.586   7.981   7.656
16900SOL    HW267919   5.495   7.983   7.684
16900SOL    HW367920   5.631   8.043   7.714
16900SOL    MW467921   5.579   7.989   7.666
16901SOL     OW67922   5.331   8.584   8.006
16901SOL    HW267923   5.241   8.584   8.041
16901SOL    HW367924   5.324   8.630   7.923
16901SOL    MW467925   5.318   8.590   8.000
16902SOL     OW67926   4.858   8.165   7.967
16902SOL    HW267927   4.884   8.189   7.878
16902SOL    HW367928   4.840   8.072   7.963
16902SOL    MW467929   4.860   8.157   7.954
16903SOL     OW67930   5.523   8.785   7.818
16903SOL    HW267931   5.479   8.826   7.893
16903SOL    HW367932   5.580   8.853   7.783
16903SOL    MW467933   5.525   8.799   7.823
16904SOL     OW67934   4.697   8.194   7.628
16904SOL    HW267935   4.699   8.141   7.549
16904SOL    HW367936   4.785   8.231   7.634
16904SOL    MW467937   4.709   8.193   7.617
16905SOL     OW67938   5.311   8.120   7.964
16905SOL    HW267939   5.350   8.120   8.051
16905SOL    HW367940   5.252   8.196   7.964
16905SOL    MW467941   5.308   8.131   7.975
16906SOL     OW67942   4.867   8.813   7.720
16906SOL    HW267943   4.817   8.815   7.802
16906SOL    HW367944   4.801   8.831   7.652
16906SOL    MW467945   4.853   8.815   7.722
16907SOL     OW67946   4.466   8.646   7.535
16907SOL    HW267947   4.388   8.592   7.522
16907SOL    HW367948   4.437   8.719   7.588
16907SOL    MW467949   4.452   8.648   7.540
16908SOL     OW67950   4.496   7.725   7.600
16908SOL    HW267951   4.444   7.645   7.588
16908SOL    HW367952   4.583   7.702   7.568
16908SOL    MW467953   4.499   7.711   7.594
16909SOL     OW67954   4.869   7.722   7.759
16909SOL    HW267955   4.802   7.698   7.696
16909SOL    HW367956   4.934   7.771   7.708
16909SOL    MW467957   4.869   7.724   7.744
16910SOL     OW67958   4.554   8.530   7.949
16910SOL    HW267959   4.556   8.504   7.856
16910SOL    HW367960   4.612   8.467   7.992
16910SOL    MW467961   4.562   8.519   7.943
16911SOL     OW67962   4.712   7.583   7.554
16911SOL    HW267963   4.768   7.575   7.476
16911SOL    HW367964   4.689   7.493   7.576
16911SOL    MW467965   4.717   7.570   7.547
16912SOL     OW67966   5.217   8.434   7.759
16912SOL    HW267967   5.184   8.523   7.749
16912SOL    HW367968   5.182   8.405   7.844
16912SOL    MW467969   5.207   8.443   7.770
16913SOL     OW67970   4.211   8.472   7.551
16913SOL    HW267971   4.134   8.485   7.607
16913SOL    HW367972   4.175   8.436   7.470
16913SOL    MW467973   4.197   8.468   7.548
16914SOL     OW67974   4.864   8.445   7.794
16914SOL    HW267975   4.774   8.466   7.769
16914SOL    HW367976   4.891   8.518   7.850
16914SOL    MW467977   4.856   8.457   7.797
16915SOL     OW67978   4.254   8.085   7.664
16915SOL    HW267979   4.220   8.141   7.734
16915SOL    HW367980   4.325   8.035   7.704
16915SOL    MW467981   4.260   8.086   7.678
16916SOL     OW67982   5.310   7.971   7.728
16916SOL    HW267983   5.302   8.042   7.665
16916SOL    HW367984   5.328   8.015   7.811
16916SOL    MW467985   5.311   7.985   7.730
16917SOL     OW67986   4.979   8.233   7.703
16917SOL    HW267987   5.026   8.251   7.622
16917SOL    HW367988   4.945   8.317   7.731
16917SOL    MW467989   4.981   8.247   7.696
16918SOL     OW67990   5.062   7.535   7.712
16918SOL    HW267991   5.136   7.579   7.755
16918SOL    HW367992   4.986   7.589   7.734
16918SOL    MW467993   5.062   7.547   7.720
16919SOL     OW67994   5.122   8.310   7.990
16919SOL    HW267995   5.037   8.280   7.960
16919SOL    HW367996   5.114   8.317   8.085
16919SOL    MW467997   5.110   8.308   7.999
16920SOL     OW67998   4.495   7.976   7.716
16920SOL    HW267999   4.568   8.025   7.679
16920SOL    HW368000   4.511   7.885   7.690
16920SOL    MW468001   4.507   7.971   7.709
16921SOL     OW68002   3.970   8.485   7.814
16921SOL    HW268003   3.907   8.501   7.743
16921SOL    HW368004   3.917   8.448   7.885
16921SOL    MW468005   3.955   8.482   7.814
16922SOL     OW68006   4.326   8.839   7.673
16922SOL    HW268007   4.341   8.815   7.765
16922SOL    HW368008   4.234   8.817   7.657
16922SOL    MW468009   4.316   8.832   7.683
16923SOL     OW68010   4.837   7.892   7.995
16923SOL    HW268011   4.859   7.829   7.927
16923SOL    HW368012   4.742   7.884   8.006
16923SOL    MW468013   4.827   7.883   7.987
16924SOL     OW68014   5.047   8.633   7.957
16924SOL    HW268015   5.019   8.719   7.990
16924SOL    HW368016   5.075   8.649   7.867
16924SOL    MW468017   5.047   8.647   7.949
16925SOL     OW68018   4.709   7.553   8.010
16925SOL    HW268019   4.746   7.612   8.075
16925SOL    HW368020   4.686   7.609   7.936
16925SOL    MW468021   4.710   7.568   8.009
16926SOL     OW68022   5.187   8.167   7.511
16926SOL    HW268023   5.115   8.143   7.453
16926SOL    HW368024   5.253   8.204   7.453
16926SOL    MW468025   5.186   8.169   7.496
16927SOL     OW68026   4.600   8.467   7.695
16927SOL    HW268027   4.586   8.379   7.660
16927SOL    HW368028   4.551   8.524   7.636
16927SOL    MW468029   4.592   8.462   7.683
16928SOL     OW68030   5.319   7.673   7.797
16928SOL    HW268031   5.312   7.677   7.892
16928SOL    HW368032   5.331   7.764   7.770
16928SOL    MW468033   5.320   7.686   7.805
16929SOL     OW68034   4.608   8.236   7.911
16929SOL    HW268035   4.588   8.222   7.818
16929SOL    HW368036   4.701   8.215   7.918
16929SOL    MW468037   4.618   8.231   7.900
16930SOL     OW68038   3.803   7.725   7.533
16930SOL    HW268039   3.770   7.804   7.577
16930SOL    HW368040   3.858   7.758   7.462
16930SOL    MW468041   3.806   7.739   7.530
16931SOL     OW68042   6.135   8.522   7.986
16931SOL    HW268043   6.225   8.497   7.970
16931SOL    HW368044   6.131   8.615   7.963
16931SOL    MW468045   6.147   8.531   7.981
16932SOL     OW68046   5.861   8.006   7.927
16932SOL    HW268047   5.893   8.094   7.909
16932SOL    HW368048   5.849   8.004   8.022
16932SOL    MW468049   5.864   8.018   7.939
16933SOL     OW68050   6.974   8.670   7.705
16933SOL    HW268051   6.892   8.706   7.671
16933SOL    HW368052   7.042   8.713   7.654
16933SOL    MW468053   6.972   8.680   7.693
16934SOL     OW68054   6.526   8.811   7.898
16934SOL    HW268055   6.503   8.873   7.966
16934SOL    HW368056   6.483   8.729   7.924
16934SOL    MW468057   6.518   8.807   7.909
16935SOL     OW68058   6.023   7.784   7.866
16935SOL    HW268059   5.997   7.746   7.782
16935SOL    HW368060   5.960   7.854   7.882
16935SOL    MW468061   6.012   7.787   7.857
16936SOL     OW68062   5.858   8.745   7.903
16936SOL    HW268063   5.806   8.813   7.859
16936SOL    HW368064   5.855   8.671   7.843
16936SOL    MW468065   5.850   8.744   7.890
16937SOL     OW68066   6.566   8.194   7.628
16937SOL    HW268067   6.568   8.141   7.549
16937SOL    HW368068   6.654   8.231   7.634
16937SOL    MW468069   6.578   8.193   7.617
16938SOL     OW68070   6.335   8.646   7.535
16938SOL    HW268071   6.257   8.592   7.522
16938SOL    HW368072   6.306   8.719   7.588
16938SOL    MW468073   6.321   8.648   7.540
16939SOL     OW68074   6.365   7.725   7.600
16939SOL    HW268075   6.313   7.645   7.588
16939SOL    HW368076   6.452   7.702   7.568
16939SOL    MW468077   6.368   7.711   7.594
16940SOL     OW68078   6.581   7.583   7.554
16940SOL    HW268079   6.637   7.575   7.476
16940SOL    HW368080   6.558   7.493   7.576
16940SOL    MW468081   6.586   7.570   7.547
16941SOL     OW68082   6.080   8.472   7.551
16941SOL    HW268083   6.003   8.485   7.607
16941SOL    HW368084   6.044   8.436   7.470
16941SOL    MW468085   6.066   8.468   7.548
16942SOL     OW68086   6.733   8.445   7.794
16942SOL    HW268087   6.643   8.466   7.769
16942SOL    HW368088   6.760   8.518   7.850
16942SOL    MW468089   6.725   8.457   7.797
16943SOL     OW68090   6.120   8.801   7.950
16943SOL    HW268091   6.113   8.833   8.040
16943SOL    HW368092   6.030   8.785   7.922
16943SOL    MW468093   6.108   8.803   7.957
16944SOL     OW68094   6.123   8.085   7.664
16944SOL    HW268095   6.089   8.141   7.734
16944SOL    HW368096   6.194   8.035   7.704
16944SOL    MW468097   6.129   8.086   7.678
16945SOL     OW68098   5.623   8.137   7.916
16945SOL    HW268099   5.563   8.109   7.986
16945SOL    HW368100   5.697   8.077   7.922
16945SOL    MW468101   5.625   8.126   7.925
16946SOL     OW68102   6.991   8.310   7.990
16946SOL    HW268103   6.906   8.280   7.960
16946SOL    HW368104   6.983   8.317   8.085
16946SOL    MW468105   6.979   8.308   7.999
16947SOL     OW68106   5.839   8.485   7.814
16947SOL    HW268107   5.776   8.501   7.743
16947SOL    HW368108   5.786   8.448   7.885
16947SOL    MW468109   5.824   8.482   7.814
16948SOL     OW68110   6.195   8.839   7.673
16948SOL    HW268111   6.210   8.815   7.765
16948SOL    HW368112   6.103   8.817   7.657
16948SOL    MW468113   6.185   8.832   7.683
16949SOL     OW68114   5.791   7.582   7.927
16949SOL    HW268115   5.862   7.603   7.866
16949SOL    HW368116   5.745   7.510   7.885
16949SOL    MW468117   5.795   7.576   7.913
16950SOL     OW68118   5.999   8.244   7.906
16950SOL    HW268119   5.999   8.339   7.891
16950SOL    HW368120   6.076   8.228   7.960
16950SOL    MW468121   6.009   8.255   7.911
16951SOL     OW68122   5.627   8.547   7.653
16951SOL    HW268123   5.596   8.612   7.716
16951SOL    HW368124   5.576   8.469   7.672
16951SOL    MW468125   5.617   8.544   7.663
16952SOL     OW68126   7.056   8.167   7.511
16952SOL    HW268127   6.984   8.143   7.453
16952SOL    HW368128   7.122   8.204   7.453
16952SOL    MW468129   7.055   8.169   7.496
16953SOL     OW68130   5.916   7.626   7.684
16953SOL    HW268131   5.845   7.681   7.652
16953SOL    HW368132   5.958   7.592   7.605
16953SOL    MW468133   5.912   7.628   7.670
16954SOL     OW68134   5.672   7.725   7.533
16954SOL    HW268135   5.639   7.804   7.577
16954SOL    HW368136   5.727   7.758   7.462
16954SOL    MW468137   5.675   7.739   7.530
16955SOL     OW68138   9.102   0.771   1.252
16955SOL    HW268139   9.057   0.838   1.303
16955SOL    HW368140   9.190   0.807   1.238
16955SOL    MW468141   9.108   0.784   1.256
16956SOL     OW68142   8.030   1.022   0.486
16956SOL    HW268143   8.120   0.997   0.470
16956SOL    HW368144   8.026   1.115   0.463
16956SOL    MW468145   8.042   1.031   0.481
16957SOL     OW68146   9.146   1.725   0.628
16957SOL    HW268147   9.158   1.671   0.706
16957SOL    HW368148   9.183   1.673   0.557
16957SOL    MW468149   9.152   1.710   0.629
16958SOL     OW68150   8.525   1.610   1.629
16958SOL    HW268151   8.566   1.646   1.550
16958SOL    HW368152   8.560   1.521   1.636
16958SOL    MW468153   8.536   1.603   1.620
16959SOL     OW68154   9.082   1.165   1.233
16959SOL    HW268155   9.003   1.130   1.191
16959SOL    HW368156   9.109   1.237   1.177
16959SOL    MW468157   9.075   1.170   1.220
16960SOL     OW68158   8.314   0.478   0.499
16960SOL    HW268159   8.289   0.566   0.527
16960SOL    HW368160   8.311   0.481   0.403
16960SOL    MW468161   8.310   0.490   0.491
16961SOL     OW68162   7.756   0.506   0.427
16961SOL    HW268163   7.788   0.594   0.409
16961SOL    HW368164   7.744   0.504   0.522
16961SOL    MW468165   7.759   0.518   0.439
16962SOL     OW68166   7.834   0.919   1.328
16962SOL    HW268167   7.897   0.866   1.279
16962SOL    HW368168   7.815   0.993   1.271
16962SOL    MW468169   7.840   0.921   1.315
16963SOL     OW68170   8.155   0.261   0.514
16963SOL    HW268171   8.213   0.337   0.516
16963SOL    HW368172   8.090   0.282   0.447
16963SOL    MW468173   8.154   0.273   0.505
16964SOL     OW68174   8.242   1.188   0.689
16964SOL    HW268175   8.322   1.191   0.741
16964SOL    HW368176   8.270   1.155   0.603
16964SOL    MW468177   8.256   1.184   0.684
16965SOL     OW68178   8.267   1.529   1.592
16965SOL    HW268179   8.351   1.555   1.631
16965SOL    HW368180   8.291   1.473   1.518
16965SOL    MW468181   8.281   1.525   1.587
16966SOL     OW68182   8.019   0.692   0.680
16966SOL    HW268183   8.004   0.612   0.731
16966SOL    HW368184   8.101   0.727   0.714
16966SOL    MW468185   8.027   0.684   0.692
16967SOL     OW68186   8.356   1.378   1.365
16967SOL    HW268187   8.320   1.444   1.305
16967SOL    HW368188   8.284   1.316   1.378
16967SOL    MW468189   8.342   1.378   1.359
16968SOL     OW68190   8.161   0.518   1.057
16968SOL    HW268191   8.067   0.514   1.075
16968SOL    HW368192   8.191   0.427   1.066
16968SOL    MW468193   8.152   0.506   1.060
16969SOL     OW68194   7.907   0.932   0.961
16969SOL    HW268195   7.862   0.939   0.877
16969SOL    HW368196   7.887   1.015   1.005
16969SOL    MW468197   7.899   0.944   0.955
16970SOL     OW68198   7.604   1.778   0.836
16970SOL    HW268199   7.693   1.770   0.871
16970SOL    HW368200   7.568   1.690   0.841
16970SOL    MW468201   7.611   1.765   0.841
16971SOL     OW68202   7.868   1.305   0.871
16971SOL    HW268203   7.844   1.358   0.947
16971SOL    HW368204   7.924   1.363   0.819
16971SOL    MW468205   7.872   1.320   0.874
16972SOL     OW68206   8.430   0.949   0.681
16972SOL    HW268207   8.344   0.936   0.721
16972SOL    HW368208   8.483   0.876   0.713
16972SOL    MW468209   8.426   0.938   0.690
16973SOL     OW68210   7.838   1.601   1.466
16973SOL    HW268211   7.746   1.577   1.451
16973SOL    HW368212   7.882   1.518   1.483
16973SOL    MW468213   7.832   1.586   1.465
16974SOL     OW68214   8.421   1.311   0.398
16974SOL    HW268215   8.398   1.373   0.466
16974SOL    HW368216   8.378   1.229   0.424
16974SOL    MW468217   8.413   1.307   0.409
16975SOL     OW68218   9.294   0.312   0.854
16975SOL    HW268219   9.231   0.292   0.923
16975SOL    HW368220   9.284   0.241   0.791
16975SOL    MW468221   9.284   0.299   0.855
16976SOL     OW68222   8.895   0.719   1.578
16976SOL    HW268223   8.964   0.657   1.555
16976SOL    HW368224   8.820   0.693   1.525
16976SOL    MW468225   8.895   0.706   1.569
16977SOL     OW68226   7.636   1.599   1.130
16977SOL    HW268227   7.619   1.545   1.207
16977SOL    HW368228   7.624   1.689   1.160
16977SOL    MW468229   7.633   1.603   1.144
16978SOL     OW68230   8.631   1.106   1.570
16978SOL    HW268231   8.616   1.199   1.555
16978SOL    HW368232   8.726   1.096   1.570
16978SOL    MW468233   8.640   1.116   1.567
16979SOL     OW68234   8.427   0.530   1.771
16979SOL    HW268235   8.517   0.531   1.738
16979SOL    HW368236   8.386   0.455   1.729
16979SOL    MW468237   8.433   0.520   1.762
16980SOL     OW68238   9.002   1.062   0.898
16980SOL    HW268239   9.005   0.996   0.829
16980SOL    HW368240   9.087   1.105   0.894
16980SOL    MW468241   9.014   1.058   0.889
16981SOL     OW68242   8.622   0.665   0.467
16981SOL    HW268243   8.648   0.689   0.378
16981SOL    HW368244   8.604   0.572   0.463
16981SOL    MW468245   8.624   0.657   0.454
16982SOL     OW68246   9.287   1.285   0.318
16982SOL    HW268247   9.243   1.326   0.393
16982SOL    HW368248   9.344   1.353   0.283
16982SOL    MW468249   9.289   1.299   0.323
16983SOL     OW68250   8.207   0.334   1.721
16983SOL    HW268251   8.217   0.260   1.661
16983SOL    HW368252   8.243   0.303   1.804
16983SOL    MW468253   8.213   0.320   1.723
16984SOL     OW68254   7.943   1.701   0.636
16984SOL    HW268255   7.975   1.789   0.614
16984SOL    HW368256   7.896   1.673   0.558
16984SOL    MW468257   7.942   1.709   0.623
16985SOL     OW68258   8.461   0.694   0.128
16985SOL    HW268259   8.463   0.641   0.049
16985SOL    HW368260   8.549   0.731   0.134
16985SOL    MW468261   8.473   0.693   0.117
16986SOL     OW68262   9.075   0.620   0.464
16986SOL    HW268263   9.114   0.620   0.551
16986SOL    HW368264   9.016   0.696   0.464
16986SOL    MW468265   9.072   0.631   0.475
16987SOL     OW68266   8.392   0.987   1.593
16987SOL    HW268267   8.369   0.967   1.683
16987SOL    HW368268   8.477   1.031   1.598
16987SOL    MW468269   8.399   0.990   1.605
16988SOL     OW68270   8.561   0.613   1.187
16988SOL    HW268271   8.636   0.642   1.134
16988SOL    HW368272   8.493   0.678   1.171
16988SOL    MW468273   8.562   0.625   1.177
16989SOL     OW68274   9.111   0.581   1.464
16989SOL    HW268275   9.092   0.490   1.443
16989SOL    HW368276   9.089   0.630   1.385
16989SOL    MW468277   9.106   0.574   1.451
16990SOL     OW68278   9.253   1.675   1.368
16990SOL    HW268279   9.181   1.637   1.419
16990SOL    HW368280   9.270   1.760   1.409
16990SOL    MW468281   9.247   1.680   1.380
16991SOL     OW68282   8.967   1.133   1.646
16991SOL    HW268283   9.049   1.174   1.676
16991SOL    HW368284   8.930   1.095   1.726
16991SOL    MW468285   8.973   1.134   1.661
16992SOL     OW68286   9.262   0.506   0.630
16992SOL    HW268287   9.351   0.475   0.647
16992SOL    HW368288   9.205   0.446   0.678
16992SOL    MW468289   9.265   0.494   0.639
16993SOL     OW68290   7.688   0.220   0.659
16993SOL    HW268291   7.679   0.160   0.585
16993SOL    HW368292   7.621   0.191   0.722
16993SOL    MW468293   7.678   0.207   0.657
16994SOL     OW68294   7.635   0.393   1.022
16994SOL    HW268295   7.607   0.484   1.031
16994SOL    HW368296   7.572   0.354   0.961
16994SOL    MW468297   7.622   0.399   1.016
16995SOL     OW68298   9.222   1.251   1.725
16995SOL    HW268299   9.272   1.177   1.757
16995SOL    HW368300   9.168   1.278   1.800
16995SOL    MW468301   9.222   1.245   1.738
16996SOL     OW68302   9.356   0.886   1.227
16996SOL    HW268303   9.372   0.924   1.140
16996SOL    HW368304   9.390   0.952   1.288
16996SOL    MW468305   9.363   0.899   1.223
16997SOL     OW68306   9.148   1.595   0.896
16997SOL    HW268307   9.177   1.662   0.957
16997SOL    HW368308   9.129   1.519   0.951
16997SOL    MW468309   9.150   1.595   0.911
16998SOL     OW68310   7.619   0.668   1.192
16998SOL    HW268311   7.681   0.698   1.258
16998SOL    HW368312   7.553   0.737   1.186
16998SOL    MW468313   7.618   0.681   1.199
16999SOL     OW68314   7.714   1.777   1.644
16999SOL    HW268315   7.688   1.845   1.582
16999SOL    HW368316   7.762   1.714   1.592
16999SOL    MW468317   7.716   1.777   1.630
17000SOL     OW68318   7.766   1.096   1.151
17000SOL    HW268319   7.819   1.171   1.176
17000SOL    HW368320   7.685   1.134   1.117
17000SOL    MW468321   7.762   1.111   1.151
17001SOL     OW68322   8.306   1.000   1.139
17001SOL    HW268323   8.334   0.909   1.151
17001SOL    HW368324   8.235   0.994   1.075
17001SOL    MW468325   8.299   0.988   1.134
17002SOL     OW68326   7.621   0.865   0.557
17002SOL    HW268327   7.712   0.880   0.584
17002SOL    HW368328   7.624   0.786   0.503
17002SOL    MW468329   7.633   0.857   0.555
17003SOL     OW68330   7.857   0.573   1.811
17003SOL    HW268331   7.804   0.653   1.818
17003SOL    HW368332   7.927   0.585   1.876
17003SOL    MW468333   7.859   0.586   1.819
17004SOL     OW68334   7.927   0.647   1.557
17004SOL    HW268335   8.007   0.697   1.543
17004SOL    HW368336   7.918   0.641   1.652
17004SOL    MW468337   7.936   0.653   1.567
17005SOL     OW68338   8.248   1.797   0.931
17005SOL    HW268339   8.337   1.812   0.961
17005SOL    HW368340   8.243   1.844   0.847
17005SOL    MW468341   8.258   1.805   0.924
17006SOL     OW68342   7.629   1.477   0.596
17006SOL    HW268343   7.601   1.516   0.678
17006SOL    HW368344   7.649   1.386   0.618
17006SOL    MW468345   7.627   1.469   0.609
17007SOL     OW68346   8.462   1.520   0.631
17007SOL    HW268347   8.545   1.474   0.615
17007SOL    HW368348   8.452   1.519   0.727
17007SOL    MW468349   8.472   1.513   0.641
17008SOL     OW68350   9.294   0.665   0.945
17008SOL    HW268351   9.383   0.695   0.927
17008SOL    HW368352   9.274   0.605   0.874
17008SOL    MW468353   9.303   0.662   0.934
17009SOL     OW68354   9.145   0.844   1.825
17009SOL    HW268355   9.200   0.768   1.806
17009SOL    HW368356   9.147   0.852   1.920
17009SOL    MW468357   9.153   0.835   1.833
17010SOL     OW68358   8.633   0.222   0.259
17010SOL    HW268359   8.566   0.198   0.196
17010SOL    HW368360   8.698   0.271   0.208
17010SOL    MW468361   8.633   0.224   0.244
17011SOL     OW68362   8.440   0.406   1.344
17011SOL    HW268363   8.359   0.447   1.372
17011SOL    HW368364   8.487   0.474   1.296
17011SOL    MW468365   8.435   0.421   1.342
17012SOL     OW68366   8.700   0.744   0.967
17012SOL    HW268367   8.713   0.838   0.977
17012SOL    HW368368   8.661   0.734   0.881
17012SOL    MW468369   8.696   0.755   0.957
17013SOL     OW68370   8.152   0.939   0.771
17013SOL    HW268371   8.063   0.930   0.804
17013SOL    HW368372   8.156   1.029   0.739
17013SOL    MW468373   8.141   0.950   0.771
17014SOL     OW68374   8.951   0.522   0.766
17014SOL    HW268375   8.896   0.443   0.765
17014SOL    HW368376   8.933   0.563   0.850
17014SOL    MW468377   8.941   0.517   0.775
17015SOL     OW68378   8.570   0.726   0.723
17015SOL    HW268379   8.507   0.658   0.747
17015SOL    HW368380   8.590   0.707   0.631
17015SOL    MW468381   8.564   0.713   0.715
17016SOL     OW68382   8.318   1.030   0.449
17016SOL    HW268383   8.320   1.004   0.356
17016SOL    HW368384   8.376   0.967   0.492
17016SOL    MW468385   8.326   1.019   0.443
17017SOL     OW68386   8.871   1.590   1.221
17017SOL    HW268387   8.796   1.636   1.259
17017SOL    HW368388   8.853   1.497   1.238
17017SOL    MW468389   8.860   1.584   1.229
17018SOL     OW68390   8.875   1.798   0.651
17018SOL    HW268391   8.818   1.751   0.590
17018SOL    HW368392   8.961   1.759   0.638
17018SOL    MW468393   8.878   1.789   0.641
17019SOL     OW68394   7.633   1.208   0.716
17019SOL    HW268395   7.697   1.240   0.779
17019SOL    HW368396   7.682   1.144   0.664
17019SOL    MW468397   7.648   1.204   0.717
17020SOL     OW68398   8.133   1.284   1.698
17020SOL    HW268399   8.181   1.367   1.685
17020SOL    HW368400   8.190   1.232   1.754
17020SOL    MW468401   8.147   1.288   1.704
17021SOL     OW68402   7.709   1.526   1.838
17021SOL    HW268403   7.765   1.450   1.853
17021SOL    HW368404   7.658   1.504   1.760
17021SOL    MW468405   7.709   1.513   1.829
17022SOL     OW68406   8.594   1.363   1.447
17022SOL    HW268407   8.505   1.369   1.415
17022SOL    HW368408   8.638   1.442   1.415
17022SOL    MW468409   8.589   1.373   1.439
17023SOL     OW68410   7.911   1.521   1.088
17023SOL    HW268411   7.956   1.583   1.145
17023SOL    HW368412   7.818   1.540   1.101
17023SOL    MW468413   7.904   1.531   1.095
17024SOL     OW68414   8.333   1.589   1.196
17024SOL    HW268415   8.357   1.578   1.105
17024SOL    HW368416   8.256   1.646   1.194
17024SOL    MW468417   8.325   1.594   1.185
17025SOL     OW68418   8.628   0.945   0.294
17025SOL    HW268419   8.538   0.966   0.269
17025SOL    HW368420   8.655   1.018   0.350
17025SOL    MW468421   8.620   0.957   0.297
17026SOL     OW68422   8.128   1.294   0.986
17026SOL    HW268423   8.121   1.273   1.080
17026SOL    HW368424   8.046   1.262   0.949
17026SOL    MW468425   8.116   1.288   0.993
17027SOL     OW68426   8.992   0.304   1.388
17027SOL    HW268427   8.939   0.306   1.468
17027SOL    HW368428   8.977   0.217   1.351
17027SOL    MW468429   8.984   0.294   1.393
17028SOL     OW68430   9.328   0.228   1.261
17028SOL    HW268431   9.309   0.295   1.196
17028SOL    HW368432   9.385   0.166   1.216
17028SOL    MW468433   9.332   0.229   1.247
17029SOL     OW68434   7.574   1.386   1.649
17029SOL    HW268435   7.618   1.319   1.595
17029SOL    HW368436   7.489   1.348   1.669
17029SOL    MW468437   7.569   1.372   1.645
17030SOL     OW68438   8.610   1.694   1.359
17030SOL    HW268439   8.530   1.679   1.309
17030SOL    HW368440   8.617   1.789   1.366
17030SOL    MW468441   8.601   1.705   1.353
17031SOL     OW68442   8.724   1.659   0.849
17031SOL    HW268443   8.771   1.732   0.808
17031SOL    HW368444   8.645   1.698   0.885
17031SOL    MW468445   8.719   1.674   0.848
17032SOL     OW68446   9.132   1.754   1.124
17032SOL    HW268447   9.175   1.724   1.204
17032SOL    HW368448   9.051   1.702   1.121
17032SOL    MW468449   9.127   1.743   1.134
17033SOL     OW68450   8.217   0.718   1.831
17033SOL    HW268451   8.287   0.660   1.803
17033SOL    HW368452   8.160   0.663   1.886
17033SOL    MW468453   8.219   0.705   1.835
17034SOL     OW68454   9.004   0.930   1.464
17034SOL    HW268455   9.009   0.983   1.544
17034SOL    HW368456   8.966   0.847   1.492
17034SOL    MW468457   9.000   0.925   1.479
17035SOL     OW68458   9.114   1.336   0.986
17035SOL    HW268459   9.149   1.318   0.899
17035SOL    HW368460   9.019   1.337   0.973
17035SOL    MW468461   9.106   1.333   0.973
17036SOL     OW68462   8.543   0.984   1.355
17036SOL    HW268463   8.586   1.019   1.433
17036SOL    HW368464   8.526   1.061   1.301
17036SOL    MW468465   8.546   0.999   1.358
17037SOL     OW68466   7.693   1.188   1.517
17037SOL    HW268467   7.721   1.141   1.595
17037SOL    HW368468   7.614   1.143   1.488
17037SOL    MW468469   7.686   1.177   1.523
17038SOL     OW68470   8.201   0.515   1.484
17038SOL    HW268471   8.173   0.603   1.508
17038SOL    HW368472   8.170   0.459   1.555
17038SOL    MW468473   8.193   0.518   1.496
17039SOL     OW68474   7.856   0.911   0.697
17039SOL    HW268475   7.914   0.967   0.645
17039SOL    HW368476   7.900   0.826   0.699
17039SOL    MW468477   7.869   0.908   0.690
17040SOL     OW68478   9.342   0.998   1.712
17040SOL    HW268479   9.255   0.978   1.748
17040SOL    HW368480   9.396   0.924   1.737
17040SOL    MW468481   9.337   0.987   1.720
17041SOL     OW68482   7.563   1.511   0.869
17041SOL    HW268483   7.595   1.515   0.960
17041SOL    HW368484   7.468   1.519   0.877
17041SOL    MW468485   7.555   1.514   0.882
17042SOL     OW68486   7.518   0.637   0.416
17042SOL    HW268487   7.458   0.609   0.486
17042SOL    HW368488   7.592   0.577   0.422
17042SOL    MW468489   7.520   0.626   0.425
17043SOL     OW68490   9.086   1.849   1.850
17043SOL    HW268491   9.131   1.773   1.815
17043SOL    HW368492   9.124   1.862   1.937
17043SOL    MW468493   9.096   1.842   1.856
17044SOL     OW68494   8.686   1.368   0.576
17044SOL    HW268495   8.709   1.319   0.654
17044SOL    HW368496   8.767   1.410   0.548
17044SOL    MW468497   8.699   1.368   0.583
17045SOL     OW68498   8.727   0.552   1.732
17045SOL    HW268499   8.779   0.487   1.685
17045SOL    HW368500   8.685   0.603   1.662
17045SOL    MW468501   8.728   0.549   1.715
17046SOL     OW68502   8.826   0.347   1.593
17046SOL    HW268503   8.733   0.331   1.580
17046SOL    HW368504   8.852   0.285   1.661
17046SOL    MW468505   8.816   0.337   1.600
17047SOL     OW68506   8.135   1.736   1.478
17047SOL    HW268507   8.052   1.721   1.523
17047SOL    HW368508   8.194   1.669   1.513
17047SOL    MW468509   8.133   1.726   1.488
17048SOL     OW68510   9.192   0.443   1.103
17048SOL    HW268511   9.125   0.476   1.163
17048SOL    HW368512   9.235   0.521   1.069
17048SOL    MW468513   9.190   0.458   1.107
17049SOL     OW68514   9.370   1.163   1.073
17049SOL    HW268515   9.363   1.103   0.998
17049SOL    HW368516   9.296   1.223   1.062
17049SOL    MW468517   9.360   1.163   1.062
17050SOL     OW68518   8.752   1.025   0.991
17050SOL    HW268519   8.766   0.997   1.082
17050SOL    HW368520   8.838   1.056   0.963
17050SOL    MW468521   8.765   1.026   1.000
17051SOL     OW68522   8.835   0.520   1.270
17051SOL    HW268523   8.856   0.521   1.177
17051SOL    HW368524   8.880   0.442   1.303
17051SOL    MW468525   8.842   0.510   1.262
17052SOL     OW68526   9.328   0.651   1.812
17052SOL    HW268527   9.365   0.596   1.881
17052SOL    HW368528   9.353   0.608   1.730
17052SOL    MW468529   9.335   0.639   1.811
17053SOL     OW68530   8.875   0.949   1.863
17053SOL    HW268531   8.941   0.897   1.817
17053SOL    HW368532   8.895   0.936   1.956
17053SOL    MW468533   8.886   0.940   1.870
17054SOL     OW68534   8.886   0.810   0.490
17054SOL    HW268535   8.801   0.780   0.460
17054SOL    HW368536   8.878   0.817   0.585
17054SOL    MW468537   8.874   0.808   0.499
17055SOL     OW68538   7.962   1.273   1.221
17055SOL    HW268539   7.974   1.300   1.312
17055SOL    HW368540   7.943   1.354   1.174
17055SOL    MW468541   7.961   1.288   1.226
17056SOL     OW68542   8.100   1.745   1.206
17056SOL    HW268543   8.152   1.822   1.183
17056SOL    HW368544   8.109   1.737   1.301
17056SOL    MW468545   8.109   1.752   1.217
17057SOL     OW68546   9.002   1.330   1.438
17057SOL    HW268547   8.987   1.259   1.501
17057SOL    HW368548   9.048   1.288   1.366
17057SOL    MW468549   9.008   1.314   1.438
17058SOL     OW68550   8.076   1.061   1.555
17058SOL    HW268551   8.113   1.066   1.467
17058SOL    HW368552   8.115   1.134   1.602
17058SOL    MW468553   8.086   1.071   1.550
17059SOL     OW68554   8.256   1.104   1.367
17059SOL    HW268555   8.315   1.050   1.420
17059SOL    HW368556   8.271   1.076   1.277
17059SOL    MW468557   8.266   1.093   1.363
17060SOL     OW68558   9.067   1.593   1.539
17060SOL    HW268559   9.109   1.578   1.624
17060SOL    HW368560   9.058   1.506   1.501
17060SOL    MW468561   9.071   1.581   1.546
17061SOL     OW68562   8.629   1.570   0.325
17061SOL    HW268563   8.637   1.488   0.276
17061SOL    HW368564   8.548   1.609   0.292
17061SOL    MW468565   8.619   1.565   0.315
17062SOL     OW68566   7.888   1.728   0.894
17062SOL    HW268567   7.892   1.639   0.929
17062SOL    HW368568   7.914   1.719   0.803
17062SOL    MW468569   7.891   1.716   0.886
17063SOL     OW68570   8.505   1.206   1.137
17063SOL    HW268571   8.437   1.140   1.153
17063SOL    HW368572   8.523   1.200   1.044
17063SOL    MW468573   8.498   1.197   1.128
17064SOL     OW68574   7.594   1.481   1.388
17064SOL    HW268575   7.584   1.439   1.474
17064SOL    HW368576   7.515   1.534   1.378
17064SOL    MW468577   7.583   1.482   1.399
17065SOL     OW68578   8.149   0.781   1.578
17065SOL    HW268579   8.142   0.876   1.566
17065SOL    HW368580   8.158   0.770   1.673
17065SOL    MW468581   8.150   0.793   1.588
17066SOL     OW68582   9.154   1.589   1.787
17066SOL    HW268583   9.127   1.586   1.878
17066SOL    HW368584   9.250   1.593   1.790
17066SOL    MW468585   9.164   1.589   1.799
17067SOL     OW68586   7.965   0.451   0.771
17067SOL    HW268587   8.036   0.399   0.734
17067SOL    HW368588   7.951   0.416   0.858
17067SOL    MW468589   7.973   0.440   0.778
17068SOL     OW68590   8.281   1.544   0.847
17068SOL    HW268591   8.209   1.481   0.860
17068SOL    HW368592   8.242   1.629   0.865
17068SOL    MW468593   8.265   1.547   0.850
17069SOL     OW68594   8.601   0.392   0.495
17069SOL    HW268595   8.623   0.329   0.427
17069SOL    HW368596   8.506   0.384   0.506
17069SOL    MW468597   8.591   0.383   0.487
17070SOL     OW68598   7.686   0.082   0.427
17070SOL    HW268599   7.757   0.103   0.366
17070SOL    HW368600   7.640   0.010   0.385
17070SOL    MW468601   7.690   0.076   0.413
17071SOL     OW68602   7.517   0.549   1.570
17071SOL    HW268603   7.581   0.615   1.545
17071SOL    HW368604   7.436   0.576   1.527
17071SOL    MW468605   7.515   0.561   1.562
17072SOL     OW68606   9.255   1.456   0.527
17072SOL    HW268607   9.225   1.389   0.588
17072SOL    HW368608   9.349   1.462   0.541
17072SOL    MW468609   9.263   1.448   0.537
17073SOL     OW68610   8.811   1.133   0.457
17073SOL    HW268611   8.783   1.219   0.490
17073SOL    HW368612   8.839   1.149   0.367
17073SOL    MW468613   8.811   1.147   0.449
17074SOL     OW68614   8.473   0.053   0.510
17074SOL    HW268615   8.510   0.112   0.575
17074SOL    HW368616   8.450   0.109   0.436
17074SOL    MW468617   8.474   0.068   0.509
17075SOL     OW68618   9.326   0.935   0.932
17075SOL    HW268619   9.317   0.967   0.843
17075SOL    HW368620   9.279   0.851   0.932
17075SOL    MW468621   9.319   0.928   0.922
17076SOL     OW68622   7.702   0.775   1.511
17076SOL    HW268623   7.723   0.844   1.449
17076SOL    HW368624   7.782   0.722   1.516
17076SOL    MW468625   7.715   0.776   1.505
17077SOL     OW68626   9.238   0.866   0.633
17077SOL    HW268627   9.332   0.855   0.621
17077SOL    HW368628   9.214   0.938   0.574
17077SOL    MW468629   9.248   0.874   0.624
17078SOL     OW68630   7.687   0.790   1.778
17078SOL    HW268631   7.613   0.734   1.804
17078SOL    HW368632   7.682   0.793   1.683
17078SOL    MW468633   7.676   0.783   1.768
17079SOL     OW68634   7.853   0.077   1.228
17079SOL    HW268635   7.896   0.161   1.248
17079SOL    HW368636   7.926   0.015   1.221
17079SOL    MW468637   7.868   0.080   1.229
17080SOL     OW68638   7.894   0.744   0.406
17080SOL    HW268639   7.894   0.839   0.391
17080SOL    HW368640   7.971   0.728   0.460
17080SOL    MW468641   7.904   0.755   0.411
17081SOL     OW68642   8.670   0.603   1.470
17081SOL    HW268643   8.706   0.576   1.386
17081SOL    HW368644   8.583   0.637   1.449
17081SOL    MW468645   8.664   0.604   1.457
17082SOL     OW68646   7.653   0.475   0.695
17082SOL    HW268647   7.715   0.482   0.768
17082SOL    HW368648   7.653   0.382   0.672
17082SOL    MW468649   7.661   0.464   0.702
17083SOL     OW68650   8.335   0.736   1.179
17083SOL    HW268651   8.293   0.654   1.155
17083SOL    HW368652   8.336   0.735   1.275
17083SOL    MW468653   8.328   0.725   1.188
17084SOL     OW68654   9.006   1.869   1.578
17084SOL    HW268655   9.009   1.775   1.561
17084SOL    HW368656   9.029   1.877   1.670
17084SOL    MW468657   9.009   1.857   1.588
17085SOL     OW68658   8.966   0.798   0.745
17085SOL    HW268659   9.046   0.813   0.694
17085SOL    HW368660   8.959   0.703   0.751
17085SOL    MW468661   8.975   0.787   0.740
17086SOL     OW68662   8.416   0.724   1.442
17086SOL    HW268663   8.485   0.791   1.439
17086SOL    HW368664   8.349   0.762   1.498
17086SOL    MW468665   8.417   0.737   1.449
17087SOL     OW68666   7.834   1.024   1.690
17087SOL    HW268667   7.788   0.940   1.692
17087SOL    HW368668   7.891   1.018   1.614
17087SOL    MW468669   7.836   1.012   1.682
17088SOL     OW68670   8.085   1.399   0.691
17088SOL    HW268671   8.150   1.332   0.712
17088SOL    HW368672   8.137   1.476   0.668
17088SOL    MW468673   8.100   1.401   0.690
17089SOL     OW68674   8.346   0.564   0.821
17089SOL    HW268675   8.286   0.582   0.893
17089SOL    HW368676   8.380   0.476   0.840
17089SOL    MW468677   8.342   0.554   0.834
17090SOL     OW68678   8.571   1.147   0.840
17090SOL    HW268679   8.663   1.128   0.858
17090SOL    HW368680   8.544   1.077   0.780
17090SOL    MW468681   8.579   1.135   0.834
17091SOL     OW68682   8.845   1.385   0.936
17091SOL    HW268683   8.818   1.469   0.901
17091SOL    HW368684   8.805   1.380   1.023
17091SOL    MW468685   8.838   1.394   0.942
17092SOL     OW68686   8.764   1.333   1.204
17092SOL    HW268687   8.775   1.300   1.293
17092SOL    HW368688   8.683   1.292   1.173
17092SOL    MW468689   8.754   1.325   1.210
17093SOL     OW68690   7.777   0.691   0.974
17093SOL    HW268691   7.727   0.690   1.055
17093SOL    HW368692   7.797   0.783   0.958
17093SOL    MW468693   7.773   0.703   0.982
17094SOL     OW68694   8.844   1.455   1.736
17094SOL    HW268695   8.844   1.549   1.752
17094SOL    HW368696   8.889   1.445   1.652
17094SOL    MW468697   8.850   1.465   1.727
17095SOL     OW68698   8.372   0.736   0.411
17095SOL    HW268699   8.352   0.722   0.318
17095SOL    HW368700   8.465   0.715   0.418
17095SOL    MW468701   8.382   0.731   0.400
17096SOL     OW68702   7.699   0.359   1.715
17096SOL    HW268703   7.656   0.418   1.652
17096SOL    HW368704   7.767   0.414   1.755
17096SOL    MW468705   7.703   0.374   1.712
17097SOL     OW68706   8.811   0.979   1.260
17097SOL    HW268707   8.874   0.976   1.333
17097SOL    HW368708   8.727   0.997   1.302
17097SOL    MW468709   8.807   0.981   1.275
17098SOL     OW68710   8.355   1.694   0.449
17098SOL    HW268711   8.413   1.765   0.476
17098SOL    HW368712   8.378   1.622   0.507
17098SOL    MW468713   8.366   1.694   0.460
17099SOL     OW68714   9.235   1.192   0.758
17099SOL    HW268715   9.214   1.138   0.681
17099SOL    HW368716   9.331   1.190   0.762
17099SOL    MW468717   9.244   1.185   0.747
17100SOL     OW68718   7.927   1.337   1.501
17100SOL    HW268719   7.848   1.287   1.524
17100SOL    HW368720   7.997   1.296   1.551
17100SOL    MW468721   7.925   1.325   1.511
17101SOL     OW68722   8.935   0.623   1.020
17101SOL    HW268723   8.858   0.669   0.986
17101SOL    HW368724   8.992   0.692   1.054
17101SOL    MW468725   8.932   0.638   1.020
17102SOL     OW68726   9.236   0.839   2.125
17102SOL    HW268727   9.277   0.781   2.190
17102SOL    HW368728   9.143   0.831   2.142
17102SOL    MW468729   9.230   0.831   2.135
17103SOL     OW68730   9.102   0.771   3.120
17103SOL    HW268731   9.057   0.838   3.171
17103SOL    HW368732   9.190   0.807   3.106
17103SOL    MW468733   9.108   0.784   3.124
17104SOL     OW68734   8.030   1.022   2.354
17104SOL    HW268735   8.120   0.997   2.338
17104SOL    HW368736   8.026   1.115   2.331
17104SOL    MW468737   8.042   1.031   2.349
17105SOL     OW68738   9.146   1.725   2.496
17105SOL    HW268739   9.158   1.671   2.574
17105SOL    HW368740   9.183   1.673   2.425
17105SOL    MW468741   9.152   1.710   2.497
17106SOL     OW68742   8.525   1.610   3.497
17106SOL    HW268743   8.566   1.646   3.418
17106SOL    HW368744   8.560   1.521   3.504
17106SOL    MW468745   8.536   1.603   3.488
17107SOL     OW68746   9.082   1.165   3.101
17107SOL    HW268747   9.003   1.130   3.059
17107SOL    HW368748   9.109   1.237   3.045
17107SOL    MW468749   9.075   1.170   3.088
17108SOL     OW68750   8.314   0.478   2.367
17108SOL    HW268751   8.289   0.566   2.395
17108SOL    HW368752   8.311   0.481   2.271
17108SOL    MW468753   8.310   0.490   2.359
17109SOL     OW68754   7.756   0.506   2.295
17109SOL    HW268755   7.788   0.594   2.277
17109SOL    HW368756   7.744   0.504   2.390
17109SOL    MW468757   7.759   0.518   2.307
17110SOL     OW68758   7.834   0.919   3.196
17110SOL    HW268759   7.897   0.866   3.147
17110SOL    HW368760   7.815   0.993   3.139
17110SOL    MW468761   7.840   0.921   3.183
17111SOL     OW68762   8.155   0.261   2.382
17111SOL    HW268763   8.213   0.337   2.384
17111SOL    HW368764   8.090   0.282   2.315
17111SOL    MW468765   8.154   0.273   2.373
17112SOL     OW68766   8.242   1.188   2.557
17112SOL    HW268767   8.322   1.191   2.609
17112SOL    HW368768   8.270   1.155   2.471
17112SOL    MW468769   8.256   1.184   2.552
17113SOL     OW68770   8.267   1.529   3.460
17113SOL    HW268771   8.351   1.555   3.499
17113SOL    HW368772   8.291   1.473   3.386
17113SOL    MW468773   8.281   1.525   3.455
17114SOL     OW68774   8.019   0.692   2.548
17114SOL    HW268775   8.004   0.612   2.599
17114SOL    HW368776   8.101   0.727   2.582
17114SOL    MW468777   8.027   0.684   2.560
17115SOL     OW68778   8.356   1.378   3.233
17115SOL    HW268779   8.320   1.444   3.173
17115SOL    HW368780   8.284   1.316   3.246
17115SOL    MW468781   8.342   1.378   3.227
17116SOL     OW68782   8.161   0.518   2.925
17116SOL    HW268783   8.067   0.514   2.943
17116SOL    HW368784   8.191   0.427   2.934
17116SOL    MW468785   8.152   0.506   2.928
17117SOL     OW68786   7.907   0.932   2.829
17117SOL    HW268787   7.862   0.939   2.745
17117SOL    HW368788   7.887   1.015   2.873
17117SOL    MW468789   7.899   0.944   2.823
17118SOL     OW68790   7.604   1.778   2.704
17118SOL    HW268791   7.693   1.770   2.739
17118SOL    HW368792   7.568   1.690   2.709
17118SOL    MW468793   7.611   1.765   2.709
17119SOL     OW68794   8.869   1.170   2.073
17119SOL    HW268795   8.787   1.206   2.039
17119SOL    HW368796   8.937   1.213   2.022
17119SOL    MW468797   8.867   1.180   2.061
17120SOL     OW68798   7.868   1.305   2.739
17120SOL    HW268799   7.844   1.358   2.815
17120SOL    HW368800   7.924   1.363   2.687
17120SOL    MW468801   7.872   1.320   2.742
17121SOL     OW68802   8.430   0.949   2.549
17121SOL    HW268803   8.344   0.936   2.589
17121SOL    HW368804   8.483   0.876   2.581
17121SOL    MW468805   8.426   0.938   2.558
17122SOL     OW68806   7.838   1.601   3.334
17122SOL    HW268807   7.746   1.577   3.319
17122SOL    HW368808   7.882   1.518   3.351
17122SOL    MW468809   7.832   1.586   3.333
17123SOL     OW68810   8.421   1.311   2.266
17123SOL    HW268811   8.398   1.373   2.334
17123SOL    HW368812   8.378   1.229   2.292
17123SOL    MW468813   8.413   1.307   2.277
17124SOL     OW68814   9.294   0.312   2.722
17124SOL    HW268815   9.231   0.292   2.791
17124SOL    HW368816   9.284   0.241   2.659
17124SOL    MW468817   9.284   0.299   2.723
17125SOL     OW68818   7.753   1.245   2.271
17125SOL    HW268819   7.701   1.313   2.227
17125SOL    HW368820   7.750   1.171   2.211
17125SOL    MW468821   7.745   1.244   2.258
17126SOL     OW68822   8.415   1.708   2.049
17126SOL    HW268823   8.370   1.724   2.132
17126SOL    HW368824   8.346   1.673   1.991
17126SOL    MW468825   8.401   1.705   2.051
17127SOL     OW68826   9.350   0.481   2.024
17127SOL    HW268827   9.259   0.483   2.052
17127SOL    HW368828   9.395   0.543   2.082
17127SOL    MW468829   9.343   0.489   2.034
17128SOL     OW68830   9.095   1.084   2.374
17128SOL    HW268831   9.005   1.084   2.409
17128SOL    HW368832   9.088   1.130   2.291
17128SOL    MW468833   9.082   1.090   2.368
17129SOL     OW68834   8.895   0.719   3.446
17129SOL    HW268835   8.964   0.657   3.423
17129SOL    HW368836   8.820   0.693   3.393
17129SOL    MW468837   8.895   0.706   3.437
17130SOL     OW68838   7.636   1.599   2.998
17130SOL    HW268839   7.619   1.545   3.075
17130SOL    HW368840   7.624   1.689   3.028
17130SOL    MW468841   7.633   1.603   3.012
17131SOL     OW68842   8.631   1.106   3.438
17131SOL    HW268843   8.616   1.199   3.423
17131SOL    HW368844   8.726   1.096   3.438
17131SOL    MW468845   8.640   1.116   3.435
17132SOL     OW68846   8.427   0.530   3.639
17132SOL    HW268847   8.517   0.531   3.606
17132SOL    HW368848   8.386   0.455   3.597
17132SOL    MW468849   8.433   0.520   3.630
17133SOL     OW68850   9.002   1.062   2.766
17133SOL    HW268851   9.005   0.996   2.697
17133SOL    HW368852   9.087   1.105   2.762
17133SOL    MW468853   9.014   1.058   2.757
17134SOL     OW68854   8.622   0.665   2.335
17134SOL    HW268855   8.648   0.689   2.246
17134SOL    HW368856   8.604   0.572   2.331
17134SOL    MW468857   8.624   0.657   2.322
17135SOL     OW68858   9.287   1.285   2.186
17135SOL    HW268859   9.243   1.326   2.261
17135SOL    HW368860   9.344   1.353   2.151
17135SOL    MW468861   9.289   1.299   2.191
17136SOL     OW68862   8.207   0.334   3.589
17136SOL    HW268863   8.217   0.260   3.529
17136SOL    HW368864   8.243   0.303   3.672
17136SOL    MW468865   8.213   0.320   3.591
17137SOL     OW68866   7.943   1.701   2.504
17137SOL    HW268867   7.975   1.789   2.482
17137SOL    HW368868   7.896   1.673   2.426
17137SOL    MW468869   7.942   1.709   2.491
17138SOL     OW68870   7.659   1.761   2.081
17138SOL    HW268871   7.688   1.851   2.073
17138SOL    HW368872   7.609   1.744   2.002
17138SOL    MW468873   7.657   1.769   2.070
17139SOL     OW68874   9.063   1.569   2.052
17139SOL    HW268875   9.111   1.638   2.098
17139SOL    HW368876   8.984   1.613   2.021
17139SOL    MW468877   9.058   1.583   2.055
17140SOL     OW68878   8.461   0.694   1.996
17140SOL    HW268879   8.463   0.641   1.917
17140SOL    HW368880   8.549   0.731   2.002
17140SOL    MW468881   8.473   0.693   1.985
17141SOL     OW68882   9.075   0.620   2.332
17141SOL    HW268883   9.114   0.620   2.419
17141SOL    HW368884   9.016   0.696   2.332
17141SOL    MW468885   9.072   0.631   2.343
17142SOL     OW68886   8.392   0.987   3.461
17142SOL    HW268887   8.369   0.967   3.551
17142SOL    HW368888   8.477   1.031   3.466
17142SOL    MW468889   8.399   0.990   3.473
17143SOL     OW68890   8.561   0.613   3.055
17143SOL    HW268891   8.636   0.642   3.002
17143SOL    HW368892   8.493   0.678   3.039
17143SOL    MW468893   8.562   0.625   3.045
17144SOL     OW68894   9.111   0.581   3.332
17144SOL    HW268895   9.092   0.490   3.311
17144SOL    HW368896   9.089   0.630   3.253
17144SOL    MW468897   9.106   0.574   3.319
17145SOL     OW68898   9.253   1.675   3.236
17145SOL    HW268899   9.181   1.637   3.287
17145SOL    HW368900   9.270   1.760   3.277
17145SOL    MW468901   9.247   1.680   3.248
17146SOL     OW68902   8.967   1.133   3.514
17146SOL    HW268903   9.049   1.174   3.544
17146SOL    HW368904   8.930   1.095   3.594
17146SOL    MW468905   8.973   1.134   3.529
17147SOL     OW68906   9.262   0.506   2.498
17147SOL    HW268907   9.351   0.475   2.515
17147SOL    HW368908   9.205   0.446   2.546
17147SOL    MW468909   9.265   0.494   2.507
17148SOL     OW68910   8.631   1.313   2.088
17148SOL    HW268911   8.581   1.315   2.170
17148SOL    HW368912   8.565   1.331   2.020
17148SOL    MW468913   8.617   1.315   2.090
17149SOL     OW68914   7.635   0.393   2.890
17149SOL    HW268915   7.607   0.484   2.899
17149SOL    HW368916   7.572   0.354   2.829
17149SOL    MW468917   7.622   0.399   2.884
17150SOL     OW68918   8.094   1.731   2.196
17150SOL    HW268919   8.015   1.689   2.229
17150SOL    HW368920   8.160   1.714   2.263
17150SOL    MW468921   8.093   1.723   2.209
17151SOL     OW68922   9.222   1.251   3.593
17151SOL    HW268923   9.272   1.177   3.625
17151SOL    HW368924   9.168   1.278   3.668
17151SOL    MW468925   9.222   1.245   3.606
17152SOL     OW68926   8.230   1.146   1.903
17152SOL    HW268927   8.152   1.092   1.890
17152SOL    HW368928   8.201   1.219   1.956
17152SOL    MW468929   8.216   1.148   1.908
17153SOL     OW68930   9.356   0.886   3.095
17153SOL    HW268931   9.372   0.924   3.008
17153SOL    HW368932   9.390   0.952   3.156
17153SOL    MW468933   9.363   0.899   3.091
17154SOL     OW68934   9.148   1.595   2.764
17154SOL    HW268935   9.177   1.662   2.825
17154SOL    HW368936   9.129   1.519   2.819
17154SOL    MW468937   9.150   1.595   2.779
17155SOL     OW68938   7.619   0.668   3.060
17155SOL    HW268939   7.681   0.698   3.126
17155SOL    HW368940   7.553   0.737   3.054
17155SOL    MW468941   7.618   0.681   3.067
17156SOL     OW68942   9.035   1.336   1.913
17156SOL    HW268943   8.982   1.385   1.849
17156SOL    HW368944   9.066   1.402   1.974
17156SOL    MW468945   9.033   1.350   1.911
17157SOL     OW68946   7.714   1.777   3.512
17157SOL    HW268947   7.688   1.845   3.450
17157SOL    HW368948   7.762   1.714   3.460
17157SOL    MW468949   7.716   1.777   3.498
17158SOL     OW68950   7.766   1.096   3.019
17158SOL    HW268951   7.819   1.171   3.044
17158SOL    HW368952   7.685   1.134   2.985
17158SOL    MW468953   7.762   1.111   3.019
17159SOL     OW68954   8.306   1.000   3.007
17159SOL    HW268955   8.334   0.909   3.019
17159SOL    HW368956   8.235   0.994   2.943
17159SOL    MW468957   8.299   0.988   3.002
17160SOL     OW68958   7.621   0.865   2.425
17160SOL    HW268959   7.712   0.880   2.452
17160SOL    HW368960   7.624   0.786   2.371
17160SOL    MW468961   7.633   0.857   2.423
17161SOL     OW68962   7.857   0.573   3.679
17161SOL    HW268963   7.804   0.653   3.686
17161SOL    HW368964   7.927   0.585   3.744
17161SOL    MW468965   7.859   0.586   3.687
17162SOL     OW68966   7.927   0.647   3.425
17162SOL    HW268967   8.007   0.697   3.411
17162SOL    HW368968   7.918   0.641   3.520
17162SOL    MW468969   7.936   0.653   3.435
17163SOL     OW68970   8.248   1.797   2.799
17163SOL    HW268971   8.337   1.812   2.829
17163SOL    HW368972   8.243   1.844   2.715
17163SOL    MW468973   8.258   1.805   2.792
17164SOL     OW68974   7.629   1.477   2.464
17164SOL    HW268975   7.601   1.516   2.546
17164SOL    HW368976   7.649   1.386   2.486
17164SOL    MW468977   7.627   1.469   2.477
17165SOL     OW68978   8.462   1.520   2.499
17165SOL    HW268979   8.545   1.474   2.483
17165SOL    HW368980   8.452   1.519   2.595
17165SOL    MW468981   8.472   1.513   2.509
17166SOL     OW68982   9.294   0.665   2.813
17166SOL    HW268983   9.383   0.695   2.795
17166SOL    HW368984   9.274   0.605   2.742
17166SOL    MW468985   9.303   0.662   2.802
17167SOL     OW68986   9.145   0.844   3.693
17167SOL    HW268987   9.200   0.768   3.674
17167SOL    HW368988   9.147   0.852   3.788
17167SOL    MW468989   9.153   0.835   3.701
17168SOL     OW68990   8.195   1.577   1.904
17168SOL    HW268991   8.135   1.646   1.874
17168SOL    HW368992   8.140   1.519   1.957
17168SOL    MW468993   8.179   1.579   1.906
17169SOL     OW68994   8.633   0.222   2.127
17169SOL    HW268995   8.566   0.198   2.064
17169SOL    HW368996   8.698   0.271   2.076
17169SOL    MW468997   8.633   0.224   2.112
17170SOL     OW68998   8.440   0.406   3.212
17170SOL    HW268999   8.359   0.447   3.240
17170SOL    HW369000   8.487   0.474   3.164
17170SOL    MW469001   8.435   0.421   3.210
17171SOL     OW69002   8.700   0.744   2.835
17171SOL    HW269003   8.713   0.838   2.845
17171SOL    HW369004   8.661   0.734   2.749
17171SOL    MW469005   8.696   0.755   2.825
17172SOL     OW69006   8.152   0.939   2.639
17172SOL    HW269007   8.063   0.930   2.672
17172SOL    HW369008   8.156   1.029   2.607
17172SOL    MW469009   8.141   0.950   2.639
17173SOL     OW69010   8.951   0.522   2.634
17173SOL    HW269011   8.896   0.443   2.633
17173SOL    HW369012   8.933   0.563   2.718
17173SOL    MW469013   8.941   0.517   2.643
17174SOL     OW69014   8.570   0.726   2.591
17174SOL    HW269015   8.507   0.658   2.615
17174SOL    HW369016   8.590   0.707   2.499
17174SOL    MW469017   8.564   0.713   2.583
17175SOL     OW69018   7.826   1.621   2.293
17175SOL    HW269019   7.787   1.668   2.219
17175SOL    HW369020   7.760   1.556   2.318
17175SOL    MW469021   7.813   1.619   2.287
17176SOL     OW69022   8.318   1.030   2.317
17176SOL    HW269023   8.320   1.004   2.224
17176SOL    HW369024   8.376   0.967   2.360
17176SOL    MW469025   8.326   1.019   2.311
17177SOL     OW69026   8.871   1.590   3.089
17177SOL    HW269027   8.796   1.636   3.127
17177SOL    HW369028   8.853   1.497   3.106
17177SOL    MW469029   8.860   1.584   3.097
17178SOL     OW69030   8.875   1.798   2.519
17178SOL    HW269031   8.818   1.751   2.458
17178SOL    HW369032   8.961   1.759   2.506
17178SOL    MW469033   8.878   1.789   2.509
17179SOL     OW69034   7.633   1.208   2.584
17179SOL    HW269035   7.697   1.240   2.647
17179SOL    HW369036   7.682   1.144   2.532
17179SOL    MW469037   7.648   1.204   2.585
17180SOL     OW69038   8.133   1.284   3.566
17180SOL    HW269039   8.181   1.367   3.553
17180SOL    HW369040   8.190   1.232   3.622
17180SOL    MW469041   8.147   1.288   3.572
17181SOL     OW69042   7.709   1.526   3.706
17181SOL    HW269043   7.765   1.450   3.721
17181SOL    HW369044   7.658   1.504   3.628
17181SOL    MW469045   7.709   1.513   3.697
17182SOL     OW69046   8.808   0.378   1.985
17182SOL    HW269047   8.781   0.444   1.921
17182SOL    HW369048   8.878   0.421   2.035
17182SOL    MW469049   8.813   0.391   1.982
17183SOL     OW69050   8.981   0.934   2.127
17183SOL    HW269051   8.948   1.023   2.117
17183SOL    HW369052   8.946   0.905   2.212
17183SOL    MW469053   8.971   0.943   2.138
17184SOL     OW69054   8.594   1.363   3.315
17184SOL    HW269055   8.505   1.369   3.283
17184SOL    HW369056   8.638   1.442   3.283
17184SOL    MW469057   8.589   1.373   3.307
17185SOL     OW69058   7.911   1.521   2.956
17185SOL    HW269059   7.956   1.583   3.013
17185SOL    HW369060   7.818   1.540   2.969
17185SOL    MW469061   7.904   1.531   2.963
17186SOL     OW69062   9.351   1.050   3.310
17186SOL    HW269063   9.266   1.063   3.269
17186SOL    HW369064   9.331   1.014   3.397
17186SOL    MW469065   9.338   1.046   3.315
17187SOL     OW69066   8.333   1.589   3.064
17187SOL    HW269067   8.357   1.578   2.973
17187SOL    HW369068   8.256   1.646   3.062
17187SOL    MW469069   8.325   1.594   3.053
17188SOL     OW69070   7.975   0.972   1.919
17188SOL    HW269071   7.898   0.985   1.975
17188SOL    HW369072   7.939   0.936   1.838
17188SOL    MW469073   7.961   0.968   1.916
17189SOL     OW69074   8.628   0.945   2.162
17189SOL    HW269075   8.538   0.966   2.137
17189SOL    HW369076   8.655   1.018   2.218
17189SOL    MW469077   8.620   0.957   2.165
17190SOL     OW69078   8.128   1.294   2.854
17190SOL    HW269079   8.121   1.273   2.948
17190SOL    HW369080   8.046   1.262   2.817
17190SOL    MW469081   8.116   1.288   2.861
17191SOL     OW69082   8.992   0.304   3.256
17191SOL    HW269083   8.939   0.306   3.336
17191SOL    HW369084   8.977   0.217   3.219
17191SOL    MW469085   8.984   0.294   3.261
17192SOL     OW69086   9.328   0.228   3.129
17192SOL    HW269087   9.309   0.295   3.064
17192SOL    HW369088   9.385   0.166   3.084
17192SOL    MW469089   9.332   0.229   3.115
17193SOL     OW69090   7.574   1.386   3.517
17193SOL    HW269091   7.618   1.319   3.463
17193SOL    HW369092   7.489   1.348   3.537
17193SOL    MW469093   7.569   1.372   3.513
17194SOL     OW69094   8.015   1.301   2.318
17194SOL    HW269095   8.008   1.333   2.408
17194SOL    HW369096   7.925   1.285   2.290
17194SOL    MW469097   8.003   1.303   2.325
17195SOL     OW69098   8.610   1.694   3.227
17195SOL    HW269099   8.530   1.679   3.177
17195SOL    HW369100   8.617   1.789   3.234
17195SOL    MW469101   8.601   1.705   3.221
17196SOL     OW69102   8.724   1.659   2.717
17196SOL    HW269103   8.771   1.732   2.676
17196SOL    HW369104   8.645   1.698   2.753
17196SOL    MW469105   8.719   1.674   2.716
17197SOL     OW69106   9.132   1.754   2.992
17197SOL    HW269107   9.175   1.724   3.072
17197SOL    HW369108   9.051   1.702   2.989
17197SOL    MW469109   9.127   1.743   3.002
17198SOL     OW69110   8.217   0.718   3.699
17198SOL    HW269111   8.287   0.660   3.671
17198SOL    HW369112   8.160   0.663   3.754
17198SOL    MW469113   8.219   0.705   3.703
17199SOL     OW69114   9.004   0.930   3.332
17199SOL    HW269115   9.009   0.983   3.412
17199SOL    HW369116   8.966   0.847   3.360
17199SOL    MW469117   9.000   0.925   3.347
17200SOL     OW69118   8.018   0.585   2.032
17200SOL    HW269119   7.984   0.641   2.102
17200SOL    HW369120   8.089   0.535   2.072
17200SOL    MW469121   8.024   0.586   2.046
17201SOL     OW69122   9.114   1.336   2.854
17201SOL    HW269123   9.149   1.318   2.767
17201SOL    HW369124   9.019   1.337   2.841
17201SOL    MW469125   9.106   1.333   2.841
17202SOL     OW69126   8.543   0.984   3.223
17202SOL    HW269127   8.586   1.019   3.301
17202SOL    HW369128   8.526   1.061   3.169
17202SOL    MW469129   8.546   0.999   3.226
17203SOL     OW69130   9.074   0.471   2.096
17203SOL    HW269131   9.066   0.542   2.033
17203SOL    HW369132   9.092   0.515   2.179
17203SOL    MW469133   9.075   0.485   2.098
17204SOL     OW69134   7.693   1.188   3.385
17204SOL    HW269135   7.721   1.141   3.463
17204SOL    HW369136   7.614   1.143   3.356
17204SOL    MW469137   7.686   1.177   3.391
17205SOL     OW69138   8.201   0.515   3.352
17205SOL    HW269139   8.173   0.603   3.376
17205SOL    HW369140   8.170   0.459   3.423
17205SOL    MW469141   8.193   0.518   3.364
17206SOL     OW69142   8.743   0.733   2.071
17206SOL    HW269143   8.790   0.751   1.990
17206SOL    HW369144   8.709   0.817   2.099
17206SOL    MW469145   8.745   0.747   2.064
17207SOL     OW69146   7.856   0.911   2.565
17207SOL    HW269147   7.914   0.967   2.513
17207SOL    HW369148   7.900   0.826   2.567
17207SOL    MW469149   7.869   0.908   2.558
17208SOL     OW69150   8.478   1.475   1.893
17208SOL    HW269151   8.505   1.553   1.845
17208SOL    HW369152   8.385   1.490   1.912
17208SOL    MW469153   8.469   1.488   1.889
17209SOL     OW69154   9.342   0.998   3.580
17209SOL    HW269155   9.255   0.978   3.616
17209SOL    HW369156   9.396   0.924   3.605
17209SOL    MW469157   9.337   0.987   3.588
17210SOL     OW69158   7.518   0.637   2.284
17210SOL    HW269159   7.458   0.609   2.354
17210SOL    HW369160   7.592   0.577   2.290
17210SOL    MW469161   7.520   0.626   2.293
17211SOL     OW69162   9.086   1.849   3.718
17211SOL    HW269163   9.131   1.773   3.683
17211SOL    HW369164   9.124   1.862   3.805
17211SOL    MW469165   9.096   1.842   3.724
17212SOL     OW69166   8.686   1.368   2.444
17212SOL    HW269167   8.709   1.319   2.522
17212SOL    HW369168   8.767   1.410   2.416
17212SOL    MW469169   8.699   1.368   2.451
17213SOL     OW69170   8.727   0.552   3.600
17213SOL    HW269171   8.779   0.487   3.553
17213SOL    HW369172   8.685   0.603   3.530
17213SOL    MW469173   8.728   0.549   3.583
17214SOL     OW69174   8.826   0.347   3.461
17214SOL    HW269175   8.733   0.331   3.448
17214SOL    HW369176   8.852   0.285   3.529
17214SOL    MW469177   8.816   0.337   3.468
17215SOL     OW69178   8.135   1.736   3.346
17215SOL    HW269179   8.052   1.721   3.391
17215SOL    HW369180   8.194   1.669   3.381
17215SOL    MW469181   8.133   1.726   3.356
17216SOL     OW69182   9.192   0.443   2.971
17216SOL    HW269183   9.125   0.476   3.031
17216SOL    HW369184   9.235   0.521   2.937
17216SOL    MW469185   9.190   0.458   2.975
17217SOL     OW69186   9.370   1.163   2.941
17217SOL    HW269187   9.363   1.103   2.866
17217SOL    HW369188   9.296   1.223   2.930
17217SOL    MW469189   9.360   1.163   2.930
17218SOL     OW69190   8.752   1.025   2.859
17218SOL    HW269191   8.766   0.997   2.950
17218SOL    HW369192   8.838   1.056   2.831
17218SOL    MW469193   8.765   1.026   2.868
17219SOL     OW69194   8.835   0.520   3.138
17219SOL    HW269195   8.856   0.521   3.045
17219SOL    HW369196   8.880   0.442   3.171
17219SOL    MW469197   8.842   0.510   3.130
17220SOL     OW69198   9.328   0.651   3.680
17220SOL    HW269199   9.365   0.596   3.749
17220SOL    HW369200   9.353   0.608   3.598
17220SOL    MW469201   9.335   0.639   3.679
17221SOL     OW69202   8.875   0.949   3.731
17221SOL    HW269203   8.941   0.897   3.685
17221SOL    HW369204   8.895   0.936   3.824
17221SOL    MW469205   8.886   0.940   3.738
17222SOL     OW69206   8.886   0.810   2.358
17222SOL    HW269207   8.801   0.780   2.328
17222SOL    HW369208   8.878   0.817   2.453
17222SOL    MW469209   8.874   0.808   2.367
17223SOL     OW69210   7.962   1.273   3.089
17223SOL    HW269211   7.974   1.300   3.180
17223SOL    HW369212   7.943   1.354   3.042
17223SOL    MW469213   7.961   1.288   3.094
17224SOL     OW69214   8.100   1.745   3.074
17224SOL    HW269215   8.152   1.822   3.051
17224SOL    HW369216   8.109   1.737   3.169
17224SOL    MW469217   8.109   1.752   3.085
17225SOL     OW69218   9.002   1.330   3.306
17225SOL    HW269219   8.987   1.259   3.369
17225SOL    HW369220   9.048   1.288   3.234
17225SOL    MW469221   9.008   1.314   3.306
17226SOL     OW69222   8.076   1.061   3.423
17226SOL    HW269223   8.113   1.066   3.335
17226SOL    HW369224   8.115   1.134   3.470
17226SOL    MW469225   8.086   1.071   3.418
17227SOL     OW69226   8.256   1.104   3.235
17227SOL    HW269227   8.315   1.050   3.288
17227SOL    HW369228   8.271   1.076   3.145
17227SOL    MW469229   8.266   1.093   3.231
17228SOL     OW69230   8.259   0.476   2.084
17228SOL    HW269231   8.332   0.525   2.047
17228SOL    HW369232   8.275   0.385   2.058
17228SOL    MW469233   8.271   0.471   2.077
17229SOL     OW69234   9.067   1.593   3.407
17229SOL    HW269235   9.109   1.578   3.492
17229SOL    HW369236   9.058   1.506   3.369
17229SOL    MW469237   9.071   1.581   3.414
17230SOL     OW69238   7.734   0.985   2.182
17230SOL    HW269239   7.671   1.001   2.111
17230SOL    HW369240   7.681   0.948   2.253
17230SOL    MW469241   7.719   0.982   2.182
17231SOL     OW69242   8.090   1.339   2.041
17231SOL    HW269243   8.105   1.315   2.133
17231SOL    HW369244   7.998   1.317   2.025
17231SOL    MW469245   8.080   1.332   2.051
17232SOL     OW69246   8.629   1.570   2.193
17232SOL    HW269247   8.637   1.488   2.144
17232SOL    HW369248   8.548   1.609   2.160
17232SOL    MW469249   8.619   1.565   2.183
17233SOL     OW69250   7.888   1.728   2.762
17233SOL    HW269251   7.892   1.639   2.797
17233SOL    HW369252   7.914   1.719   2.671
17233SOL    MW469253   7.891   1.716   2.754
17234SOL     OW69254   8.505   1.206   3.005
17234SOL    HW269255   8.437   1.140   3.021
17234SOL    HW369256   8.523   1.200   2.912
17234SOL    MW469257   8.498   1.197   2.996
17235SOL     OW69258   7.594   1.481   3.256
17235SOL    HW269259   7.584   1.439   3.342
17235SOL    HW369260   7.515   1.534   3.246
17235SOL    MW469261   7.583   1.482   3.267
17236SOL     OW69262   8.149   0.781   3.446
17236SOL    HW269263   8.142   0.876   3.434
17236SOL    HW369264   8.158   0.770   3.541
17236SOL    MW469265   8.150   0.793   3.456
17237SOL     OW69266   7.870   1.296   3.704
17237SOL    HW269267   7.942   1.298   3.641
17237SOL    HW369268   7.840   1.205   3.703
17237SOL    MW469269   7.875   1.285   3.696
17238SOL     OW69270   9.154   1.589   3.655
17238SOL    HW269271   9.127   1.586   3.746
17238SOL    HW369272   9.250   1.593   3.658
17238SOL    MW469273   9.164   1.589   3.667
17239SOL     OW69274   7.965   0.451   2.639
17239SOL    HW269275   8.036   0.399   2.602
17239SOL    HW369276   7.951   0.416   2.726
17239SOL    MW469277   7.973   0.440   2.646
17240SOL     OW69278   7.520   1.786   3.711
17240SOL    HW269279   7.570   1.764   3.633
17240SOL    HW369280   7.528   1.881   3.719
17240SOL    MW469281   7.528   1.795   3.702
17241SOL     OW69282   8.281   1.544   2.715
17241SOL    HW269283   8.209   1.481   2.728
17241SOL    HW369284   8.242   1.629   2.733
17241SOL    MW469285   8.265   1.547   2.718
17242SOL     OW69286   8.601   0.392   2.363
17242SOL    HW269287   8.623   0.329   2.295
17242SOL    HW369288   8.506   0.384   2.374
17242SOL    MW469289   8.591   0.383   2.355
17243SOL     OW69290   7.517   0.549   3.438
17243SOL    HW269291   7.581   0.615   3.413
17243SOL    HW369292   7.436   0.576   3.395
17243SOL    MW469293   7.515   0.561   3.430
17244SOL     OW69294   9.255   1.456   2.395
17244SOL    HW269295   9.225   1.389   2.456
17244SOL    HW369296   9.349   1.462   2.409
17244SOL    MW469297   9.263   1.448   2.405
17245SOL     OW69298   8.811   1.133   2.325
17245SOL    HW269299   8.783   1.219   2.358
17245SOL    HW369300   8.839   1.149   2.235
17245SOL    MW469301   8.811   1.147   2.317
17246SOL     OW69302   9.326   0.935   2.800
17246SOL    HW269303   9.317   0.967   2.711
17246SOL    HW369304   9.279   0.851   2.800
17246SOL    MW469305   9.319   0.928   2.790
17247SOL     OW69306   7.702   0.775   3.379
17247SOL    HW269307   7.723   0.844   3.317
17247SOL    HW369308   7.782   0.722   3.384
17247SOL    MW469309   7.715   0.776   3.373
17248SOL     OW69310   9.238   0.866   2.501
17248SOL    HW269311   9.332   0.855   2.489
17248SOL    HW369312   9.214   0.938   2.442
17248SOL    MW469313   9.248   0.874   2.492
17249SOL     OW69314   7.687   0.790   3.646
17249SOL    HW269315   7.613   0.734   3.672
17249SOL    HW369316   7.682   0.793   3.551
17249SOL    MW469317   7.676   0.783   3.636
17250SOL     OW69318   7.853   0.077   3.096
17250SOL    HW269319   7.896   0.161   3.116
17250SOL    HW369320   7.926   0.015   3.089
17250SOL    MW469321   7.868   0.080   3.097
17251SOL     OW69322   7.894   0.744   2.274
17251SOL    HW269323   7.894   0.839   2.259
17251SOL    HW369324   7.971   0.728   2.328
17251SOL    MW469325   7.904   0.755   2.279
17252SOL     OW69326   8.670   0.603   3.338
17252SOL    HW269327   8.706   0.576   3.254
17252SOL    HW369328   8.583   0.637   3.317
17252SOL    MW469329   8.664   0.604   3.325
17253SOL     OW69330   7.653   0.475   2.563
17253SOL    HW269331   7.715   0.482   2.636
17253SOL    HW369332   7.653   0.382   2.540
17253SOL    MW469333   7.661   0.464   2.570
17254SOL     OW69334   9.200   1.815   2.095
17254SOL    HW269335   9.267   1.848   2.035
17254SOL    HW369336   9.157   1.894   2.129
17254SOL    MW469337   9.202   1.830   2.091
17255SOL     OW69338   8.335   0.736   3.047
17255SOL    HW269339   8.293   0.654   3.023
17255SOL    HW369340   8.336   0.735   3.143
17255SOL    MW469341   8.328   0.725   3.056
17256SOL     OW69342   9.006   1.869   3.446
17256SOL    HW269343   9.009   1.775   3.429
17256SOL    HW369344   9.029   1.877   3.538
17256SOL    MW469345   9.009   1.857   3.456
17257SOL     OW69346   7.522   1.047   2.021
17257SOL    HW269347   7.491   1.112   2.084
17257SOL    HW369348   7.471   0.969   2.040
17257SOL    MW469349   7.512   1.044   2.031
17258SOL     OW69350   8.966   0.798   2.613
17258SOL    HW269351   9.046   0.813   2.562
17258SOL    HW369352   8.959   0.703   2.619
17258SOL    MW469353   8.975   0.787   2.608
17259SOL     OW69354   8.106   1.847   1.963
17259SOL    HW269355   8.011   1.847   1.955
17259SOL    HW369356   8.122   1.793   2.041
17259SOL    MW469357   8.096   1.841   1.972
17260SOL     OW69358   8.416   0.724   3.310
17260SOL    HW269359   8.485   0.791   3.307
17260SOL    HW369360   8.349   0.762   3.366
17260SOL    MW469361   8.417   0.737   3.317
17261SOL     OW69362   7.834   1.024   3.558
17261SOL    HW269363   7.788   0.940   3.560
17261SOL    HW369364   7.891   1.018   3.482
17261SOL    MW469365   7.836   1.012   3.550
17262SOL     OW69366   8.951   0.667   1.879
17262SOL    HW269367   8.879   0.643   1.821
17262SOL    HW369368   9.017   0.704   1.821
17262SOL    MW469369   8.950   0.669   1.864
17263SOL     OW69370   8.085   1.399   2.559
17263SOL    HW269371   8.150   1.332   2.580
17263SOL    HW369372   8.137   1.476   2.536
17263SOL    MW469373   8.100   1.401   2.558
17264SOL     OW69374   8.346   0.564   2.689
17264SOL    HW269375   8.286   0.582   2.761
17264SOL    HW369376   8.380   0.476   2.708
17264SOL    MW469377   8.342   0.554   2.702
17265SOL     OW69378   8.571   1.147   2.708
17265SOL    HW269379   8.663   1.128   2.726
17265SOL    HW369380   8.544   1.077   2.648
17265SOL    MW469381   8.579   1.135   2.702
17266SOL     OW69382   8.364   0.967   2.063
17266SOL    HW269383   8.350   0.879   2.028
17266SOL    HW369384   8.315   1.024   2.004
17266SOL    MW469385   8.356   0.962   2.051
17267SOL     OW69386   8.845   1.385   2.804
17267SOL    HW269387   8.818   1.469   2.769
17267SOL    HW369388   8.805   1.380   2.891
17267SOL    MW469389   8.838   1.394   2.810
17268SOL     OW69390   8.764   1.333   3.072
17268SOL    HW269391   8.775   1.300   3.161
17268SOL    HW369392   8.683   1.292   3.041
17268SOL    MW469393   8.754   1.325   3.078
17269SOL     OW69394   7.777   0.691   2.842
17269SOL    HW269395   7.727   0.690   2.923
17269SOL    HW369396   7.797   0.783   2.826
17269SOL    MW469397   7.773   0.703   2.850
17270SOL     OW69398   8.844   1.455   3.604
17270SOL    HW269399   8.844   1.549   3.620
17270SOL    HW369400   8.889   1.445   3.520
17270SOL    MW469401   8.850   1.465   3.595
17271SOL     OW69402   8.372   0.736   2.279
17271SOL    HW269403   8.352   0.722   2.186
17271SOL    HW369404   8.465   0.715   2.286
17271SOL    MW469405   8.382   0.731   2.268
17272SOL     OW69406   7.699   0.359   3.583
17272SOL    HW269407   7.656   0.418   3.520
17272SOL    HW369408   7.767   0.414   3.623
17272SOL    MW469409   7.703   0.374   3.580
17273SOL     OW69410   8.811   0.979   3.128
17273SOL    HW269411   8.874   0.976   3.201
17273SOL    HW369412   8.727   0.997   3.170
17273SOL    MW469413   8.807   0.981   3.143
17274SOL     OW69414   8.355   1.694   2.317
17274SOL    HW269415   8.413   1.765   2.344
17274SOL    HW369416   8.378   1.622   2.375
17274SOL    MW469417   8.366   1.694   2.328
17275SOL     OW69418   9.235   1.192   2.626
17275SOL    HW269419   9.214   1.138   2.549
17275SOL    HW369420   9.331   1.190   2.630
17275SOL    MW469421   9.244   1.185   2.615
17276SOL     OW69422   7.927   1.337   3.369
17276SOL    HW269423   7.848   1.287   3.392
17276SOL    HW369424   7.997   1.296   3.419
17276SOL    MW469425   7.925   1.325   3.379
17277SOL     OW69426   8.935   0.623   2.888
17277SOL    HW269427   8.858   0.669   2.854
17277SOL    HW369428   8.992   0.692   2.922
17277SOL    MW469429   8.932   0.638   2.888
17278SOL     OW69430   7.601   1.482   2.090
17278SOL    HW269431   7.618   1.566   2.132
17278SOL    HW369432   7.636   1.491   2.002
17278SOL    MW469433   7.606   1.495   2.084
17279SOL     OW69434   8.873   1.571   2.307
17279SOL    HW269435   8.936   1.561   2.236
17279SOL    HW369436   8.790   1.591   2.262
17279SOL    MW469437   8.870   1.572   2.292
17280SOL     OW69438   9.236   0.839   3.993
17280SOL    HW269439   9.277   0.781   4.058
17280SOL    HW369440   9.143   0.831   4.010
17280SOL    MW469441   9.230   0.831   4.003
17281SOL     OW69442   9.102   0.771   4.988
17281SOL    HW269443   9.057   0.838   5.039
17281SOL    HW369444   9.190   0.807   4.974
17281SOL    MW469445   9.108   0.784   4.992
17282SOL     OW69446   8.030   1.022   4.222
17282SOL    HW269447   8.120   0.997   4.206
17282SOL    HW369448   8.026   1.115   4.199
17282SOL    MW469449   8.042   1.031   4.217
17283SOL     OW69450   9.146   1.725   4.364
17283SOL    HW269451   9.158   1.671   4.442
17283SOL    HW369452   9.183   1.673   4.293
17283SOL    MW469453   9.152   1.710   4.365
17284SOL     OW69454   8.525   1.610   5.365
17284SOL    HW269455   8.566   1.646   5.286
17284SOL    HW369456   8.560   1.521   5.372
17284SOL    MW469457   8.536   1.603   5.356
17285SOL     OW69458   9.082   1.165   4.969
17285SOL    HW269459   9.003   1.130   4.927
17285SOL    HW369460   9.109   1.237   4.913
17285SOL    MW469461   9.075   1.170   4.956
17286SOL     OW69462   8.314   0.478   4.235
17286SOL    HW269463   8.289   0.566   4.263
17286SOL    HW369464   8.311   0.481   4.139
17286SOL    MW469465   8.310   0.490   4.227
17287SOL     OW69466   7.756   0.506   4.163
17287SOL    HW269467   7.788   0.594   4.145
17287SOL    HW369468   7.744   0.504   4.258
17287SOL    MW469469   7.759   0.518   4.175
17288SOL     OW69470   7.834   0.919   5.064
17288SOL    HW269471   7.897   0.866   5.015
17288SOL    HW369472   7.815   0.993   5.007
17288SOL    MW469473   7.840   0.921   5.051
17289SOL     OW69474   8.155   0.261   4.250
17289SOL    HW269475   8.213   0.337   4.252
17289SOL    HW369476   8.090   0.282   4.183
17289SOL    MW469477   8.154   0.273   4.241
17290SOL     OW69478   8.242   1.188   4.425
17290SOL    HW269479   8.322   1.191   4.477
17290SOL    HW369480   8.270   1.155   4.339
17290SOL    MW469481   8.256   1.184   4.420
17291SOL     OW69482   8.267   1.529   5.328
17291SOL    HW269483   8.351   1.555   5.367
17291SOL    HW369484   8.291   1.473   5.254
17291SOL    MW469485   8.281   1.525   5.323
17292SOL     OW69486   8.019   0.692   4.416
17292SOL    HW269487   8.004   0.612   4.467
17292SOL    HW369488   8.101   0.727   4.450
17292SOL    MW469489   8.027   0.684   4.428
17293SOL     OW69490   8.356   1.378   5.101
17293SOL    HW269491   8.320   1.444   5.041
17293SOL    HW369492   8.284   1.316   5.114
17293SOL    MW469493   8.342   1.378   5.095
17294SOL     OW69494   8.161   0.518   4.793
17294SOL    HW269495   8.067   0.514   4.811
17294SOL    HW369496   8.191   0.427   4.802
17294SOL    MW469497   8.152   0.506   4.796
17295SOL     OW69498   7.907   0.932   4.697
17295SOL    HW269499   7.862   0.939   4.613
17295SOL    HW369500   7.887   1.015   4.741
17295SOL    MW469501   7.899   0.944   4.691
17296SOL     OW69502   7.604   1.778   4.572
17296SOL    HW269503   7.693   1.770   4.607
17296SOL    HW369504   7.568   1.690   4.577
17296SOL    MW469505   7.611   1.765   4.577
17297SOL     OW69506   8.869   1.170   3.941
17297SOL    HW269507   8.787   1.206   3.907
17297SOL    HW369508   8.937   1.213   3.890
17297SOL    MW469509   8.867   1.180   3.929
17298SOL     OW69510   7.868   1.305   4.607
17298SOL    HW269511   7.844   1.358   4.683
17298SOL    HW369512   7.924   1.363   4.555
17298SOL    MW469513   7.872   1.320   4.610
17299SOL     OW69514   8.430   0.949   4.417
17299SOL    HW269515   8.344   0.936   4.457
17299SOL    HW369516   8.483   0.876   4.449
17299SOL    MW469517   8.426   0.938   4.426
17300SOL     OW69518   7.838   1.601   5.202
17300SOL    HW269519   7.746   1.577   5.187
17300SOL    HW369520   7.882   1.518   5.219
17300SOL    MW469521   7.832   1.586   5.201
17301SOL     OW69522   8.421   1.311   4.134
17301SOL    HW269523   8.398   1.373   4.202
17301SOL    HW369524   8.378   1.229   4.160
17301SOL    MW469525   8.413   1.307   4.145
17302SOL     OW69526   9.294   0.312   4.590
17302SOL    HW269527   9.231   0.292   4.659
17302SOL    HW369528   9.284   0.241   4.527
17302SOL    MW469529   9.284   0.299   4.591
17303SOL     OW69530   7.753   1.245   4.139
17303SOL    HW269531   7.701   1.313   4.095
17303SOL    HW369532   7.750   1.171   4.079
17303SOL    MW469533   7.745   1.244   4.126
17304SOL     OW69534   8.415   1.708   3.917
17304SOL    HW269535   8.370   1.724   4.000
17304SOL    HW369536   8.346   1.673   3.859
17304SOL    MW469537   8.401   1.705   3.919
17305SOL     OW69538   9.350   0.481   3.892
17305SOL    HW269539   9.259   0.483   3.920
17305SOL    HW369540   9.395   0.543   3.950
17305SOL    MW469541   9.343   0.489   3.902
17306SOL     OW69542   9.095   1.084   4.242
17306SOL    HW269543   9.005   1.084   4.277
17306SOL    HW369544   9.088   1.130   4.159
17306SOL    MW469545   9.082   1.090   4.236
17307SOL     OW69546   8.895   0.719   5.314
17307SOL    HW269547   8.964   0.657   5.291
17307SOL    HW369548   8.820   0.693   5.261
17307SOL    MW469549   8.895   0.706   5.305
17308SOL     OW69550   7.636   1.599   4.866
17308SOL    HW269551   7.619   1.545   4.943
17308SOL    HW369552   7.624   1.689   4.896
17308SOL    MW469553   7.633   1.603   4.880
17309SOL     OW69554   8.631   1.106   5.306
17309SOL    HW269555   8.616   1.199   5.291
17309SOL    HW369556   8.726   1.096   5.306
17309SOL    MW469557   8.640   1.116   5.303
17310SOL     OW69558   8.427   0.530   5.507
17310SOL    HW269559   8.517   0.531   5.474
17310SOL    HW369560   8.386   0.455   5.465
17310SOL    MW469561   8.433   0.520   5.498
17311SOL     OW69562   9.002   1.062   4.634
17311SOL    HW269563   9.005   0.996   4.565
17311SOL    HW369564   9.087   1.105   4.630
17311SOL    MW469565   9.014   1.058   4.625
17312SOL     OW69566   8.622   0.665   4.203
17312SOL    HW269567   8.648   0.689   4.114
17312SOL    HW369568   8.604   0.572   4.199
17312SOL    MW469569   8.624   0.657   4.190
17313SOL     OW69570   9.287   1.285   4.054
17313SOL    HW269571   9.243   1.326   4.129
17313SOL    HW369572   9.344   1.353   4.019
17313SOL    MW469573   9.289   1.299   4.059
17314SOL     OW69574   8.207   0.334   5.457
17314SOL    HW269575   8.217   0.260   5.397
17314SOL    HW369576   8.243   0.303   5.540
17314SOL    MW469577   8.213   0.320   5.459
17315SOL     OW69578   7.943   1.701   4.372
17315SOL    HW269579   7.975   1.789   4.350
17315SOL    HW369580   7.896   1.673   4.294
17315SOL    MW469581   7.942   1.709   4.359
17316SOL     OW69582   7.659   1.761   3.949
17316SOL    HW269583   7.688   1.851   3.941
17316SOL    HW369584   7.609   1.744   3.870
17316SOL    MW469585   7.657   1.769   3.938
17317SOL     OW69586   9.063   1.569   3.920
17317SOL    HW269587   9.111   1.638   3.966
17317SOL    HW369588   8.984   1.613   3.889
17317SOL    MW469589   9.058   1.583   3.923
17318SOL     OW69590   8.461   0.694   3.864
17318SOL    HW269591   8.463   0.641   3.785
17318SOL    HW369592   8.549   0.731   3.870
17318SOL    MW469593   8.473   0.693   3.853
17319SOL     OW69594   9.075   0.620   4.200
17319SOL    HW269595   9.114   0.620   4.287
17319SOL    HW369596   9.016   0.696   4.200
17319SOL    MW469597   9.072   0.631   4.211
17320SOL     OW69598   8.392   0.987   5.329
17320SOL    HW269599   8.369   0.967   5.419
17320SOL    HW369600   8.477   1.031   5.334
17320SOL    MW469601   8.399   0.990   5.341
17321SOL     OW69602   8.561   0.613   4.923
17321SOL    HW269603   8.636   0.642   4.870
17321SOL    HW369604   8.493   0.678   4.907
17321SOL    MW469605   8.562   0.625   4.913
17322SOL     OW69606   9.111   0.581   5.200
17322SOL    HW269607   9.092   0.490   5.179
17322SOL    HW369608   9.089   0.630   5.121
17322SOL    MW469609   9.106   0.574   5.187
17323SOL     OW69610   9.253   1.675   5.104
17323SOL    HW269611   9.181   1.637   5.155
17323SOL    HW369612   9.270   1.760   5.145
17323SOL    MW469613   9.247   1.680   5.116
17324SOL     OW69614   8.967   1.133   5.382
17324SOL    HW269615   9.049   1.174   5.412
17324SOL    HW369616   8.930   1.095   5.462
17324SOL    MW469617   8.973   1.134   5.397
17325SOL     OW69618   9.262   0.506   4.366
17325SOL    HW269619   9.351   0.475   4.383
17325SOL    HW369620   9.205   0.446   4.414
17325SOL    MW469621   9.265   0.494   4.375
17326SOL     OW69622   8.631   1.313   3.956
17326SOL    HW269623   8.581   1.315   4.038
17326SOL    HW369624   8.565   1.331   3.888
17326SOL    MW469625   8.617   1.315   3.958
17327SOL     OW69626   7.635   0.393   4.758
17327SOL    HW269627   7.607   0.484   4.767
17327SOL    HW369628   7.572   0.354   4.697
17327SOL    MW469629   7.622   0.399   4.752
17328SOL     OW69630   8.094   1.731   4.064
17328SOL    HW269631   8.015   1.689   4.097
17328SOL    HW369632   8.160   1.714   4.131
17328SOL    MW469633   8.093   1.723   4.077
17329SOL     OW69634   9.222   1.251   5.461
17329SOL    HW269635   9.272   1.177   5.493
17329SOL    HW369636   9.168   1.278   5.536
17329SOL    MW469637   9.222   1.245   5.474
17330SOL     OW69638   8.230   1.146   3.771
17330SOL    HW269639   8.152   1.092   3.758
17330SOL    HW369640   8.201   1.219   3.824
17330SOL    MW469641   8.216   1.148   3.776
17331SOL     OW69642   9.356   0.886   4.963
17331SOL    HW269643   9.372   0.924   4.876
17331SOL    HW369644   9.390   0.952   5.024
17331SOL    MW469645   9.363   0.899   4.959
17332SOL     OW69646   9.148   1.595   4.632
17332SOL    HW269647   9.177   1.662   4.693
17332SOL    HW369648   9.129   1.519   4.687
17332SOL    MW469649   9.150   1.595   4.647
17333SOL     OW69650   8.811   1.662   3.839
17333SOL    HW269651   8.737   1.625   3.889
17333SOL    HW369652   8.819   1.752   3.872
17333SOL    MW469653   8.802   1.669   3.851
17334SOL     OW69654   7.619   0.668   4.928
17334SOL    HW269655   7.681   0.698   4.994
17334SOL    HW369656   7.553   0.737   4.922
17334SOL    MW469657   7.618   0.681   4.935
17335SOL     OW69658   9.035   1.336   3.781
17335SOL    HW269659   8.982   1.385   3.717
17335SOL    HW369660   9.066   1.402   3.842
17335SOL    MW469661   9.033   1.350   3.779
17336SOL     OW69662   7.714   1.777   5.380
17336SOL    HW269663   7.688   1.845   5.318
17336SOL    HW369664   7.762   1.714   5.328
17336SOL    MW469665   7.716   1.777   5.366
17337SOL     OW69666   7.766   1.096   4.887
17337SOL    HW269667   7.819   1.171   4.912
17337SOL    HW369668   7.685   1.134   4.853
17337SOL    MW469669   7.762   1.111   4.887
17338SOL     OW69670   8.306   1.000   4.875
17338SOL    HW269671   8.334   0.909   4.887
17338SOL    HW369672   8.235   0.994   4.811
17338SOL    MW469673   8.299   0.988   4.870
17339SOL     OW69674   7.621   0.865   4.293
17339SOL    HW269675   7.712   0.880   4.320
17339SOL    HW369676   7.624   0.786   4.239
17339SOL    MW469677   7.633   0.857   4.291
17340SOL     OW69678   7.857   0.573   5.547
17340SOL    HW269679   7.804   0.653   5.554
17340SOL    HW369680   7.927   0.585   5.612
17340SOL    MW469681   7.859   0.586   5.555
17341SOL     OW69682   7.927   0.647   5.293
17341SOL    HW269683   8.007   0.697   5.279
17341SOL    HW369684   7.918   0.641   5.388
17341SOL    MW469685   7.936   0.653   5.303
17342SOL     OW69686   8.248   1.797   4.667
17342SOL    HW269687   8.337   1.812   4.697
17342SOL    HW369688   8.243   1.844   4.583
17342SOL    MW469689   8.258   1.805   4.660
17343SOL     OW69690   7.629   1.477   4.332
17343SOL    HW269691   7.601   1.516   4.414
17343SOL    HW369692   7.649   1.386   4.354
17343SOL    MW469693   7.627   1.469   4.345
17344SOL     OW69694   8.462   1.520   4.367
17344SOL    HW269695   8.545   1.474   4.351
17344SOL    HW369696   8.452   1.519   4.463
17344SOL    MW469697   8.472   1.513   4.377
17345SOL     OW69698   9.294   0.665   4.681
17345SOL    HW269699   9.383   0.695   4.663
17345SOL    HW369700   9.274   0.605   4.610
17345SOL    MW469701   9.303   0.662   4.670
17346SOL     OW69702   9.145   0.844   5.561
17346SOL    HW269703   9.200   0.768   5.542
17346SOL    HW369704   9.147   0.852   5.656
17346SOL    MW469705   9.153   0.835   5.569
17347SOL     OW69706   8.195   1.577   3.772
17347SOL    HW269707   8.135   1.646   3.742
17347SOL    HW369708   8.140   1.519   3.825
17347SOL    MW469709   8.179   1.579   3.774
17348SOL     OW69710   8.633   0.222   3.995
17348SOL    HW269711   8.566   0.198   3.932
17348SOL    HW369712   8.698   0.271   3.944
17348SOL    MW469713   8.633   0.224   3.980
17349SOL     OW69714   8.440   0.406   5.080
17349SOL    HW269715   8.359   0.447   5.108
17349SOL    HW369716   8.487   0.474   5.032
17349SOL    MW469717   8.435   0.421   5.078
17350SOL     OW69718   8.700   0.744   4.703
17350SOL    HW269719   8.713   0.838   4.713
17350SOL    HW369720   8.661   0.734   4.617
17350SOL    MW469721   8.696   0.755   4.693
17351SOL     OW69722   8.152   0.939   4.507
17351SOL    HW269723   8.063   0.930   4.540
17351SOL    HW369724   8.156   1.029   4.475
17351SOL    MW469725   8.141   0.950   4.507
17352SOL     OW69726   8.951   0.522   4.502
17352SOL    HW269727   8.896   0.443   4.501
17352SOL    HW369728   8.933   0.563   4.586
17352SOL    MW469729   8.941   0.517   4.511
17353SOL     OW69730   8.570   0.726   4.459
17353SOL    HW269731   8.507   0.658   4.483
17353SOL    HW369732   8.590   0.707   4.367
17353SOL    MW469733   8.564   0.713   4.451
17354SOL     OW69734   7.826   1.621   4.161
17354SOL    HW269735   7.787   1.668   4.087
17354SOL    HW369736   7.760   1.556   4.186
17354SOL    MW469737   7.813   1.619   4.155
17355SOL     OW69738   8.318   1.030   4.185
17355SOL    HW269739   8.320   1.004   4.092
17355SOL    HW369740   8.376   0.967   4.228
17355SOL    MW469741   8.326   1.019   4.179
17356SOL     OW69742   8.871   1.590   4.957
17356SOL    HW269743   8.796   1.636   4.995
17356SOL    HW369744   8.853   1.497   4.974
17356SOL    MW469745   8.860   1.584   4.965
17357SOL     OW69746   8.875   1.798   4.387
17357SOL    HW269747   8.818   1.751   4.326
17357SOL    HW369748   8.961   1.759   4.374
17357SOL    MW469749   8.878   1.789   4.377
17358SOL     OW69750   7.633   1.208   4.452
17358SOL    HW269751   7.697   1.240   4.515
17358SOL    HW369752   7.682   1.144   4.400
17358SOL    MW469753   7.648   1.204   4.453
17359SOL     OW69754   8.133   1.284   5.434
17359SOL    HW269755   8.181   1.367   5.421
17359SOL    HW369756   8.190   1.232   5.490
17359SOL    MW469757   8.147   1.288   5.440
17360SOL     OW69758   7.709   1.526   5.574
17360SOL    HW269759   7.765   1.450   5.589
17360SOL    HW369760   7.658   1.504   5.496
17360SOL    MW469761   7.709   1.513   5.565
17361SOL     OW69762   8.808   0.378   3.853
17361SOL    HW269763   8.781   0.444   3.789
17361SOL    HW369764   8.878   0.421   3.903
17361SOL    MW469765   8.813   0.391   3.850
17362SOL     OW69766   8.981   0.934   3.995
17362SOL    HW269767   8.948   1.023   3.985
17362SOL    HW369768   8.946   0.905   4.080
17362SOL    MW469769   8.971   0.943   4.006
17363SOL     OW69770   8.594   1.363   5.183
17363SOL    HW269771   8.505   1.369   5.151
17363SOL    HW369772   8.638   1.442   5.151
17363SOL    MW469773   8.589   1.373   5.175
17364SOL     OW69774   7.911   1.521   4.824
17364SOL    HW269775   7.956   1.583   4.881
17364SOL    HW369776   7.818   1.540   4.837
17364SOL    MW469777   7.904   1.531   4.831
17365SOL     OW69778   9.351   1.050   5.178
17365SOL    HW269779   9.266   1.063   5.137
17365SOL    HW369780   9.331   1.014   5.265
17365SOL    MW469781   9.338   1.046   5.183
17366SOL     OW69782   8.333   1.589   4.932
17366SOL    HW269783   8.357   1.578   4.841
17366SOL    HW369784   8.256   1.646   4.930
17366SOL    MW469785   8.325   1.594   4.921
17367SOL     OW69786   7.975   0.972   3.787
17367SOL    HW269787   7.898   0.985   3.843
17367SOL    HW369788   7.939   0.936   3.706
17367SOL    MW469789   7.961   0.968   3.784
17368SOL     OW69790   8.628   0.945   4.030
17368SOL    HW269791   8.538   0.966   4.005
17368SOL    HW369792   8.655   1.018   4.086
17368SOL    MW469793   8.620   0.957   4.033
17369SOL     OW69794   8.128   1.294   4.722
17369SOL    HW269795   8.121   1.273   4.816
17369SOL    HW369796   8.046   1.262   4.685
17369SOL    MW469797   8.116   1.288   4.729
17370SOL     OW69798   8.992   0.304   5.124
17370SOL    HW269799   8.939   0.306   5.204
17370SOL    HW369800   8.977   0.217   5.087
17370SOL    MW469801   8.984   0.294   5.129
17371SOL     OW69802   9.328   0.228   4.997
17371SOL    HW269803   9.309   0.295   4.932
17371SOL    HW369804   9.385   0.166   4.952
17371SOL    MW469805   9.332   0.229   4.983
17372SOL     OW69806   7.574   1.386   5.385
17372SOL    HW269807   7.618   1.319   5.331
17372SOL    HW369808   7.489   1.348   5.405
17372SOL    MW469809   7.569   1.372   5.381
17373SOL     OW69810   8.015   1.301   4.186
17373SOL    HW269811   8.008   1.333   4.276
17373SOL    HW369812   7.925   1.285   4.158
17373SOL    MW469813   8.003   1.303   4.193
17374SOL     OW69814   8.610   1.694   5.095
17374SOL    HW269815   8.530   1.679   5.045
17374SOL    HW369816   8.617   1.789   5.102
17374SOL    MW469817   8.601   1.705   5.089
17375SOL     OW69818   8.724   1.659   4.585
17375SOL    HW269819   8.771   1.732   4.544
17375SOL    HW369820   8.645   1.698   4.621
17375SOL    MW469821   8.719   1.674   4.584
17376SOL     OW69822   9.132   1.754   4.860
17376SOL    HW269823   9.175   1.724   4.940
17376SOL    HW369824   9.051   1.702   4.857
17376SOL    MW469825   9.127   1.743   4.870
17377SOL     OW69826   8.217   0.718   5.567
17377SOL    HW269827   8.287   0.660   5.539
17377SOL    HW369828   8.160   0.663   5.622
17377SOL    MW469829   8.219   0.705   5.571
17378SOL     OW69830   9.004   0.930   5.200
17378SOL    HW269831   9.009   0.983   5.280
17378SOL    HW369832   8.966   0.847   5.228
17378SOL    MW469833   9.000   0.925   5.215
17379SOL     OW69834   8.018   0.585   3.900
17379SOL    HW269835   7.984   0.641   3.970
17379SOL    HW369836   8.089   0.535   3.940
17379SOL    MW469837   8.024   0.586   3.914
17380SOL     OW69838   9.114   1.336   4.722
17380SOL    HW269839   9.149   1.318   4.635
17380SOL    HW369840   9.019   1.337   4.709
17380SOL    MW469841   9.106   1.333   4.709
17381SOL     OW69842   8.543   0.984   5.091
17381SOL    HW269843   8.586   1.019   5.169
17381SOL    HW369844   8.526   1.061   5.037
17381SOL    MW469845   8.546   0.999   5.094
17382SOL     OW69846   9.074   0.471   3.964
17382SOL    HW269847   9.066   0.542   3.901
17382SOL    HW369848   9.092   0.515   4.047
17382SOL    MW469849   9.075   0.485   3.966
17383SOL     OW69850   7.693   1.188   5.253
17383SOL    HW269851   7.721   1.141   5.331
17383SOL    HW369852   7.614   1.143   5.224
17383SOL    MW469853   7.686   1.177   5.259
17384SOL     OW69854   8.201   0.515   5.220
17384SOL    HW269855   8.173   0.603   5.244
17384SOL    HW369856   8.170   0.459   5.291
17384SOL    MW469857   8.193   0.518   5.232
17385SOL     OW69858   8.743   0.733   3.939
17385SOL    HW269859   8.790   0.751   3.858
17385SOL    HW369860   8.709   0.817   3.967
17385SOL    MW469861   8.745   0.747   3.932
17386SOL     OW69862   7.856   0.911   4.433
17386SOL    HW269863   7.914   0.967   4.381
17386SOL    HW369864   7.900   0.826   4.435
17386SOL    MW469865   7.869   0.908   4.426
17387SOL     OW69866   8.478   1.475   3.761
17387SOL    HW269867   8.505   1.553   3.713
17387SOL    HW369868   8.385   1.490   3.780
17387SOL    MW469869   8.469   1.488   3.757
17388SOL     OW69870   9.342   0.998   5.448
17388SOL    HW269871   9.255   0.978   5.484
17388SOL    HW369872   9.396   0.924   5.473
17388SOL    MW469873   9.337   0.987   5.456
17389SOL     OW69874   7.563   1.511   4.605
17389SOL    HW269875   7.595   1.515   4.696
17389SOL    HW369876   7.468   1.519   4.613
17389SOL    MW469877   7.555   1.514   4.618
17390SOL     OW69878   7.518   0.637   4.152
17390SOL    HW269879   7.458   0.609   4.222
17390SOL    HW369880   7.592   0.577   4.158
17390SOL    MW469881   7.520   0.626   4.161
17391SOL     OW69882   9.086   1.849   5.586
17391SOL    HW269883   9.131   1.773   5.551
17391SOL    HW369884   9.124   1.862   5.673
17391SOL    MW469885   9.096   1.842   5.592
17392SOL     OW69886   8.686   1.368   4.312
17392SOL    HW269887   8.709   1.319   4.390
17392SOL    HW369888   8.767   1.410   4.284
17392SOL    MW469889   8.699   1.368   4.319
17393SOL     OW69890   8.727   0.552   5.468
17393SOL    HW269891   8.779   0.487   5.421
17393SOL    HW369892   8.685   0.603   5.398
17393SOL    MW469893   8.728   0.549   5.451
17394SOL     OW69894   8.826   0.347   5.329
17394SOL    HW269895   8.733   0.331   5.316
17394SOL    HW369896   8.852   0.285   5.397
17394SOL    MW469897   8.816   0.337   5.336
17395SOL     OW69898   8.135   1.736   5.214
17395SOL    HW269899   8.052   1.721   5.259
17395SOL    HW369900   8.194   1.669   5.249
17395SOL    MW469901   8.133   1.726   5.224
17396SOL     OW69902   9.192   0.443   4.839
17396SOL    HW269903   9.125   0.476   4.899
17396SOL    HW369904   9.235   0.521   4.805
17396SOL    MW469905   9.190   0.458   4.843
17397SOL     OW69906   9.370   1.163   4.809
17397SOL    HW269907   9.363   1.103   4.734
17397SOL    HW369908   9.296   1.223   4.798
17397SOL    MW469909   9.360   1.163   4.798
17398SOL     OW69910   8.752   1.025   4.727
17398SOL    HW269911   8.766   0.997   4.818
17398SOL    HW369912   8.838   1.056   4.699
17398SOL    MW469913   8.765   1.026   4.736
17399SOL     OW69914   8.835   0.520   5.006
17399SOL    HW269915   8.856   0.521   4.913
17399SOL    HW369916   8.880   0.442   5.039
17399SOL    MW469917   8.842   0.510   4.998
17400SOL     OW69918   9.328   0.651   5.548
17400SOL    HW269919   9.365   0.596   5.617
17400SOL    HW369920   9.353   0.608   5.466
17400SOL    MW469921   9.335   0.639   5.547
17401SOL     OW69922   8.875   0.949   5.600
17401SOL    HW269923   8.941   0.897   5.554
17401SOL    HW369924   8.895   0.936   5.693
17401SOL    MW469925   8.886   0.940   5.607
17402SOL     OW69926   8.886   0.810   4.226
17402SOL    HW269927   8.801   0.780   4.196
17402SOL    HW369928   8.878   0.817   4.321
17402SOL    MW469929   8.874   0.808   4.235
17403SOL     OW69930   7.962   1.273   4.957
17403SOL    HW269931   7.974   1.300   5.048
17403SOL    HW369932   7.943   1.354   4.910
17403SOL    MW469933   7.961   1.288   4.962
17404SOL     OW69934   8.100   1.745   4.942
17404SOL    HW269935   8.152   1.822   4.919
17404SOL    HW369936   8.109   1.737   5.037
17404SOL    MW469937   8.109   1.752   4.953
17405SOL     OW69938   9.002   1.330   5.174
17405SOL    HW269939   8.987   1.259   5.237
17405SOL    HW369940   9.048   1.288   5.102
17405SOL    MW469941   9.008   1.314   5.174
17406SOL     OW69942   8.076   1.061   5.291
17406SOL    HW269943   8.113   1.066   5.203
17406SOL    HW369944   8.115   1.134   5.338
17406SOL    MW469945   8.086   1.071   5.286
17407SOL     OW69946   8.256   1.104   5.103
17407SOL    HW269947   8.315   1.050   5.156
17407SOL    HW369948   8.271   1.076   5.013
17407SOL    MW469949   8.266   1.093   5.099
17408SOL     OW69950   8.259   0.476   3.952
17408SOL    HW269951   8.332   0.525   3.915
17408SOL    HW369952   8.275   0.385   3.926
17408SOL    MW469953   8.271   0.471   3.945
17409SOL     OW69954   9.067   1.593   5.275
17409SOL    HW269955   9.109   1.578   5.360
17409SOL    HW369956   9.058   1.506   5.237
17409SOL    MW469957   9.071   1.581   5.282
17410SOL     OW69958   7.734   0.985   4.050
17410SOL    HW269959   7.671   1.001   3.979
17410SOL    HW369960   7.681   0.948   4.121
17410SOL    MW469961   7.719   0.982   4.050
17411SOL     OW69962   8.090   1.339   3.909
17411SOL    HW269963   8.105   1.315   4.001
17411SOL    HW369964   7.998   1.317   3.893
17411SOL    MW469965   8.080   1.332   3.919
17412SOL     OW69966   8.629   1.570   4.061
17412SOL    HW269967   8.637   1.488   4.012
17412SOL    HW369968   8.548   1.609   4.028
17412SOL    MW469969   8.619   1.565   4.051
17413SOL     OW69970   7.888   1.728   4.630
17413SOL    HW269971   7.892   1.639   4.665
17413SOL    HW369972   7.914   1.719   4.539
17413SOL    MW469973   7.891   1.716   4.622
17414SOL     OW69974   8.505   1.206   4.873
17414SOL    HW269975   8.437   1.140   4.889
17414SOL    HW369976   8.523   1.200   4.780
17414SOL    MW469977   8.498   1.197   4.864
17415SOL     OW69978   7.594   1.481   5.124
17415SOL    HW269979   7.584   1.439   5.210
17415SOL    HW369980   7.515   1.534   5.114
17415SOL    MW469981   7.583   1.482   5.135
17416SOL     OW69982   8.149   0.781   5.314
17416SOL    HW269983   8.142   0.876   5.302
17416SOL    HW369984   8.158   0.770   5.409
17416SOL    MW469985   8.150   0.793   5.324
17417SOL     OW69986   7.870   1.296   5.572
17417SOL    HW269987   7.942   1.298   5.509
17417SOL    HW369988   7.840   1.205   5.571
17417SOL    MW469989   7.875   1.285   5.564
17418SOL     OW69990   9.154   1.589   5.523
17418SOL    HW269991   9.127   1.586   5.614
17418SOL    HW369992   9.250   1.593   5.526
17418SOL    MW469993   9.164   1.589   5.535
17419SOL     OW69994   7.965   0.451   4.507
17419SOL    HW269995   8.036   0.399   4.470
17419SOL    HW369996   7.951   0.416   4.594
17419SOL    MW469997   7.973   0.440   4.514
17420SOL     OW69998   7.520   1.786   5.579
17420SOL    HW269999   7.570   1.764   5.501
17420SOL    HW370000   7.528   1.881   5.587
17420SOL    MW470001   7.528   1.795   5.570
17421SOL     OW70002   8.281   1.544   4.583
17421SOL    HW270003   8.209   1.481   4.596
17421SOL    HW370004   8.242   1.629   4.601
17421SOL    MW470005   8.265   1.547   4.586
17422SOL     OW70006   8.601   0.392   4.231
17422SOL    HW270007   8.623   0.329   4.163
17422SOL    HW370008   8.506   0.384   4.242
17422SOL    MW470009   8.591   0.383   4.223
17423SOL     OW70010   7.517   0.549   5.306
17423SOL    HW270011   7.581   0.615   5.281
17423SOL    HW370012   7.436   0.576   5.263
17423SOL    MW470013   7.515   0.561   5.298
17424SOL     OW70014   9.255   1.456   4.263
17424SOL    HW270015   9.225   1.389   4.324
17424SOL    HW370016   9.349   1.462   4.277
17424SOL    MW470017   9.263   1.448   4.273
17425SOL     OW70018   8.811   1.133   4.193
17425SOL    HW270019   8.783   1.219   4.226
17425SOL    HW370020   8.839   1.149   4.103
17425SOL    MW470021   8.811   1.147   4.185
17426SOL     OW70022   9.326   0.935   4.668
17426SOL    HW270023   9.317   0.967   4.579
17426SOL    HW370024   9.279   0.851   4.668
17426SOL    MW470025   9.319   0.928   4.658
17427SOL     OW70026   7.702   0.775   5.247
17427SOL    HW270027   7.723   0.844   5.185
17427SOL    HW370028   7.782   0.722   5.252
17427SOL    MW470029   7.715   0.776   5.241
17428SOL     OW70030   9.238   0.866   4.369
17428SOL    HW270031   9.332   0.855   4.357
17428SOL    HW370032   9.214   0.938   4.310
17428SOL    MW470033   9.248   0.874   4.360
17429SOL     OW70034   7.687   0.790   5.514
17429SOL    HW270035   7.613   0.734   5.540
17429SOL    HW370036   7.682   0.793   5.419
17429SOL    MW470037   7.676   0.783   5.504
17430SOL     OW70038   7.853   0.077   4.964
17430SOL    HW270039   7.896   0.161   4.984
17430SOL    HW370040   7.926   0.015   4.957
17430SOL    MW470041   7.868   0.080   4.965
17431SOL     OW70042   7.894   0.744   4.142
17431SOL    HW270043   7.894   0.839   4.127
17431SOL    HW370044   7.971   0.728   4.196
17431SOL    MW470045   7.904   0.755   4.147
17432SOL     OW70046   8.670   0.603   5.206
17432SOL    HW270047   8.706   0.576   5.122
17432SOL    HW370048   8.583   0.637   5.185
17432SOL    MW470049   8.664   0.604   5.193
17433SOL     OW70050   7.653   0.475   4.431
17433SOL    HW270051   7.715   0.482   4.504
17433SOL    HW370052   7.653   0.382   4.408
17433SOL    MW470053   7.661   0.464   4.438
17434SOL     OW70054   9.200   1.815   3.963
17434SOL    HW270055   9.267   1.848   3.903
17434SOL    HW370056   9.157   1.894   3.997
17434SOL    MW470057   9.202   1.830   3.959
17435SOL     OW70058   8.335   0.736   4.915
17435SOL    HW270059   8.293   0.654   4.891
17435SOL    HW370060   8.336   0.735   5.011
17435SOL    MW470061   8.328   0.725   4.924
17436SOL     OW70062   9.006   1.869   5.314
17436SOL    HW270063   9.009   1.775   5.297
17436SOL    HW370064   9.029   1.877   5.406
17436SOL    MW470065   9.009   1.857   5.324
17437SOL     OW70066   7.522   1.047   3.889
17437SOL    HW270067   7.491   1.112   3.952
17437SOL    HW370068   7.471   0.969   3.908
17437SOL    MW470069   7.512   1.044   3.899
17438SOL     OW70070   8.966   0.798   4.481
17438SOL    HW270071   9.046   0.813   4.430
17438SOL    HW370072   8.959   0.703   4.487
17438SOL    MW470073   8.975   0.787   4.476
17439SOL     OW70074   8.106   1.847   3.831
17439SOL    HW270075   8.011   1.847   3.823
17439SOL    HW370076   8.122   1.793   3.909
17439SOL    MW470077   8.096   1.841   3.840
17440SOL     OW70078   8.416   0.724   5.178
17440SOL    HW270079   8.485   0.791   5.175
17440SOL    HW370080   8.349   0.762   5.234
17440SOL    MW470081   8.417   0.737   5.185
17441SOL     OW70082   7.834   1.024   5.426
17441SOL    HW270083   7.788   0.940   5.428
17441SOL    HW370084   7.891   1.018   5.350
17441SOL    MW470085   7.836   1.012   5.418
17442SOL     OW70086   8.951   0.667   3.747
17442SOL    HW270087   8.879   0.643   3.689
17442SOL    HW370088   9.017   0.704   3.689
17442SOL    MW470089   8.950   0.669   3.732
17443SOL     OW70090   8.085   1.399   4.427
17443SOL    HW270091   8.150   1.332   4.448
17443SOL    HW370092   8.137   1.476   4.404
17443SOL    MW470093   8.100   1.401   4.426
17444SOL     OW70094   8.346   0.564   4.557
17444SOL    HW270095   8.286   0.582   4.629
17444SOL    HW370096   8.380   0.476   4.576
17444SOL    MW470097   8.342   0.554   4.570
17445SOL     OW70098   8.364   0.967   3.931
17445SOL    HW270099   8.350   0.879   3.896
17445SOL    HW370100   8.315   1.024   3.872
17445SOL    MW470101   8.356   0.962   3.919
17446SOL     OW70102   8.845   1.385   4.672
17446SOL    HW270103   8.818   1.469   4.637
17446SOL    HW370104   8.805   1.380   4.759
17446SOL    MW470105   8.838   1.394   4.678
17447SOL     OW70106   8.764   1.333   4.940
17447SOL    HW270107   8.775   1.300   5.029
17447SOL    HW370108   8.683   1.292   4.909
17447SOL    MW470109   8.754   1.325   4.946
17448SOL     OW70110   7.777   0.691   4.710
17448SOL    HW270111   7.727   0.690   4.791
17448SOL    HW370112   7.797   0.783   4.694
17448SOL    MW470113   7.773   0.703   4.718
17449SOL     OW70114   8.844   1.455   5.472
17449SOL    HW270115   8.844   1.549   5.488
17449SOL    HW370116   8.889   1.445   5.388
17449SOL    MW470117   8.850   1.465   5.463
17450SOL     OW70118   8.372   0.736   4.147
17450SOL    HW270119   8.352   0.722   4.054
17450SOL    HW370120   8.465   0.715   4.154
17450SOL    MW470121   8.382   0.731   4.136
17451SOL     OW70122   7.699   0.359   5.451
17451SOL    HW270123   7.656   0.418   5.388
17451SOL    HW370124   7.767   0.414   5.491
17451SOL    MW470125   7.703   0.374   5.448
17452SOL     OW70126   8.811   0.979   4.996
17452SOL    HW270127   8.874   0.976   5.069
17452SOL    HW370128   8.727   0.997   5.038
17452SOL    MW470129   8.807   0.981   5.011
17453SOL     OW70130   8.355   1.694   4.185
17453SOL    HW270131   8.413   1.765   4.212
17453SOL    HW370132   8.378   1.622   4.243
17453SOL    MW470133   8.366   1.694   4.196
17454SOL     OW70134   9.235   1.192   4.494
17454SOL    HW270135   9.214   1.138   4.417
17454SOL    HW370136   9.331   1.190   4.498
17454SOL    MW470137   9.244   1.185   4.483
17455SOL     OW70138   7.927   1.337   5.237
17455SOL    HW270139   7.848   1.287   5.260
17455SOL    HW370140   7.997   1.296   5.287
17455SOL    MW470141   7.925   1.325   5.247
17456SOL     OW70142   8.935   0.623   4.756
17456SOL    HW270143   8.858   0.669   4.722
17456SOL    HW370144   8.992   0.692   4.790
17456SOL    MW470145   8.932   0.638   4.756
17457SOL     OW70146   7.601   1.482   3.958
17457SOL    HW270147   7.618   1.566   4.000
17457SOL    HW370148   7.636   1.491   3.870
17457SOL    MW470149   7.606   1.495   3.952
17458SOL     OW70150   8.873   1.571   4.175
17458SOL    HW270151   8.936   1.561   4.104
17458SOL    HW370152   8.790   1.591   4.130
17458SOL    MW470153   8.870   1.572   4.160
17459SOL     OW70154   9.236   0.839   5.862
17459SOL    HW270155   9.277   0.781   5.927
17459SOL    HW370156   9.143   0.831   5.879
17459SOL    MW470157   9.230   0.831   5.872
17460SOL     OW70158   9.102   0.771   6.857
17460SOL    HW270159   9.057   0.838   6.908
17460SOL    HW370160   9.190   0.807   6.843
17460SOL    MW470161   9.108   0.784   6.861
17461SOL     OW70162   8.030   1.022   6.091
17461SOL    HW270163   8.120   0.997   6.075
17461SOL    HW370164   8.026   1.115   6.068
17461SOL    MW470165   8.042   1.031   6.086
17462SOL     OW70166   9.146   1.725   6.233
17462SOL    HW270167   9.158   1.671   6.311
17462SOL    HW370168   9.183   1.673   6.162
17462SOL    MW470169   9.152   1.710   6.234
17463SOL     OW70170   8.525   1.610   7.234
17463SOL    HW270171   8.566   1.646   7.155
17463SOL    HW370172   8.560   1.521   7.241
17463SOL    MW470173   8.536   1.603   7.225
17464SOL     OW70174   9.082   1.165   6.838
17464SOL    HW270175   9.003   1.130   6.796
17464SOL    HW370176   9.109   1.237   6.782
17464SOL    MW470177   9.075   1.170   6.825
17465SOL     OW70178   8.314   0.478   6.104
17465SOL    HW270179   8.289   0.566   6.132
17465SOL    HW370180   8.311   0.481   6.008
17465SOL    MW470181   8.310   0.490   6.096
17466SOL     OW70182   7.756   0.506   6.032
17466SOL    HW270183   7.788   0.594   6.014
17466SOL    HW370184   7.744   0.504   6.127
17466SOL    MW470185   7.759   0.518   6.044
17467SOL     OW70186   7.834   0.919   6.933
17467SOL    HW270187   7.897   0.866   6.884
17467SOL    HW370188   7.815   0.993   6.876
17467SOL    MW470189   7.840   0.921   6.920
17468SOL     OW70190   8.155   0.261   6.119
17468SOL    HW270191   8.213   0.337   6.121
17468SOL    HW370192   8.090   0.282   6.052
17468SOL    MW470193   8.154   0.273   6.110
17469SOL     OW70194   8.242   1.188   6.294
17469SOL    HW270195   8.322   1.191   6.346
17469SOL    HW370196   8.270   1.155   6.208
17469SOL    MW470197   8.256   1.184   6.289
17470SOL     OW70198   8.267   1.529   7.197
17470SOL    HW270199   8.351   1.555   7.236
17470SOL    HW370200   8.291   1.473   7.123
17470SOL    MW470201   8.281   1.525   7.192
17471SOL     OW70202   8.019   0.692   6.285
17471SOL    HW270203   8.004   0.612   6.336
17471SOL    HW370204   8.101   0.727   6.319
17471SOL    MW470205   8.027   0.684   6.297
17472SOL     OW70206   8.356   1.378   6.970
17472SOL    HW270207   8.320   1.444   6.910
17472SOL    HW370208   8.284   1.316   6.983
17472SOL    MW470209   8.342   1.378   6.964
17473SOL     OW70210   8.161   0.518   6.662
17473SOL    HW270211   8.067   0.514   6.680
17473SOL    HW370212   8.191   0.427   6.671
17473SOL    MW470213   8.152   0.506   6.665
17474SOL     OW70214   7.907   0.932   6.566
17474SOL    HW270215   7.862   0.939   6.482
17474SOL    HW370216   7.887   1.015   6.610
17474SOL    MW470217   7.899   0.944   6.560
17475SOL     OW70218   7.604   1.778   6.441
17475SOL    HW270219   7.693   1.770   6.476
17475SOL    HW370220   7.568   1.690   6.446
17475SOL    MW470221   7.611   1.765   6.446
17476SOL     OW70222   8.869   1.170   5.810
17476SOL    HW270223   8.787   1.206   5.776
17476SOL    HW370224   8.937   1.213   5.759
17476SOL    MW470225   8.867   1.180   5.798
17477SOL     OW70226   7.868   1.305   6.476
17477SOL    HW270227   7.844   1.358   6.552
17477SOL    HW370228   7.924   1.363   6.424
17477SOL    MW470229   7.872   1.320   6.479
17478SOL     OW70230   8.430   0.949   6.286
17478SOL    HW270231   8.344   0.936   6.326
17478SOL    HW370232   8.483   0.876   6.318
17478SOL    MW470233   8.426   0.938   6.295
17479SOL     OW70234   7.838   1.601   7.071
17479SOL    HW270235   7.746   1.577   7.056
17479SOL    HW370236   7.882   1.518   7.088
17479SOL    MW470237   7.832   1.586   7.070
17480SOL     OW70238   8.421   1.311   6.003
17480SOL    HW270239   8.398   1.373   6.071
17480SOL    HW370240   8.378   1.229   6.029
17480SOL    MW470241   8.413   1.307   6.014
17481SOL     OW70242   9.294   0.312   6.459
17481SOL    HW270243   9.231   0.292   6.528
17481SOL    HW370244   9.284   0.241   6.396
17481SOL    MW470245   9.284   0.299   6.460
17482SOL     OW70246   7.753   1.245   6.008
17482SOL    HW270247   7.701   1.313   5.964
17482SOL    HW370248   7.750   1.171   5.948
17482SOL    MW470249   7.745   1.244   5.995
17483SOL     OW70250   8.415   1.708   5.786
17483SOL    HW270251   8.370   1.724   5.869
17483SOL    HW370252   8.346   1.673   5.728
17483SOL    MW470253   8.401   1.705   5.788
17484SOL     OW70254   9.350   0.481   5.761
17484SOL    HW270255   9.259   0.483   5.789
17484SOL    HW370256   9.395   0.543   5.819
17484SOL    MW470257   9.343   0.489   5.771
17485SOL     OW70258   9.095   1.084   6.111
17485SOL    HW270259   9.005   1.084   6.146
17485SOL    HW370260   9.088   1.130   6.028
17485SOL    MW470261   9.082   1.090   6.105
17486SOL     OW70262   8.895   0.719   7.183
17486SOL    HW270263   8.964   0.657   7.160
17486SOL    HW370264   8.820   0.693   7.130
17486SOL    MW470265   8.895   0.706   7.174
17487SOL     OW70266   7.636   1.599   6.735
17487SOL    HW270267   7.619   1.545   6.812
17487SOL    HW370268   7.624   1.689   6.765
17487SOL    MW470269   7.633   1.603   6.749
17488SOL     OW70270   8.631   1.106   7.175
17488SOL    HW270271   8.616   1.199   7.160
17488SOL    HW370272   8.726   1.096   7.175
17488SOL    MW470273   8.640   1.116   7.172
17489SOL     OW70274   8.427   0.530   7.376
17489SOL    HW270275   8.517   0.531   7.343
17489SOL    HW370276   8.386   0.455   7.334
17489SOL    MW470277   8.433   0.520   7.367
17490SOL     OW70278   9.002   1.062   6.503
17490SOL    HW270279   9.005   0.996   6.434
17490SOL    HW370280   9.087   1.105   6.499
17490SOL    MW470281   9.014   1.058   6.494
17491SOL     OW70282   9.287   1.285   5.923
17491SOL    HW270283   9.243   1.326   5.998
17491SOL    HW370284   9.344   1.353   5.888
17491SOL    MW470285   9.289   1.299   5.928
17492SOL     OW70286   8.207   0.334   7.326
17492SOL    HW270287   8.217   0.260   7.266
17492SOL    HW370288   8.243   0.303   7.409
17492SOL    MW470289   8.213   0.320   7.328
17493SOL     OW70290   7.943   1.701   6.241
17493SOL    HW270291   7.975   1.789   6.219
17493SOL    HW370292   7.896   1.673   6.163
17493SOL    MW470293   7.942   1.709   6.228
17494SOL     OW70294   7.659   1.761   5.818
17494SOL    HW270295   7.688   1.851   5.810
17494SOL    HW370296   7.609   1.744   5.739
17494SOL    MW470297   7.657   1.769   5.807
17495SOL     OW70298   9.063   1.569   5.789
17495SOL    HW270299   9.111   1.638   5.835
17495SOL    HW370300   8.984   1.613   5.758
17495SOL    MW470301   9.058   1.583   5.792
17496SOL     OW70302   8.461   0.694   5.733
17496SOL    HW270303   8.463   0.641   5.654
17496SOL    HW370304   8.549   0.731   5.739
17496SOL    MW470305   8.473   0.693   5.722
17497SOL     OW70306   9.075   0.620   6.069
17497SOL    HW270307   9.114   0.620   6.156
17497SOL    HW370308   9.016   0.696   6.069
17497SOL    MW470309   9.072   0.631   6.080
17498SOL     OW70310   8.392   0.987   7.198
17498SOL    HW270311   8.369   0.967   7.288
17498SOL    HW370312   8.477   1.031   7.203
17498SOL    MW470313   8.399   0.990   7.210
17499SOL     OW70314   8.561   0.613   6.792
17499SOL    HW270315   8.636   0.642   6.739
17499SOL    HW370316   8.493   0.678   6.776
17499SOL    MW470317   8.562   0.625   6.782
17500SOL     OW70318   9.111   0.581   7.069
17500SOL    HW270319   9.092   0.490   7.048
17500SOL    HW370320   9.089   0.630   6.990
17500SOL    MW470321   9.106   0.574   7.056
17501SOL     OW70322   9.253   1.675   6.973
17501SOL    HW270323   9.181   1.637   7.024
17501SOL    HW370324   9.270   1.760   7.014
17501SOL    MW470325   9.247   1.680   6.985
17502SOL     OW70326   8.967   1.133   7.251
17502SOL    HW270327   9.049   1.174   7.281
17502SOL    HW370328   8.930   1.095   7.331
17502SOL    MW470329   8.973   1.134   7.266
17503SOL     OW70330   9.262   0.506   6.235
17503SOL    HW270331   9.351   0.475   6.252
17503SOL    HW370332   9.205   0.446   6.283
17503SOL    MW470333   9.265   0.494   6.244
17504SOL     OW70334   8.631   1.313   5.825
17504SOL    HW270335   8.581   1.315   5.907
17504SOL    HW370336   8.565   1.331   5.757
17504SOL    MW470337   8.617   1.315   5.827
17505SOL     OW70338   7.635   0.393   6.627
17505SOL    HW270339   7.607   0.484   6.636
17505SOL    HW370340   7.572   0.354   6.566
17505SOL    MW470341   7.622   0.399   6.621
17506SOL     OW70342   8.094   1.731   5.933
17506SOL    HW270343   8.015   1.689   5.966
17506SOL    HW370344   8.160   1.714   6.000
17506SOL    MW470345   8.093   1.723   5.946
17507SOL     OW70346   9.222   1.251   7.330
17507SOL    HW270347   9.272   1.177   7.362
17507SOL    HW370348   9.168   1.278   7.405
17507SOL    MW470349   9.222   1.245   7.343
17508SOL     OW70350   8.230   1.146   5.640
17508SOL    HW270351   8.152   1.092   5.627
17508SOL    HW370352   8.201   1.219   5.693
17508SOL    MW470353   8.216   1.148   5.645
17509SOL     OW70354   9.356   0.886   6.832
17509SOL    HW270355   9.372   0.924   6.745
17509SOL    HW370356   9.390   0.952   6.893
17509SOL    MW470357   9.363   0.899   6.828
17510SOL     OW70358   9.148   1.595   6.501
17510SOL    HW270359   9.177   1.662   6.562
17510SOL    HW370360   9.129   1.519   6.556
17510SOL    MW470361   9.150   1.595   6.516
17511SOL     OW70362   8.811   1.662   5.708
17511SOL    HW270363   8.737   1.625   5.758
17511SOL    HW370364   8.819   1.752   5.741
17511SOL    MW470365   8.802   1.669   5.720
17512SOL     OW70366   7.619   0.668   6.797
17512SOL    HW270367   7.681   0.698   6.863
17512SOL    HW370368   7.553   0.737   6.791
17512SOL    MW470369   7.618   0.681   6.804
17513SOL     OW70370   9.035   1.336   5.650
17513SOL    HW270371   8.982   1.385   5.586
17513SOL    HW370372   9.066   1.402   5.711
17513SOL    MW470373   9.033   1.350   5.648
17514SOL     OW70374   7.714   1.777   7.249
17514SOL    HW270375   7.688   1.845   7.187
17514SOL    HW370376   7.762   1.714   7.197
17514SOL    MW470377   7.716   1.777   7.235
17515SOL     OW70378   7.766   1.096   6.756
17515SOL    HW270379   7.819   1.171   6.781
17515SOL    HW370380   7.685   1.134   6.722
17515SOL    MW470381   7.762   1.111   6.756
17516SOL     OW70382   8.306   1.000   6.744
17516SOL    HW270383   8.334   0.909   6.756
17516SOL    HW370384   8.235   0.994   6.680
17516SOL    MW470385   8.299   0.988   6.739
17517SOL     OW70386   7.621   0.865   6.162
17517SOL    HW270387   7.712   0.880   6.189
17517SOL    HW370388   7.624   0.786   6.108
17517SOL    MW470389   7.633   0.857   6.160
17518SOL     OW70390   7.857   0.573   7.416
17518SOL    HW270391   7.804   0.653   7.423
17518SOL    HW370392   7.927   0.585   7.481
17518SOL    MW470393   7.859   0.586   7.424
17519SOL     OW70394   7.927   0.647   7.162
17519SOL    HW270395   8.007   0.697   7.148
17519SOL    HW370396   7.918   0.641   7.257
17519SOL    MW470397   7.936   0.653   7.172
17520SOL     OW70398   8.248   1.797   6.536
17520SOL    HW270399   8.337   1.812   6.566
17520SOL    HW370400   8.243   1.844   6.452
17520SOL    MW470401   8.258   1.805   6.529
17521SOL     OW70402   7.629   1.477   6.201
17521SOL    HW270403   7.601   1.516   6.283
17521SOL    HW370404   7.649   1.386   6.223
17521SOL    MW470405   7.627   1.469   6.214
17522SOL     OW70406   8.462   1.520   6.236
17522SOL    HW270407   8.545   1.474   6.220
17522SOL    HW370408   8.452   1.519   6.332
17522SOL    MW470409   8.472   1.513   6.246
17523SOL     OW70410   9.294   0.665   6.550
17523SOL    HW270411   9.383   0.695   6.532
17523SOL    HW370412   9.274   0.605   6.479
17523SOL    MW470413   9.303   0.662   6.539
17524SOL     OW70414   9.145   0.844   7.430
17524SOL    HW270415   9.200   0.768   7.411
17524SOL    HW370416   9.147   0.852   7.525
17524SOL    MW470417   9.153   0.835   7.438
17525SOL     OW70418   8.195   1.577   5.641
17525SOL    HW270419   8.135   1.646   5.611
17525SOL    HW370420   8.140   1.519   5.694
17525SOL    MW470421   8.179   1.579   5.643
17526SOL     OW70422   8.633   0.222   5.864
17526SOL    HW270423   8.566   0.198   5.801
17526SOL    HW370424   8.698   0.271   5.813
17526SOL    MW470425   8.633   0.224   5.849
17527SOL     OW70426   8.440   0.406   6.949
17527SOL    HW270427   8.359   0.447   6.977
17527SOL    HW370428   8.487   0.474   6.901
17527SOL    MW470429   8.435   0.421   6.947
17528SOL     OW70430   8.700   0.744   6.572
17528SOL    HW270431   8.713   0.838   6.582
17528SOL    HW370432   8.661   0.734   6.486
17528SOL    MW470433   8.696   0.755   6.562
17529SOL     OW70434   8.152   0.939   6.376
17529SOL    HW270435   8.063   0.930   6.409
17529SOL    HW370436   8.156   1.029   6.344
17529SOL    MW470437   8.141   0.950   6.376
17530SOL     OW70438   8.951   0.522   6.371
17530SOL    HW270439   8.896   0.443   6.370
17530SOL    HW370440   8.933   0.563   6.455
17530SOL    MW470441   8.941   0.517   6.380
17531SOL     OW70442   8.570   0.726   6.328
17531SOL    HW270443   8.507   0.658   6.352
17531SOL    HW370444   8.590   0.707   6.236
17531SOL    MW470445   8.564   0.713   6.320
17532SOL     OW70446   7.826   1.621   6.030
17532SOL    HW270447   7.787   1.668   5.956
17532SOL    HW370448   7.760   1.556   6.055
17532SOL    MW470449   7.813   1.619   6.024
17533SOL     OW70450   8.318   1.030   6.054
17533SOL    HW270451   8.320   1.004   5.961
17533SOL    HW370452   8.376   0.967   6.097
17533SOL    MW470453   8.326   1.019   6.048
17534SOL     OW70454   8.871   1.590   6.826
17534SOL    HW270455   8.796   1.636   6.864
17534SOL    HW370456   8.853   1.497   6.843
17534SOL    MW470457   8.860   1.584   6.834
17535SOL     OW70458   8.875   1.798   6.256
17535SOL    HW270459   8.818   1.751   6.195
17535SOL    HW370460   8.961   1.759   6.243
17535SOL    MW470461   8.878   1.789   6.246
17536SOL     OW70462   7.633   1.208   6.321
17536SOL    HW270463   7.697   1.240   6.384
17536SOL    HW370464   7.682   1.144   6.269
17536SOL    MW470465   7.648   1.204   6.322
17537SOL     OW70466   8.133   1.284   7.303
17537SOL    HW270467   8.181   1.367   7.290
17537SOL    HW370468   8.190   1.232   7.359
17537SOL    MW470469   8.147   1.288   7.309
17538SOL     OW70470   7.709   1.526   7.443
17538SOL    HW270471   7.765   1.450   7.458
17538SOL    HW370472   7.658   1.504   7.365
17538SOL    MW470473   7.709   1.513   7.434
17539SOL     OW70474   8.808   0.378   5.722
17539SOL    HW270475   8.781   0.444   5.658
17539SOL    HW370476   8.878   0.421   5.772
17539SOL    MW470477   8.813   0.391   5.719
17540SOL     OW70478   8.981   0.934   5.864
17540SOL    HW270479   8.948   1.023   5.854
17540SOL    HW370480   8.946   0.905   5.949
17540SOL    MW470481   8.971   0.943   5.875
17541SOL     OW70482   8.594   1.363   7.052
17541SOL    HW270483   8.505   1.369   7.020
17541SOL    HW370484   8.638   1.442   7.020
17541SOL    MW470485   8.589   1.373   7.044
17542SOL     OW70486   7.911   1.521   6.693
17542SOL    HW270487   7.956   1.583   6.750
17542SOL    HW370488   7.818   1.540   6.706
17542SOL    MW470489   7.904   1.531   6.700
17543SOL     OW70490   9.351   1.050   7.047
17543SOL    HW270491   9.266   1.063   7.006
17543SOL    HW370492   9.331   1.014   7.134
17543SOL    MW470493   9.338   1.046   7.052
17544SOL     OW70494   8.333   1.589   6.801
17544SOL    HW270495   8.357   1.578   6.710
17544SOL    HW370496   8.256   1.646   6.799
17544SOL    MW470497   8.325   1.594   6.790
17545SOL     OW70498   7.975   0.972   5.656
17545SOL    HW270499   7.898   0.985   5.712
17545SOL    HW370500   7.939   0.936   5.575
17545SOL    MW470501   7.961   0.968   5.653
17546SOL     OW70502   8.628   0.945   5.899
17546SOL    HW270503   8.538   0.966   5.874
17546SOL    HW370504   8.655   1.018   5.955
17546SOL    MW470505   8.620   0.957   5.902
17547SOL     OW70506   8.128   1.294   6.591
17547SOL    HW270507   8.121   1.273   6.685
17547SOL    HW370508   8.046   1.262   6.554
17547SOL    MW470509   8.116   1.288   6.598
17548SOL     OW70510   8.992   0.304   6.993
17548SOL    HW270511   8.939   0.306   7.073
17548SOL    HW370512   8.977   0.217   6.956
17548SOL    MW470513   8.984   0.294   6.998
17549SOL     OW70514   9.328   0.228   6.866
17549SOL    HW270515   9.309   0.295   6.801
17549SOL    HW370516   9.385   0.166   6.821
17549SOL    MW470517   9.332   0.229   6.852
17550SOL     OW70518   7.574   1.386   7.254
17550SOL    HW270519   7.618   1.319   7.200
17550SOL    HW370520   7.489   1.348   7.274
17550SOL    MW470521   7.569   1.372   7.250
17551SOL     OW70522   8.015   1.301   6.055
17551SOL    HW270523   8.008   1.333   6.145
17551SOL    HW370524   7.925   1.285   6.027
17551SOL    MW470525   8.003   1.303   6.062
17552SOL     OW70526   8.610   1.694   6.964
17552SOL    HW270527   8.530   1.679   6.914
17552SOL    HW370528   8.617   1.789   6.971
17552SOL    MW470529   8.601   1.705   6.958
17553SOL     OW70530   8.724   1.659   6.454
17553SOL    HW270531   8.771   1.732   6.413
17553SOL    HW370532   8.645   1.698   6.490
17553SOL    MW470533   8.719   1.674   6.453
17554SOL     OW70534   9.132   1.754   6.729
17554SOL    HW270535   9.175   1.724   6.809
17554SOL    HW370536   9.051   1.702   6.726
17554SOL    MW470537   9.127   1.743   6.739
17555SOL     OW70538   8.217   0.718   7.436
17555SOL    HW270539   8.287   0.660   7.408
17555SOL    HW370540   8.160   0.663   7.491
17555SOL    MW470541   8.219   0.705   7.440
17556SOL     OW70542   9.004   0.930   7.069
17556SOL    HW270543   9.009   0.983   7.149
17556SOL    HW370544   8.966   0.847   7.097
17556SOL    MW470545   9.000   0.925   7.084
17557SOL     OW70546   8.018   0.585   5.769
17557SOL    HW270547   7.984   0.641   5.839
17557SOL    HW370548   8.089   0.535   5.809
17557SOL    MW470549   8.024   0.586   5.783
17558SOL     OW70550   9.114   1.336   6.591
17558SOL    HW270551   9.149   1.318   6.504
17558SOL    HW370552   9.019   1.337   6.578
17558SOL    MW470553   9.106   1.333   6.578
17559SOL     OW70554   8.543   0.984   6.960
17559SOL    HW270555   8.586   1.019   7.038
17559SOL    HW370556   8.526   1.061   6.906
17559SOL    MW470557   8.546   0.999   6.963
17560SOL     OW70558   9.074   0.471   5.833
17560SOL    HW270559   9.066   0.542   5.770
17560SOL    HW370560   9.092   0.515   5.916
17560SOL    MW470561   9.075   0.485   5.835
17561SOL     OW70562   7.693   1.188   7.122
17561SOL    HW270563   7.721   1.141   7.200
17561SOL    HW370564   7.614   1.143   7.093
17561SOL    MW470565   7.686   1.177   7.128
17562SOL     OW70566   8.201   0.515   7.089
17562SOL    HW270567   8.173   0.603   7.113
17562SOL    HW370568   8.170   0.459   7.160
17562SOL    MW470569   8.193   0.518   7.101
17563SOL     OW70570   8.743   0.733   5.808
17563SOL    HW270571   8.790   0.751   5.727
17563SOL    HW370572   8.709   0.817   5.836
17563SOL    MW470573   8.745   0.747   5.801
17564SOL     OW70574   7.856   0.911   6.302
17564SOL    HW270575   7.914   0.967   6.250
17564SOL    HW370576   7.900   0.826   6.304
17564SOL    MW470577   7.869   0.908   6.295
17565SOL     OW70578   8.478   1.475   5.630
17565SOL    HW270579   8.505   1.553   5.582
17565SOL    HW370580   8.385   1.490   5.649
17565SOL    MW470581   8.469   1.488   5.626
17566SOL     OW70582   9.342   0.998   7.317
17566SOL    HW270583   9.255   0.978   7.353
17566SOL    HW370584   9.396   0.924   7.342
17566SOL    MW470585   9.337   0.987   7.325
17567SOL     OW70586   7.563   1.511   6.474
17567SOL    HW270587   7.595   1.515   6.565
17567SOL    HW370588   7.468   1.519   6.482
17567SOL    MW470589   7.555   1.514   6.487
17568SOL     OW70590   7.518   0.637   6.021
17568SOL    HW270591   7.458   0.609   6.091
17568SOL    HW370592   7.592   0.577   6.027
17568SOL    MW470593   7.520   0.626   6.030
17569SOL     OW70594   9.086   1.849   7.455
17569SOL    HW270595   9.131   1.773   7.420
17569SOL    HW370596   9.124   1.862   7.542
17569SOL    MW470597   9.096   1.842   7.461
17570SOL     OW70598   8.686   1.368   6.181
17570SOL    HW270599   8.709   1.319   6.259
17570SOL    HW370600   8.767   1.410   6.153
17570SOL    MW470601   8.699   1.368   6.188
17571SOL     OW70602   8.727   0.552   7.337
17571SOL    HW270603   8.779   0.487   7.290
17571SOL    HW370604   8.685   0.603   7.267
17571SOL    MW470605   8.728   0.549   7.320
17572SOL     OW70606   8.826   0.347   7.198
17572SOL    HW270607   8.733   0.331   7.185
17572SOL    HW370608   8.852   0.285   7.266
17572SOL    MW470609   8.816   0.337   7.205
17573SOL     OW70610   8.135   1.736   7.083
17573SOL    HW270611   8.052   1.721   7.128
17573SOL    HW370612   8.194   1.669   7.118
17573SOL    MW470613   8.133   1.726   7.093
17574SOL     OW70614   9.192   0.443   6.708
17574SOL    HW270615   9.125   0.476   6.768
17574SOL    HW370616   9.235   0.521   6.674
17574SOL    MW470617   9.190   0.458   6.712
17575SOL     OW70618   9.370   1.163   6.678
17575SOL    HW270619   9.363   1.103   6.603
17575SOL    HW370620   9.296   1.223   6.667
17575SOL    MW470621   9.360   1.163   6.667
17576SOL     OW70622   8.752   1.025   6.596
17576SOL    HW270623   8.766   0.997   6.687
17576SOL    HW370624   8.838   1.056   6.568
17576SOL    MW470625   8.765   1.026   6.605
17577SOL     OW70626   8.835   0.520   6.875
17577SOL    HW270627   8.856   0.521   6.782
17577SOL    HW370628   8.880   0.442   6.908
17577SOL    MW470629   8.842   0.510   6.867
17578SOL     OW70630   9.328   0.651   7.417
17578SOL    HW270631   9.365   0.596   7.486
17578SOL    HW370632   9.353   0.608   7.335
17578SOL    MW470633   9.335   0.639   7.416
17579SOL     OW70634   8.875   0.949   7.468
17579SOL    HW270635   8.941   0.897   7.422
17579SOL    HW370636   8.895   0.936   7.561
17579SOL    MW470637   8.886   0.940   7.475
17580SOL     OW70638   8.886   0.810   6.095
17580SOL    HW270639   8.801   0.780   6.065
17580SOL    HW370640   8.878   0.817   6.190
17580SOL    MW470641   8.874   0.808   6.104
17581SOL     OW70642   7.962   1.273   6.826
17581SOL    HW270643   7.974   1.300   6.917
17581SOL    HW370644   7.943   1.354   6.779
17581SOL    MW470645   7.961   1.288   6.831
17582SOL     OW70646   8.100   1.745   6.811
17582SOL    HW270647   8.152   1.822   6.788
17582SOL    HW370648   8.109   1.737   6.906
17582SOL    MW470649   8.109   1.752   6.822
17583SOL     OW70650   9.002   1.330   7.043
17583SOL    HW270651   8.987   1.259   7.106
17583SOL    HW370652   9.048   1.288   6.971
17583SOL    MW470653   9.008   1.314   7.043
17584SOL     OW70654   8.076   1.061   7.160
17584SOL    HW270655   8.113   1.066   7.072
17584SOL    HW370656   8.115   1.134   7.207
17584SOL    MW470657   8.086   1.071   7.155
17585SOL     OW70658   8.256   1.104   6.972
17585SOL    HW270659   8.315   1.050   7.025
17585SOL    HW370660   8.271   1.076   6.882
17585SOL    MW470661   8.266   1.093   6.968
17586SOL     OW70662   8.259   0.476   5.821
17586SOL    HW270663   8.332   0.525   5.784
17586SOL    HW370664   8.275   0.385   5.795
17586SOL    MW470665   8.271   0.471   5.814
17587SOL     OW70666   9.067   1.593   7.144
17587SOL    HW270667   9.109   1.578   7.229
17587SOL    HW370668   9.058   1.506   7.106
17587SOL    MW470669   9.071   1.581   7.151
17588SOL     OW70670   7.734   0.985   5.919
17588SOL    HW270671   7.671   1.001   5.848
17588SOL    HW370672   7.681   0.948   5.990
17588SOL    MW470673   7.719   0.982   5.919
17589SOL     OW70674   8.090   1.339   5.778
17589SOL    HW270675   8.105   1.315   5.870
17589SOL    HW370676   7.998   1.317   5.762
17589SOL    MW470677   8.080   1.332   5.788
17590SOL     OW70678   8.629   1.570   5.930
17590SOL    HW270679   8.637   1.488   5.881
17590SOL    HW370680   8.548   1.609   5.897
17590SOL    MW470681   8.619   1.565   5.920
17591SOL     OW70682   7.888   1.728   6.499
17591SOL    HW270683   7.892   1.639   6.534
17591SOL    HW370684   7.914   1.719   6.408
17591SOL    MW470685   7.891   1.716   6.491
17592SOL     OW70686   8.505   1.206   6.742
17592SOL    HW270687   8.437   1.140   6.758
17592SOL    HW370688   8.523   1.200   6.649
17592SOL    MW470689   8.498   1.197   6.733
17593SOL     OW70690   7.594   1.481   6.993
17593SOL    HW270691   7.584   1.439   7.079
17593SOL    HW370692   7.515   1.534   6.983
17593SOL    MW470693   7.583   1.482   7.004
17594SOL     OW70694   8.149   0.781   7.183
17594SOL    HW270695   8.142   0.876   7.171
17594SOL    HW370696   8.158   0.770   7.278
17594SOL    MW470697   8.150   0.793   7.193
17595SOL     OW70698   7.870   1.296   7.441
17595SOL    HW270699   7.942   1.298   7.378
17595SOL    HW370700   7.840   1.205   7.440
17595SOL    MW470701   7.875   1.285   7.433
17596SOL     OW70702   9.154   1.589   7.392
17596SOL    HW270703   9.127   1.586   7.483
17596SOL    HW370704   9.250   1.593   7.395
17596SOL    MW470705   9.164   1.589   7.404
17597SOL     OW70706   7.965   0.451   6.376
17597SOL    HW270707   8.036   0.399   6.339
17597SOL    HW370708   7.951   0.416   6.463
17597SOL    MW470709   7.973   0.440   6.383
17598SOL     OW70710   7.520   1.786   7.448
17598SOL    HW270711   7.570   1.764   7.370
17598SOL    HW370712   7.528   1.881   7.456
17598SOL    MW470713   7.528   1.795   7.439
17599SOL     OW70714   8.281   1.544   6.452
17599SOL    HW270715   8.209   1.481   6.465
17599SOL    HW370716   8.242   1.629   6.470
17599SOL    MW470717   8.265   1.547   6.455
17600SOL     OW70718   8.601   0.392   6.100
17600SOL    HW270719   8.623   0.329   6.032
17600SOL    HW370720   8.506   0.384   6.111
17600SOL    MW470721   8.591   0.383   6.092
17601SOL     OW70722   7.517   0.549   7.175
17601SOL    HW270723   7.581   0.615   7.150
17601SOL    HW370724   7.436   0.576   7.132
17601SOL    MW470725   7.515   0.561   7.167
17602SOL     OW70726   9.255   1.456   6.132
17602SOL    HW270727   9.225   1.389   6.193
17602SOL    HW370728   9.349   1.462   6.146
17602SOL    MW470729   9.263   1.448   6.142
17603SOL     OW70730   8.811   1.133   6.062
17603SOL    HW270731   8.783   1.219   6.095
17603SOL    HW370732   8.839   1.149   5.972
17603SOL    MW470733   8.811   1.147   6.054
17604SOL     OW70734   9.326   0.935   6.537
17604SOL    HW270735   9.317   0.967   6.448
17604SOL    HW370736   9.279   0.851   6.537
17604SOL    MW470737   9.319   0.928   6.527
17605SOL     OW70738   7.702   0.775   7.116
17605SOL    HW270739   7.723   0.844   7.054
17605SOL    HW370740   7.782   0.722   7.121
17605SOL    MW470741   7.715   0.776   7.110
17606SOL     OW70742   9.238   0.866   6.238
17606SOL    HW270743   9.332   0.855   6.226
17606SOL    HW370744   9.214   0.938   6.179
17606SOL    MW470745   9.248   0.874   6.229
17607SOL     OW70746   7.687   0.790   7.383
17607SOL    HW270747   7.613   0.734   7.409
17607SOL    HW370748   7.682   0.793   7.288
17607SOL    MW470749   7.676   0.783   7.373
17608SOL     OW70750   7.853   0.077   6.833
17608SOL    HW270751   7.896   0.161   6.853
17608SOL    HW370752   7.926   0.015   6.826
17608SOL    MW470753   7.868   0.080   6.834
17609SOL     OW70754   7.894   0.744   6.011
17609SOL    HW270755   7.894   0.839   5.996
17609SOL    HW370756   7.971   0.728   6.065
17609SOL    MW470757   7.904   0.755   6.016
17610SOL     OW70758   8.670   0.603   7.075
17610SOL    HW270759   8.706   0.576   6.991
17610SOL    HW370760   8.583   0.637   7.054
17610SOL    MW470761   8.664   0.604   7.062
17611SOL     OW70762   7.653   0.475   6.300
17611SOL    HW270763   7.715   0.482   6.373
17611SOL    HW370764   7.653   0.382   6.277
17611SOL    MW470765   7.661   0.464   6.307
17612SOL     OW70766   9.200   1.815   5.832
17612SOL    HW270767   9.267   1.848   5.772
17612SOL    HW370768   9.157   1.894   5.866
17612SOL    MW470769   9.202   1.830   5.828
17613SOL     OW70770   8.335   0.736   6.784
17613SOL    HW270771   8.293   0.654   6.760
17613SOL    HW370772   8.336   0.735   6.880
17613SOL    MW470773   8.328   0.725   6.793
17614SOL     OW70774   9.006   1.869   7.183
17614SOL    HW270775   9.009   1.775   7.166
17614SOL    HW370776   9.029   1.877   7.275
17614SOL    MW470777   9.009   1.857   7.193
17615SOL     OW70778   7.522   1.047   5.758
17615SOL    HW270779   7.491   1.112   5.821
17615SOL    HW370780   7.471   0.969   5.777
17615SOL    MW470781   7.512   1.044   5.768
17616SOL     OW70782   8.966   0.798   6.350
17616SOL    HW270783   9.046   0.813   6.299
17616SOL    HW370784   8.959   0.703   6.356
17616SOL    MW470785   8.975   0.787   6.345
17617SOL     OW70786   8.106   1.847   5.700
17617SOL    HW270787   8.011   1.847   5.692
17617SOL    HW370788   8.122   1.793   5.778
17617SOL    MW470789   8.096   1.841   5.709
17618SOL     OW70790   8.416   0.724   7.047
17618SOL    HW270791   8.485   0.791   7.044
17618SOL    HW370792   8.349   0.762   7.103
17618SOL    MW470793   8.417   0.737   7.054
17619SOL     OW70794   7.834   1.024   7.295
17619SOL    HW270795   7.788   0.940   7.297
17619SOL    HW370796   7.891   1.018   7.219
17619SOL    MW470797   7.836   1.012   7.287
17620SOL     OW70798   8.951   0.667   5.615
17620SOL    HW270799   8.879   0.643   5.557
17620SOL    HW370800   9.017   0.704   5.557
17620SOL    MW470801   8.950   0.669   5.600
17621SOL     OW70802   8.085   1.399   6.296
17621SOL    HW270803   8.150   1.332   6.317
17621SOL    HW370804   8.137   1.476   6.273
17621SOL    MW470805   8.100   1.401   6.295
17622SOL     OW70806   8.346   0.564   6.426
17622SOL    HW270807   8.286   0.582   6.498
17622SOL    HW370808   8.380   0.476   6.445
17622SOL    MW470809   8.342   0.554   6.439
17623SOL     OW70810   8.571   1.147   6.445
17623SOL    HW270811   8.663   1.128   6.463
17623SOL    HW370812   8.544   1.077   6.385
17623SOL    MW470813   8.579   1.135   6.439
17624SOL     OW70814   8.364   0.967   5.800
17624SOL    HW270815   8.350   0.879   5.765
17624SOL    HW370816   8.315   1.024   5.741
17624SOL    MW470817   8.356   0.962   5.788
17625SOL     OW70818   8.845   1.385   6.541
17625SOL    HW270819   8.818   1.469   6.506
17625SOL    HW370820   8.805   1.380   6.628
17625SOL    MW470821   8.838   1.394   6.547
17626SOL     OW70822   8.764   1.333   6.809
17626SOL    HW270823   8.775   1.300   6.898
17626SOL    HW370824   8.683   1.292   6.778
17626SOL    MW470825   8.754   1.325   6.815
17627SOL     OW70826   7.777   0.691   6.579
17627SOL    HW270827   7.727   0.690   6.660
17627SOL    HW370828   7.797   0.783   6.563
17627SOL    MW470829   7.773   0.703   6.587
17628SOL     OW70830   8.844   1.455   7.341
17628SOL    HW270831   8.844   1.549   7.357
17628SOL    HW370832   8.889   1.445   7.257
17628SOL    MW470833   8.850   1.465   7.332
17629SOL     OW70834   8.372   0.736   6.016
17629SOL    HW270835   8.352   0.722   5.923
17629SOL    HW370836   8.465   0.715   6.023
17629SOL    MW470837   8.382   0.731   6.005
17630SOL     OW70838   7.699   0.359   7.320
17630SOL    HW270839   7.656   0.418   7.257
17630SOL    HW370840   7.767   0.414   7.360
17630SOL    MW470841   7.703   0.374   7.317
17631SOL     OW70842   8.811   0.979   6.865
17631SOL    HW270843   8.874   0.976   6.938
17631SOL    HW370844   8.727   0.997   6.907
17631SOL    MW470845   8.807   0.981   6.880
17632SOL     OW70846   8.355   1.694   6.054
17632SOL    HW270847   8.413   1.765   6.081
17632SOL    HW370848   8.378   1.622   6.112
17632SOL    MW470849   8.366   1.694   6.065
17633SOL     OW70850   9.235   1.192   6.363
17633SOL    HW270851   9.214   1.138   6.286
17633SOL    HW370852   9.331   1.190   6.367
17633SOL    MW470853   9.244   1.185   6.352
17634SOL     OW70854   7.927   1.337   7.106
17634SOL    HW270855   7.848   1.287   7.129
17634SOL    HW370856   7.997   1.296   7.156
17634SOL    MW470857   7.925   1.325   7.116
17635SOL     OW70858   8.935   0.623   6.625
17635SOL    HW270859   8.858   0.669   6.591
17635SOL    HW370860   8.992   0.692   6.659
17635SOL    MW470861   8.932   0.638   6.625
17636SOL     OW70862   7.601   1.482   5.827
17636SOL    HW270863   7.618   1.566   5.869
17636SOL    HW370864   7.636   1.491   5.739
17636SOL    MW470865   7.606   1.495   5.821
17637SOL     OW70866   8.873   1.571   6.044
17637SOL    HW270867   8.936   1.561   5.973
17637SOL    HW370868   8.790   1.591   5.999
17637SOL    MW470869   8.870   1.572   6.029
17638SOL     OW70870   9.102   2.639   1.252
17638SOL    HW270871   9.057   2.706   1.303
17638SOL    HW370872   9.190   2.675   1.238
17638SOL    MW470873   9.108   2.652   1.256
17639SOL     OW70874   8.030   2.890   0.486
17639SOL    HW270875   8.120   2.865   0.470
17639SOL    HW370876   8.026   2.983   0.463
17639SOL    MW470877   8.042   2.899   0.481
17640SOL     OW70878   9.146   3.593   0.628
17640SOL    HW270879   9.158   3.539   0.706
17640SOL    HW370880   9.183   3.541   0.557
17640SOL    MW470881   9.152   3.578   0.629
17641SOL     OW70882   8.525   3.478   1.629
17641SOL    HW270883   8.566   3.514   1.550
17641SOL    HW370884   8.560   3.389   1.636
17641SOL    MW470885   8.536   3.471   1.620
17642SOL     OW70886   9.082   3.033   1.233
17642SOL    HW270887   9.003   2.998   1.191
17642SOL    HW370888   9.109   3.105   1.177
17642SOL    MW470889   9.075   3.038   1.220
17643SOL     OW70890   8.314   2.346   0.499
17643SOL    HW270891   8.289   2.434   0.527
17643SOL    HW370892   8.311   2.349   0.403
17643SOL    MW470893   8.310   2.358   0.491
17644SOL     OW70894   7.756   2.374   0.427
17644SOL    HW270895   7.788   2.462   0.409
17644SOL    HW370896   7.744   2.372   0.522
17644SOL    MW470897   7.759   2.386   0.439
17645SOL     OW70898   7.834   2.787   1.328
17645SOL    HW270899   7.897   2.734   1.279
17645SOL    HW370900   7.815   2.861   1.271
17645SOL    MW470901   7.840   2.789   1.315
17646SOL     OW70902   8.155   2.129   0.514
17646SOL    HW270903   8.213   2.205   0.516
17646SOL    HW370904   8.090   2.150   0.447
17646SOL    MW470905   8.154   2.141   0.505
17647SOL     OW70906   8.242   3.056   0.689
17647SOL    HW270907   8.322   3.059   0.741
17647SOL    HW370908   8.270   3.023   0.603
17647SOL    MW470909   8.256   3.052   0.684
17648SOL     OW70910   8.267   3.397   1.592
17648SOL    HW270911   8.351   3.423   1.631
17648SOL    HW370912   8.291   3.341   1.518
17648SOL    MW470913   8.281   3.393   1.587
17649SOL     OW70914   8.019   2.560   0.680
17649SOL    HW270915   8.004   2.480   0.731
17649SOL    HW370916   8.101   2.595   0.714
17649SOL    MW470917   8.027   2.552   0.692
17650SOL     OW70918   8.356   3.246   1.365
17650SOL    HW270919   8.320   3.312   1.305
17650SOL    HW370920   8.284   3.184   1.378
17650SOL    MW470921   8.342   3.246   1.359
17651SOL     OW70922   8.161   2.386   1.057
17651SOL    HW270923   8.067   2.382   1.075
17651SOL    HW370924   8.191   2.295   1.066
17651SOL    MW470925   8.152   2.374   1.060
17652SOL     OW70926   7.907   2.800   0.961
17652SOL    HW270927   7.862   2.807   0.877
17652SOL    HW370928   7.887   2.883   1.005
17652SOL    MW470929   7.899   2.812   0.955
17653SOL     OW70930   7.604   3.646   0.836
17653SOL    HW270931   7.693   3.638   0.871
17653SOL    HW370932   7.568   3.558   0.841
17653SOL    MW470933   7.611   3.633   0.841
17654SOL     OW70934   7.868   3.173   0.871
17654SOL    HW270935   7.844   3.226   0.947
17654SOL    HW370936   7.924   3.231   0.819
17654SOL    MW470937   7.872   3.188   0.874
17655SOL     OW70938   8.430   2.817   0.681
17655SOL    HW270939   8.344   2.804   0.721
17655SOL    HW370940   8.483   2.744   0.713
17655SOL    MW470941   8.426   2.806   0.690
17656SOL     OW70942   7.838   3.469   1.466
17656SOL    HW270943   7.746   3.445   1.451
17656SOL    HW370944   7.882   3.386   1.483
17656SOL    MW470945   7.832   3.454   1.465
17657SOL     OW70946   8.421   3.179   0.398
17657SOL    HW270947   8.398   3.241   0.466
17657SOL    HW370948   8.378   3.097   0.424
17657SOL    MW470949   8.413   3.175   0.409
17658SOL     OW70950   9.294   2.180   0.854
17658SOL    HW270951   9.231   2.160   0.923
17658SOL    HW370952   9.284   2.109   0.791
17658SOL    MW470953   9.284   2.167   0.855
17659SOL     OW70954   9.095   2.952   0.506
17659SOL    HW270955   9.005   2.952   0.541
17659SOL    HW370956   9.088   2.998   0.423
17659SOL    MW470957   9.082   2.958   0.500
17660SOL     OW70958   8.895   2.587   1.578
17660SOL    HW270959   8.964   2.525   1.555
17660SOL    HW370960   8.820   2.561   1.525
17660SOL    MW470961   8.895   2.574   1.569
17661SOL     OW70962   7.636   3.467   1.130
17661SOL    HW270963   7.619   3.413   1.207
17661SOL    HW370964   7.624   3.557   1.160
17661SOL    MW470965   7.633   3.471   1.144
17662SOL     OW70966   8.631   2.974   1.570
17662SOL    HW270967   8.616   3.067   1.555
17662SOL    HW370968   8.726   2.964   1.570
17662SOL    MW470969   8.640   2.984   1.567
17663SOL     OW70970   8.427   2.398   1.771
17663SOL    HW270971   8.517   2.399   1.738
17663SOL    HW370972   8.386   2.323   1.729
17663SOL    MW470973   8.433   2.388   1.762
17664SOL     OW70974   9.002   2.930   0.898
17664SOL    HW270975   9.005   2.864   0.829
17664SOL    HW370976   9.087   2.973   0.894
17664SOL    MW470977   9.014   2.926   0.889
17665SOL     OW70978   8.622   2.533   0.467
17665SOL    HW270979   8.648   2.557   0.378
17665SOL    HW370980   8.604   2.440   0.463
17665SOL    MW470981   8.624   2.525   0.454
17666SOL     OW70982   9.287   3.153   0.318
17666SOL    HW270983   9.243   3.194   0.393
17666SOL    HW370984   9.344   3.221   0.283
17666SOL    MW470985   9.289   3.167   0.323
17667SOL     OW70986   8.207   2.202   1.721
17667SOL    HW270987   8.217   2.128   1.661
17667SOL    HW370988   8.243   2.171   1.804
17667SOL    MW470989   8.213   2.188   1.723
17668SOL     OW70990   7.943   3.569   0.636
17668SOL    HW270991   7.975   3.657   0.614
17668SOL    HW370992   7.896   3.541   0.558
17668SOL    MW470993   7.942   3.577   0.623
17669SOL     OW70994   9.327   1.931   0.685
17669SOL    HW270995   9.381   1.882   0.747
17669SOL    HW370996   9.270   1.865   0.646
17669SOL    MW470997   9.327   1.915   0.687
17670SOL     OW70998   8.446   1.884   1.098
17670SOL    HW270999   8.405   1.962   1.060
17670SOL    HW371000   8.540   1.902   1.093
17670SOL    MW471001   8.452   1.896   1.093
17671SOL     OW71002   8.461   2.562   0.128
17671SOL    HW271003   8.463   2.509   0.049
17671SOL    HW371004   8.549   2.599   0.134
17671SOL    MW471005   8.473   2.561   0.117
17672SOL     OW71006   9.075   2.488   0.464
17672SOL    HW271007   9.114   2.488   0.551
17672SOL    HW371008   9.016   2.564   0.464
17672SOL    MW471009   9.072   2.499   0.475
17673SOL     OW71010   8.392   2.855   1.593
17673SOL    HW271011   8.369   2.835   1.683
17673SOL    HW371012   8.477   2.899   1.598
17673SOL    MW471013   8.399   2.858   1.605
17674SOL     OW71014   8.472   1.992   1.353
17674SOL    HW271015   8.478   1.954   1.266
17674SOL    HW371016   8.461   2.086   1.338
17674SOL    MW471017   8.473   2.000   1.341
17675SOL     OW71018   8.561   2.481   1.187
17675SOL    HW271019   8.636   2.510   1.134
17675SOL    HW371020   8.493   2.546   1.171
17675SOL    MW471021   8.562   2.493   1.177
17676SOL     OW71022   9.111   2.449   1.464
17676SOL    HW271023   9.092   2.358   1.443
17676SOL    HW371024   9.089   2.498   1.385
17676SOL    MW471025   9.106   2.442   1.451
17677SOL     OW71026   9.253   3.543   1.368
17677SOL    HW271027   9.181   3.505   1.419
17677SOL    HW371028   9.270   3.628   1.409
17677SOL    MW471029   9.247   3.548   1.380
17678SOL     OW71030   8.558   2.187   1.570
17678SOL    HW271031   8.524   2.226   1.489
17678SOL    HW371032   8.536   2.095   1.563
17678SOL    MW471033   8.551   2.180   1.560
17679SOL     OW71034   8.967   3.001   1.646
17679SOL    HW271035   9.049   3.042   1.676
17679SOL    HW371036   8.930   2.963   1.726
17679SOL    MW471037   8.973   3.002   1.661
17680SOL     OW71038   9.262   2.374   0.630
17680SOL    HW271039   9.351   2.343   0.647
17680SOL    HW371040   9.205   2.314   0.678
17680SOL    MW471041   9.265   2.362   0.639
17681SOL     OW71042   7.688   2.088   0.659
17681SOL    HW271043   7.679   2.028   0.585
17681SOL    HW371044   7.621   2.059   0.722
17681SOL    MW471045   7.678   2.075   0.657
17682SOL     OW71046   7.635   2.261   1.022
17682SOL    HW271047   7.607   2.352   1.031
17682SOL    HW371048   7.572   2.222   0.961
17682SOL    MW471049   7.622   2.267   1.016
17683SOL     OW71050   9.222   3.119   1.725
17683SOL    HW271051   9.272   3.045   1.757
17683SOL    HW371052   9.168   3.146   1.800
17683SOL    MW471053   9.222   3.113   1.738
17684SOL     OW71054   9.356   2.754   1.227
17684SOL    HW271055   9.372   2.792   1.140
17684SOL    HW371056   9.390   2.820   1.288
17684SOL    MW471057   9.363   2.767   1.223
17685SOL     OW71058   9.148   3.463   0.896
17685SOL    HW271059   9.177   3.530   0.957
17685SOL    HW371060   9.129   3.387   0.951
17685SOL    MW471061   9.150   3.463   0.911
17686SOL     OW71062   7.619   2.536   1.192
17686SOL    HW271063   7.681   2.566   1.258
17686SOL    HW371064   7.553   2.605   1.186
17686SOL    MW471065   7.618   2.549   1.199
17687SOL     OW71066   7.714   3.645   1.644
17687SOL    HW271067   7.688   3.713   1.582
17687SOL    HW371068   7.762   3.582   1.592
17687SOL    MW471069   7.716   3.645   1.630
17688SOL     OW71070   7.766   2.964   1.151
17688SOL    HW271071   7.819   3.039   1.176
17688SOL    HW371072   7.685   3.002   1.117
17688SOL    MW471073   7.762   2.979   1.151
17689SOL     OW71074   7.621   2.733   0.557
17689SOL    HW271075   7.712   2.748   0.584
17689SOL    HW371076   7.624   2.654   0.503
17689SOL    MW471077   7.633   2.725   0.555
17690SOL     OW71078   7.857   2.441   1.811
17690SOL    HW271079   7.804   2.521   1.818
17690SOL    HW371080   7.927   2.453   1.876
17690SOL    MW471081   7.859   2.454   1.819
17691SOL     OW71082   8.243   1.991   1.518
17691SOL    HW271083   8.220   1.899   1.520
17691SOL    HW371084   8.329   1.993   1.475
17691SOL    MW471085   8.250   1.981   1.514
17692SOL     OW71086   7.927   2.515   1.557
17692SOL    HW271087   8.007   2.565   1.543
17692SOL    HW371088   7.918   2.509   1.652
17692SOL    MW471089   7.936   2.521   1.567
17693SOL     OW71090   8.248   3.665   0.931
17693SOL    HW271091   8.337   3.680   0.961
17693SOL    HW371092   8.243   3.712   0.847
17693SOL    MW471093   8.258   3.673   0.924
17694SOL     OW71094   8.904   2.040   1.828
17694SOL    HW271095   8.960   1.967   1.854
17694SOL    HW371096   8.874   2.078   1.910
17694SOL    MW471097   8.908   2.035   1.841
17695SOL     OW71098   7.629   3.345   0.596
17695SOL    HW271099   7.601   3.384   0.678
17695SOL    HW371100   7.649   3.254   0.618
17695SOL    MW471101   7.627   3.337   0.609
17696SOL     OW71102   8.462   3.388   0.631
17696SOL    HW271103   8.545   3.342   0.615
17696SOL    HW371104   8.452   3.387   0.727
17696SOL    MW471105   8.472   3.381   0.641
17697SOL     OW71106   9.294   2.533   0.945
17697SOL    HW271107   9.383   2.563   0.927
17697SOL    HW371108   9.274   2.473   0.874
17697SOL    MW471109   9.303   2.530   0.934
17698SOL     OW71110   9.145   2.712   1.825
17698SOL    HW271111   9.200   2.636   1.806
17698SOL    HW371112   9.147   2.720   1.920
17698SOL    MW471113   9.153   2.703   1.833
17699SOL     OW71114   8.633   2.090   0.259
17699SOL    HW271115   8.566   2.066   0.196
17699SOL    HW371116   8.698   2.139   0.208
17699SOL    MW471117   8.633   2.092   0.244
17700SOL     OW71118   8.440   2.274   1.344
17700SOL    HW271119   8.359   2.315   1.372
17700SOL    HW371120   8.487   2.342   1.296
17700SOL    MW471121   8.435   2.289   1.342
17701SOL     OW71122   8.700   2.612   0.967
17701SOL    HW271123   8.713   2.706   0.977
17701SOL    HW371124   8.661   2.602   0.881
17701SOL    MW471125   8.696   2.623   0.957
17702SOL     OW71126   8.152   2.807   0.771
17702SOL    HW271127   8.063   2.798   0.804
17702SOL    HW371128   8.156   2.897   0.739
17702SOL    MW471129   8.141   2.818   0.771
17703SOL     OW71130   8.951   2.390   0.766
17703SOL    HW271131   8.896   2.311   0.765
17703SOL    HW371132   8.933   2.431   0.850
17703SOL    MW471133   8.941   2.385   0.775
17704SOL     OW71134   7.922   2.077   1.583
17704SOL    HW271135   7.843   2.095   1.635
17704SOL    HW371136   7.917   2.139   1.510
17704SOL    MW471137   7.912   2.087   1.580
17705SOL     OW71138   8.570   2.594   0.723
17705SOL    HW271139   8.507   2.526   0.747
17705SOL    HW371140   8.590   2.575   0.631
17705SOL    MW471141   8.564   2.581   0.715
17706SOL     OW71142   8.318   2.898   0.449
17706SOL    HW271143   8.320   2.872   0.356
17706SOL    HW371144   8.376   2.835   0.492
17706SOL    MW471145   8.326   2.887   0.443
17707SOL     OW71146   8.871   3.458   1.221
17707SOL    HW271147   8.796   3.504   1.259
17707SOL    HW371148   8.853   3.365   1.238
17707SOL    MW471149   8.860   3.452   1.229
17708SOL     OW71150   8.875   3.666   0.651
17708SOL    HW271151   8.818   3.619   0.590
17708SOL    HW371152   8.961   3.627   0.638
17708SOL    MW471153   8.878   3.657   0.641
17709SOL     OW71154   8.828   2.142   0.782
17709SOL    HW271155   8.856   2.074   0.843
17709SOL    HW371156   8.742   2.113   0.752
17709SOL    MW471157   8.821   2.129   0.786
17710SOL     OW71158   7.633   3.076   0.716
17710SOL    HW271159   7.697   3.108   0.779
17710SOL    HW371160   7.682   3.012   0.664
17710SOL    MW471161   7.648   3.072   0.717
17711SOL     OW71162   8.133   3.152   1.698
17711SOL    HW271163   8.181   3.235   1.685
17711SOL    HW371164   8.190   3.100   1.754
17711SOL    MW471165   8.147   3.156   1.704
17712SOL     OW71166   7.709   3.394   1.838
17712SOL    HW271167   7.765   3.318   1.853
17712SOL    HW371168   7.658   3.372   1.760
17712SOL    MW471169   7.709   3.381   1.829
17713SOL     OW71170   8.594   3.231   1.447
17713SOL    HW271171   8.505   3.237   1.415
17713SOL    HW371172   8.638   3.310   1.415
17713SOL    MW471173   8.589   3.241   1.439
17714SOL     OW71174   7.887   1.899   1.789
17714SOL    HW271175   7.815   1.864   1.737
17714SOL    HW371176   7.945   1.940   1.724
17714SOL    MW471177   7.885   1.900   1.774
17715SOL     OW71178   7.911   3.389   1.088
17715SOL    HW271179   7.956   3.451   1.145
17715SOL    HW371180   7.818   3.408   1.101
17715SOL    MW471181   7.904   3.399   1.095
17716SOL     OW71182   9.351   2.918   1.442
17716SOL    HW271183   9.266   2.931   1.401
17716SOL    HW371184   9.331   2.882   1.529
17716SOL    MW471185   9.338   2.914   1.447
17717SOL     OW71186   8.333   3.457   1.196
17717SOL    HW271187   8.357   3.446   1.105
17717SOL    HW371188   8.256   3.514   1.194
17717SOL    MW471189   8.325   3.462   1.185
17718SOL     OW71190   8.628   2.813   0.294
17718SOL    HW271191   8.538   2.834   0.269
17718SOL    HW371192   8.655   2.886   0.350
17718SOL    MW471193   8.620   2.825   0.297
17719SOL     OW71194   8.128   3.162   0.986
17719SOL    HW271195   8.121   3.141   1.080
17719SOL    HW371196   8.046   3.130   0.949
17719SOL    MW471197   8.116   3.156   0.993
17720SOL     OW71198   8.992   2.172   1.388
17720SOL    HW271199   8.939   2.174   1.468
17720SOL    HW371200   8.977   2.085   1.351
17720SOL    MW471201   8.984   2.162   1.393
17721SOL     OW71202   9.328   2.096   1.261
17721SOL    HW271203   9.309   2.163   1.196
17721SOL    HW371204   9.385   2.034   1.216
17721SOL    MW471205   9.332   2.097   1.247
17722SOL     OW71206   7.574   3.254   1.649
17722SOL    HW271207   7.618   3.187   1.595
17722SOL    HW371208   7.489   3.216   1.669
17722SOL    MW471209   7.569   3.240   1.645
17723SOL     OW71210   8.257   1.929   0.701
17723SOL    HW271211   8.186   1.990   0.683
17723SOL    HW371212   8.308   1.926   0.620
17723SOL    MW471213   8.253   1.935   0.688
17724SOL     OW71214   8.610   3.562   1.359
17724SOL    HW271215   8.530   3.547   1.309
17724SOL    HW371216   8.617   3.657   1.366
17724SOL    MW471217   8.601   3.573   1.353
17725SOL     OW71218   8.724   3.527   0.849
17725SOL    HW271219   8.771   3.600   0.808
17725SOL    HW371220   8.645   3.566   0.885
17725SOL    MW471221   8.719   3.542   0.848
17726SOL     OW71222   9.132   3.622   1.124
17726SOL    HW271223   9.175   3.592   1.204
17726SOL    HW371224   9.051   3.570   1.121
17726SOL    MW471225   9.127   3.611   1.134
17727SOL     OW71226   8.217   2.586   1.831
17727SOL    HW271227   8.287   2.528   1.803
17727SOL    HW371228   8.160   2.531   1.886
17727SOL    MW471229   8.219   2.573   1.835
17728SOL     OW71230   9.004   2.798   1.464
17728SOL    HW271231   9.009   2.851   1.544
17728SOL    HW371232   8.966   2.715   1.492
17728SOL    MW471233   9.000   2.793   1.479
17729SOL     OW71234   8.644   1.933   1.710
17729SOL    HW271235   8.639   1.840   1.691
17729SOL    HW371236   8.727   1.944   1.756
17729SOL    MW471237   8.652   1.922   1.714
17730SOL     OW71238   9.114   3.204   0.986
17730SOL    HW271239   9.149   3.186   0.899
17730SOL    HW371240   9.019   3.205   0.973
17730SOL    MW471241   9.106   3.201   0.973
17731SOL     OW71242   8.543   2.852   1.355
17731SOL    HW271243   8.586   2.887   1.433
17731SOL    HW371244   8.526   2.929   1.301
17731SOL    MW471245   8.546   2.867   1.358
17732SOL     OW71246   7.934   1.994   0.657
17732SOL    HW271247   7.984   2.037   0.588
17732SOL    HW371248   7.849   2.038   0.657
17732SOL    MW471249   7.931   2.007   0.648
17733SOL     OW71250   7.693   3.056   1.517
17733SOL    HW271251   7.721   3.009   1.595
17733SOL    HW371252   7.614   3.011   1.488
17733SOL    MW471253   7.686   3.045   1.523
17734SOL     OW71254   8.201   2.383   1.484
17734SOL    HW271255   8.173   2.471   1.508
17734SOL    HW371256   8.170   2.327   1.555
17734SOL    MW471257   8.193   2.386   1.496
17735SOL     OW71258   7.856   2.779   0.697
17735SOL    HW271259   7.914   2.835   0.645
17735SOL    HW371260   7.900   2.694   0.699
17735SOL    MW471261   7.869   2.776   0.690
17736SOL     OW71262   8.996   2.131   0.534
17736SOL    HW271263   8.918   2.081   0.559
17736SOL    HW371264   8.967   2.222   0.534
17736SOL    MW471265   8.982   2.135   0.537
17737SOL     OW71266   8.582   2.093   0.693
17737SOL    HW271267   8.602   2.168   0.637
17737SOL    HW371268   8.562   2.132   0.778
17737SOL    MW471269   8.583   2.109   0.697
17738SOL     OW71270   9.342   2.866   1.712
17738SOL    HW271271   9.255   2.846   1.748
17738SOL    HW371272   9.396   2.792   1.737
17738SOL    MW471273   9.337   2.855   1.720
17739SOL     OW71274   7.563   3.379   0.869
17739SOL    HW271275   7.595   3.383   0.960
17739SOL    HW371276   7.468   3.387   0.877
17739SOL    MW471277   7.555   3.382   0.882
17740SOL     OW71278   7.518   2.505   0.416
17740SOL    HW271279   7.458   2.477   0.486
17740SOL    HW371280   7.592   2.445   0.422
17740SOL    MW471281   7.520   2.494   0.425
17741SOL     OW71282   9.086   3.717   1.850
17741SOL    HW271283   9.131   3.641   1.815
17741SOL    HW371284   9.124   3.730   1.937
17741SOL    MW471285   9.096   3.710   1.856
17742SOL     OW71286   8.686   3.236   0.576
17742SOL    HW271287   8.709   3.187   0.654
17742SOL    HW371288   8.767   3.278   0.548
17742SOL    MW471289   8.699   3.236   0.583
17743SOL     OW71290   7.944   2.244   1.305
17743SOL    HW271291   7.977   2.325   1.345
17743SOL    HW371292   7.917   2.270   1.217
17743SOL    MW471293   7.943   2.258   1.299
17744SOL     OW71294   7.898   2.211   1.041
17744SOL    HW271295   7.928   2.125   1.012
17744SOL    HW371296   7.803   2.204   1.044
17744SOL    MW471297   7.890   2.200   1.039
17745SOL     OW71298   8.727   2.420   1.732
17745SOL    HW271299   8.779   2.355   1.685
17745SOL    HW371300   8.685   2.471   1.662
17745SOL    MW471301   8.728   2.417   1.715
17746SOL     OW71302   8.826   2.215   1.593
17746SOL    HW271303   8.733   2.199   1.580
17746SOL    HW371304   8.852   2.153   1.661
17746SOL    MW471305   8.816   2.205   1.600
17747SOL     OW71306   8.041   1.989   0.932
17747SOL    HW271307   8.051   1.898   0.958
17747SOL    HW371308   7.997   1.985   0.847
17747SOL    MW471309   8.037   1.977   0.924
17748SOL     OW71310   8.135   3.604   1.478
17748SOL    HW271311   8.052   3.589   1.523
17748SOL    HW371312   8.194   3.537   1.513
17748SOL    MW471313   8.133   3.594   1.488
17749SOL     OW71314   9.192   2.311   1.103
17749SOL    HW271315   9.125   2.344   1.163
17749SOL    HW371316   9.235   2.389   1.069
17749SOL    MW471317   9.190   2.326   1.107
17750SOL     OW71318   9.370   3.031   1.073
17750SOL    HW271319   9.363   2.971   0.998
17750SOL    HW371320   9.296   3.091   1.062
17750SOL    MW471321   9.360   3.031   1.062
17751SOL     OW71322   8.752   2.893   0.991
17751SOL    HW271323   8.766   2.865   1.082
17751SOL    HW371324   8.838   2.924   0.963
17751SOL    MW471325   8.765   2.894   1.000
17752SOL     OW71326   8.835   2.388   1.270
17752SOL    HW271327   8.856   2.389   1.177
17752SOL    HW371328   8.880   2.310   1.303
17752SOL    MW471329   8.842   2.378   1.262
17753SOL     OW71330   9.328   2.519   1.812
17753SOL    HW271331   9.365   2.464   1.881
17753SOL    HW371332   9.353   2.476   1.730
17753SOL    MW471333   9.335   2.507   1.811
17754SOL     OW71334   8.875   2.817   1.863
17754SOL    HW271335   8.941   2.765   1.817
17754SOL    HW371336   8.895   2.804   1.956
17754SOL    MW471337   8.886   2.808   1.870
17755SOL     OW71338   8.886   2.678   0.490
17755SOL    HW271339   8.801   2.648   0.460
17755SOL    HW371340   8.878   2.685   0.585
17755SOL    MW471341   8.874   2.676   0.499
17756SOL     OW71342   7.962   3.141   1.221
17756SOL    HW271343   7.974   3.168   1.312
17756SOL    HW371344   7.943   3.222   1.174
17756SOL    MW471345   7.961   3.156   1.226
17757SOL     OW71346   8.246   2.121   1.044
17757SOL    HW271347   8.219   2.123   1.135
17757SOL    HW371348   8.176   2.073   0.999
17757SOL    MW471349   8.234   2.117   1.051
17758SOL     OW71350   8.100   3.613   1.206
17758SOL    HW271351   8.152   3.690   1.183
17758SOL    HW371352   8.109   3.605   1.301
17758SOL    MW471353   8.109   3.620   1.217
17759SOL     OW71354   9.002   3.198   1.438
17759SOL    HW271355   8.987   3.127   1.501
17759SOL    HW371356   9.048   3.156   1.366
17759SOL    MW471357   9.008   3.182   1.438
17760SOL     OW71358   8.076   2.929   1.555
17760SOL    HW271359   8.113   2.934   1.467
17760SOL    HW371360   8.115   3.002   1.602
17760SOL    MW471361   8.086   2.939   1.550
17761SOL     OW71362   8.256   2.972   1.367
17761SOL    HW271363   8.315   2.918   1.420
17761SOL    HW371364   8.271   2.944   1.277
17761SOL    MW471365   8.266   2.961   1.363
17762SOL     OW71366   9.067   3.461   1.539
17762SOL    HW271367   9.109   3.446   1.624
17762SOL    HW371368   9.058   3.374   1.501
17762SOL    MW471369   9.071   3.449   1.546
17763SOL     OW71370   8.727   1.940   1.130
17763SOL    HW271371   8.782   1.949   1.052
17763SOL    HW371372   8.782   1.974   1.201
17763SOL    MW471373   8.741   1.945   1.129
17764SOL     OW71374   8.629   3.438   0.325
17764SOL    HW271375   8.637   3.356   0.276
17764SOL    HW371376   8.548   3.477   0.292
17764SOL    MW471377   8.619   3.433   0.315
17765SOL     OW71378   7.888   3.596   0.894
17765SOL    HW271379   7.892   3.507   0.929
17765SOL    HW371380   7.914   3.587   0.803
17765SOL    MW471381   7.891   3.584   0.886
17766SOL     OW71382   8.505   3.074   1.137
17766SOL    HW271383   8.437   3.008   1.153
17766SOL    HW371384   8.523   3.068   1.044
17766SOL    MW471385   8.498   3.065   1.128
17767SOL     OW71386   7.594   3.349   1.388
17767SOL    HW271387   7.584   3.307   1.474
17767SOL    HW371388   7.515   3.402   1.378
17767SOL    MW471389   7.583   3.350   1.399
17768SOL     OW71390   8.498   2.213   0.958
17768SOL    HW271391   8.428   2.165   1.003
17768SOL    HW371392   8.530   2.276   1.022
17768SOL    MW471393   8.493   2.215   0.972
17769SOL     OW71394   8.149   2.649   1.578
17769SOL    HW271395   8.142   2.744   1.566
17769SOL    HW371396   8.158   2.638   1.673
17769SOL    MW471397   8.150   2.661   1.588
17770SOL     OW71398   7.870   3.164   1.836
17770SOL    HW271399   7.942   3.166   1.773
17770SOL    HW371400   7.840   3.073   1.835
17770SOL    MW471401   7.875   3.153   1.828
17771SOL     OW71402   8.954   1.927   1.303
17771SOL    HW271403   9.025   1.873   1.267
17771SOL    HW371404   8.953   1.906   1.396
17771SOL    MW471405   8.963   1.918   1.311
17772SOL     OW71406   9.154   3.457   1.787
17772SOL    HW271407   9.127   3.454   1.878
17772SOL    HW371408   9.250   3.461   1.790
17772SOL    MW471409   9.164   3.457   1.799
17773SOL     OW71410   7.965   2.319   0.771
17773SOL    HW271411   8.036   2.267   0.734
17773SOL    HW371412   7.951   2.284   0.858
17773SOL    MW471413   7.973   2.308   0.778
17774SOL     OW71414   7.520   3.654   1.843
17774SOL    HW271415   7.570   3.632   1.765
17774SOL    HW371416   7.528   3.749   1.851
17774SOL    MW471417   7.528   3.663   1.834
17775SOL     OW71418   8.281   3.412   0.847
17775SOL    HW271419   8.209   3.349   0.860
17775SOL    HW371420   8.242   3.497   0.865
17775SOL    MW471421   8.265   3.415   0.850
17776SOL     OW71422   8.601   2.260   0.495
17776SOL    HW271423   8.623   2.197   0.427
17776SOL    HW371424   8.506   2.252   0.506
17776SOL    MW471425   8.591   2.251   0.487
17777SOL     OW71426   7.686   1.950   0.427
17777SOL    HW271427   7.757   1.971   0.366
17777SOL    HW371428   7.640   1.878   0.385
17777SOL    MW471429   7.690   1.944   0.413
17778SOL     OW71430   7.517   2.417   1.570
17778SOL    HW271431   7.581   2.483   1.545
17778SOL    HW371432   7.436   2.444   1.527
17778SOL    MW471433   7.515   2.429   1.562
17779SOL     OW71434   9.255   3.324   0.527
17779SOL    HW271435   9.225   3.257   0.588
17779SOL    HW371436   9.349   3.330   0.541
17779SOL    MW471437   9.263   3.316   0.537
17780SOL     OW71438   8.811   3.001   0.457
17780SOL    HW271439   8.783   3.087   0.490
17780SOL    HW371440   8.839   3.017   0.367
17780SOL    MW471441   8.811   3.015   0.449
17781SOL     OW71442   8.473   1.921   0.510
17781SOL    HW271443   8.510   1.980   0.575
17781SOL    HW371444   8.450   1.977   0.436
17781SOL    MW471445   8.474   1.936   0.509
17782SOL     OW71446   9.326   2.803   0.932
17782SOL    HW271447   9.317   2.835   0.843
17782SOL    HW371448   9.279   2.719   0.932
17782SOL    MW471449   9.319   2.796   0.922
17783SOL     OW71450   7.702   2.643   1.511
17783SOL    HW271451   7.723   2.712   1.449
17783SOL    HW371452   7.782   2.590   1.516
17783SOL    MW471453   7.715   2.644   1.505
17784SOL     OW71454   9.238   2.734   0.633
17784SOL    HW271455   9.332   2.723   0.621
17784SOL    HW371456   9.214   2.806   0.574
17784SOL    MW471457   9.248   2.742   0.624
17785SOL     OW71458   7.687   2.658   1.778
17785SOL    HW271459   7.613   2.602   1.804
17785SOL    HW371460   7.682   2.661   1.683
17785SOL    MW471461   7.676   2.651   1.768
17786SOL     OW71462   7.853   1.945   1.228
17786SOL    HW271463   7.896   2.029   1.248
17786SOL    HW371464   7.926   1.883   1.221
17786SOL    MW471465   7.868   1.948   1.229
17787SOL     OW71466   7.894   2.612   0.406
17787SOL    HW271467   7.894   2.707   0.391
17787SOL    HW371468   7.971   2.596   0.460
17787SOL    MW471469   7.904   2.623   0.411
17788SOL     OW71470   8.670   2.471   1.470
17788SOL    HW271471   8.706   2.444   1.386
17788SOL    HW371472   8.583   2.505   1.449
17788SOL    MW471473   8.664   2.472   1.457
17789SOL     OW71474   7.653   2.343   0.695
17789SOL    HW271475   7.715   2.350   0.768
17789SOL    HW371476   7.653   2.250   0.672
17789SOL    MW471477   7.661   2.332   0.702
17790SOL     OW71478   8.335   2.604   1.179
17790SOL    HW271479   8.293   2.522   1.155
17790SOL    HW371480   8.336   2.603   1.275
17790SOL    MW471481   8.328   2.593   1.188
17791SOL     OW71482   9.006   3.737   1.578
17791SOL    HW271483   9.009   3.643   1.561
17791SOL    HW371484   9.029   3.745   1.670
17791SOL    MW471485   9.009   3.725   1.588
17792SOL     OW71486   8.139   2.074   1.284
17792SOL    HW271487   8.070   2.137   1.305
17792SOL    HW371488   8.166   2.038   1.369
17792SOL    MW471489   8.133   2.077   1.297
17793SOL     OW71490   8.934   1.927   0.901
17793SOL    HW271491   9.022   1.936   0.938
17793SOL    HW371492   8.944   1.868   0.827
17793SOL    MW471493   8.948   1.921   0.895
17794SOL     OW71494   8.966   2.666   0.745
17794SOL    HW271495   9.046   2.681   0.694
17794SOL    HW371496   8.959   2.571   0.751
17794SOL    MW471497   8.975   2.655   0.740
17795SOL     OW71498   8.416   2.592   1.442
17795SOL    HW271499   8.485   2.659   1.439
17795SOL    HW371500   8.349   2.630   1.498
17795SOL    MW471501   8.417   2.605   1.449
17796SOL     OW71502   7.834   2.892   1.690
17796SOL    HW271503   7.788   2.808   1.692
17796SOL    HW371504   7.891   2.886   1.614
17796SOL    MW471505   7.836   2.880   1.682
17797SOL     OW71506   8.085   3.267   0.691
17797SOL    HW271507   8.150   3.200   0.712
17797SOL    HW371508   8.137   3.344   0.668
17797SOL    MW471509   8.100   3.269   0.690
17798SOL     OW71510   8.346   2.432   0.821
17798SOL    HW271511   8.286   2.450   0.893
17798SOL    HW371512   8.380   2.344   0.840
17798SOL    MW471513   8.342   2.422   0.834
17799SOL     OW71514   9.287   1.931   1.490
17799SOL    HW271515   9.208   1.977   1.518
17799SOL    HW371516   9.322   1.985   1.419
17799SOL    MW471517   9.281   1.944   1.484
17800SOL     OW71518   8.571   3.015   0.840
17800SOL    HW271519   8.663   2.996   0.858
17800SOL    HW371520   8.544   2.945   0.780
17800SOL    MW471521   8.579   3.003   0.834
17801SOL     OW71522   8.845   3.253   0.936
17801SOL    HW271523   8.818   3.337   0.901
17801SOL    HW371524   8.805   3.248   1.023
17801SOL    MW471525   8.838   3.262   0.942
17802SOL     OW71526   8.764   3.201   1.204
17802SOL    HW271527   8.775   3.168   1.293
17802SOL    HW371528   8.683   3.160   1.173
17802SOL    MW471529   8.754   3.193   1.210
17803SOL     OW71530   7.777   2.559   0.974
17803SOL    HW271531   7.727   2.558   1.055
17803SOL    HW371532   7.797   2.651   0.958
17803SOL    MW471533   7.773   2.571   0.982
17804SOL     OW71534   8.844   3.323   1.736
17804SOL    HW271535   8.844   3.417   1.752
17804SOL    HW371536   8.889   3.313   1.652
17804SOL    MW471537   8.850   3.333   1.727
17805SOL     OW71538   8.372   2.604   0.411
17805SOL    HW271539   8.352   2.590   0.318
17805SOL    HW371540   8.465   2.583   0.418
17805SOL    MW471541   8.382   2.599   0.400
17806SOL     OW71542   7.699   2.227   1.715
17806SOL    HW271543   7.656   2.286   1.652
17806SOL    HW371544   7.767   2.282   1.755
17806SOL    MW471545   7.703   2.242   1.712
17807SOL     OW71546   8.811   2.847   1.260
17807SOL    HW271547   8.874   2.844   1.333
17807SOL    HW371548   8.727   2.865   1.302
17807SOL    MW471549   8.807   2.849   1.275
17808SOL     OW71550   8.355   3.562   0.449
17808SOL    HW271551   8.413   3.633   0.476
17808SOL    HW371552   8.378   3.490   0.507
17808SOL    MW471553   8.366   3.562   0.460
17809SOL     OW71554   9.150   2.024   1.039
17809SOL    HW271555   9.195   1.942   1.058
17809SOL    HW371556   9.170   2.080   1.115
17809SOL    MW471557   9.160   2.020   1.051
17810SOL     OW71558   7.598   1.867   1.138
17810SOL    HW271559   7.589   1.868   1.043
17810SOL    HW371560   7.692   1.879   1.153
17810SOL    MW471561   7.610   1.870   1.129
17811SOL     OW71562   9.235   3.060   0.758
17811SOL    HW271563   9.214   3.006   0.681
17811SOL    HW371564   9.331   3.058   0.762
17811SOL    MW471565   9.244   3.053   0.747
17812SOL     OW71566   7.927   3.205   1.501
17812SOL    HW271567   7.848   3.155   1.524
17812SOL    HW371568   7.997   3.164   1.551
17812SOL    MW471569   7.925   3.193   1.511
17813SOL     OW71570   8.935   2.491   1.020
17813SOL    HW271571   8.858   2.537   0.986
17813SOL    HW371572   8.992   2.560   1.054
17813SOL    MW471573   8.932   2.506   1.020
17814SOL     OW71574   8.873   3.439   0.439
17814SOL    HW271575   8.936   3.429   0.368
17814SOL    HW371576   8.790   3.459   0.394
17814SOL    MW471577   8.870   3.440   0.424
17815SOL     OW71578   9.236   2.707   2.125
17815SOL    HW271579   9.277   2.649   2.190
17815SOL    HW371580   9.143   2.699   2.142
17815SOL    MW471581   9.230   2.699   2.135
17816SOL     OW71582   9.102   2.639   3.120
17816SOL    HW271583   9.057   2.706   3.171
17816SOL    HW371584   9.190   2.675   3.106
17816SOL    MW471585   9.108   2.652   3.124
17817SOL     OW71586   8.030   2.890   2.354
17817SOL    HW271587   8.120   2.865   2.338
17817SOL    HW371588   8.026   2.983   2.331
17817SOL    MW471589   8.042   2.899   2.349
17818SOL     OW71590   9.146   3.593   2.496
17818SOL    HW271591   9.158   3.539   2.574
17818SOL    HW371592   9.183   3.541   2.425
17818SOL    MW471593   9.152   3.578   2.497
17819SOL     OW71594   8.525   3.478   3.497
17819SOL    HW271595   8.566   3.514   3.418
17819SOL    HW371596   8.560   3.389   3.504
17819SOL    MW471597   8.536   3.471   3.488
17820SOL     OW71598   9.082   3.033   3.101
17820SOL    HW271599   9.003   2.998   3.059
17820SOL    HW371600   9.109   3.105   3.045
17820SOL    MW471601   9.075   3.038   3.088
17821SOL     OW71602   8.314   2.346   2.367
17821SOL    HW271603   8.289   2.434   2.395
17821SOL    HW371604   8.311   2.349   2.271
17821SOL    MW471605   8.310   2.358   2.359
17822SOL     OW71606   7.756   2.374   2.295
17822SOL    HW271607   7.788   2.462   2.277
17822SOL    HW371608   7.744   2.372   2.390
17822SOL    MW471609   7.759   2.386   2.307
17823SOL     OW71610   7.834   2.787   3.196
17823SOL    HW271611   7.897   2.734   3.147
17823SOL    HW371612   7.815   2.861   3.139
17823SOL    MW471613   7.840   2.789   3.183
17824SOL     OW71614   8.155   2.129   2.382
17824SOL    HW271615   8.213   2.205   2.384
17824SOL    HW371616   8.090   2.150   2.315
17824SOL    MW471617   8.154   2.141   2.373
17825SOL     OW71618   8.242   3.056   2.557
17825SOL    HW271619   8.322   3.059   2.609
17825SOL    HW371620   8.270   3.023   2.471
17825SOL    MW471621   8.256   3.052   2.552
17826SOL     OW71622   8.267   3.397   3.460
17826SOL    HW271623   8.351   3.423   3.499
17826SOL    HW371624   8.291   3.341   3.386
17826SOL    MW471625   8.281   3.393   3.455
17827SOL     OW71626   8.019   2.560   2.548
17827SOL    HW271627   8.004   2.480   2.599
17827SOL    HW371628   8.101   2.595   2.582
17827SOL    MW471629   8.027   2.552   2.560
17828SOL     OW71630   8.356   3.246   3.233
17828SOL    HW271631   8.320   3.312   3.173
17828SOL    HW371632   8.284   3.184   3.246
17828SOL    MW471633   8.342   3.246   3.227
17829SOL     OW71634   8.161   2.386   2.925
17829SOL    HW271635   8.067   2.382   2.943
17829SOL    HW371636   8.191   2.295   2.934
17829SOL    MW471637   8.152   2.374   2.928
17830SOL     OW71638   7.907   2.800   2.829
17830SOL    HW271639   7.862   2.807   2.745
17830SOL    HW371640   7.887   2.883   2.873
17830SOL    MW471641   7.899   2.812   2.823
17831SOL     OW71642   7.604   3.646   2.704
17831SOL    HW271643   7.693   3.638   2.739
17831SOL    HW371644   7.568   3.558   2.709
17831SOL    MW471645   7.611   3.633   2.709
17832SOL     OW71646   8.869   3.038   2.073
17832SOL    HW271647   8.787   3.074   2.039
17832SOL    HW371648   8.937   3.081   2.022
17832SOL    MW471649   8.867   3.048   2.061
17833SOL     OW71650   7.868   3.173   2.739
17833SOL    HW271651   7.844   3.226   2.815
17833SOL    HW371652   7.924   3.231   2.687
17833SOL    MW471653   7.872   3.188   2.742
17834SOL     OW71654   8.430   2.817   2.549
17834SOL    HW271655   8.344   2.804   2.589
17834SOL    HW371656   8.483   2.744   2.581
17834SOL    MW471657   8.426   2.806   2.558
17835SOL     OW71658   7.838   3.469   3.334
17835SOL    HW271659   7.746   3.445   3.319
17835SOL    HW371660   7.882   3.386   3.351
17835SOL    MW471661   7.832   3.454   3.333
17836SOL     OW71662   8.421   3.179   2.266
17836SOL    HW271663   8.398   3.241   2.334
17836SOL    HW371664   8.378   3.097   2.292
17836SOL    MW471665   8.413   3.175   2.277
17837SOL     OW71666   9.294   2.180   2.722
17837SOL    HW271667   9.231   2.160   2.791
17837SOL    HW371668   9.284   2.109   2.659
17837SOL    MW471669   9.284   2.167   2.723
17838SOL     OW71670   7.918   2.152   2.234
17838SOL    HW271671   7.892   2.114   2.150
17838SOL    HW371672   7.855   2.222   2.250
17838SOL    MW471673   7.907   2.155   2.225
17839SOL     OW71674   7.753   3.113   2.271
17839SOL    HW271675   7.701   3.181   2.227
17839SOL    HW371676   7.750   3.039   2.211
17839SOL    MW471677   7.745   3.112   2.258
17840SOL     OW71678   8.415   3.576   2.049
17840SOL    HW271679   8.370   3.592   2.132
17840SOL    HW371680   8.346   3.541   1.991
17840SOL    MW471681   8.401   3.573   2.051
17841SOL     OW71682   9.350   2.349   2.024
17841SOL    HW271683   9.259   2.351   2.052
17841SOL    HW371684   9.395   2.411   2.082
17841SOL    MW471685   9.343   2.357   2.034
17842SOL     OW71686   9.095   2.952   2.374
17842SOL    HW271687   9.005   2.952   2.409
17842SOL    HW371688   9.088   2.998   2.291
17842SOL    MW471689   9.082   2.958   2.368
17843SOL     OW71690   8.895   2.587   3.446
17843SOL    HW271691   8.964   2.525   3.423
17843SOL    HW371692   8.820   2.561   3.393
17843SOL    MW471693   8.895   2.574   3.437
17844SOL     OW71694   7.636   3.467   2.998
17844SOL    HW271695   7.619   3.413   3.075
17844SOL    HW371696   7.624   3.557   3.028
17844SOL    MW471697   7.633   3.471   3.012
17845SOL     OW71698   8.631   2.974   3.438
17845SOL    HW271699   8.616   3.067   3.423
17845SOL    HW371700   8.726   2.964   3.438
17845SOL    MW471701   8.640   2.984   3.435
17846SOL     OW71702   8.427   2.398   3.639
17846SOL    HW271703   8.517   2.399   3.606
17846SOL    HW371704   8.386   2.323   3.597
17846SOL    MW471705   8.433   2.388   3.630
17847SOL     OW71706   9.002   2.930   2.766
17847SOL    HW271707   9.005   2.864   2.697
17847SOL    HW371708   9.087   2.973   2.762
17847SOL    MW471709   9.014   2.926   2.757
17848SOL     OW71710   8.622   2.533   2.335
17848SOL    HW271711   8.648   2.557   2.246
17848SOL    HW371712   8.604   2.440   2.331
17848SOL    MW471713   8.624   2.525   2.322
17849SOL     OW71714   9.287   3.153   2.186
17849SOL    HW271715   9.243   3.194   2.261
17849SOL    HW371716   9.344   3.221   2.151
17849SOL    MW471717   9.289   3.167   2.191
17850SOL     OW71718   8.207   2.202   3.589
17850SOL    HW271719   8.217   2.128   3.529
17850SOL    HW371720   8.243   2.171   3.672
17850SOL    MW471721   8.213   2.188   3.591
17851SOL     OW71722   7.943   3.569   2.504
17851SOL    HW271723   7.975   3.657   2.482
17851SOL    HW371724   7.896   3.541   2.426
17851SOL    MW471725   7.942   3.577   2.491
17852SOL     OW71726   9.327   1.931   2.553
17852SOL    HW271727   9.381   1.882   2.615
17852SOL    HW371728   9.270   1.865   2.514
17852SOL    MW471729   9.327   1.915   2.555
17853SOL     OW71730   7.659   3.629   2.081
17853SOL    HW271731   7.688   3.719   2.073
17853SOL    HW371732   7.609   3.612   2.002
17853SOL    MW471733   7.657   3.637   2.070
17854SOL     OW71734   8.446   1.884   2.966
17854SOL    HW271735   8.405   1.962   2.928
17854SOL    HW371736   8.540   1.902   2.961
17854SOL    MW471737   8.452   1.896   2.961
17855SOL     OW71738   9.063   3.437   2.052
17855SOL    HW271739   9.111   3.506   2.098
17855SOL    HW371740   8.984   3.481   2.021
17855SOL    MW471741   9.058   3.451   2.055
17856SOL     OW71742   8.461   2.562   1.996
17856SOL    HW271743   8.463   2.509   1.917
17856SOL    HW371744   8.549   2.599   2.002
17856SOL    MW471745   8.473   2.561   1.985
17857SOL     OW71746   9.075   2.488   2.332
17857SOL    HW271747   9.114   2.488   2.419
17857SOL    HW371748   9.016   2.564   2.332
17857SOL    MW471749   9.072   2.499   2.343
17858SOL     OW71750   8.392   2.855   3.461
17858SOL    HW271751   8.369   2.835   3.551
17858SOL    HW371752   8.477   2.899   3.466
17858SOL    MW471753   8.399   2.858   3.473
17859SOL     OW71754   8.472   1.992   3.221
17859SOL    HW271755   8.478   1.954   3.134
17859SOL    HW371756   8.461   2.086   3.206
17859SOL    MW471757   8.473   2.000   3.209
17860SOL     OW71758   8.561   2.481   3.055
17860SOL    HW271759   8.636   2.510   3.002
17860SOL    HW371760   8.493   2.546   3.039
17860SOL    MW471761   8.562   2.493   3.045
17861SOL     OW71762   9.111   2.449   3.332
17861SOL    HW271763   9.092   2.358   3.311
17861SOL    HW371764   9.089   2.498   3.253
17861SOL    MW471765   9.106   2.442   3.319
17862SOL     OW71766   9.253   3.543   3.236
17862SOL    HW271767   9.181   3.505   3.287
17862SOL    HW371768   9.270   3.628   3.277
17862SOL    MW471769   9.247   3.548   3.248
17863SOL     OW71770   8.558   2.187   3.438
17863SOL    HW271771   8.524   2.226   3.357
17863SOL    HW371772   8.536   2.095   3.431
17863SOL    MW471773   8.551   2.180   3.428
17864SOL     OW71774   8.967   3.001   3.514
17864SOL    HW271775   9.049   3.042   3.544
17864SOL    HW371776   8.930   2.963   3.594
17864SOL    MW471777   8.973   3.002   3.529
17865SOL     OW71778   9.262   2.374   2.498
17865SOL    HW271779   9.351   2.343   2.515
17865SOL    HW371780   9.205   2.314   2.546
17865SOL    MW471781   9.265   2.362   2.507
17866SOL     OW71782   7.688   2.088   2.527
17866SOL    HW271783   7.679   2.028   2.453
17866SOL    HW371784   7.621   2.059   2.590
17866SOL    MW471785   7.678   2.075   2.525
17867SOL     OW71786   8.631   3.181   2.088
17867SOL    HW271787   8.581   3.183   2.170
17867SOL    HW371788   8.565   3.199   2.020
17867SOL    MW471789   8.617   3.183   2.090
17868SOL     OW71790   7.635   2.261   2.890
17868SOL    HW271791   7.607   2.352   2.899
17868SOL    HW371792   7.572   2.222   2.829
17868SOL    MW471793   7.622   2.267   2.884
17869SOL     OW71794   8.094   3.599   2.196
17869SOL    HW271795   8.015   3.557   2.229
17869SOL    HW371796   8.160   3.582   2.263
17869SOL    MW471797   8.093   3.591   2.209
17870SOL     OW71798   9.222   3.119   3.593
17870SOL    HW271799   9.272   3.045   3.625
17870SOL    HW371800   9.168   3.146   3.668
17870SOL    MW471801   9.222   3.113   3.606
17871SOL     OW71802   8.230   3.014   1.903
17871SOL    HW271803   8.152   2.960   1.890
17871SOL    HW371804   8.201   3.087   1.956
17871SOL    MW471805   8.216   3.016   1.908
17872SOL     OW71806   9.356   2.754   3.095
17872SOL    HW271807   9.372   2.792   3.008
17872SOL    HW371808   9.390   2.820   3.156
17872SOL    MW471809   9.363   2.767   3.091
17873SOL     OW71810   9.148   3.463   2.764
17873SOL    HW271811   9.177   3.530   2.825
17873SOL    HW371812   9.129   3.387   2.819
17873SOL    MW471813   9.150   3.463   2.779
17874SOL     OW71814   8.811   3.530   1.971
17874SOL    HW271815   8.737   3.493   2.021
17874SOL    HW371816   8.819   3.620   2.004
17874SOL    MW471817   8.802   3.537   1.983
17875SOL     OW71818   7.619   2.536   3.060
17875SOL    HW271819   7.681   2.566   3.126
17875SOL    HW371820   7.553   2.605   3.054
17875SOL    MW471821   7.618   2.549   3.067
17876SOL     OW71822   9.035   3.204   1.913
17876SOL    HW271823   8.982   3.253   1.849
17876SOL    HW371824   9.066   3.270   1.974
17876SOL    MW471825   9.033   3.218   1.911
17877SOL     OW71826   8.260   2.093   1.968
17877SOL    HW271827   8.208   2.013   1.956
17877SOL    HW371828   8.347   2.070   1.936
17877SOL    MW471829   8.263   2.079   1.962
17878SOL     OW71830   7.714   3.645   3.512
17878SOL    HW271831   7.688   3.713   3.450
17878SOL    HW371832   7.762   3.582   3.460
17878SOL    MW471833   7.716   3.645   3.498
17879SOL     OW71834   7.766   2.964   3.019
17879SOL    HW271835   7.819   3.039   3.044
17879SOL    HW371836   7.685   3.002   2.985
17879SOL    MW471837   7.762   2.979   3.019
17880SOL     OW71838   8.306   2.868   3.007
17880SOL    HW271839   8.334   2.777   3.019
17880SOL    HW371840   8.235   2.862   2.943
17880SOL    MW471841   8.299   2.856   3.002
17881SOL     OW71842   7.621   2.733   2.425
17881SOL    HW271843   7.712   2.748   2.452
17881SOL    HW371844   7.624   2.654   2.371
17881SOL    MW471845   7.633   2.725   2.423
17882SOL     OW71846   7.857   2.441   3.679
17882SOL    HW271847   7.804   2.521   3.686
17882SOL    HW371848   7.927   2.453   3.744
17882SOL    MW471849   7.859   2.454   3.687
17883SOL     OW71850   8.243   1.991   3.386
17883SOL    HW271851   8.220   1.899   3.388
17883SOL    HW371852   8.329   1.993   3.343
17883SOL    MW471853   8.250   1.981   3.382
17884SOL     OW71854   7.927   2.515   3.425
17884SOL    HW271855   8.007   2.565   3.411
17884SOL    HW371856   7.918   2.509   3.520
17884SOL    MW471857   7.936   2.521   3.435
17885SOL     OW71858   8.248   3.665   2.799
17885SOL    HW271859   8.337   3.680   2.829
17885SOL    HW371860   8.243   3.712   2.715
17885SOL    MW471861   8.258   3.673   2.792
17886SOL     OW71862   8.904   2.040   3.696
17886SOL    HW271863   8.960   1.967   3.722
17886SOL    HW371864   8.874   2.078   3.778
17886SOL    MW471865   8.908   2.035   3.709
17887SOL     OW71866   7.629   3.345   2.464
17887SOL    HW271867   7.601   3.384   2.546
17887SOL    HW371868   7.649   3.254   2.486
17887SOL    MW471869   7.627   3.337   2.477
17888SOL     OW71870   8.462   3.388   2.499
17888SOL    HW271871   8.545   3.342   2.483
17888SOL    HW371872   8.452   3.387   2.595
17888SOL    MW471873   8.472   3.381   2.509
17889SOL     OW71874   9.294   2.533   2.813
17889SOL    HW271875   9.383   2.563   2.795
17889SOL    HW371876   9.274   2.473   2.742
17889SOL    MW471877   9.303   2.530   2.802
17890SOL     OW71878   9.145   2.712   3.693
17890SOL    HW271879   9.200   2.636   3.674
17890SOL    HW371880   9.147   2.720   3.788
17890SOL    MW471881   9.153   2.703   3.701
17891SOL     OW71882   8.195   3.445   1.904
17891SOL    HW271883   8.135   3.514   1.874
17891SOL    HW371884   8.140   3.387   1.957
17891SOL    MW471885   8.179   3.447   1.906
17892SOL     OW71886   8.633   2.090   2.127
17892SOL    HW271887   8.566   2.066   2.064
17892SOL    HW371888   8.698   2.139   2.076
17892SOL    MW471889   8.633   2.092   2.112
17893SOL     OW71890   8.440   2.274   3.212
17893SOL    HW271891   8.359   2.315   3.240
17893SOL    HW371892   8.487   2.342   3.164
17893SOL    MW471893   8.435   2.289   3.210
17894SOL     OW71894   8.700   2.612   2.835
17894SOL    HW271895   8.713   2.706   2.845
17894SOL    HW371896   8.661   2.602   2.749
17894SOL    MW471897   8.696   2.623   2.825
17895SOL     OW71898   8.152   2.807   2.639
17895SOL    HW271899   8.063   2.798   2.672
17895SOL    HW371900   8.156   2.897   2.607
17895SOL    MW471901   8.141   2.818   2.639
17896SOL     OW71902   8.951   2.390   2.634
17896SOL    HW271903   8.896   2.311   2.633
17896SOL    HW371904   8.933   2.431   2.718
17896SOL    MW471905   8.941   2.385   2.643
17897SOL     OW71906   7.922   2.077   3.451
17897SOL    HW271907   7.843   2.095   3.503
17897SOL    HW371908   7.917   2.139   3.378
17897SOL    MW471909   7.912   2.087   3.448
17898SOL     OW71910   8.570   2.594   2.591
17898SOL    HW271911   8.507   2.526   2.615
17898SOL    HW371912   8.590   2.575   2.499
17898SOL    MW471913   8.564   2.581   2.583
17899SOL     OW71914   7.826   3.489   2.293
17899SOL    HW271915   7.787   3.536   2.219
17899SOL    HW371916   7.760   3.424   2.318
17899SOL    MW471917   7.813   3.487   2.287
17900SOL     OW71918   8.318   2.898   2.317
17900SOL    HW271919   8.320   2.872   2.224
17900SOL    HW371920   8.376   2.835   2.360
17900SOL    MW471921   8.326   2.887   2.311
17901SOL     OW71922   8.871   3.458   3.089
17901SOL    HW271923   8.796   3.504   3.127
17901SOL    HW371924   8.853   3.365   3.106
17901SOL    MW471925   8.860   3.452   3.097
17902SOL     OW71926   8.875   3.666   2.519
17902SOL    HW271927   8.818   3.619   2.458
17902SOL    HW371928   8.961   3.627   2.506
17902SOL    MW471929   8.878   3.657   2.509
17903SOL     OW71930   8.828   2.142   2.650
17903SOL    HW271931   8.856   2.074   2.711
17903SOL    HW371932   8.742   2.113   2.620
17903SOL    MW471933   8.821   2.129   2.654
17904SOL     OW71934   7.633   3.076   2.584
17904SOL    HW271935   7.697   3.108   2.647
17904SOL    HW371936   7.682   3.012   2.532
17904SOL    MW471937   7.648   3.072   2.585
17905SOL     OW71938   8.133   3.152   3.566
17905SOL    HW271939   8.181   3.235   3.553
17905SOL    HW371940   8.190   3.100   3.622
17905SOL    MW471941   8.147   3.156   3.572
17906SOL     OW71942   7.709   3.394   3.706
17906SOL    HW271943   7.765   3.318   3.721
17906SOL    HW371944   7.658   3.372   3.628
17906SOL    MW471945   7.709   3.381   3.697
17907SOL     OW71946   8.808   2.246   1.985
17907SOL    HW271947   8.781   2.312   1.921
17907SOL    HW371948   8.878   2.289   2.035
17907SOL    MW471949   8.813   2.259   1.982
17908SOL     OW71950   8.476   1.951   1.922
17908SOL    HW271951   8.532   1.943   1.844
17908SOL    HW371952   8.453   1.861   1.944
17908SOL    MW471953   8.481   1.938   1.915
17909SOL     OW71954   8.981   2.802   2.127
17909SOL    HW271955   8.948   2.891   2.117
17909SOL    HW371956   8.946   2.773   2.212
17909SOL    MW471957   8.971   2.811   2.138
17910SOL     OW71958   8.594   3.231   3.315
17910SOL    HW271959   8.505   3.237   3.283
17910SOL    HW371960   8.638   3.310   3.283
17910SOL    MW471961   8.589   3.241   3.307
17911SOL     OW71962   7.887   1.899   3.657
17911SOL    HW271963   7.815   1.864   3.605
17911SOL    HW371964   7.945   1.940   3.592
17911SOL    MW471965   7.885   1.900   3.642
17912SOL     OW71966   7.911   3.389   2.956
17912SOL    HW271967   7.956   3.451   3.013
17912SOL    HW371968   7.818   3.408   2.969
17912SOL    MW471969   7.904   3.399   2.963
17913SOL     OW71970   9.351   2.918   3.310
17913SOL    HW271971   9.266   2.931   3.269
17913SOL    HW371972   9.331   2.882   3.397
17913SOL    MW471973   9.338   2.914   3.315
17914SOL     OW71974   8.333   3.457   3.064
17914SOL    HW271975   8.357   3.446   2.973
17914SOL    HW371976   8.256   3.514   3.062
17914SOL    MW471977   8.325   3.462   3.053
17915SOL     OW71978   7.975   2.840   1.919
17915SOL    HW271979   7.898   2.853   1.975
17915SOL    HW371980   7.939   2.804   1.838
17915SOL    MW471981   7.961   2.836   1.916
17916SOL     OW71982   8.628   2.813   2.162
17916SOL    HW271983   8.538   2.834   2.137
17916SOL    HW371984   8.655   2.886   2.218
17916SOL    MW471985   8.620   2.825   2.165
17917SOL     OW71986   8.128   3.162   2.854
17917SOL    HW271987   8.121   3.141   2.948
17917SOL    HW371988   8.046   3.130   2.817
17917SOL    MW471989   8.116   3.156   2.861
17918SOL     OW71990   8.992   2.172   3.256
17918SOL    HW271991   8.939   2.174   3.336
17918SOL    HW371992   8.977   2.085   3.219
17918SOL    MW471993   8.984   2.162   3.261
17919SOL     OW71994   9.328   2.096   3.129
17919SOL    HW271995   9.309   2.163   3.064
17919SOL    HW371996   9.385   2.034   3.084
17919SOL    MW471997   9.332   2.097   3.115
17920SOL     OW71998   7.574   3.254   3.517
17920SOL    HW271999   7.618   3.187   3.463
17920SOL    HW372000   7.489   3.216   3.537
17920SOL    MW472001   7.569   3.240   3.513
17921SOL     OW72002   8.257   1.929   2.569
17921SOL    HW272003   8.186   1.990   2.551
17921SOL    HW372004   8.308   1.926   2.488
17921SOL    MW472005   8.253   1.935   2.556
17922SOL     OW72006   8.015   3.169   2.318
17922SOL    HW272007   8.008   3.201   2.408
17922SOL    HW372008   7.925   3.153   2.290
17922SOL    MW472009   8.003   3.171   2.325
17923SOL     OW72010   8.610   3.562   3.227
17923SOL    HW272011   8.530   3.547   3.177
17923SOL    HW372012   8.617   3.657   3.234
17923SOL    MW472013   8.601   3.573   3.221
17924SOL     OW72014   8.724   3.527   2.717
17924SOL    HW272015   8.771   3.600   2.676
17924SOL    HW372016   8.645   3.566   2.753
17924SOL    MW472017   8.719   3.542   2.716
17925SOL     OW72018   9.132   3.622   2.992
17925SOL    HW272019   9.175   3.592   3.072
17925SOL    HW372020   9.051   3.570   2.989
17925SOL    MW472021   9.127   3.611   3.002
17926SOL     OW72022   8.217   2.586   3.699
17926SOL    HW272023   8.287   2.528   3.671
17926SOL    HW372024   8.160   2.531   3.754
17926SOL    MW472025   8.219   2.573   3.703
17927SOL     OW72026   9.004   2.798   3.332
17927SOL    HW272027   9.009   2.851   3.412
17927SOL    HW372028   8.966   2.715   3.360
17927SOL    MW472029   9.000   2.793   3.347
17928SOL     OW72030   8.644   1.933   3.578
17928SOL    HW272031   8.639   1.840   3.559
17928SOL    HW372032   8.727   1.944   3.624
17928SOL    MW472033   8.652   1.922   3.582
17929SOL     OW72034   8.018   2.453   2.032
17929SOL    HW272035   7.984   2.509   2.102
17929SOL    HW372036   8.089   2.403   2.072
17929SOL    MW472037   8.024   2.454   2.046
17930SOL     OW72038   9.114   3.204   2.854
17930SOL    HW272039   9.149   3.186   2.767
17930SOL    HW372040   9.019   3.205   2.841
17930SOL    MW472041   9.106   3.201   2.841
17931SOL     OW72042   8.543   2.852   3.223
17931SOL    HW272043   8.586   2.887   3.301
17931SOL    HW372044   8.526   2.929   3.169
17931SOL    MW472045   8.546   2.867   3.226
17932SOL     OW72046   9.074   2.339   2.096
17932SOL    HW272047   9.066   2.410   2.033
17932SOL    HW372048   9.092   2.383   2.179
17932SOL    MW472049   9.075   2.353   2.098
17933SOL     OW72050   7.934   1.994   2.525
17933SOL    HW272051   7.984   2.037   2.456
17933SOL    HW372052   7.849   2.038   2.525
17933SOL    MW472053   7.931   2.007   2.516
17934SOL     OW72054   7.693   3.056   3.385
17934SOL    HW272055   7.721   3.009   3.463
17934SOL    HW372056   7.614   3.011   3.356
17934SOL    MW472057   7.686   3.045   3.391
17935SOL     OW72058   8.201   2.383   3.352
17935SOL    HW272059   8.173   2.471   3.376
17935SOL    HW372060   8.170   2.327   3.423
17935SOL    MW472061   8.193   2.386   3.364
17936SOL     OW72062   8.743   2.601   2.071
17936SOL    HW272063   8.790   2.619   1.990
17936SOL    HW372064   8.709   2.685   2.099
17936SOL    MW472065   8.745   2.615   2.064
17937SOL     OW72066   7.856   2.779   2.565
17937SOL    HW272067   7.914   2.835   2.513
17937SOL    HW372068   7.900   2.694   2.567
17937SOL    MW472069   7.869   2.776   2.558
17938SOL     OW72070   8.996   2.131   2.402
17938SOL    HW272071   8.918   2.081   2.427
17938SOL    HW372072   8.967   2.222   2.402
17938SOL    MW472073   8.982   2.135   2.405
17939SOL     OW72074   8.582   2.093   2.561
17939SOL    HW272075   8.602   2.168   2.505
17939SOL    HW372076   8.562   2.132   2.646
17939SOL    MW472077   8.583   2.109   2.565
17940SOL     OW72078   8.478   3.343   1.893
17940SOL    HW272079   8.505   3.421   1.845
17940SOL    HW372080   8.385   3.358   1.912
17940SOL    MW472081   8.469   3.356   1.889
17941SOL     OW72082   9.342   2.866   3.580
17941SOL    HW272083   9.255   2.846   3.616
17941SOL    HW372084   9.396   2.792   3.605
17941SOL    MW472085   9.337   2.855   3.588
17942SOL     OW72086   7.563   3.379   2.737
17942SOL    HW272087   7.595   3.383   2.828
17942SOL    HW372088   7.468   3.387   2.745
17942SOL    MW472089   7.555   3.382   2.750
17943SOL     OW72090   7.518   2.505   2.284
17943SOL    HW272091   7.458   2.477   2.354
17943SOL    HW372092   7.592   2.445   2.290
17943SOL    MW472093   7.520   2.494   2.293
17944SOL     OW72094   9.086   3.717   3.718
17944SOL    HW272095   9.131   3.641   3.683
17944SOL    HW372096   9.124   3.730   3.805
17944SOL    MW472097   9.096   3.710   3.724
17945SOL     OW72098   8.686   3.236   2.444
17945SOL    HW272099   8.709   3.187   2.522
17945SOL    HW372100   8.767   3.278   2.416
17945SOL    MW472101   8.699   3.236   2.451
17946SOL     OW72102   7.944   2.244   3.173
17946SOL    HW272103   7.977   2.325   3.213
17946SOL    HW372104   7.917   2.270   3.085
17946SOL    MW472105   7.943   2.258   3.167
17947SOL     OW72106   7.898   2.211   2.909
17947SOL    HW272107   7.928   2.125   2.880
17947SOL    HW372108   7.803   2.204   2.912
17947SOL    MW472109   7.890   2.200   2.907
17948SOL     OW72110   8.727   2.420   3.600
17948SOL    HW272111   8.779   2.355   3.553
17948SOL    HW372112   8.685   2.471   3.530
17948SOL    MW472113   8.728   2.417   3.583
17949SOL     OW72114   8.826   2.215   3.461
17949SOL    HW272115   8.733   2.199   3.448
17949SOL    HW372116   8.852   2.153   3.529
17949SOL    MW472117   8.816   2.205   3.468
17950SOL     OW72118   8.041   1.989   2.800
17950SOL    HW272119   8.051   1.898   2.826
17950SOL    HW372120   7.997   1.985   2.715
17950SOL    MW472121   8.037   1.977   2.792
17951SOL     OW72122   8.135   3.604   3.346
17951SOL    HW272123   8.052   3.589   3.391
17951SOL    HW372124   8.194   3.537   3.381
17951SOL    MW472125   8.133   3.594   3.356
17952SOL     OW72126   9.192   2.311   2.971
17952SOL    HW272127   9.125   2.344   3.031
17952SOL    HW372128   9.235   2.389   2.937
17952SOL    MW472129   9.190   2.326   2.975
17953SOL     OW72130   9.370   3.031   2.941
17953SOL    HW272131   9.363   2.971   2.866
17953SOL    HW372132   9.296   3.091   2.930
17953SOL    MW472133   9.360   3.031   2.930
17954SOL     OW72134   8.752   2.893   2.859
17954SOL    HW272135   8.766   2.865   2.950
17954SOL    HW372136   8.838   2.924   2.831
17954SOL    MW472137   8.765   2.894   2.868
17955SOL     OW72138   8.835   2.388   3.138
17955SOL    HW272139   8.856   2.389   3.045
17955SOL    HW372140   8.880   2.310   3.171
17955SOL    MW472141   8.842   2.378   3.130
17956SOL     OW72142   9.328   2.519   3.680
17956SOL    HW272143   9.365   2.464   3.749
17956SOL    HW372144   9.353   2.476   3.598
17956SOL    MW472145   9.335   2.507   3.679
17957SOL     OW72146   8.875   2.817   3.731
17957SOL    HW272147   8.941   2.765   3.685
17957SOL    HW372148   8.895   2.804   3.824
17957SOL    MW472149   8.886   2.808   3.738
17958SOL     OW72150   8.826   1.903   2.080
17958SOL    HW272151   8.900   1.947   2.123
17958SOL    HW372152   8.750   1.957   2.102
17958SOL    MW472153   8.826   1.915   2.088
17959SOL     OW72154   8.886   2.678   2.358
17959SOL    HW272155   8.801   2.648   2.328
17959SOL    HW372156   8.878   2.685   2.453
17959SOL    MW472157   8.874   2.676   2.367
17960SOL     OW72158   7.962   3.141   3.089
17960SOL    HW272159   7.974   3.168   3.180
17960SOL    HW372160   7.943   3.222   3.042
17960SOL    MW472161   7.961   3.156   3.094
17961SOL     OW72162   8.246   2.121   2.912
17961SOL    HW272163   8.219   2.123   3.003
17961SOL    HW372164   8.176   2.073   2.867
17961SOL    MW472165   8.234   2.117   2.919
17962SOL     OW72166   8.100   3.613   3.074
17962SOL    HW272167   8.152   3.690   3.051
17962SOL    HW372168   8.109   3.605   3.169
17962SOL    MW472169   8.109   3.620   3.085
17963SOL     OW72170   9.002   3.198   3.306
17963SOL    HW272171   8.987   3.127   3.369
17963SOL    HW372172   9.048   3.156   3.234
17963SOL    MW472173   9.008   3.182   3.306
17964SOL     OW72174   8.076   2.929   3.423
17964SOL    HW272175   8.113   2.934   3.335
17964SOL    HW372176   8.115   3.002   3.470
17964SOL    MW472177   8.086   2.939   3.418
17965SOL     OW72178   8.256   2.972   3.235
17965SOL    HW272179   8.315   2.918   3.288
17965SOL    HW372180   8.271   2.944   3.145
17965SOL    MW472181   8.266   2.961   3.231
17966SOL     OW72182   8.259   2.344   2.084
17966SOL    HW272183   8.332   2.393   2.047
17966SOL    HW372184   8.275   2.253   2.058
17966SOL    MW472185   8.271   2.339   2.077
17967SOL     OW72186   9.067   3.461   3.407
17967SOL    HW272187   9.109   3.446   3.492
17967SOL    HW372188   9.058   3.374   3.369
17967SOL    MW472189   9.071   3.449   3.414
17968SOL     OW72190   8.727   1.940   2.998
17968SOL    HW272191   8.782   1.949   2.920
17968SOL    HW372192   8.782   1.974   3.069
17968SOL    MW472193   8.741   1.945   2.997
17969SOL     OW72194   7.734   2.853   2.182
17969SOL    HW272195   7.671   2.869   2.111
17969SOL    HW372196   7.681   2.816   2.253
17969SOL    MW472197   7.719   2.850   2.182
17970SOL     OW72198   8.090   3.207   2.041
17970SOL    HW272199   8.105   3.183   2.133
17970SOL    HW372200   7.998   3.185   2.025
17970SOL    MW472201   8.080   3.200   2.051
17971SOL     OW72202   8.629   3.438   2.193
17971SOL    HW272203   8.637   3.356   2.144
17971SOL    HW372204   8.548   3.477   2.160
17971SOL    MW472205   8.619   3.433   2.183
17972SOL     OW72206   7.888   3.596   2.762
17972SOL    HW272207   7.892   3.507   2.797
17972SOL    HW372208   7.914   3.587   2.671
17972SOL    MW472209   7.891   3.584   2.754
17973SOL     OW72210   8.505   3.074   3.005
17973SOL    HW272211   8.437   3.008   3.021
17973SOL    HW372212   8.523   3.068   2.912
17973SOL    MW472213   8.498   3.065   2.996
17974SOL     OW72214   7.594   3.349   3.256
17974SOL    HW272215   7.584   3.307   3.342
17974SOL    HW372216   7.515   3.402   3.246
17974SOL    MW472217   7.583   3.350   3.267
17975SOL     OW72218   8.498   2.213   2.826
17975SOL    HW272219   8.428   2.165   2.871
17975SOL    HW372220   8.530   2.276   2.890
17975SOL    MW472221   8.493   2.215   2.840
17976SOL     OW72222   8.149   2.649   3.446
17976SOL    HW272223   8.142   2.744   3.434
17976SOL    HW372224   8.158   2.638   3.541
17976SOL    MW472225   8.150   2.661   3.456
17977SOL     OW72226   7.870   3.164   3.704
17977SOL    HW272227   7.942   3.166   3.641
17977SOL    HW372228   7.840   3.073   3.703
17977SOL    MW472229   7.875   3.153   3.696
17978SOL     OW72230   8.954   1.927   3.171
17978SOL    HW272231   9.025   1.873   3.135
17978SOL    HW372232   8.953   1.906   3.264
17978SOL    MW472233   8.963   1.918   3.179
17979SOL     OW72234   9.154   3.457   3.655
17979SOL    HW272235   9.127   3.454   3.746
17979SOL    HW372236   9.250   3.461   3.658
17979SOL    MW472237   9.164   3.457   3.667
17980SOL     OW72238   7.965   2.319   2.639
17980SOL    HW272239   8.036   2.267   2.602
17980SOL    HW372240   7.951   2.284   2.726
17980SOL    MW472241   7.973   2.308   2.646
17981SOL     OW72242   7.520   3.654   3.711
17981SOL    HW272243   7.570   3.632   3.633
17981SOL    HW372244   7.528   3.749   3.719
17981SOL    MW472245   7.528   3.663   3.702
17982SOL     OW72246   8.281   3.412   2.715
17982SOL    HW272247   8.209   3.349   2.728
17982SOL    HW372248   8.242   3.497   2.733
17982SOL    MW472249   8.265   3.415   2.718
17983SOL     OW72250   8.601   2.260   2.363
17983SOL    HW272251   8.623   2.197   2.295
17983SOL    HW372252   8.506   2.252   2.374
17983SOL    MW472253   8.591   2.251   2.355
17984SOL     OW72254   7.686   1.950   2.295
17984SOL    HW272255   7.757   1.971   2.234
17984SOL    HW372256   7.640   1.878   2.253
17984SOL    MW472257   7.690   1.944   2.281
17985SOL     OW72258   7.517   2.417   3.438
17985SOL    HW272259   7.581   2.483   3.413
17985SOL    HW372260   7.436   2.444   3.395
17985SOL    MW472261   7.515   2.429   3.430
17986SOL     OW72262   9.255   3.324   2.395
17986SOL    HW272263   9.225   3.257   2.456
17986SOL    HW372264   9.349   3.330   2.409
17986SOL    MW472265   9.263   3.316   2.405
17987SOL     OW72266   8.811   3.001   2.325
17987SOL    HW272267   8.783   3.087   2.358
17987SOL    HW372268   8.839   3.017   2.235
17987SOL    MW472269   8.811   3.015   2.317
17988SOL     OW72270   8.473   1.921   2.378
17988SOL    HW272271   8.510   1.980   2.443
17988SOL    HW372272   8.450   1.977   2.304
17988SOL    MW472273   8.474   1.936   2.377
17989SOL     OW72274   9.326   2.803   2.800
17989SOL    HW272275   9.317   2.835   2.711
17989SOL    HW372276   9.279   2.719   2.800
17989SOL    MW472277   9.319   2.796   2.790
17990SOL     OW72278   7.702   2.643   3.379
17990SOL    HW272279   7.723   2.712   3.317
17990SOL    HW372280   7.782   2.590   3.384
17990SOL    MW472281   7.715   2.644   3.373
17991SOL     OW72282   9.238   2.734   2.501
17991SOL    HW272283   9.332   2.723   2.489
17991SOL    HW372284   9.214   2.806   2.442
17991SOL    MW472285   9.248   2.742   2.492
17992SOL     OW72286   7.687   2.658   3.646
17992SOL    HW272287   7.613   2.602   3.672
17992SOL    HW372288   7.682   2.661   3.551
17992SOL    MW472289   7.676   2.651   3.636
17993SOL     OW72290   7.853   1.945   3.096
17993SOL    HW272291   7.896   2.029   3.116
17993SOL    HW372292   7.926   1.883   3.089
17993SOL    MW472293   7.868   1.948   3.097
17994SOL     OW72294   7.894   2.612   2.274
17994SOL    HW272295   7.894   2.707   2.259
17994SOL    HW372296   7.971   2.596   2.328
17994SOL    MW472297   7.904   2.623   2.279
17995SOL     OW72298   8.670   2.471   3.338
17995SOL    HW272299   8.706   2.444   3.254
17995SOL    HW372300   8.583   2.505   3.317
17995SOL    MW472301   8.664   2.472   3.325
17996SOL     OW72302   7.653   2.343   2.563
17996SOL    HW272303   7.715   2.350   2.636
17996SOL    HW372304   7.653   2.250   2.540
17996SOL    MW472305   7.661   2.332   2.570
17997SOL     OW72306   9.200   3.683   2.095
17997SOL    HW272307   9.267   3.716   2.035
17997SOL    HW372308   9.157   3.762   2.129
17997SOL    MW472309   9.202   3.698   2.091
17998SOL     OW72310   8.335   2.604   3.047
17998SOL    HW272311   8.293   2.522   3.023
17998SOL    HW372312   8.336   2.603   3.143
17998SOL    MW472313   8.328   2.593   3.056
17999SOL     OW72314   9.006   3.737   3.446
17999SOL    HW272315   9.009   3.643   3.429
17999SOL    HW372316   9.029   3.745   3.538
17999SOL    MW472317   9.009   3.725   3.456
18000SOL     OW72318   8.139   2.074   3.152
18000SOL    HW272319   8.070   2.137   3.173
18000SOL    HW372320   8.166   2.038   3.237
18000SOL    MW472321   8.133   2.077   3.165
18001SOL     OW72322   7.522   2.915   2.021
18001SOL    HW272323   7.491   2.980   2.084
18001SOL    HW372324   7.471   2.837   2.040
18001SOL    MW472325   7.512   2.912   2.031
18002SOL     OW72326   8.934   1.927   2.769
18002SOL    HW272327   9.022   1.936   2.806
18002SOL    HW372328   8.944   1.868   2.695
18002SOL    MW472329   8.948   1.921   2.763
18003SOL     OW72330   8.966   2.666   2.613
18003SOL    HW272331   9.046   2.681   2.562
18003SOL    HW372332   8.959   2.571   2.619
18003SOL    MW472333   8.975   2.655   2.608
18004SOL     OW72334   8.106   3.715   1.963
18004SOL    HW272335   8.011   3.715   1.955
18004SOL    HW372336   8.122   3.661   2.041
18004SOL    MW472337   8.096   3.709   1.972
18005SOL     OW72338   8.416   2.592   3.310
18005SOL    HW272339   8.485   2.659   3.307
18005SOL    HW372340   8.349   2.630   3.366
18005SOL    MW472341   8.417   2.605   3.317
18006SOL     OW72342   7.834   2.892   3.558
18006SOL    HW272343   7.788   2.808   3.560
18006SOL    HW372344   7.891   2.886   3.482
18006SOL    MW472345   7.836   2.880   3.550
18007SOL     OW72346   8.951   2.535   1.879
18007SOL    HW272347   8.879   2.511   1.821
18007SOL    HW372348   9.017   2.572   1.821
18007SOL    MW472349   8.950   2.537   1.864
18008SOL     OW72350   8.085   3.267   2.559
18008SOL    HW272351   8.150   3.200   2.580
18008SOL    HW372352   8.137   3.344   2.536
18008SOL    MW472353   8.100   3.269   2.558
18009SOL     OW72354   8.346   2.432   2.689
18009SOL    HW272355   8.286   2.450   2.761
18009SOL    HW372356   8.380   2.344   2.708
18009SOL    MW472357   8.342   2.422   2.702
18010SOL     OW72358   9.287   1.931   3.358
18010SOL    HW272359   9.208   1.977   3.386
18010SOL    HW372360   9.322   1.985   3.287
18010SOL    MW472361   9.281   1.944   3.352
18011SOL     OW72362   8.571   3.015   2.708
18011SOL    HW272363   8.663   2.996   2.726
18011SOL    HW372364   8.544   2.945   2.648
18011SOL    MW472365   8.579   3.003   2.702
18012SOL     OW72366   8.364   2.835   2.063
18012SOL    HW272367   8.350   2.747   2.028
18012SOL    HW372368   8.315   2.892   2.004
18012SOL    MW472369   8.356   2.830   2.051
18013SOL     OW72370   8.845   3.253   2.804
18013SOL    HW272371   8.818   3.337   2.769
18013SOL    HW372372   8.805   3.248   2.891
18013SOL    MW472373   8.838   3.262   2.810
18014SOL     OW72374   8.764   3.201   3.072
18014SOL    HW272375   8.775   3.168   3.161
18014SOL    HW372376   8.683   3.160   3.041
18014SOL    MW472377   8.754   3.193   3.078
18015SOL     OW72378   7.777   2.559   2.842
18015SOL    HW272379   7.727   2.558   2.923
18015SOL    HW372380   7.797   2.651   2.826
18015SOL    MW472381   7.773   2.571   2.850
18016SOL     OW72382   8.844   3.323   3.604
18016SOL    HW272383   8.844   3.417   3.620
18016SOL    HW372384   8.889   3.313   3.520
18016SOL    MW472385   8.850   3.333   3.595
18017SOL     OW72386   9.083   2.041   2.165
18017SOL    HW272387   9.076   2.045   2.260
18017SOL    HW372388   9.095   2.132   2.138
18017SOL    MW472389   9.084   2.054   2.173
18018SOL     OW72390   8.372   2.604   2.279
18018SOL    HW272391   8.352   2.590   2.186
18018SOL    HW372392   8.465   2.583   2.286
18018SOL    MW472393   8.382   2.599   2.268
18019SOL     OW72394   7.699   2.227   3.583
18019SOL    HW272395   7.656   2.286   3.520
18019SOL    HW372396   7.767   2.282   3.623
18019SOL    MW472397   7.703   2.242   3.580
18020SOL     OW72398   8.811   2.847   3.128
18020SOL    HW272399   8.874   2.844   3.201
18020SOL    HW372400   8.727   2.865   3.170
18020SOL    MW472401   8.807   2.849   3.143
18021SOL     OW72402   8.355   3.562   2.317
18021SOL    HW272403   8.413   3.633   2.344
18021SOL    HW372404   8.378   3.490   2.375
18021SOL    MW472405   8.366   3.562   2.328
18022SOL     OW72406   9.150   2.024   2.907
18022SOL    HW272407   9.195   1.942   2.926
18022SOL    HW372408   9.170   2.080   2.983
18022SOL    MW472409   9.160   2.020   2.919
18023SOL     OW72410   7.598   1.867   3.006
18023SOL    HW272411   7.589   1.868   2.911
18023SOL    HW372412   7.692   1.879   3.021
18023SOL    MW472413   7.610   1.870   2.997
18024SOL     OW72414   9.235   3.060   2.626
18024SOL    HW272415   9.214   3.006   2.549
18024SOL    HW372416   9.331   3.058   2.630
18024SOL    MW472417   9.244   3.053   2.615
18025SOL     OW72418   7.927   3.205   3.369
18025SOL    HW272419   7.848   3.155   3.392
18025SOL    HW372420   7.997   3.164   3.419
18025SOL    MW472421   7.925   3.193   3.379
18026SOL     OW72422   7.811   1.994   2.052
18026SOL    HW272423   7.740   2.049   2.020
18026SOL    HW372424   7.853   1.960   1.973
18026SOL    MW472425   7.807   1.996   2.038
18027SOL     OW72426   8.935   2.491   2.888
18027SOL    HW272427   8.858   2.537   2.854
18027SOL    HW372428   8.992   2.560   2.922
18027SOL    MW472429   8.932   2.506   2.888
18028SOL     OW72430   7.567   2.093   1.901
18028SOL    HW272431   7.534   2.172   1.945
18028SOL    HW372432   7.622   2.126   1.830
18028SOL    MW472433   7.570   2.107   1.898
18029SOL     OW72434   7.601   3.350   2.090
18029SOL    HW272435   7.618   3.434   2.132
18029SOL    HW372436   7.636   3.359   2.002
18029SOL    MW472437   7.606   3.363   2.084
18030SOL     OW72438   8.873   3.439   2.307
18030SOL    HW272439   8.936   3.429   2.236
18030SOL    HW372440   8.790   3.459   2.262
18030SOL    MW472441   8.870   3.440   2.292
18031SOL     OW72442   9.236   2.707   3.993
18031SOL    HW272443   9.277   2.649   4.058
18031SOL    HW372444   9.143   2.699   4.010
18031SOL    MW472445   9.230   2.699   4.003
18032SOL     OW72446   9.102   2.639   4.988
18032SOL    HW272447   9.057   2.706   5.039
18032SOL    HW372448   9.190   2.675   4.974
18032SOL    MW472449   9.108   2.652   4.992
18033SOL     OW72450   8.030   2.890   4.222
18033SOL    HW272451   8.120   2.865   4.206
18033SOL    HW372452   8.026   2.983   4.199
18033SOL    MW472453   8.042   2.899   4.217
18034SOL     OW72454   9.146   3.593   4.364
18034SOL    HW272455   9.158   3.539   4.442
18034SOL    HW372456   9.183   3.541   4.293
18034SOL    MW472457   9.152   3.578   4.365
18035SOL     OW72458   8.525   3.478   5.365
18035SOL    HW272459   8.566   3.514   5.286
18035SOL    HW372460   8.560   3.389   5.372
18035SOL    MW472461   8.536   3.471   5.356
18036SOL     OW72462   9.082   3.033   4.969
18036SOL    HW272463   9.003   2.998   4.927
18036SOL    HW372464   9.109   3.105   4.913
18036SOL    MW472465   9.075   3.038   4.956
18037SOL     OW72466   8.314   2.346   4.235
18037SOL    HW272467   8.289   2.434   4.263
18037SOL    HW372468   8.311   2.349   4.139
18037SOL    MW472469   8.310   2.358   4.227
18038SOL     OW72470   7.756   2.374   4.163
18038SOL    HW272471   7.788   2.462   4.145
18038SOL    HW372472   7.744   2.372   4.258
18038SOL    MW472473   7.759   2.386   4.175
18039SOL     OW72474   7.834   2.787   5.064
18039SOL    HW272475   7.897   2.734   5.015
18039SOL    HW372476   7.815   2.861   5.007
18039SOL    MW472477   7.840   2.789   5.051
18040SOL     OW72478   8.155   2.129   4.250
18040SOL    HW272479   8.213   2.205   4.252
18040SOL    HW372480   8.090   2.150   4.183
18040SOL    MW472481   8.154   2.141   4.241
18041SOL     OW72482   8.242   3.056   4.425
18041SOL    HW272483   8.322   3.059   4.477
18041SOL    HW372484   8.270   3.023   4.339
18041SOL    MW472485   8.256   3.052   4.420
18042SOL     OW72486   8.267   3.397   5.328
18042SOL    HW272487   8.351   3.423   5.367
18042SOL    HW372488   8.291   3.341   5.254
18042SOL    MW472489   8.281   3.393   5.323
18043SOL     OW72490   8.019   2.560   4.416
18043SOL    HW272491   8.004   2.480   4.467
18043SOL    HW372492   8.101   2.595   4.450
18043SOL    MW472493   8.027   2.552   4.428
18044SOL     OW72494   8.356   3.246   5.101
18044SOL    HW272495   8.320   3.312   5.041
18044SOL    HW372496   8.284   3.184   5.114
18044SOL    MW472497   8.342   3.246   5.095
18045SOL     OW72498   8.161   2.386   4.793
18045SOL    HW272499   8.067   2.382   4.811
18045SOL    HW372500   8.191   2.295   4.802
18045SOL    MW472501   8.152   2.374   4.796
18046SOL     OW72502   7.907   2.800   4.697
18046SOL    HW272503   7.862   2.807   4.613
18046SOL    HW372504   7.887   2.883   4.741
18046SOL    MW472505   7.899   2.812   4.691
18047SOL     OW72506   7.604   3.646   4.572
18047SOL    HW272507   7.693   3.638   4.607
18047SOL    HW372508   7.568   3.558   4.577
18047SOL    MW472509   7.611   3.633   4.577
18048SOL     OW72510   8.869   3.038   3.941
18048SOL    HW272511   8.787   3.074   3.907
18048SOL    HW372512   8.937   3.081   3.890
18048SOL    MW472513   8.867   3.048   3.929
18049SOL     OW72514   7.868   3.173   4.607
18049SOL    HW272515   7.844   3.226   4.683
18049SOL    HW372516   7.924   3.231   4.555
18049SOL    MW472517   7.872   3.188   4.610
18050SOL     OW72518   8.430   2.817   4.417
18050SOL    HW272519   8.344   2.804   4.457
18050SOL    HW372520   8.483   2.744   4.449
18050SOL    MW472521   8.426   2.806   4.426
18051SOL     OW72522   7.838   3.469   5.202
18051SOL    HW272523   7.746   3.445   5.187
18051SOL    HW372524   7.882   3.386   5.219
18051SOL    MW472525   7.832   3.454   5.201
18052SOL     OW72526   8.421   3.179   4.134
18052SOL    HW272527   8.398   3.241   4.202
18052SOL    HW372528   8.378   3.097   4.160
18052SOL    MW472529   8.413   3.175   4.145
18053SOL     OW72530   9.294   2.180   4.590
18053SOL    HW272531   9.231   2.160   4.659
18053SOL    HW372532   9.284   2.109   4.527
18053SOL    MW472533   9.284   2.167   4.591
18054SOL     OW72534   7.918   2.152   4.102
18054SOL    HW272535   7.892   2.114   4.018
18054SOL    HW372536   7.855   2.222   4.118
18054SOL    MW472537   7.907   2.155   4.093
18055SOL     OW72538   7.753   3.113   4.139
18055SOL    HW272539   7.701   3.181   4.095
18055SOL    HW372540   7.750   3.039   4.079
18055SOL    MW472541   7.745   3.112   4.126
18056SOL     OW72542   8.415   3.576   3.917
18056SOL    HW272543   8.370   3.592   4.000
18056SOL    HW372544   8.346   3.541   3.859
18056SOL    MW472545   8.401   3.573   3.919
18057SOL     OW72546   9.350   2.349   3.892
18057SOL    HW272547   9.259   2.351   3.920
18057SOL    HW372548   9.395   2.411   3.950
18057SOL    MW472549   9.343   2.357   3.902
18058SOL     OW72550   9.095   2.952   4.242
18058SOL    HW272551   9.005   2.952   4.277
18058SOL    HW372552   9.088   2.998   4.159
18058SOL    MW472553   9.082   2.958   4.236
18059SOL     OW72554   8.895   2.587   5.314
18059SOL    HW272555   8.964   2.525   5.291
18059SOL    HW372556   8.820   2.561   5.261
18059SOL    MW472557   8.895   2.574   5.305
18060SOL     OW72558   7.636   3.467   4.866
18060SOL    HW272559   7.619   3.413   4.943
18060SOL    HW372560   7.624   3.557   4.896
18060SOL    MW472561   7.633   3.471   4.880
18061SOL     OW72562   8.631   2.974   5.306
18061SOL    HW272563   8.616   3.067   5.291
18061SOL    HW372564   8.726   2.964   5.306
18061SOL    MW472565   8.640   2.984   5.303
18062SOL     OW72566   8.427   2.398   5.507
18062SOL    HW272567   8.517   2.399   5.474
18062SOL    HW372568   8.386   2.323   5.465
18062SOL    MW472569   8.433   2.388   5.498
18063SOL     OW72570   9.002   2.930   4.634
18063SOL    HW272571   9.005   2.864   4.565
18063SOL    HW372572   9.087   2.973   4.630
18063SOL    MW472573   9.014   2.926   4.625
18064SOL     OW72574   8.622   2.533   4.203
18064SOL    HW272575   8.648   2.557   4.114
18064SOL    HW372576   8.604   2.440   4.199
18064SOL    MW472577   8.624   2.525   4.190
18065SOL     OW72578   9.287   3.153   4.054
18065SOL    HW272579   9.243   3.194   4.129
18065SOL    HW372580   9.344   3.221   4.019
18065SOL    MW472581   9.289   3.167   4.059
18066SOL     OW72582   8.207   2.202   5.457
18066SOL    HW272583   8.217   2.128   5.397
18066SOL    HW372584   8.243   2.171   5.540
18066SOL    MW472585   8.213   2.188   5.459
18067SOL     OW72586   7.943   3.569   4.372
18067SOL    HW272587   7.975   3.657   4.350
18067SOL    HW372588   7.896   3.541   4.294
18067SOL    MW472589   7.942   3.577   4.359
18068SOL     OW72590   9.327   1.931   4.421
18068SOL    HW272591   9.381   1.882   4.483
18068SOL    HW372592   9.270   1.865   4.382
18068SOL    MW472593   9.327   1.915   4.423
18069SOL     OW72594   7.659   3.629   3.949
18069SOL    HW272595   7.688   3.719   3.941
18069SOL    HW372596   7.609   3.612   3.870
18069SOL    MW472597   7.657   3.637   3.938
18070SOL     OW72598   8.446   1.884   4.834
18070SOL    HW272599   8.405   1.962   4.796
18070SOL    HW372600   8.540   1.902   4.829
18070SOL    MW472601   8.452   1.896   4.829
18071SOL     OW72602   9.063   3.437   3.920
18071SOL    HW272603   9.111   3.506   3.966
18071SOL    HW372604   8.984   3.481   3.889
18071SOL    MW472605   9.058   3.451   3.923
18072SOL     OW72606   8.461   2.562   3.864
18072SOL    HW272607   8.463   2.509   3.785
18072SOL    HW372608   8.549   2.599   3.870
18072SOL    MW472609   8.473   2.561   3.853
18073SOL     OW72610   9.075   2.488   4.200
18073SOL    HW272611   9.114   2.488   4.287
18073SOL    HW372612   9.016   2.564   4.200
18073SOL    MW472613   9.072   2.499   4.211
18074SOL     OW72614   8.392   2.855   5.329
18074SOL    HW272615   8.369   2.835   5.419
18074SOL    HW372616   8.477   2.899   5.334
18074SOL    MW472617   8.399   2.858   5.341
18075SOL     OW72618   8.472   1.992   5.089
18075SOL    HW272619   8.478   1.954   5.002
18075SOL    HW372620   8.461   2.086   5.074
18075SOL    MW472621   8.473   2.000   5.077
18076SOL     OW72622   8.561   2.481   4.923
18076SOL    HW272623   8.636   2.510   4.870
18076SOL    HW372624   8.493   2.546   4.907
18076SOL    MW472625   8.562   2.493   4.913
18077SOL     OW72626   9.111   2.449   5.200
18077SOL    HW272627   9.092   2.358   5.179
18077SOL    HW372628   9.089   2.498   5.121
18077SOL    MW472629   9.106   2.442   5.187
18078SOL     OW72630   9.253   3.543   5.104
18078SOL    HW272631   9.181   3.505   5.155
18078SOL    HW372632   9.270   3.628   5.145
18078SOL    MW472633   9.247   3.548   5.116
18079SOL     OW72634   8.558   2.187   5.306
18079SOL    HW272635   8.524   2.226   5.225
18079SOL    HW372636   8.536   2.095   5.299
18079SOL    MW472637   8.551   2.180   5.296
18080SOL     OW72638   8.967   3.001   5.382
18080SOL    HW272639   9.049   3.042   5.412
18080SOL    HW372640   8.930   2.963   5.462
18080SOL    MW472641   8.973   3.002   5.397
18081SOL     OW72642   9.262   2.374   4.366
18081SOL    HW272643   9.351   2.343   4.383
18081SOL    HW372644   9.205   2.314   4.414
18081SOL    MW472645   9.265   2.362   4.375
18082SOL     OW72646   7.688   2.088   4.395
18082SOL    HW272647   7.679   2.028   4.321
18082SOL    HW372648   7.621   2.059   4.458
18082SOL    MW472649   7.678   2.075   4.393
18083SOL     OW72650   8.631   3.181   3.956
18083SOL    HW272651   8.581   3.183   4.038
18083SOL    HW372652   8.565   3.199   3.888
18083SOL    MW472653   8.617   3.183   3.958
18084SOL     OW72654   7.635   2.261   4.758
18084SOL    HW272655   7.607   2.352   4.767
18084SOL    HW372656   7.572   2.222   4.697
18084SOL    MW472657   7.622   2.267   4.752
18085SOL     OW72658   8.094   3.599   4.064
18085SOL    HW272659   8.015   3.557   4.097
18085SOL    HW372660   8.160   3.582   4.131
18085SOL    MW472661   8.093   3.591   4.077
18086SOL     OW72662   9.222   3.119   5.461
18086SOL    HW272663   9.272   3.045   5.493
18086SOL    HW372664   9.168   3.146   5.536
18086SOL    MW472665   9.222   3.113   5.474
18087SOL     OW72666   8.230   3.014   3.771
18087SOL    HW272667   8.152   2.960   3.758
18087SOL    HW372668   8.201   3.087   3.824
18087SOL    MW472669   8.216   3.016   3.776
18088SOL     OW72670   9.356   2.754   4.963
18088SOL    HW272671   9.372   2.792   4.876
18088SOL    HW372672   9.390   2.820   5.024
18088SOL    MW472673   9.363   2.767   4.959
18089SOL     OW72674   9.148   3.463   4.632
18089SOL    HW272675   9.177   3.530   4.693
18089SOL    HW372676   9.129   3.387   4.687
18089SOL    MW472677   9.150   3.463   4.647
18090SOL     OW72678   8.811   3.530   3.839
18090SOL    HW272679   8.737   3.493   3.889
18090SOL    HW372680   8.819   3.620   3.872
18090SOL    MW472681   8.802   3.537   3.851
18091SOL     OW72682   7.619   2.536   4.928
18091SOL    HW272683   7.681   2.566   4.994
18091SOL    HW372684   7.553   2.605   4.922
18091SOL    MW472685   7.618   2.549   4.935
18092SOL     OW72686   9.035   3.204   3.781
18092SOL    HW272687   8.982   3.253   3.717
18092SOL    HW372688   9.066   3.270   3.842
18092SOL    MW472689   9.033   3.218   3.779
18093SOL     OW72690   8.260   2.093   3.836
18093SOL    HW272691   8.208   2.013   3.824
18093SOL    HW372692   8.347   2.070   3.804
18093SOL    MW472693   8.263   2.079   3.830
18094SOL     OW72694   7.714   3.645   5.380
18094SOL    HW272695   7.688   3.713   5.318
18094SOL    HW372696   7.762   3.582   5.328
18094SOL    MW472697   7.716   3.645   5.366
18095SOL     OW72698   7.766   2.964   4.887
18095SOL    HW272699   7.819   3.039   4.912
18095SOL    HW372700   7.685   3.002   4.853
18095SOL    MW472701   7.762   2.979   4.887
18096SOL     OW72702   8.306   2.868   4.875
18096SOL    HW272703   8.334   2.777   4.887
18096SOL    HW372704   8.235   2.862   4.811
18096SOL    MW472705   8.299   2.856   4.870
18097SOL     OW72706   7.621   2.733   4.293
18097SOL    HW272707   7.712   2.748   4.320
18097SOL    HW372708   7.624   2.654   4.239
18097SOL    MW472709   7.633   2.725   4.291
18098SOL     OW72710   7.857   2.441   5.547
18098SOL    HW272711   7.804   2.521   5.554
18098SOL    HW372712   7.927   2.453   5.612
18098SOL    MW472713   7.859   2.454   5.555
18099SOL     OW72714   8.243   1.991   5.254
18099SOL    HW272715   8.220   1.899   5.256
18099SOL    HW372716   8.329   1.993   5.211
18099SOL    MW472717   8.250   1.981   5.250
18100SOL     OW72718   7.927   2.515   5.293
18100SOL    HW272719   8.007   2.565   5.279
18100SOL    HW372720   7.918   2.509   5.388
18100SOL    MW472721   7.936   2.521   5.303
18101SOL     OW72722   8.248   3.665   4.667
18101SOL    HW272723   8.337   3.680   4.697
18101SOL    HW372724   8.243   3.712   4.583
18101SOL    MW472725   8.258   3.673   4.660
18102SOL     OW72726   8.904   2.040   5.564
18102SOL    HW272727   8.960   1.967   5.590
18102SOL    HW372728   8.874   2.078   5.646
18102SOL    MW472729   8.908   2.035   5.577
18103SOL     OW72730   7.629   3.345   4.332
18103SOL    HW272731   7.601   3.384   4.414
18103SOL    HW372732   7.649   3.254   4.354
18103SOL    MW472733   7.627   3.337   4.345
18104SOL     OW72734   8.462   3.388   4.367
18104SOL    HW272735   8.545   3.342   4.351
18104SOL    HW372736   8.452   3.387   4.463
18104SOL    MW472737   8.472   3.381   4.377
18105SOL     OW72738   9.294   2.533   4.681
18105SOL    HW272739   9.383   2.563   4.663
18105SOL    HW372740   9.274   2.473   4.610
18105SOL    MW472741   9.303   2.530   4.670
18106SOL     OW72742   9.145   2.712   5.561
18106SOL    HW272743   9.200   2.636   5.542
18106SOL    HW372744   9.147   2.720   5.656
18106SOL    MW472745   9.153   2.703   5.569
18107SOL     OW72746   8.195   3.445   3.772
18107SOL    HW272747   8.135   3.514   3.742
18107SOL    HW372748   8.140   3.387   3.825
18107SOL    MW472749   8.179   3.447   3.774
18108SOL     OW72750   8.633   2.090   3.995
18108SOL    HW272751   8.566   2.066   3.932
18108SOL    HW372752   8.698   2.139   3.944
18108SOL    MW472753   8.633   2.092   3.980
18109SOL     OW72754   8.440   2.274   5.080
18109SOL    HW272755   8.359   2.315   5.108
18109SOL    HW372756   8.487   2.342   5.032
18109SOL    MW472757   8.435   2.289   5.078
18110SOL     OW72758   8.700   2.612   4.703
18110SOL    HW272759   8.713   2.706   4.713
18110SOL    HW372760   8.661   2.602   4.617
18110SOL    MW472761   8.696   2.623   4.693
18111SOL     OW72762   8.152   2.807   4.507
18111SOL    HW272763   8.063   2.798   4.540
18111SOL    HW372764   8.156   2.897   4.475
18111SOL    MW472765   8.141   2.818   4.507
18112SOL     OW72766   8.951   2.390   4.502
18112SOL    HW272767   8.896   2.311   4.501
18112SOL    HW372768   8.933   2.431   4.586
18112SOL    MW472769   8.941   2.385   4.511
18113SOL     OW72770   7.922   2.077   5.319
18113SOL    HW272771   7.843   2.095   5.371
18113SOL    HW372772   7.917   2.139   5.246
18113SOL    MW472773   7.912   2.087   5.316
18114SOL     OW72774   8.570   2.594   4.459
18114SOL    HW272775   8.507   2.526   4.483
18114SOL    HW372776   8.590   2.575   4.367
18114SOL    MW472777   8.564   2.581   4.451
18115SOL     OW72778   7.826   3.489   4.161
18115SOL    HW272779   7.787   3.536   4.087
18115SOL    HW372780   7.760   3.424   4.186
18115SOL    MW472781   7.813   3.487   4.155
18116SOL     OW72782   8.318   2.898   4.185
18116SOL    HW272783   8.320   2.872   4.092
18116SOL    HW372784   8.376   2.835   4.228
18116SOL    MW472785   8.326   2.887   4.179
18117SOL     OW72786   8.871   3.458   4.957
18117SOL    HW272787   8.796   3.504   4.995
18117SOL    HW372788   8.853   3.365   4.974
18117SOL    MW472789   8.860   3.452   4.965
18118SOL     OW72790   8.875   3.666   4.387
18118SOL    HW272791   8.818   3.619   4.326
18118SOL    HW372792   8.961   3.627   4.374
18118SOL    MW472793   8.878   3.657   4.377
18119SOL     OW72794   8.828   2.142   4.518
18119SOL    HW272795   8.856   2.074   4.579
18119SOL    HW372796   8.742   2.113   4.488
18119SOL    MW472797   8.821   2.129   4.522
18120SOL     OW72798   7.633   3.076   4.452
18120SOL    HW272799   7.697   3.108   4.515
18120SOL    HW372800   7.682   3.012   4.400
18120SOL    MW472801   7.648   3.072   4.453
18121SOL     OW72802   8.133   3.152   5.434
18121SOL    HW272803   8.181   3.235   5.421
18121SOL    HW372804   8.190   3.100   5.490
18121SOL    MW472805   8.147   3.156   5.440
18122SOL     OW72806   7.709   3.394   5.574
18122SOL    HW272807   7.765   3.318   5.589
18122SOL    HW372808   7.658   3.372   5.496
18122SOL    MW472809   7.709   3.381   5.565
18123SOL     OW72810   8.808   2.246   3.853
18123SOL    HW272811   8.781   2.312   3.789
18123SOL    HW372812   8.878   2.289   3.903
18123SOL    MW472813   8.813   2.259   3.850
18124SOL     OW72814   8.476   1.951   3.790
18124SOL    HW272815   8.532   1.943   3.712
18124SOL    HW372816   8.453   1.861   3.812
18124SOL    MW472817   8.481   1.938   3.783
18125SOL     OW72818   8.981   2.802   3.995
18125SOL    HW272819   8.948   2.891   3.985
18125SOL    HW372820   8.946   2.773   4.080
18125SOL    MW472821   8.971   2.811   4.006
18126SOL     OW72822   8.594   3.231   5.183
18126SOL    HW272823   8.505   3.237   5.151
18126SOL    HW372824   8.638   3.310   5.151
18126SOL    MW472825   8.589   3.241   5.175
18127SOL     OW72826   7.887   1.899   5.525
18127SOL    HW272827   7.815   1.864   5.473
18127SOL    HW372828   7.945   1.940   5.460
18127SOL    MW472829   7.885   1.900   5.510
18128SOL     OW72830   7.911   3.389   4.824
18128SOL    HW272831   7.956   3.451   4.881
18128SOL    HW372832   7.818   3.408   4.837
18128SOL    MW472833   7.904   3.399   4.831
18129SOL     OW72834   9.351   2.918   5.178
18129SOL    HW272835   9.266   2.931   5.137
18129SOL    HW372836   9.331   2.882   5.265
18129SOL    MW472837   9.338   2.914   5.183
18130SOL     OW72838   8.333   3.457   4.932
18130SOL    HW272839   8.357   3.446   4.841
18130SOL    HW372840   8.256   3.514   4.930
18130SOL    MW472841   8.325   3.462   4.921
18131SOL     OW72842   7.975   2.840   3.787
18131SOL    HW272843   7.898   2.853   3.843
18131SOL    HW372844   7.939   2.804   3.706
18131SOL    MW472845   7.961   2.836   3.784
18132SOL     OW72846   8.628   2.813   4.030
18132SOL    HW272847   8.538   2.834   4.005
18132SOL    HW372848   8.655   2.886   4.086
18132SOL    MW472849   8.620   2.825   4.033
18133SOL     OW72850   8.128   3.162   4.722
18133SOL    HW272851   8.121   3.141   4.816
18133SOL    HW372852   8.046   3.130   4.685
18133SOL    MW472853   8.116   3.156   4.729
18134SOL     OW72854   8.992   2.172   5.124
18134SOL    HW272855   8.939   2.174   5.204
18134SOL    HW372856   8.977   2.085   5.087
18134SOL    MW472857   8.984   2.162   5.129
18135SOL     OW72858   9.328   2.096   4.997
18135SOL    HW272859   9.309   2.163   4.932
18135SOL    HW372860   9.385   2.034   4.952
18135SOL    MW472861   9.332   2.097   4.983
18136SOL     OW72862   7.574   3.254   5.385
18136SOL    HW272863   7.618   3.187   5.331
18136SOL    HW372864   7.489   3.216   5.405
18136SOL    MW472865   7.569   3.240   5.381
18137SOL     OW72866   8.257   1.929   4.437
18137SOL    HW272867   8.186   1.990   4.419
18137SOL    HW372868   8.308   1.926   4.356
18137SOL    MW472869   8.253   1.935   4.424
18138SOL     OW72870   8.015   3.169   4.186
18138SOL    HW272871   8.008   3.201   4.276
18138SOL    HW372872   7.925   3.153   4.158
18138SOL    MW472873   8.003   3.171   4.193
18139SOL     OW72874   8.610   3.562   5.095
18139SOL    HW272875   8.530   3.547   5.045
18139SOL    HW372876   8.617   3.657   5.102
18139SOL    MW472877   8.601   3.573   5.089
18140SOL     OW72878   8.724   3.527   4.585
18140SOL    HW272879   8.771   3.600   4.544
18140SOL    HW372880   8.645   3.566   4.621
18140SOL    MW472881   8.719   3.542   4.584
18141SOL     OW72882   9.132   3.622   4.860
18141SOL    HW272883   9.175   3.592   4.940
18141SOL    HW372884   9.051   3.570   4.857
18141SOL    MW472885   9.127   3.611   4.870
18142SOL     OW72886   8.217   2.586   5.567
18142SOL    HW272887   8.287   2.528   5.539
18142SOL    HW372888   8.160   2.531   5.622
18142SOL    MW472889   8.219   2.573   5.571
18143SOL     OW72890   9.004   2.798   5.200
18143SOL    HW272891   9.009   2.851   5.280
18143SOL    HW372892   8.966   2.715   5.228
18143SOL    MW472893   9.000   2.793   5.215
18144SOL     OW72894   8.644   1.933   5.446
18144SOL    HW272895   8.639   1.840   5.427
18144SOL    HW372896   8.727   1.944   5.492
18144SOL    MW472897   8.652   1.922   5.450
18145SOL     OW72898   8.018   2.453   3.900
18145SOL    HW272899   7.984   2.509   3.970
18145SOL    HW372900   8.089   2.403   3.940
18145SOL    MW472901   8.024   2.454   3.914
18146SOL     OW72902   9.114   3.204   4.722
18146SOL    HW272903   9.149   3.186   4.635
18146SOL    HW372904   9.019   3.205   4.709
18146SOL    MW472905   9.106   3.201   4.709
18147SOL     OW72906   8.543   2.852   5.091
18147SOL    HW272907   8.586   2.887   5.169
18147SOL    HW372908   8.526   2.929   5.037
18147SOL    MW472909   8.546   2.867   5.094
18148SOL     OW72910   9.074   2.339   3.964
18148SOL    HW272911   9.066   2.410   3.901
18148SOL    HW372912   9.092   2.383   4.047
18148SOL    MW472913   9.075   2.353   3.966
18149SOL     OW72914   7.934   1.994   4.393
18149SOL    HW272915   7.984   2.037   4.324
18149SOL    HW372916   7.849   2.038   4.393
18149SOL    MW472917   7.931   2.007   4.384
18150SOL     OW72918   7.693   3.056   5.253
18150SOL    HW272919   7.721   3.009   5.331
18150SOL    HW372920   7.614   3.011   5.224
18150SOL    MW472921   7.686   3.045   5.259
18151SOL     OW72922   8.201   2.383   5.220
18151SOL    HW272923   8.173   2.471   5.244
18151SOL    HW372924   8.170   2.327   5.291
18151SOL    MW472925   8.193   2.386   5.232
18152SOL     OW72926   8.743   2.601   3.939
18152SOL    HW272927   8.790   2.619   3.858
18152SOL    HW372928   8.709   2.685   3.967
18152SOL    MW472929   8.745   2.615   3.932
18153SOL     OW72930   7.856   2.779   4.433
18153SOL    HW272931   7.914   2.835   4.381
18153SOL    HW372932   7.900   2.694   4.435
18153SOL    MW472933   7.869   2.776   4.426
18154SOL     OW72934   8.996   2.131   4.270
18154SOL    HW272935   8.918   2.081   4.295
18154SOL    HW372936   8.967   2.222   4.270
18154SOL    MW472937   8.982   2.135   4.273
18155SOL     OW72938   8.582   2.093   4.429
18155SOL    HW272939   8.602   2.168   4.373
18155SOL    HW372940   8.562   2.132   4.514
18155SOL    MW472941   8.583   2.109   4.433
18156SOL     OW72942   8.478   3.343   3.761
18156SOL    HW272943   8.505   3.421   3.713
18156SOL    HW372944   8.385   3.358   3.780
18156SOL    MW472945   8.469   3.356   3.757
18157SOL     OW72946   9.342   2.866   5.448
18157SOL    HW272947   9.255   2.846   5.484
18157SOL    HW372948   9.396   2.792   5.473
18157SOL    MW472949   9.337   2.855   5.456
18158SOL     OW72950   7.563   3.379   4.605
18158SOL    HW272951   7.595   3.383   4.696
18158SOL    HW372952   7.468   3.387   4.613
18158SOL    MW472953   7.555   3.382   4.618
18159SOL     OW72954   7.518   2.505   4.152
18159SOL    HW272955   7.458   2.477   4.222
18159SOL    HW372956   7.592   2.445   4.158
18159SOL    MW472957   7.520   2.494   4.161
18160SOL     OW72958   9.086   3.717   5.586
18160SOL    HW272959   9.131   3.641   5.551
18160SOL    HW372960   9.124   3.730   5.673
18160SOL    MW472961   9.096   3.710   5.592
18161SOL     OW72962   8.686   3.236   4.312
18161SOL    HW272963   8.709   3.187   4.390
18161SOL    HW372964   8.767   3.278   4.284
18161SOL    MW472965   8.699   3.236   4.319
18162SOL     OW72966   7.944   2.244   5.041
18162SOL    HW272967   7.977   2.325   5.081
18162SOL    HW372968   7.917   2.270   4.953
18162SOL    MW472969   7.943   2.258   5.035
18163SOL     OW72970   7.898   2.211   4.777
18163SOL    HW272971   7.928   2.125   4.748
18163SOL    HW372972   7.803   2.204   4.780
18163SOL    MW472973   7.890   2.200   4.775
18164SOL     OW72974   8.727   2.420   5.468
18164SOL    HW272975   8.779   2.355   5.421
18164SOL    HW372976   8.685   2.471   5.398
18164SOL    MW472977   8.728   2.417   5.451
18165SOL     OW72978   8.826   2.215   5.329
18165SOL    HW272979   8.733   2.199   5.316
18165SOL    HW372980   8.852   2.153   5.397
18165SOL    MW472981   8.816   2.205   5.336
18166SOL     OW72982   8.041   1.989   4.668
18166SOL    HW272983   8.051   1.898   4.694
18166SOL    HW372984   7.997   1.985   4.583
18166SOL    MW472985   8.037   1.977   4.660
18167SOL     OW72986   8.135   3.604   5.214
18167SOL    HW272987   8.052   3.589   5.259
18167SOL    HW372988   8.194   3.537   5.249
18167SOL    MW472989   8.133   3.594   5.224
18168SOL     OW72990   9.192   2.311   4.839
18168SOL    HW272991   9.125   2.344   4.899
18168SOL    HW372992   9.235   2.389   4.805
18168SOL    MW472993   9.190   2.326   4.843
18169SOL     OW72994   9.370   3.031   4.809
18169SOL    HW272995   9.363   2.971   4.734
18169SOL    HW372996   9.296   3.091   4.798
18169SOL    MW472997   9.360   3.031   4.798
18170SOL     OW72998   8.752   2.893   4.727
18170SOL    HW272999   8.766   2.865   4.818
18170SOL    HW373000   8.838   2.924   4.699
18170SOL    MW473001   8.765   2.894   4.736
18171SOL     OW73002   8.835   2.388   5.006
18171SOL    HW273003   8.856   2.389   4.913
18171SOL    HW373004   8.880   2.310   5.039
18171SOL    MW473005   8.842   2.378   4.998
18172SOL     OW73006   9.328   2.519   5.548
18172SOL    HW273007   9.365   2.464   5.617
18172SOL    HW373008   9.353   2.476   5.466
18172SOL    MW473009   9.335   2.507   5.547
18173SOL     OW73010   8.875   2.817   5.600
18173SOL    HW273011   8.941   2.765   5.554
18173SOL    HW373012   8.895   2.804   5.693
18173SOL    MW473013   8.886   2.808   5.607
18174SOL     OW73014   8.826   1.903   3.948
18174SOL    HW273015   8.900   1.947   3.991
18174SOL    HW373016   8.750   1.957   3.970
18174SOL    MW473017   8.826   1.915   3.956
18175SOL     OW73018   8.886   2.678   4.226
18175SOL    HW273019   8.801   2.648   4.196
18175SOL    HW373020   8.878   2.685   4.321
18175SOL    MW473021   8.874   2.676   4.235
18176SOL     OW73022   7.962   3.141   4.957
18176SOL    HW273023   7.974   3.168   5.048
18176SOL    HW373024   7.943   3.222   4.910
18176SOL    MW473025   7.961   3.156   4.962
18177SOL     OW73026   8.246   2.121   4.780
18177SOL    HW273027   8.219   2.123   4.871
18177SOL    HW373028   8.176   2.073   4.735
18177SOL    MW473029   8.234   2.117   4.787
18178SOL     OW73030   8.100   3.613   4.942
18178SOL    HW273031   8.152   3.690   4.919
18178SOL    HW373032   8.109   3.605   5.037
18178SOL    MW473033   8.109   3.620   4.953
18179SOL     OW73034   9.002   3.198   5.174
18179SOL    HW273035   8.987   3.127   5.237
18179SOL    HW373036   9.048   3.156   5.102
18179SOL    MW473037   9.008   3.182   5.174
18180SOL     OW73038   8.076   2.929   5.291
18180SOL    HW273039   8.113   2.934   5.203
18180SOL    HW373040   8.115   3.002   5.338
18180SOL    MW473041   8.086   2.939   5.286
18181SOL     OW73042   8.256   2.972   5.103
18181SOL    HW273043   8.315   2.918   5.156
18181SOL    HW373044   8.271   2.944   5.013
18181SOL    MW473045   8.266   2.961   5.099
18182SOL     OW73046   8.259   2.344   3.952
18182SOL    HW273047   8.332   2.393   3.915
18182SOL    HW373048   8.275   2.253   3.926
18182SOL    MW473049   8.271   2.339   3.945
18183SOL     OW73050   9.067   3.461   5.275
18183SOL    HW273051   9.109   3.446   5.360
18183SOL    HW373052   9.058   3.374   5.237
18183SOL    MW473053   9.071   3.449   5.282
18184SOL     OW73054   8.727   1.940   4.866
18184SOL    HW273055   8.782   1.949   4.788
18184SOL    HW373056   8.782   1.974   4.937
18184SOL    MW473057   8.741   1.945   4.865
18185SOL     OW73058   7.734   2.853   4.050
18185SOL    HW273059   7.671   2.869   3.979
18185SOL    HW373060   7.681   2.816   4.121
18185SOL    MW473061   7.719   2.850   4.050
18186SOL     OW73062   8.090   3.207   3.909
18186SOL    HW273063   8.105   3.183   4.001
18186SOL    HW373064   7.998   3.185   3.893
18186SOL    MW473065   8.080   3.200   3.919
18187SOL     OW73066   8.629   3.438   4.061
18187SOL    HW273067   8.637   3.356   4.012
18187SOL    HW373068   8.548   3.477   4.028
18187SOL    MW473069   8.619   3.433   4.051
18188SOL     OW73070   7.888   3.596   4.630
18188SOL    HW273071   7.892   3.507   4.665
18188SOL    HW373072   7.914   3.587   4.539
18188SOL    MW473073   7.891   3.584   4.622
18189SOL     OW73074   8.505   3.074   4.873
18189SOL    HW273075   8.437   3.008   4.889
18189SOL    HW373076   8.523   3.068   4.780
18189SOL    MW473077   8.498   3.065   4.864
18190SOL     OW73078   7.594   3.349   5.124
18190SOL    HW273079   7.584   3.307   5.210
18190SOL    HW373080   7.515   3.402   5.114
18190SOL    MW473081   7.583   3.350   5.135
18191SOL     OW73082   8.498   2.213   4.694
18191SOL    HW273083   8.428   2.165   4.739
18191SOL    HW373084   8.530   2.276   4.758
18191SOL    MW473085   8.493   2.215   4.708
18192SOL     OW73086   8.149   2.649   5.314
18192SOL    HW273087   8.142   2.744   5.302
18192SOL    HW373088   8.158   2.638   5.409
18192SOL    MW473089   8.150   2.661   5.324
18193SOL     OW73090   7.870   3.164   5.572
18193SOL    HW273091   7.942   3.166   5.509
18193SOL    HW373092   7.840   3.073   5.571
18193SOL    MW473093   7.875   3.153   5.564
18194SOL     OW73094   8.954   1.927   5.039
18194SOL    HW273095   9.025   1.873   5.003
18194SOL    HW373096   8.953   1.906   5.132
18194SOL    MW473097   8.963   1.918   5.047
18195SOL     OW73098   9.154   3.457   5.523
18195SOL    HW273099   9.127   3.454   5.614
18195SOL    HW373100   9.250   3.461   5.526
18195SOL    MW473101   9.164   3.457   5.535
18196SOL     OW73102   7.965   2.319   4.507
18196SOL    HW273103   8.036   2.267   4.470
18196SOL    HW373104   7.951   2.284   4.594
18196SOL    MW473105   7.973   2.308   4.514
18197SOL     OW73106   7.520   3.654   5.579
18197SOL    HW273107   7.570   3.632   5.501
18197SOL    HW373108   7.528   3.749   5.587
18197SOL    MW473109   7.528   3.663   5.570
18198SOL     OW73110   8.281   3.412   4.583
18198SOL    HW273111   8.209   3.349   4.596
18198SOL    HW373112   8.242   3.497   4.601
18198SOL    MW473113   8.265   3.415   4.586
18199SOL     OW73114   8.601   2.260   4.231
18199SOL    HW273115   8.623   2.197   4.163
18199SOL    HW373116   8.506   2.252   4.242
18199SOL    MW473117   8.591   2.251   4.223
18200SOL     OW73118   7.686   1.950   4.163
18200SOL    HW273119   7.757   1.971   4.102
18200SOL    HW373120   7.640   1.878   4.121
18200SOL    MW473121   7.690   1.944   4.149
18201SOL     OW73122   7.517   2.417   5.306
18201SOL    HW273123   7.581   2.483   5.281
18201SOL    HW373124   7.436   2.444   5.263
18201SOL    MW473125   7.515   2.429   5.298
18202SOL     OW73126   9.255   3.324   4.263
18202SOL    HW273127   9.225   3.257   4.324
18202SOL    HW373128   9.349   3.330   4.277
18202SOL    MW473129   9.263   3.316   4.273
18203SOL     OW73130   8.811   3.001   4.193
18203SOL    HW273131   8.783   3.087   4.226
18203SOL    HW373132   8.839   3.017   4.103
18203SOL    MW473133   8.811   3.015   4.185
18204SOL     OW73134   8.473   1.921   4.246
18204SOL    HW273135   8.510   1.980   4.311
18204SOL    HW373136   8.450   1.977   4.172
18204SOL    MW473137   8.474   1.936   4.245
18205SOL     OW73138   9.326   2.803   4.668
18205SOL    HW273139   9.317   2.835   4.579
18205SOL    HW373140   9.279   2.719   4.668
18205SOL    MW473141   9.319   2.796   4.658
18206SOL     OW73142   7.702   2.643   5.247
18206SOL    HW273143   7.723   2.712   5.185
18206SOL    HW373144   7.782   2.590   5.252
18206SOL    MW473145   7.715   2.644   5.241
18207SOL     OW73146   9.238   2.734   4.369
18207SOL    HW273147   9.332   2.723   4.357
18207SOL    HW373148   9.214   2.806   4.310
18207SOL    MW473149   9.248   2.742   4.360
18208SOL     OW73150   7.687   2.658   5.514
18208SOL    HW273151   7.613   2.602   5.540
18208SOL    HW373152   7.682   2.661   5.419
18208SOL    MW473153   7.676   2.651   5.504
18209SOL     OW73154   7.853   1.945   4.964
18209SOL    HW273155   7.896   2.029   4.984
18209SOL    HW373156   7.926   1.883   4.957
18209SOL    MW473157   7.868   1.948   4.965
18210SOL     OW73158   7.894   2.612   4.142
18210SOL    HW273159   7.894   2.707   4.127
18210SOL    HW373160   7.971   2.596   4.196
18210SOL    MW473161   7.904   2.623   4.147
18211SOL     OW73162   8.670   2.471   5.206
18211SOL    HW273163   8.706   2.444   5.122
18211SOL    HW373164   8.583   2.505   5.185
18211SOL    MW473165   8.664   2.472   5.193
18212SOL     OW73166   7.653   2.343   4.431
18212SOL    HW273167   7.715   2.350   4.504
18212SOL    HW373168   7.653   2.250   4.408
18212SOL    MW473169   7.661   2.332   4.438
18213SOL     OW73170   9.200   3.683   3.963
18213SOL    HW273171   9.267   3.716   3.903
18213SOL    HW373172   9.157   3.762   3.997
18213SOL    MW473173   9.202   3.698   3.959
18214SOL     OW73174   8.335   2.604   4.915
18214SOL    HW273175   8.293   2.522   4.891
18214SOL    HW373176   8.336   2.603   5.011
18214SOL    MW473177   8.328   2.593   4.924
18215SOL     OW73178   9.006   3.737   5.314
18215SOL    HW273179   9.009   3.643   5.297
18215SOL    HW373180   9.029   3.745   5.406
18215SOL    MW473181   9.009   3.725   5.324
18216SOL     OW73182   8.139   2.074   5.020
18216SOL    HW273183   8.070   2.137   5.041
18216SOL    HW373184   8.166   2.038   5.105
18216SOL    MW473185   8.133   2.077   5.033
18217SOL     OW73186   7.522   2.915   3.889
18217SOL    HW273187   7.491   2.980   3.952
18217SOL    HW373188   7.471   2.837   3.908
18217SOL    MW473189   7.512   2.912   3.899
18218SOL     OW73190   8.934   1.927   4.637
18218SOL    HW273191   9.022   1.936   4.674
18218SOL    HW373192   8.944   1.868   4.563
18218SOL    MW473193   8.948   1.921   4.631
18219SOL     OW73194   8.966   2.666   4.481
18219SOL    HW273195   9.046   2.681   4.430
18219SOL    HW373196   8.959   2.571   4.487
18219SOL    MW473197   8.975   2.655   4.476
18220SOL     OW73198   8.106   3.715   3.831
18220SOL    HW273199   8.011   3.715   3.823
18220SOL    HW373200   8.122   3.661   3.909
18220SOL    MW473201   8.096   3.709   3.840
18221SOL     OW73202   8.416   2.592   5.178
18221SOL    HW273203   8.485   2.659   5.175
18221SOL    HW373204   8.349   2.630   5.234
18221SOL    MW473205   8.417   2.605   5.185
18222SOL     OW73206   7.834   2.892   5.426
18222SOL    HW273207   7.788   2.808   5.428
18222SOL    HW373208   7.891   2.886   5.350
18222SOL    MW473209   7.836   2.880   5.418
18223SOL     OW73210   8.951   2.535   3.747
18223SOL    HW273211   8.879   2.511   3.689
18223SOL    HW373212   9.017   2.572   3.689
18223SOL    MW473213   8.950   2.537   3.732
18224SOL     OW73214   8.085   3.267   4.427
18224SOL    HW273215   8.150   3.200   4.448
18224SOL    HW373216   8.137   3.344   4.404
18224SOL    MW473217   8.100   3.269   4.426
18225SOL     OW73218   8.346   2.432   4.557
18225SOL    HW273219   8.286   2.450   4.629
18225SOL    HW373220   8.380   2.344   4.576
18225SOL    MW473221   8.342   2.422   4.570
18226SOL     OW73222   9.287   1.931   5.226
18226SOL    HW273223   9.208   1.977   5.254
18226SOL    HW373224   9.322   1.985   5.155
18226SOL    MW473225   9.281   1.944   5.220
18227SOL     OW73226   8.571   3.015   4.576
18227SOL    HW273227   8.663   2.996   4.594
18227SOL    HW373228   8.544   2.945   4.516
18227SOL    MW473229   8.579   3.003   4.570
18228SOL     OW73230   8.364   2.835   3.931
18228SOL    HW273231   8.350   2.747   3.896
18228SOL    HW373232   8.315   2.892   3.872
18228SOL    MW473233   8.356   2.830   3.919
18229SOL     OW73234   8.845   3.253   4.672
18229SOL    HW273235   8.818   3.337   4.637
18229SOL    HW373236   8.805   3.248   4.759
18229SOL    MW473237   8.838   3.262   4.678
18230SOL     OW73238   8.764   3.201   4.940
18230SOL    HW273239   8.775   3.168   5.029
18230SOL    HW373240   8.683   3.160   4.909
18230SOL    MW473241   8.754   3.193   4.946
18231SOL     OW73242   7.777   2.559   4.710
18231SOL    HW273243   7.727   2.558   4.791
18231SOL    HW373244   7.797   2.651   4.694
18231SOL    MW473245   7.773   2.571   4.718
18232SOL     OW73246   8.844   3.323   5.472
18232SOL    HW273247   8.844   3.417   5.488
18232SOL    HW373248   8.889   3.313   5.388
18232SOL    MW473249   8.850   3.333   5.463
18233SOL     OW73250   9.083   2.041   4.033
18233SOL    HW273251   9.076   2.045   4.128
18233SOL    HW373252   9.095   2.132   4.006
18233SOL    MW473253   9.084   2.054   4.041
18234SOL     OW73254   8.372   2.604   4.147
18234SOL    HW273255   8.352   2.590   4.054
18234SOL    HW373256   8.465   2.583   4.154
18234SOL    MW473257   8.382   2.599   4.136
18235SOL     OW73258   7.699   2.227   5.451
18235SOL    HW273259   7.656   2.286   5.388
18235SOL    HW373260   7.767   2.282   5.491
18235SOL    MW473261   7.703   2.242   5.448
18236SOL     OW73262   8.811   2.847   4.996
18236SOL    HW273263   8.874   2.844   5.069
18236SOL    HW373264   8.727   2.865   5.038
18236SOL    MW473265   8.807   2.849   5.011
18237SOL     OW73266   8.355   3.562   4.185
18237SOL    HW273267   8.413   3.633   4.212
18237SOL    HW373268   8.378   3.490   4.243
18237SOL    MW473269   8.366   3.562   4.196
18238SOL     OW73270   9.150   2.024   4.775
18238SOL    HW273271   9.195   1.942   4.794
18238SOL    HW373272   9.170   2.080   4.851
18238SOL    MW473273   9.160   2.020   4.787
18239SOL     OW73274   7.598   1.867   4.874
18239SOL    HW273275   7.589   1.868   4.779
18239SOL    HW373276   7.692   1.879   4.889
18239SOL    MW473277   7.610   1.870   4.865
18240SOL     OW73278   9.235   3.060   4.494
18240SOL    HW273279   9.214   3.006   4.417
18240SOL    HW373280   9.331   3.058   4.498
18240SOL    MW473281   9.244   3.053   4.483
18241SOL     OW73282   7.927   3.205   5.237
18241SOL    HW273283   7.848   3.155   5.260
18241SOL    HW373284   7.997   3.164   5.287
18241SOL    MW473285   7.925   3.193   5.247
18242SOL     OW73286   7.811   1.994   3.920
18242SOL    HW273287   7.740   2.049   3.888
18242SOL    HW373288   7.853   1.960   3.841
18242SOL    MW473289   7.807   1.996   3.906
18243SOL     OW73290   8.935   2.491   4.756
18243SOL    HW273291   8.858   2.537   4.722
18243SOL    HW373292   8.992   2.560   4.790
18243SOL    MW473293   8.932   2.506   4.756
18244SOL     OW73294   7.567   2.093   3.769
18244SOL    HW273295   7.534   2.172   3.813
18244SOL    HW373296   7.622   2.126   3.698
18244SOL    MW473297   7.570   2.107   3.766
18245SOL     OW73298   7.601   3.350   3.958
18245SOL    HW273299   7.618   3.434   4.000
18245SOL    HW373300   7.636   3.359   3.870
18245SOL    MW473301   7.606   3.363   3.952
18246SOL     OW73302   8.873   3.439   4.175
18246SOL    HW273303   8.936   3.429   4.104
18246SOL    HW373304   8.790   3.459   4.130
18246SOL    MW473305   8.870   3.440   4.160
18247SOL     OW73306   9.236   2.707   5.862
18247SOL    HW273307   9.277   2.649   5.927
18247SOL    HW373308   9.143   2.699   5.879
18247SOL    MW473309   9.230   2.699   5.872
18248SOL     OW73310   9.102   2.639   6.857
18248SOL    HW273311   9.057   2.706   6.908
18248SOL    HW373312   9.190   2.675   6.843
18248SOL    MW473313   9.108   2.652   6.861
18249SOL     OW73314   8.030   2.890   6.091
18249SOL    HW273315   8.120   2.865   6.075
18249SOL    HW373316   8.026   2.983   6.068
18249SOL    MW473317   8.042   2.899   6.086
18250SOL     OW73318   9.146   3.593   6.233
18250SOL    HW273319   9.158   3.539   6.311
18250SOL    HW373320   9.183   3.541   6.162
18250SOL    MW473321   9.152   3.578   6.234
18251SOL     OW73322   8.525   3.478   7.234
18251SOL    HW273323   8.566   3.514   7.155
18251SOL    HW373324   8.560   3.389   7.241
18251SOL    MW473325   8.536   3.471   7.225
18252SOL     OW73326   8.314   2.346   6.104
18252SOL    HW273327   8.289   2.434   6.132
18252SOL    HW373328   8.311   2.349   6.008
18252SOL    MW473329   8.310   2.358   6.096
18253SOL     OW73330   7.756   2.374   6.032
18253SOL    HW273331   7.788   2.462   6.014
18253SOL    HW373332   7.744   2.372   6.127
18253SOL    MW473333   7.759   2.386   6.044
18254SOL     OW73334   7.834   2.787   6.933
18254SOL    HW273335   7.897   2.734   6.884
18254SOL    HW373336   7.815   2.861   6.876
18254SOL    MW473337   7.840   2.789   6.920
18255SOL     OW73338   8.155   2.129   6.119
18255SOL    HW273339   8.213   2.205   6.121
18255SOL    HW373340   8.090   2.150   6.052
18255SOL    MW473341   8.154   2.141   6.110
18256SOL     OW73342   8.242   3.056   6.294
18256SOL    HW273343   8.322   3.059   6.346
18256SOL    HW373344   8.270   3.023   6.208
18256SOL    MW473345   8.256   3.052   6.289
18257SOL     OW73346   8.267   3.397   7.197
18257SOL    HW273347   8.351   3.423   7.236
18257SOL    HW373348   8.291   3.341   7.123
18257SOL    MW473349   8.281   3.393   7.192
18258SOL     OW73350   8.019   2.560   6.285
18258SOL    HW273351   8.004   2.480   6.336
18258SOL    HW373352   8.101   2.595   6.319
18258SOL    MW473353   8.027   2.552   6.297
18259SOL     OW73354   8.356   3.246   6.970
18259SOL    HW273355   8.320   3.312   6.910
18259SOL    HW373356   8.284   3.184   6.983
18259SOL    MW473357   8.342   3.246   6.964
18260SOL     OW73358   8.161   2.386   6.662
18260SOL    HW273359   8.067   2.382   6.680
18260SOL    HW373360   8.191   2.295   6.671
18260SOL    MW473361   8.152   2.374   6.665
18261SOL     OW73362   7.907   2.800   6.566
18261SOL    HW273363   7.862   2.807   6.482
18261SOL    HW373364   7.887   2.883   6.610
18261SOL    MW473365   7.899   2.812   6.560
18262SOL     OW73366   7.604   3.646   6.441
18262SOL    HW273367   7.693   3.638   6.476
18262SOL    HW373368   7.568   3.558   6.446
18262SOL    MW473369   7.611   3.633   6.446
18263SOL     OW73370   8.869   3.038   5.810
18263SOL    HW273371   8.787   3.074   5.776
18263SOL    HW373372   8.937   3.081   5.759
18263SOL    MW473373   8.867   3.048   5.798
18264SOL     OW73374   7.868   3.173   6.476
18264SOL    HW273375   7.844   3.226   6.552
18264SOL    HW373376   7.924   3.231   6.424
18264SOL    MW473377   7.872   3.188   6.479
18265SOL     OW73378   8.430   2.817   6.286
18265SOL    HW273379   8.344   2.804   6.326
18265SOL    HW373380   8.483   2.744   6.318
18265SOL    MW473381   8.426   2.806   6.295
18266SOL     OW73382   7.838   3.469   7.071
18266SOL    HW273383   7.746   3.445   7.056
18266SOL    HW373384   7.882   3.386   7.088
18266SOL    MW473385   7.832   3.454   7.070
18267SOL     OW73386   8.421   3.179   6.003
18267SOL    HW273387   8.398   3.241   6.071
18267SOL    HW373388   8.378   3.097   6.029
18267SOL    MW473389   8.413   3.175   6.014
18268SOL     OW73390   9.294   2.180   6.459
18268SOL    HW273391   9.231   2.160   6.528
18268SOL    HW373392   9.284   2.109   6.396
18268SOL    MW473393   9.284   2.167   6.460
18269SOL     OW73394   7.918   2.152   5.971
18269SOL    HW273395   7.892   2.114   5.887
18269SOL    HW373396   7.855   2.222   5.987
18269SOL    MW473397   7.907   2.155   5.962
18270SOL     OW73398   7.753   3.113   6.008
18270SOL    HW273399   7.701   3.181   5.964
18270SOL    HW373400   7.750   3.039   5.948
18270SOL    MW473401   7.745   3.112   5.995
18271SOL     OW73402   8.415   3.576   5.786
18271SOL    HW273403   8.370   3.592   5.869
18271SOL    HW373404   8.346   3.541   5.728
18271SOL    MW473405   8.401   3.573   5.788
18272SOL     OW73406   9.350   2.349   5.761
18272SOL    HW273407   9.259   2.351   5.789
18272SOL    HW373408   9.395   2.411   5.819
18272SOL    MW473409   9.343   2.357   5.771
18273SOL     OW73410   9.095   2.952   6.111
18273SOL    HW273411   9.005   2.952   6.146
18273SOL    HW373412   9.088   2.998   6.028
18273SOL    MW473413   9.082   2.958   6.105
18274SOL     OW73414   8.895   2.587   7.183
18274SOL    HW273415   8.964   2.525   7.160
18274SOL    HW373416   8.820   2.561   7.130
18274SOL    MW473417   8.895   2.574   7.174
18275SOL     OW73418   7.636   3.467   6.735
18275SOL    HW273419   7.619   3.413   6.812
18275SOL    HW373420   7.624   3.557   6.765
18275SOL    MW473421   7.633   3.471   6.749
18276SOL     OW73422   8.631   2.974   7.175
18276SOL    HW273423   8.616   3.067   7.160
18276SOL    HW373424   8.726   2.964   7.175
18276SOL    MW473425   8.640   2.984   7.172
18277SOL     OW73426   8.427   2.398   7.376
18277SOL    HW273427   8.517   2.399   7.343
18277SOL    HW373428   8.386   2.323   7.334
18277SOL    MW473429   8.433   2.388   7.367
18278SOL     OW73430   9.002   2.930   6.503
18278SOL    HW273431   9.005   2.864   6.434
18278SOL    HW373432   9.087   2.973   6.499
18278SOL    MW473433   9.014   2.926   6.494
18279SOL     OW73434   8.622   2.533   6.072
18279SOL    HW273435   8.648   2.557   5.983
18279SOL    HW373436   8.604   2.440   6.068
18279SOL    MW473437   8.624   2.525   6.059
18280SOL     OW73438   9.287   3.153   5.923
18280SOL    HW273439   9.243   3.194   5.998
18280SOL    HW373440   9.344   3.221   5.888
18280SOL    MW473441   9.289   3.167   5.928
18281SOL     OW73442   8.207   2.202   7.326
18281SOL    HW273443   8.217   2.128   7.266
18281SOL    HW373444   8.243   2.171   7.409
18281SOL    MW473445   8.213   2.188   7.328
18282SOL     OW73446   7.943   3.569   6.241
18282SOL    HW273447   7.975   3.657   6.219
18282SOL    HW373448   7.896   3.541   6.163
18282SOL    MW473449   7.942   3.577   6.228
18283SOL     OW73450   9.327   1.931   6.290
18283SOL    HW273451   9.381   1.882   6.352
18283SOL    HW373452   9.270   1.865   6.251
18283SOL    MW473453   9.327   1.915   6.292
18284SOL     OW73454   7.659   3.629   5.818
18284SOL    HW273455   7.688   3.719   5.810
18284SOL    HW373456   7.609   3.612   5.739
18284SOL    MW473457   7.657   3.637   5.807
18285SOL     OW73458   8.446   1.884   6.703
18285SOL    HW273459   8.405   1.962   6.665
18285SOL    HW373460   8.540   1.902   6.698
18285SOL    MW473461   8.452   1.896   6.698
18286SOL     OW73462   9.063   3.437   5.789
18286SOL    HW273463   9.111   3.506   5.835
18286SOL    HW373464   8.984   3.481   5.758
18286SOL    MW473465   9.058   3.451   5.792
18287SOL     OW73466   8.461   2.562   5.733
18287SOL    HW273467   8.463   2.509   5.654
18287SOL    HW373468   8.549   2.599   5.739
18287SOL    MW473469   8.473   2.561   5.722
18288SOL     OW73470   9.075   2.488   6.069
18288SOL    HW273471   9.114   2.488   6.156
18288SOL    HW373472   9.016   2.564   6.069
18288SOL    MW473473   9.072   2.499   6.080
18289SOL     OW73474   8.392   2.855   7.198
18289SOL    HW273475   8.369   2.835   7.288
18289SOL    HW373476   8.477   2.899   7.203
18289SOL    MW473477   8.399   2.858   7.210
18290SOL     OW73478   8.472   1.992   6.958
18290SOL    HW273479   8.478   1.954   6.871
18290SOL    HW373480   8.461   2.086   6.943
18290SOL    MW473481   8.473   2.000   6.946
18291SOL     OW73482   8.561   2.481   6.792
18291SOL    HW273483   8.636   2.510   6.739
18291SOL    HW373484   8.493   2.546   6.776
18291SOL    MW473485   8.562   2.493   6.782
18292SOL     OW73486   9.111   2.449   7.069
18292SOL    HW273487   9.092   2.358   7.048
18292SOL    HW373488   9.089   2.498   6.990
18292SOL    MW473489   9.106   2.442   7.056
18293SOL     OW73490   9.253   3.543   6.973
18293SOL    HW273491   9.181   3.505   7.024
18293SOL    HW373492   9.270   3.628   7.014
18293SOL    MW473493   9.247   3.548   6.985
18294SOL     OW73494   8.558   2.187   7.175
18294SOL    HW273495   8.524   2.226   7.094
18294SOL    HW373496   8.536   2.095   7.168
18294SOL    MW473497   8.551   2.180   7.165
18295SOL     OW73498   8.967   3.001   7.251
18295SOL    HW273499   9.049   3.042   7.281
18295SOL    HW373500   8.930   2.963   7.331
18295SOL    MW473501   8.973   3.002   7.266
18296SOL     OW73502   9.262   2.374   6.235
18296SOL    HW273503   9.351   2.343   6.252
18296SOL    HW373504   9.205   2.314   6.283
18296SOL    MW473505   9.265   2.362   6.244
18297SOL     OW73506   7.688   2.088   6.264
18297SOL    HW273507   7.679   2.028   6.190
18297SOL    HW373508   7.621   2.059   6.327
18297SOL    MW473509   7.678   2.075   6.262
18298SOL     OW73510   8.631   3.181   5.825
18298SOL    HW273511   8.581   3.183   5.907
18298SOL    HW373512   8.565   3.199   5.757
18298SOL    MW473513   8.617   3.183   5.827
18299SOL     OW73514   7.635   2.261   6.627
18299SOL    HW273515   7.607   2.352   6.636
18299SOL    HW373516   7.572   2.222   6.566
18299SOL    MW473517   7.622   2.267   6.621
18300SOL     OW73518   8.094   3.599   5.933
18300SOL    HW273519   8.015   3.557   5.966
18300SOL    HW373520   8.160   3.582   6.000
18300SOL    MW473521   8.093   3.591   5.946
18301SOL     OW73522   9.222   3.119   7.330
18301SOL    HW273523   9.272   3.045   7.362
18301SOL    HW373524   9.168   3.146   7.405
18301SOL    MW473525   9.222   3.113   7.343
18302SOL     OW73526   8.230   3.014   5.640
18302SOL    HW273527   8.152   2.960   5.627
18302SOL    HW373528   8.201   3.087   5.693
18302SOL    MW473529   8.216   3.016   5.645
18303SOL     OW73530   9.356   2.754   6.832
18303SOL    HW273531   9.372   2.792   6.745
18303SOL    HW373532   9.390   2.820   6.893
18303SOL    MW473533   9.363   2.767   6.828
18304SOL     OW73534   9.148   3.463   6.501
18304SOL    HW273535   9.177   3.530   6.562
18304SOL    HW373536   9.129   3.387   6.556
18304SOL    MW473537   9.150   3.463   6.516
18305SOL     OW73538   8.811   3.530   5.708
18305SOL    HW273539   8.737   3.493   5.758
18305SOL    HW373540   8.819   3.620   5.741
18305SOL    MW473541   8.802   3.537   5.720
18306SOL     OW73542   7.619   2.536   6.797
18306SOL    HW273543   7.681   2.566   6.863
18306SOL    HW373544   7.553   2.605   6.791
18306SOL    MW473545   7.618   2.549   6.804
18307SOL     OW73546   9.035   3.204   5.650
18307SOL    HW273547   8.982   3.253   5.586
18307SOL    HW373548   9.066   3.270   5.711
18307SOL    MW473549   9.033   3.218   5.648
18308SOL     OW73550   8.260   2.093   5.705
18308SOL    HW273551   8.208   2.013   5.693
18308SOL    HW373552   8.347   2.070   5.673
18308SOL    MW473553   8.263   2.079   5.699
18309SOL     OW73554   7.714   3.645   7.249
18309SOL    HW273555   7.688   3.713   7.187
18309SOL    HW373556   7.762   3.582   7.197
18309SOL    MW473557   7.716   3.645   7.235
18310SOL     OW73558   7.766   2.964   6.756
18310SOL    HW273559   7.819   3.039   6.781
18310SOL    HW373560   7.685   3.002   6.722
18310SOL    MW473561   7.762   2.979   6.756
18311SOL     OW73562   8.306   2.868   6.744
18311SOL    HW273563   8.334   2.777   6.756
18311SOL    HW373564   8.235   2.862   6.680
18311SOL    MW473565   8.299   2.856   6.739
18312SOL     OW73566   7.621   2.733   6.162
18312SOL    HW273567   7.712   2.748   6.189
18312SOL    HW373568   7.624   2.654   6.108
18312SOL    MW473569   7.633   2.725   6.160
18313SOL     OW73570   7.857   2.441   7.416
18313SOL    HW273571   7.804   2.521   7.423
18313SOL    HW373572   7.927   2.453   7.481
18313SOL    MW473573   7.859   2.454   7.424
18314SOL     OW73574   8.243   1.991   7.123
18314SOL    HW273575   8.220   1.899   7.125
18314SOL    HW373576   8.329   1.993   7.080
18314SOL    MW473577   8.250   1.981   7.119
18315SOL     OW73578   7.927   2.515   7.162
18315SOL    HW273579   8.007   2.565   7.148
18315SOL    HW373580   7.918   2.509   7.257
18315SOL    MW473581   7.936   2.521   7.172
18316SOL     OW73582   8.248   3.665   6.536
18316SOL    HW273583   8.337   3.680   6.566
18316SOL    HW373584   8.243   3.712   6.452
18316SOL    MW473585   8.258   3.673   6.529
18317SOL     OW73586   8.904   2.040   7.433
18317SOL    HW273587   8.960   1.967   7.459
18317SOL    HW373588   8.874   2.078   7.515
18317SOL    MW473589   8.908   2.035   7.446
18318SOL     OW73590   7.629   3.345   6.201
18318SOL    HW273591   7.601   3.384   6.283
18318SOL    HW373592   7.649   3.254   6.223
18318SOL    MW473593   7.627   3.337   6.214
18319SOL     OW73594   8.462   3.388   6.236
18319SOL    HW273595   8.545   3.342   6.220
18319SOL    HW373596   8.452   3.387   6.332
18319SOL    MW473597   8.472   3.381   6.246
18320SOL     OW73598   9.294   2.533   6.550
18320SOL    HW273599   9.383   2.563   6.532
18320SOL    HW373600   9.274   2.473   6.479
18320SOL    MW473601   9.303   2.530   6.539
18321SOL     OW73602   9.145   2.712   7.430
18321SOL    HW273603   9.200   2.636   7.411
18321SOL    HW373604   9.147   2.720   7.525
18321SOL    MW473605   9.153   2.703   7.438
18322SOL     OW73606   8.195   3.445   5.641
18322SOL    HW273607   8.135   3.514   5.611
18322SOL    HW373608   8.140   3.387   5.694
18322SOL    MW473609   8.179   3.447   5.643
18323SOL     OW73610   8.633   2.090   5.864
18323SOL    HW273611   8.566   2.066   5.801
18323SOL    HW373612   8.698   2.139   5.813
18323SOL    MW473613   8.633   2.092   5.849
18324SOL     OW73614   8.440   2.274   6.949
18324SOL    HW273615   8.359   2.315   6.977
18324SOL    HW373616   8.487   2.342   6.901
18324SOL    MW473617   8.435   2.289   6.947
18325SOL     OW73618   8.700   2.612   6.572
18325SOL    HW273619   8.713   2.706   6.582
18325SOL    HW373620   8.661   2.602   6.486
18325SOL    MW473621   8.696   2.623   6.562
18326SOL     OW73622   8.152   2.807   6.376
18326SOL    HW273623   8.063   2.798   6.409
18326SOL    HW373624   8.156   2.897   6.344
18326SOL    MW473625   8.141   2.818   6.376
18327SOL     OW73626   8.951   2.390   6.371
18327SOL    HW273627   8.896   2.311   6.370
18327SOL    HW373628   8.933   2.431   6.455
18327SOL    MW473629   8.941   2.385   6.380
18328SOL     OW73630   7.922   2.077   7.188
18328SOL    HW273631   7.843   2.095   7.240
18328SOL    HW373632   7.917   2.139   7.115
18328SOL    MW473633   7.912   2.087   7.185
18329SOL     OW73634   8.570   2.594   6.328
18329SOL    HW273635   8.507   2.526   6.352
18329SOL    HW373636   8.590   2.575   6.236
18329SOL    MW473637   8.564   2.581   6.320
18330SOL     OW73638   7.826   3.489   6.030
18330SOL    HW273639   7.787   3.536   5.956
18330SOL    HW373640   7.760   3.424   6.055
18330SOL    MW473641   7.813   3.487   6.024
18331SOL     OW73642   8.318   2.898   6.054
18331SOL    HW273643   8.320   2.872   5.961
18331SOL    HW373644   8.376   2.835   6.097
18331SOL    MW473645   8.326   2.887   6.048
18332SOL     OW73646   8.871   3.458   6.826
18332SOL    HW273647   8.796   3.504   6.864
18332SOL    HW373648   8.853   3.365   6.843
18332SOL    MW473649   8.860   3.452   6.834
18333SOL     OW73650   8.875   3.666   6.256
18333SOL    HW273651   8.818   3.619   6.195
18333SOL    HW373652   8.961   3.627   6.243
18333SOL    MW473653   8.878   3.657   6.246
18334SOL     OW73654   8.828   2.142   6.387
18334SOL    HW273655   8.856   2.074   6.448
18334SOL    HW373656   8.742   2.113   6.357
18334SOL    MW473657   8.821   2.129   6.391
18335SOL     OW73658   7.633   3.076   6.321
18335SOL    HW273659   7.697   3.108   6.384
18335SOL    HW373660   7.682   3.012   6.269
18335SOL    MW473661   7.648   3.072   6.322
18336SOL     OW73662   8.133   3.152   7.303
18336SOL    HW273663   8.181   3.235   7.290
18336SOL    HW373664   8.190   3.100   7.359
18336SOL    MW473665   8.147   3.156   7.309
18337SOL     OW73666   7.709   3.394   7.443
18337SOL    HW273667   7.765   3.318   7.458
18337SOL    HW373668   7.658   3.372   7.365
18337SOL    MW473669   7.709   3.381   7.434
18338SOL     OW73670   8.808   2.246   5.722
18338SOL    HW273671   8.781   2.312   5.658
18338SOL    HW373672   8.878   2.289   5.772
18338SOL    MW473673   8.813   2.259   5.719
18339SOL     OW73674   8.476   1.951   5.659
18339SOL    HW273675   8.532   1.943   5.581
18339SOL    HW373676   8.453   1.861   5.681
18339SOL    MW473677   8.481   1.938   5.652
18340SOL     OW73678   8.981   2.802   5.864
18340SOL    HW273679   8.948   2.891   5.854
18340SOL    HW373680   8.946   2.773   5.949
18340SOL    MW473681   8.971   2.811   5.875
18341SOL     OW73682   8.594   3.231   7.052
18341SOL    HW273683   8.505   3.237   7.020
18341SOL    HW373684   8.638   3.310   7.020
18341SOL    MW473685   8.589   3.241   7.044
18342SOL     OW73686   7.887   1.899   7.394
18342SOL    HW273687   7.815   1.864   7.342
18342SOL    HW373688   7.945   1.940   7.329
18342SOL    MW473689   7.885   1.900   7.379
18343SOL     OW73690   7.911   3.389   6.693
18343SOL    HW273691   7.956   3.451   6.750
18343SOL    HW373692   7.818   3.408   6.706
18343SOL    MW473693   7.904   3.399   6.700
18344SOL     OW73694   9.351   2.918   7.047
18344SOL    HW273695   9.266   2.931   7.006
18344SOL    HW373696   9.331   2.882   7.134
18344SOL    MW473697   9.338   2.914   7.052
18345SOL     OW73698   8.333   3.457   6.801
18345SOL    HW273699   8.357   3.446   6.710
18345SOL    HW373700   8.256   3.514   6.799
18345SOL    MW473701   8.325   3.462   6.790
18346SOL     OW73702   7.975   2.840   5.656
18346SOL    HW273703   7.898   2.853   5.712
18346SOL    HW373704   7.939   2.804   5.575
18346SOL    MW473705   7.961   2.836   5.653
18347SOL     OW73706   8.628   2.813   5.899
18347SOL    HW273707   8.538   2.834   5.874
18347SOL    HW373708   8.655   2.886   5.955
18347SOL    MW473709   8.620   2.825   5.902
18348SOL     OW73710   8.128   3.162   6.591
18348SOL    HW273711   8.121   3.141   6.685
18348SOL    HW373712   8.046   3.130   6.554
18348SOL    MW473713   8.116   3.156   6.598
18349SOL     OW73714   8.992   2.172   6.993
18349SOL    HW273715   8.939   2.174   7.073
18349SOL    HW373716   8.977   2.085   6.956
18349SOL    MW473717   8.984   2.162   6.998
18350SOL     OW73718   9.328   2.096   6.866
18350SOL    HW273719   9.309   2.163   6.801
18350SOL    HW373720   9.385   2.034   6.821
18350SOL    MW473721   9.332   2.097   6.852
18351SOL     OW73722   7.574   3.254   7.254
18351SOL    HW273723   7.618   3.187   7.200
18351SOL    HW373724   7.489   3.216   7.274
18351SOL    MW473725   7.569   3.240   7.250
18352SOL     OW73726   8.257   1.929   6.306
18352SOL    HW273727   8.186   1.990   6.288
18352SOL    HW373728   8.308   1.926   6.225
18352SOL    MW473729   8.253   1.935   6.293
18353SOL     OW73730   8.015   3.169   6.055
18353SOL    HW273731   8.008   3.201   6.145
18353SOL    HW373732   7.925   3.153   6.027
18353SOL    MW473733   8.003   3.171   6.062
18354SOL     OW73734   8.610   3.562   6.964
18354SOL    HW273735   8.530   3.547   6.914
18354SOL    HW373736   8.617   3.657   6.971
18354SOL    MW473737   8.601   3.573   6.958
18355SOL     OW73738   8.724   3.527   6.454
18355SOL    HW273739   8.771   3.600   6.413
18355SOL    HW373740   8.645   3.566   6.490
18355SOL    MW473741   8.719   3.542   6.453
18356SOL     OW73742   9.132   3.622   6.729
18356SOL    HW273743   9.175   3.592   6.809
18356SOL    HW373744   9.051   3.570   6.726
18356SOL    MW473745   9.127   3.611   6.739
18357SOL     OW73746   8.217   2.586   7.436
18357SOL    HW273747   8.287   2.528   7.408
18357SOL    HW373748   8.160   2.531   7.491
18357SOL    MW473749   8.219   2.573   7.440
18358SOL     OW73750   9.004   2.798   7.069
18358SOL    HW273751   9.009   2.851   7.149
18358SOL    HW373752   8.966   2.715   7.097
18358SOL    MW473753   9.000   2.793   7.084
18359SOL     OW73754   8.644   1.933   7.315
18359SOL    HW273755   8.639   1.840   7.296
18359SOL    HW373756   8.727   1.944   7.361
18359SOL    MW473757   8.652   1.922   7.319
18360SOL     OW73758   8.018   2.453   5.769
18360SOL    HW273759   7.984   2.509   5.839
18360SOL    HW373760   8.089   2.403   5.809
18360SOL    MW473761   8.024   2.454   5.783
18361SOL     OW73762   9.114   3.204   6.591
18361SOL    HW273763   9.149   3.186   6.504
18361SOL    HW373764   9.019   3.205   6.578
18361SOL    MW473765   9.106   3.201   6.578
18362SOL     OW73766   8.543   2.852   6.960
18362SOL    HW273767   8.586   2.887   7.038
18362SOL    HW373768   8.526   2.929   6.906
18362SOL    MW473769   8.546   2.867   6.963
18363SOL     OW73770   9.074   2.339   5.833
18363SOL    HW273771   9.066   2.410   5.770
18363SOL    HW373772   9.092   2.383   5.916
18363SOL    MW473773   9.075   2.353   5.835
18364SOL     OW73774   7.934   1.994   6.262
18364SOL    HW273775   7.984   2.037   6.193
18364SOL    HW373776   7.849   2.038   6.262
18364SOL    MW473777   7.931   2.007   6.253
18365SOL     OW73778   7.693   3.056   7.122
18365SOL    HW273779   7.721   3.009   7.200
18365SOL    HW373780   7.614   3.011   7.093
18365SOL    MW473781   7.686   3.045   7.128
18366SOL     OW73782   8.201   2.383   7.089
18366SOL    HW273783   8.173   2.471   7.113
18366SOL    HW373784   8.170   2.327   7.160
18366SOL    MW473785   8.193   2.386   7.101
18367SOL     OW73786   8.743   2.601   5.808
18367SOL    HW273787   8.790   2.619   5.727
18367SOL    HW373788   8.709   2.685   5.836
18367SOL    MW473789   8.745   2.615   5.801
18368SOL     OW73790   7.856   2.779   6.302
18368SOL    HW273791   7.914   2.835   6.250
18368SOL    HW373792   7.900   2.694   6.304
18368SOL    MW473793   7.869   2.776   6.295
18369SOL     OW73794   8.996   2.131   6.139
18369SOL    HW273795   8.918   2.081   6.164
18369SOL    HW373796   8.967   2.222   6.139
18369SOL    MW473797   8.982   2.135   6.142
18370SOL     OW73798   8.582   2.093   6.298
18370SOL    HW273799   8.602   2.168   6.242
18370SOL    HW373800   8.562   2.132   6.383
18370SOL    MW473801   8.583   2.109   6.302
18371SOL     OW73802   8.478   3.343   5.630
18371SOL    HW273803   8.505   3.421   5.582
18371SOL    HW373804   8.385   3.358   5.649
18371SOL    MW473805   8.469   3.356   5.626
18372SOL     OW73806   9.342   2.866   7.317
18372SOL    HW273807   9.255   2.846   7.353
18372SOL    HW373808   9.396   2.792   7.342
18372SOL    MW473809   9.337   2.855   7.325
18373SOL     OW73810   7.563   3.379   6.474
18373SOL    HW273811   7.595   3.383   6.565
18373SOL    HW373812   7.468   3.387   6.482
18373SOL    MW473813   7.555   3.382   6.487
18374SOL     OW73814   7.518   2.505   6.021
18374SOL    HW273815   7.458   2.477   6.091
18374SOL    HW373816   7.592   2.445   6.027
18374SOL    MW473817   7.520   2.494   6.030
18375SOL     OW73818   9.086   3.717   7.455
18375SOL    HW273819   9.131   3.641   7.420
18375SOL    HW373820   9.124   3.730   7.542
18375SOL    MW473821   9.096   3.710   7.461
18376SOL     OW73822   8.686   3.236   6.181
18376SOL    HW273823   8.709   3.187   6.259
18376SOL    HW373824   8.767   3.278   6.153
18376SOL    MW473825   8.699   3.236   6.188
18377SOL     OW73826   7.944   2.244   6.910
18377SOL    HW273827   7.977   2.325   6.950
18377SOL    HW373828   7.917   2.270   6.822
18377SOL    MW473829   7.943   2.258   6.904
18378SOL     OW73830   7.898   2.211   6.646
18378SOL    HW273831   7.928   2.125   6.617
18378SOL    HW373832   7.803   2.204   6.649
18378SOL    MW473833   7.890   2.200   6.644
18379SOL     OW73834   8.727   2.420   7.337
18379SOL    HW273835   8.779   2.355   7.290
18379SOL    HW373836   8.685   2.471   7.267
18379SOL    MW473837   8.728   2.417   7.320
18380SOL     OW73838   8.826   2.215   7.198
18380SOL    HW273839   8.733   2.199   7.185
18380SOL    HW373840   8.852   2.153   7.266
18380SOL    MW473841   8.816   2.205   7.205
18381SOL     OW73842   8.041   1.989   6.537
18381SOL    HW273843   8.051   1.898   6.563
18381SOL    HW373844   7.997   1.985   6.452
18381SOL    MW473845   8.037   1.977   6.529
18382SOL     OW73846   8.135   3.604   7.083
18382SOL    HW273847   8.052   3.589   7.128
18382SOL    HW373848   8.194   3.537   7.118
18382SOL    MW473849   8.133   3.594   7.093
18383SOL     OW73850   9.192   2.311   6.708
18383SOL    HW273851   9.125   2.344   6.768
18383SOL    HW373852   9.235   2.389   6.674
18383SOL    MW473853   9.190   2.326   6.712
18384SOL     OW73854   9.370   3.031   6.678
18384SOL    HW273855   9.363   2.971   6.603
18384SOL    HW373856   9.296   3.091   6.667
18384SOL    MW473857   9.360   3.031   6.667
18385SOL     OW73858   8.752   2.893   6.596
18385SOL    HW273859   8.766   2.865   6.687
18385SOL    HW373860   8.838   2.924   6.568
18385SOL    MW473861   8.765   2.894   6.605
18386SOL     OW73862   8.835   2.388   6.875
18386SOL    HW273863   8.856   2.389   6.782
18386SOL    HW373864   8.880   2.310   6.908
18386SOL    MW473865   8.842   2.378   6.867
18387SOL     OW73866   9.328   2.519   7.417
18387SOL    HW273867   9.365   2.464   7.486
18387SOL    HW373868   9.353   2.476   7.335
18387SOL    MW473869   9.335   2.507   7.416
18388SOL     OW73870   8.875   2.817   7.468
18388SOL    HW273871   8.941   2.765   7.422
18388SOL    HW373872   8.895   2.804   7.561
18388SOL    MW473873   8.886   2.808   7.475
18389SOL     OW73874   8.826   1.903   5.817
18389SOL    HW273875   8.900   1.947   5.860
18389SOL    HW373876   8.750   1.957   5.839
18389SOL    MW473877   8.826   1.915   5.825
18390SOL     OW73878   8.886   2.678   6.095
18390SOL    HW273879   8.801   2.648   6.065
18390SOL    HW373880   8.878   2.685   6.190
18390SOL    MW473881   8.874   2.676   6.104
18391SOL     OW73882   7.962   3.141   6.826
18391SOL    HW273883   7.974   3.168   6.917
18391SOL    HW373884   7.943   3.222   6.779
18391SOL    MW473885   7.961   3.156   6.831
18392SOL     OW73886   8.246   2.121   6.649
18392SOL    HW273887   8.219   2.123   6.740
18392SOL    HW373888   8.176   2.073   6.604
18392SOL    MW473889   8.234   2.117   6.656
18393SOL     OW73890   8.100   3.613   6.811
18393SOL    HW273891   8.152   3.690   6.788
18393SOL    HW373892   8.109   3.605   6.906
18393SOL    MW473893   8.109   3.620   6.822
18394SOL     OW73894   9.002   3.198   7.043
18394SOL    HW273895   8.987   3.127   7.106
18394SOL    HW373896   9.048   3.156   6.971
18394SOL    MW473897   9.008   3.182   7.043
18395SOL     OW73898   8.076   2.929   7.160
18395SOL    HW273899   8.113   2.934   7.072
18395SOL    HW373900   8.115   3.002   7.207
18395SOL    MW473901   8.086   2.939   7.155
18396SOL     OW73902   8.256   2.972   6.972
18396SOL    HW273903   8.315   2.918   7.025
18396SOL    HW373904   8.271   2.944   6.882
18396SOL    MW473905   8.266   2.961   6.968
18397SOL     OW73906   8.259   2.344   5.821
18397SOL    HW273907   8.332   2.393   5.784
18397SOL    HW373908   8.275   2.253   5.795
18397SOL    MW473909   8.271   2.339   5.814
18398SOL     OW73910   9.067   3.461   7.144
18398SOL    HW273911   9.109   3.446   7.229
18398SOL    HW373912   9.058   3.374   7.106
18398SOL    MW473913   9.071   3.449   7.151
18399SOL     OW73914   8.727   1.940   6.735
18399SOL    HW273915   8.782   1.949   6.657
18399SOL    HW373916   8.782   1.974   6.806
18399SOL    MW473917   8.741   1.945   6.734
18400SOL     OW73918   7.734   2.853   5.919
18400SOL    HW273919   7.671   2.869   5.848
18400SOL    HW373920   7.681   2.816   5.990
18400SOL    MW473921   7.719   2.850   5.919
18401SOL     OW73922   8.090   3.207   5.778
18401SOL    HW273923   8.105   3.183   5.870
18401SOL    HW373924   7.998   3.185   5.762
18401SOL    MW473925   8.080   3.200   5.788
18402SOL     OW73926   8.629   3.438   5.930
18402SOL    HW273927   8.637   3.356   5.881
18402SOL    HW373928   8.548   3.477   5.897
18402SOL    MW473929   8.619   3.433   5.920
18403SOL     OW73930   7.888   3.596   6.499
18403SOL    HW273931   7.892   3.507   6.534
18403SOL    HW373932   7.914   3.587   6.408
18403SOL    MW473933   7.891   3.584   6.491
18404SOL     OW73934   8.505   3.074   6.742
18404SOL    HW273935   8.437   3.008   6.758
18404SOL    HW373936   8.523   3.068   6.649
18404SOL    MW473937   8.498   3.065   6.733
18405SOL     OW73938   7.594   3.349   6.993
18405SOL    HW273939   7.584   3.307   7.079
18405SOL    HW373940   7.515   3.402   6.983
18405SOL    MW473941   7.583   3.350   7.004
18406SOL     OW73942   8.498   2.213   6.563
18406SOL    HW273943   8.428   2.165   6.608
18406SOL    HW373944   8.530   2.276   6.627
18406SOL    MW473945   8.493   2.215   6.577
18407SOL     OW73946   8.149   2.649   7.183
18407SOL    HW273947   8.142   2.744   7.171
18407SOL    HW373948   8.158   2.638   7.278
18407SOL    MW473949   8.150   2.661   7.193
18408SOL     OW73950   7.870   3.164   7.441
18408SOL    HW273951   7.942   3.166   7.378
18408SOL    HW373952   7.840   3.073   7.440
18408SOL    MW473953   7.875   3.153   7.433
18409SOL     OW73954   8.954   1.927   6.908
18409SOL    HW273955   9.025   1.873   6.872
18409SOL    HW373956   8.953   1.906   7.001
18409SOL    MW473957   8.963   1.918   6.916
18410SOL     OW73958   9.154   3.457   7.392
18410SOL    HW273959   9.127   3.454   7.483
18410SOL    HW373960   9.250   3.461   7.395
18410SOL    MW473961   9.164   3.457   7.404
18411SOL     OW73962   7.965   2.319   6.376
18411SOL    HW273963   8.036   2.267   6.339
18411SOL    HW373964   7.951   2.284   6.463
18411SOL    MW473965   7.973   2.308   6.383
18412SOL     OW73966   7.520   3.654   7.448
18412SOL    HW273967   7.570   3.632   7.370
18412SOL    HW373968   7.528   3.749   7.456
18412SOL    MW473969   7.528   3.663   7.439
18413SOL     OW73970   8.281   3.412   6.452
18413SOL    HW273971   8.209   3.349   6.465
18413SOL    HW373972   8.242   3.497   6.470
18413SOL    MW473973   8.265   3.415   6.455
18414SOL     OW73974   8.601   2.260   6.100
18414SOL    HW273975   8.623   2.197   6.032
18414SOL    HW373976   8.506   2.252   6.111
18414SOL    MW473977   8.591   2.251   6.092
18415SOL     OW73978   7.686   1.950   6.032
18415SOL    HW273979   7.757   1.971   5.971
18415SOL    HW373980   7.640   1.878   5.990
18415SOL    MW473981   7.690   1.944   6.018
18416SOL     OW73982   7.517   2.417   7.175
18416SOL    HW273983   7.581   2.483   7.150
18416SOL    HW373984   7.436   2.444   7.132
18416SOL    MW473985   7.515   2.429   7.167
18417SOL     OW73986   9.255   3.324   6.132
18417SOL    HW273987   9.225   3.257   6.193
18417SOL    HW373988   9.349   3.330   6.146
18417SOL    MW473989   9.263   3.316   6.142
18418SOL     OW73990   8.811   3.001   6.062
18418SOL    HW273991   8.783   3.087   6.095
18418SOL    HW373992   8.839   3.017   5.972
18418SOL    MW473993   8.811   3.015   6.054
18419SOL     OW73994   8.473   1.921   6.115
18419SOL    HW273995   8.510   1.980   6.180
18419SOL    HW373996   8.450   1.977   6.041
18419SOL    MW473997   8.474   1.936   6.114
18420SOL     OW73998   9.326   2.803   6.537
18420SOL    HW273999   9.317   2.835   6.448
18420SOL    HW374000   9.279   2.719   6.537
18420SOL    MW474001   9.319   2.796   6.527
18421SOL     OW74002   7.702   2.643   7.116
18421SOL    HW274003   7.723   2.712   7.054
18421SOL    HW374004   7.782   2.590   7.121
18421SOL    MW474005   7.715   2.644   7.110
18422SOL     OW74006   9.238   2.734   6.238
18422SOL    HW274007   9.332   2.723   6.226
18422SOL    HW374008   9.214   2.806   6.179
18422SOL    MW474009   9.248   2.742   6.229
18423SOL     OW74010   7.687   2.658   7.383
18423SOL    HW274011   7.613   2.602   7.409
18423SOL    HW374012   7.682   2.661   7.288
18423SOL    MW474013   7.676   2.651   7.373
18424SOL     OW74014   7.853   1.945   6.833
18424SOL    HW274015   7.896   2.029   6.853
18424SOL    HW374016   7.926   1.883   6.826
18424SOL    MW474017   7.868   1.948   6.834
18425SOL     OW74018   7.894   2.612   6.011
18425SOL    HW274019   7.894   2.707   5.996
18425SOL    HW374020   7.971   2.596   6.065
18425SOL    MW474021   7.904   2.623   6.016
18426SOL     OW74022   8.670   2.471   7.075
18426SOL    HW274023   8.706   2.444   6.991
18426SOL    HW374024   8.583   2.505   7.054
18426SOL    MW474025   8.664   2.472   7.062
18427SOL     OW74026   7.653   2.343   6.300
18427SOL    HW274027   7.715   2.350   6.373
18427SOL    HW374028   7.653   2.250   6.277
18427SOL    MW474029   7.661   2.332   6.307
18428SOL     OW74030   9.200   3.683   5.832
18428SOL    HW274031   9.267   3.716   5.772
18428SOL    HW374032   9.157   3.762   5.866
18428SOL    MW474033   9.202   3.698   5.828
18429SOL     OW74034   8.335   2.604   6.784
18429SOL    HW274035   8.293   2.522   6.760
18429SOL    HW374036   8.336   2.603   6.880
18429SOL    MW474037   8.328   2.593   6.793
18430SOL     OW74038   9.006   3.737   7.183
18430SOL    HW274039   9.009   3.643   7.166
18430SOL    HW374040   9.029   3.745   7.275
18430SOL    MW474041   9.009   3.725   7.193
18431SOL     OW74042   8.139   2.074   6.889
18431SOL    HW274043   8.070   2.137   6.910
18431SOL    HW374044   8.166   2.038   6.974
18431SOL    MW474045   8.133   2.077   6.902
18432SOL     OW74046   7.522   2.915   5.758
18432SOL    HW274047   7.491   2.980   5.821
18432SOL    HW374048   7.471   2.837   5.777
18432SOL    MW474049   7.512   2.912   5.768
18433SOL     OW74050   8.934   1.927   6.506
18433SOL    HW274051   9.022   1.936   6.543
18433SOL    HW374052   8.944   1.868   6.432
18433SOL    MW474053   8.948   1.921   6.500
18434SOL     OW74054   8.966   2.666   6.350
18434SOL    HW274055   9.046   2.681   6.299
18434SOL    HW374056   8.959   2.571   6.356
18434SOL    MW474057   8.975   2.655   6.345
18435SOL     OW74058   8.106   3.715   5.700
18435SOL    HW274059   8.011   3.715   5.692
18435SOL    HW374060   8.122   3.661   5.778
18435SOL    MW474061   8.096   3.709   5.709
18436SOL     OW74062   8.416   2.592   7.047
18436SOL    HW274063   8.485   2.659   7.044
18436SOL    HW374064   8.349   2.630   7.103
18436SOL    MW474065   8.417   2.605   7.054
18437SOL     OW74066   7.834   2.892   7.295
18437SOL    HW274067   7.788   2.808   7.297
18437SOL    HW374068   7.891   2.886   7.219
18437SOL    MW474069   7.836   2.880   7.287
18438SOL     OW74070   8.951   2.535   5.615
18438SOL    HW274071   8.879   2.511   5.557
18438SOL    HW374072   9.017   2.572   5.557
18438SOL    MW474073   8.950   2.537   5.600
18439SOL     OW74074   8.085   3.267   6.296
18439SOL    HW274075   8.150   3.200   6.317
18439SOL    HW374076   8.137   3.344   6.273
18439SOL    MW474077   8.100   3.269   6.295
18440SOL     OW74078   8.346   2.432   6.426
18440SOL    HW274079   8.286   2.450   6.498
18440SOL    HW374080   8.380   2.344   6.445
18440SOL    MW474081   8.342   2.422   6.439
18441SOL     OW74082   9.287   1.931   7.095
18441SOL    HW274083   9.208   1.977   7.123
18441SOL    HW374084   9.322   1.985   7.024
18441SOL    MW474085   9.281   1.944   7.089
18442SOL     OW74086   8.571   3.015   6.445
18442SOL    HW274087   8.663   2.996   6.463
18442SOL    HW374088   8.544   2.945   6.385
18442SOL    MW474089   8.579   3.003   6.439
18443SOL     OW74090   8.364   2.835   5.800
18443SOL    HW274091   8.350   2.747   5.765
18443SOL    HW374092   8.315   2.892   5.741
18443SOL    MW474093   8.356   2.830   5.788
18444SOL     OW74094   8.845   3.253   6.541
18444SOL    HW274095   8.818   3.337   6.506
18444SOL    HW374096   8.805   3.248   6.628
18444SOL    MW474097   8.838   3.262   6.547
18445SOL     OW74098   8.764   3.201   6.809
18445SOL    HW274099   8.775   3.168   6.898
18445SOL    HW374100   8.683   3.160   6.778
18445SOL    MW474101   8.754   3.193   6.815
18446SOL     OW74102   7.777   2.559   6.579
18446SOL    HW274103   7.727   2.558   6.660
18446SOL    HW374104   7.797   2.651   6.563
18446SOL    MW474105   7.773   2.571   6.587
18447SOL     OW74106   8.844   3.323   7.341
18447SOL    HW274107   8.844   3.417   7.357
18447SOL    HW374108   8.889   3.313   7.257
18447SOL    MW474109   8.850   3.333   7.332
18448SOL     OW74110   9.083   2.041   5.902
18448SOL    HW274111   9.076   2.045   5.997
18448SOL    HW374112   9.095   2.132   5.875
18448SOL    MW474113   9.084   2.054   5.910
18449SOL     OW74114   8.372   2.604   6.016
18449SOL    HW274115   8.352   2.590   5.923
18449SOL    HW374116   8.465   2.583   6.023
18449SOL    MW474117   8.382   2.599   6.005
18450SOL     OW74118   7.699   2.227   7.320
18450SOL    HW274119   7.656   2.286   7.257
18450SOL    HW374120   7.767   2.282   7.360
18450SOL    MW474121   7.703   2.242   7.317
18451SOL     OW74122   8.811   2.847   6.865
18451SOL    HW274123   8.874   2.844   6.938
18451SOL    HW374124   8.727   2.865   6.907
18451SOL    MW474125   8.807   2.849   6.880
18452SOL     OW74126   8.355   3.562   6.054
18452SOL    HW274127   8.413   3.633   6.081
18452SOL    HW374128   8.378   3.490   6.112
18452SOL    MW474129   8.366   3.562   6.065
18453SOL     OW74130   9.150   2.024   6.644
18453SOL    HW274131   9.195   1.942   6.663
18453SOL    HW374132   9.170   2.080   6.720
18453SOL    MW474133   9.160   2.020   6.656
18454SOL     OW74134   7.598   1.867   6.743
18454SOL    HW274135   7.589   1.868   6.648
18454SOL    HW374136   7.692   1.879   6.758
18454SOL    MW474137   7.610   1.870   6.734
18455SOL     OW74138   9.235   3.060   6.363
18455SOL    HW274139   9.214   3.006   6.286
18455SOL    HW374140   9.331   3.058   6.367
18455SOL    MW474141   9.244   3.053   6.352
18456SOL     OW74142   7.927   3.205   7.106
18456SOL    HW274143   7.848   3.155   7.129
18456SOL    HW374144   7.997   3.164   7.156
18456SOL    MW474145   7.925   3.193   7.116
18457SOL     OW74146   7.811   1.994   5.789
18457SOL    HW274147   7.740   2.049   5.757
18457SOL    HW374148   7.853   1.960   5.710
18457SOL    MW474149   7.807   1.996   5.775
18458SOL     OW74150   8.935   2.491   6.625
18458SOL    HW274151   8.858   2.537   6.591
18458SOL    HW374152   8.992   2.560   6.659
18458SOL    MW474153   8.932   2.506   6.625
18459SOL     OW74154   7.567   2.093   5.638
18459SOL    HW274155   7.534   2.172   5.682
18459SOL    HW374156   7.622   2.126   5.567
18459SOL    MW474157   7.570   2.107   5.635
18460SOL     OW74158   7.601   3.350   5.827
18460SOL    HW274159   7.618   3.434   5.869
18460SOL    HW374160   7.636   3.359   5.739
18460SOL    MW474161   7.606   3.363   5.821
18461SOL     OW74162   8.873   3.439   6.044
18461SOL    HW274163   8.936   3.429   5.973
18461SOL    HW374164   8.790   3.459   5.999
18461SOL    MW474165   8.870   3.440   6.029
18462SOL     OW74166   9.102   4.507   1.252
18462SOL    HW274167   9.057   4.574   1.303
18462SOL    HW374168   9.190   4.543   1.238
18462SOL    MW474169   9.108   4.520   1.256
18463SOL     OW74170   8.030   4.758   0.486
18463SOL    HW274171   8.120   4.733   0.470
18463SOL    HW374172   8.026   4.851   0.463
18463SOL    MW474173   8.042   4.767   0.481
18464SOL     OW74174   9.146   5.461   0.628
18464SOL    HW274175   9.158   5.407   0.706
18464SOL    HW374176   9.183   5.409   0.557
18464SOL    MW474177   9.152   5.446   0.629
18465SOL     OW74178   8.525   5.346   1.629
18465SOL    HW274179   8.566   5.382   1.550
18465SOL    HW374180   8.560   5.257   1.636
18465SOL    MW474181   8.536   5.339   1.620
18466SOL     OW74182   9.082   4.901   1.233
18466SOL    HW274183   9.003   4.866   1.191
18466SOL    HW374184   9.109   4.973   1.177
18466SOL    MW474185   9.075   4.906   1.220
18467SOL     OW74186   7.756   4.242   0.427
18467SOL    HW274187   7.788   4.330   0.409
18467SOL    HW374188   7.744   4.240   0.522
18467SOL    MW474189   7.759   4.254   0.439
18468SOL     OW74190   7.834   4.655   1.328
18468SOL    HW274191   7.897   4.602   1.279
18468SOL    HW374192   7.815   4.729   1.271
18468SOL    MW474193   7.840   4.657   1.315
18469SOL     OW74194   8.155   3.997   0.514
18469SOL    HW274195   8.213   4.073   0.516
18469SOL    HW374196   8.090   4.018   0.447
18469SOL    MW474197   8.154   4.009   0.505
18470SOL     OW74198   8.242   4.924   0.689
18470SOL    HW274199   8.322   4.927   0.741
18470SOL    HW374200   8.270   4.891   0.603
18470SOL    MW474201   8.256   4.920   0.684
18471SOL     OW74202   8.267   5.265   1.592
18471SOL    HW274203   8.351   5.291   1.631
18471SOL    HW374204   8.291   5.209   1.518
18471SOL    MW474205   8.281   5.261   1.587
18472SOL     OW74206   8.019   4.428   0.680
18472SOL    HW274207   8.004   4.348   0.731
18472SOL    HW374208   8.101   4.463   0.714
18472SOL    MW474209   8.027   4.420   0.692
18473SOL     OW74210   8.356   5.114   1.365
18473SOL    HW274211   8.320   5.180   1.305
18473SOL    HW374212   8.284   5.052   1.378
18473SOL    MW474213   8.342   5.114   1.359
18474SOL     OW74214   8.161   4.254   1.057
18474SOL    HW274215   8.067   4.250   1.075
18474SOL    HW374216   8.191   4.163   1.066
18474SOL    MW474217   8.152   4.242   1.060
18475SOL     OW74218   7.907   4.668   0.961
18475SOL    HW274219   7.862   4.675   0.877
18475SOL    HW374220   7.887   4.751   1.005
18475SOL    MW474221   7.899   4.680   0.955
18476SOL     OW74222   7.604   5.514   0.836
18476SOL    HW274223   7.693   5.506   0.871
18476SOL    HW374224   7.568   5.426   0.841
18476SOL    MW474225   7.611   5.501   0.841
18477SOL     OW74226   7.868   5.041   0.871
18477SOL    HW274227   7.844   5.094   0.947
18477SOL    HW374228   7.924   5.099   0.819
18477SOL    MW474229   7.872   5.056   0.874
18478SOL     OW74230   8.430   4.685   0.681
18478SOL    HW274231   8.344   4.672   0.721
18478SOL    HW374232   8.483   4.612   0.713
18478SOL    MW474233   8.426   4.674   0.690
18479SOL     OW74234   7.838   5.337   1.466
18479SOL    HW274235   7.746   5.313   1.451
18479SOL    HW374236   7.882   5.254   1.483
18479SOL    MW474237   7.832   5.322   1.465
18480SOL     OW74238   9.294   4.048   0.854
18480SOL    HW274239   9.231   4.028   0.923
18480SOL    HW374240   9.284   3.977   0.791
18480SOL    MW474241   9.284   4.035   0.855
18481SOL     OW74242   7.918   4.020   0.366
18481SOL    HW274243   7.892   3.982   0.282
18481SOL    HW374244   7.855   4.090   0.382
18481SOL    MW474245   7.907   4.023   0.357
18482SOL     OW74246   7.753   4.981   0.403
18482SOL    HW274247   7.701   5.049   0.359
18482SOL    HW374248   7.750   4.907   0.343
18482SOL    MW474249   7.745   4.980   0.390
18483SOL     OW74250   9.095   4.820   0.506
18483SOL    HW274251   9.005   4.820   0.541
18483SOL    HW374252   9.088   4.866   0.423
18483SOL    MW474253   9.082   4.826   0.500
18484SOL     OW74254   8.895   4.455   1.578
18484SOL    HW274255   8.964   4.393   1.555
18484SOL    HW374256   8.820   4.429   1.525
18484SOL    MW474257   8.895   4.442   1.569
18485SOL     OW74258   7.636   5.335   1.130
18485SOL    HW274259   7.619   5.281   1.207
18485SOL    HW374260   7.624   5.425   1.160
18485SOL    MW474261   7.633   5.339   1.144
18486SOL     OW74262   8.631   4.842   1.570
18486SOL    HW274263   8.616   4.935   1.555
18486SOL    HW374264   8.726   4.832   1.570
18486SOL    MW474265   8.640   4.852   1.567
18487SOL     OW74266   8.427   4.266   1.771
18487SOL    HW274267   8.517   4.267   1.738
18487SOL    HW374268   8.386   4.191   1.729
18487SOL    MW474269   8.433   4.256   1.762
18488SOL     OW74270   9.002   4.798   0.898
18488SOL    HW274271   9.005   4.732   0.829
18488SOL    HW374272   9.087   4.841   0.894
18488SOL    MW474273   9.014   4.794   0.889
18489SOL     OW74274   8.622   4.401   0.467
18489SOL    HW274275   8.648   4.425   0.378
18489SOL    HW374276   8.604   4.308   0.463
18489SOL    MW474277   8.624   4.393   0.454
18490SOL     OW74278   8.207   4.070   1.721
18490SOL    HW274279   8.217   3.996   1.661
18490SOL    HW374280   8.243   4.039   1.804
18490SOL    MW474281   8.213   4.056   1.723
18491SOL     OW74282   7.943   5.437   0.636
18491SOL    HW274283   7.975   5.525   0.614
18491SOL    HW374284   7.896   5.409   0.558
18491SOL    MW474285   7.942   5.445   0.623
18492SOL     OW74286   9.327   3.799   0.685
18492SOL    HW274287   9.381   3.750   0.747
18492SOL    HW374288   9.270   3.733   0.646
18492SOL    MW474289   9.327   3.783   0.687
18493SOL     OW74290   8.446   3.752   1.098
18493SOL    HW274291   8.405   3.830   1.060
18493SOL    HW374292   8.540   3.770   1.093
18493SOL    MW474293   8.452   3.764   1.093
18494SOL     OW74294   9.075   4.356   0.464
18494SOL    HW274295   9.114   4.356   0.551
18494SOL    HW374296   9.016   4.432   0.464
18494SOL    MW474297   9.072   4.367   0.475
18495SOL     OW74298   8.392   4.723   1.593
18495SOL    HW274299   8.369   4.703   1.683
18495SOL    HW374300   8.477   4.767   1.598
18495SOL    MW474301   8.399   4.726   1.605
18496SOL     OW74302   8.472   3.860   1.353
18496SOL    HW274303   8.478   3.822   1.266
18496SOL    HW374304   8.461   3.954   1.338
18496SOL    MW474305   8.473   3.868   1.341
18497SOL     OW74306   8.561   4.349   1.187
18497SOL    HW274307   8.636   4.378   1.134
18497SOL    HW374308   8.493   4.414   1.171
18497SOL    MW474309   8.562   4.361   1.177
18498SOL     OW74310   9.111   4.317   1.464
18498SOL    HW274311   9.092   4.226   1.443
18498SOL    HW374312   9.089   4.366   1.385
18498SOL    MW474313   9.106   4.310   1.451
18499SOL     OW74314   9.253   5.411   1.368
18499SOL    HW274315   9.181   5.373   1.419
18499SOL    HW374316   9.270   5.496   1.409
18499SOL    MW474317   9.247   5.416   1.380
18500SOL     OW74318   8.558   4.055   1.570
18500SOL    HW274319   8.524   4.094   1.489
18500SOL    HW374320   8.536   3.963   1.563
18500SOL    MW474321   8.551   4.048   1.560
18501SOL     OW74322   8.967   4.869   1.646
18501SOL    HW274323   9.049   4.910   1.676
18501SOL    HW374324   8.930   4.831   1.726
18501SOL    MW474325   8.973   4.870   1.661
18502SOL     OW74326   9.262   4.242   0.630
18502SOL    HW274327   9.351   4.211   0.647
18502SOL    HW374328   9.205   4.182   0.678
18502SOL    MW474329   9.265   4.230   0.639
18503SOL     OW74330   7.688   3.956   0.659
18503SOL    HW274331   7.679   3.896   0.585
18503SOL    HW374332   7.621   3.927   0.722
18503SOL    MW474333   7.678   3.943   0.657
18504SOL     OW74334   7.635   4.129   1.022
18504SOL    HW274335   7.607   4.220   1.031
18504SOL    HW374336   7.572   4.090   0.961
18504SOL    MW474337   7.622   4.135   1.016
18505SOL     OW74338   8.094   5.467   0.328
18505SOL    HW274339   8.015   5.425   0.361
18505SOL    HW374340   8.160   5.450   0.395
18505SOL    MW474341   8.093   5.459   0.341
18506SOL     OW74342   9.222   4.987   1.725
18506SOL    HW274343   9.272   4.913   1.757
18506SOL    HW374344   9.168   5.014   1.800
18506SOL    MW474345   9.222   4.981   1.738
18507SOL     OW74346   9.356   4.622   1.227
18507SOL    HW274347   9.372   4.660   1.140
18507SOL    HW374348   9.390   4.688   1.288
18507SOL    MW474349   9.363   4.635   1.223
18508SOL     OW74350   9.148   5.331   0.896
18508SOL    HW274351   9.177   5.398   0.957
18508SOL    HW374352   9.129   5.255   0.951
18508SOL    MW474353   9.150   5.331   0.911
18509SOL     OW74354   8.811   5.398   0.103
18509SOL    HW274355   8.737   5.361   0.153
18509SOL    HW374356   8.819   5.488   0.136
18509SOL    MW474357   8.802   5.405   0.115
18510SOL     OW74358   7.619   4.404   1.192
18510SOL    HW274359   7.681   4.434   1.258
18510SOL    HW374360   7.553   4.473   1.186
18510SOL    MW474361   7.618   4.417   1.199
18511SOL     OW74362   7.714   5.513   1.644
18511SOL    HW274363   7.688   5.581   1.582
18511SOL    HW374364   7.762   5.450   1.592
18511SOL    MW474365   7.716   5.513   1.630
18512SOL     OW74366   7.766   4.832   1.151
18512SOL    HW274367   7.819   4.907   1.176
18512SOL    HW374368   7.685   4.870   1.117
18512SOL    MW474369   7.762   4.847   1.151
18513SOL     OW74370   8.306   4.736   1.139
18513SOL    HW274371   8.334   4.645   1.151
18513SOL    HW374372   8.235   4.730   1.075
18513SOL    MW474373   8.299   4.724   1.134
18514SOL     OW74374   7.621   4.601   0.557
18514SOL    HW274375   7.712   4.616   0.584
18514SOL    HW374376   7.624   4.522   0.503
18514SOL    MW474377   7.633   4.593   0.555
18515SOL     OW74378   7.857   4.309   1.811
18515SOL    HW274379   7.804   4.389   1.818
18515SOL    HW374380   7.927   4.321   1.876
18515SOL    MW474381   7.859   4.322   1.819
18516SOL     OW74382   8.243   3.859   1.518
18516SOL    HW274383   8.220   3.767   1.520
18516SOL    HW374384   8.329   3.861   1.475
18516SOL    MW474385   8.250   3.849   1.514
18517SOL     OW74386   7.927   4.383   1.557
18517SOL    HW274387   8.007   4.433   1.543
18517SOL    HW374388   7.918   4.377   1.652
18517SOL    MW474389   7.936   4.389   1.567
18518SOL     OW74390   8.248   5.533   0.931
18518SOL    HW274391   8.337   5.548   0.961
18518SOL    HW374392   8.243   5.580   0.847
18518SOL    MW474393   8.258   5.541   0.924
18519SOL     OW74394   8.904   3.908   1.828
18519SOL    HW274395   8.960   3.835   1.854
18519SOL    HW374396   8.874   3.946   1.910
18519SOL    MW474397   8.908   3.903   1.841
18520SOL     OW74398   7.629   5.213   0.596
18520SOL    HW274399   7.601   5.252   0.678
18520SOL    HW374400   7.649   5.122   0.618
18520SOL    MW474401   7.627   5.205   0.609
18521SOL     OW74402   8.462   5.256   0.631
18521SOL    HW274403   8.545   5.210   0.615
18521SOL    HW374404   8.452   5.255   0.727
18521SOL    MW474405   8.472   5.249   0.641
18522SOL     OW74406   9.294   4.401   0.945
18522SOL    HW274407   9.383   4.431   0.927
18522SOL    HW374408   9.274   4.341   0.874
18522SOL    MW474409   9.303   4.398   0.934
18523SOL     OW74410   9.145   4.580   1.825
18523SOL    HW274411   9.200   4.504   1.806
18523SOL    HW374412   9.147   4.588   1.920
18523SOL    MW474413   9.153   4.571   1.833
18524SOL     OW74414   8.633   3.958   0.259
18524SOL    HW274415   8.566   3.934   0.196
18524SOL    HW374416   8.698   4.007   0.208
18524SOL    MW474417   8.633   3.960   0.244
18525SOL     OW74418   8.440   4.142   1.344
18525SOL    HW274419   8.359   4.183   1.372
18525SOL    HW374420   8.487   4.210   1.296
18525SOL    MW474421   8.435   4.157   1.342
18526SOL     OW74422   8.700   4.480   0.967
18526SOL    HW274423   8.713   4.574   0.977
18526SOL    HW374424   8.661   4.470   0.881
18526SOL    MW474425   8.696   4.491   0.957
18527SOL     OW74426   8.152   4.675   0.771
18527SOL    HW274427   8.063   4.666   0.804
18527SOL    HW374428   8.156   4.765   0.739
18527SOL    MW474429   8.141   4.686   0.771
18528SOL     OW74430   8.951   4.258   0.766
18528SOL    HW274431   8.896   4.179   0.765
18528SOL    HW374432   8.933   4.299   0.850
18528SOL    MW474433   8.941   4.253   0.775
18529SOL     OW74434   7.922   3.945   1.583
18529SOL    HW274435   7.843   3.963   1.635
18529SOL    HW374436   7.917   4.007   1.510
18529SOL    MW474437   7.912   3.955   1.580
18530SOL     OW74438   8.570   4.462   0.723
18530SOL    HW274439   8.507   4.394   0.747
18530SOL    HW374440   8.590   4.443   0.631
18530SOL    MW474441   8.564   4.449   0.715
18531SOL     OW74442   8.318   4.766   0.449
18531SOL    HW274443   8.320   4.740   0.356
18531SOL    HW374444   8.376   4.703   0.492
18531SOL    MW474445   8.326   4.755   0.443
18532SOL     OW74446   8.871   5.326   1.221
18532SOL    HW274447   8.796   5.372   1.259
18532SOL    HW374448   8.853   5.233   1.238
18532SOL    MW474449   8.860   5.320   1.229
18533SOL     OW74450   8.875   5.534   0.651
18533SOL    HW274451   8.818   5.487   0.590
18533SOL    HW374452   8.961   5.495   0.638
18533SOL    MW474453   8.878   5.525   0.641
18534SOL     OW74454   8.828   4.010   0.782
18534SOL    HW274455   8.856   3.942   0.843
18534SOL    HW374456   8.742   3.981   0.752
18534SOL    MW474457   8.821   3.997   0.786
18535SOL     OW74458   7.633   4.944   0.716
18535SOL    HW274459   7.697   4.976   0.779
18535SOL    HW374460   7.682   4.880   0.664
18535SOL    MW474461   7.648   4.940   0.717
18536SOL     OW74462   8.133   5.020   1.698
18536SOL    HW274463   8.181   5.103   1.685
18536SOL    HW374464   8.190   4.968   1.754
18536SOL    MW474465   8.147   5.024   1.704
18537SOL     OW74466   7.709   5.262   1.838
18537SOL    HW274467   7.765   5.186   1.853
18537SOL    HW374468   7.658   5.240   1.760
18537SOL    MW474469   7.709   5.249   1.829
18538SOL     OW74470   8.594   5.099   1.447
18538SOL    HW274471   8.505   5.105   1.415
18538SOL    HW374472   8.638   5.178   1.415
18538SOL    MW474473   8.589   5.109   1.439
18539SOL     OW74474   7.887   3.767   1.789
18539SOL    HW274475   7.815   3.732   1.737
18539SOL    HW374476   7.945   3.808   1.724
18539SOL    MW474477   7.885   3.768   1.774
18540SOL     OW74478   7.911   5.257   1.088
18540SOL    HW274479   7.956   5.319   1.145
18540SOL    HW374480   7.818   5.276   1.101
18540SOL    MW474481   7.904   5.267   1.095
18541SOL     OW74482   9.351   4.786   1.442
18541SOL    HW274483   9.266   4.799   1.401
18541SOL    HW374484   9.331   4.750   1.529
18541SOL    MW474485   9.338   4.782   1.447
18542SOL     OW74486   8.333   5.325   1.196
18542SOL    HW274487   8.357   5.314   1.105
18542SOL    HW374488   8.256   5.382   1.194
18542SOL    MW474489   8.325   5.330   1.185
18543SOL     OW74490   8.128   5.030   0.986
18543SOL    HW274491   8.121   5.009   1.080
18543SOL    HW374492   8.046   4.998   0.949
18543SOL    MW474493   8.116   5.024   0.993
18544SOL     OW74494   9.328   3.964   1.261
18544SOL    HW274495   9.309   4.031   1.196
18544SOL    HW374496   9.385   3.902   1.216
18544SOL    MW474497   9.332   3.965   1.247
18545SOL     OW74498   7.574   5.122   1.649
18545SOL    HW274499   7.618   5.055   1.595
18545SOL    HW374500   7.489   5.084   1.669
18545SOL    MW474501   7.569   5.108   1.645
18546SOL     OW74502   8.257   3.797   0.701
18546SOL    HW274503   8.186   3.858   0.683
18546SOL    HW374504   8.308   3.794   0.620
18546SOL    MW474505   8.253   3.803   0.688
18547SOL     OW74506   8.610   5.430   1.359
18547SOL    HW274507   8.530   5.415   1.309
18547SOL    HW374508   8.617   5.525   1.366
18547SOL    MW474509   8.601   5.441   1.353
18548SOL     OW74510   8.724   5.395   0.849
18548SOL    HW274511   8.771   5.468   0.808
18548SOL    HW374512   8.645   5.434   0.885
18548SOL    MW474513   8.719   5.410   0.848
18549SOL     OW74514   9.132   5.490   1.124
18549SOL    HW274515   9.175   5.460   1.204
18549SOL    HW374516   9.051   5.438   1.121
18549SOL    MW474517   9.127   5.479   1.134
18550SOL     OW74518   8.217   4.454   1.831
18550SOL    HW274519   8.287   4.396   1.803
18550SOL    HW374520   8.160   4.399   1.886
18550SOL    MW474521   8.219   4.441   1.835
18551SOL     OW74522   9.004   4.666   1.464
18551SOL    HW274523   9.009   4.719   1.544
18551SOL    HW374524   8.966   4.583   1.492
18551SOL    MW474525   9.000   4.661   1.479
18552SOL     OW74526   8.644   3.801   1.710
18552SOL    HW274527   8.639   3.708   1.691
18552SOL    HW374528   8.727   3.812   1.756
18552SOL    MW474529   8.652   3.790   1.714
18553SOL     OW74530   9.114   5.072   0.986
18553SOL    HW274531   9.149   5.054   0.899
18553SOL    HW374532   9.019   5.073   0.973
18553SOL    MW474533   9.106   5.069   0.973
18554SOL     OW74534   8.543   4.720   1.355
18554SOL    HW274535   8.586   4.755   1.433
18554SOL    HW374536   8.526   4.797   1.301
18554SOL    MW474537   8.546   4.735   1.358
18555SOL     OW74538   7.934   3.862   0.657
18555SOL    HW274539   7.984   3.905   0.588
18555SOL    HW374540   7.849   3.906   0.657
18555SOL    MW474541   7.931   3.875   0.648
18556SOL     OW74542   7.693   4.924   1.517
18556SOL    HW274543   7.721   4.877   1.595
18556SOL    HW374544   7.614   4.879   1.488
18556SOL    MW474545   7.686   4.913   1.523
18557SOL     OW74546   8.201   4.251   1.484
18557SOL    HW274547   8.173   4.339   1.508
18557SOL    HW374548   8.170   4.195   1.555
18557SOL    MW474549   8.193   4.254   1.496
18558SOL     OW74550   7.856   4.647   0.697
18558SOL    HW274551   7.914   4.703   0.645
18558SOL    HW374552   7.900   4.562   0.699
18558SOL    MW474553   7.869   4.644   0.690
18559SOL     OW74554   8.996   3.999   0.534
18559SOL    HW274555   8.918   3.949   0.559
18559SOL    HW374556   8.967   4.090   0.534
18559SOL    MW474557   8.982   4.003   0.537
18560SOL     OW74558   8.582   3.961   0.693
18560SOL    HW274559   8.602   4.036   0.637
18560SOL    HW374560   8.562   4.000   0.778
18560SOL    MW474561   8.583   3.977   0.697
18561SOL     OW74562   8.478   5.211   0.025
18561SOL    HW274563   8.505   5.289  -0.023
18561SOL    HW374564   8.385   5.226   0.044
18561SOL    MW474565   8.469   5.224   0.021
18562SOL     OW74566   9.342   4.734   1.712
18562SOL    HW274567   9.255   4.714   1.748
18562SOL    HW374568   9.396   4.660   1.737
18562SOL    MW474569   9.337   4.723   1.720
18563SOL     OW74570   7.563   5.247   0.869
18563SOL    HW274571   7.595   5.251   0.960
18563SOL    HW374572   7.468   5.255   0.877
18563SOL    MW474573   7.555   5.250   0.882
18564SOL     OW74574   7.518   4.373   0.416
18564SOL    HW274575   7.458   4.345   0.486
18564SOL    HW374576   7.592   4.313   0.422
18564SOL    MW474577   7.520   4.362   0.425
18565SOL     OW74578   9.086   5.585   1.850
18565SOL    HW274579   9.131   5.509   1.815
18565SOL    HW374580   9.124   5.598   1.937
18565SOL    MW474581   9.096   5.578   1.856
18566SOL     OW74582   8.686   5.104   0.576
18566SOL    HW274583   8.709   5.055   0.654
18566SOL    HW374584   8.767   5.146   0.548
18566SOL    MW474585   8.699   5.104   0.583
18567SOL     OW74586   7.944   4.112   1.305
18567SOL    HW274587   7.977   4.193   1.345
18567SOL    HW374588   7.917   4.138   1.217
18567SOL    MW474589   7.943   4.126   1.299
18568SOL     OW74590   7.898   4.079   1.041
18568SOL    HW274591   7.928   3.993   1.012
18568SOL    HW374592   7.803   4.072   1.044
18568SOL    MW474593   7.890   4.068   1.039
18569SOL     OW74594   8.727   4.288   1.732
18569SOL    HW274595   8.779   4.223   1.685
18569SOL    HW374596   8.685   4.339   1.662
18569SOL    MW474597   8.728   4.285   1.715
18570SOL     OW74598   8.826   4.083   1.593
18570SOL    HW274599   8.733   4.067   1.580
18570SOL    HW374600   8.852   4.021   1.661
18570SOL    MW474601   8.816   4.073   1.600
18571SOL     OW74602   8.041   3.857   0.932
18571SOL    HW274603   8.051   3.766   0.958
18571SOL    HW374604   7.997   3.853   0.847
18571SOL    MW474605   8.037   3.845   0.924
18572SOL     OW74606   8.135   5.472   1.478
18572SOL    HW274607   8.052   5.457   1.523
18572SOL    HW374608   8.194   5.405   1.513
18572SOL    MW474609   8.133   5.462   1.488
18573SOL     OW74610   9.192   4.179   1.103
18573SOL    HW274611   9.125   4.212   1.163
18573SOL    HW374612   9.235   4.257   1.069
18573SOL    MW474613   9.190   4.194   1.107
18574SOL     OW74614   9.370   4.899   1.073
18574SOL    HW274615   9.363   4.839   0.998
18574SOL    HW374616   9.296   4.959   1.062
18574SOL    MW474617   9.360   4.899   1.062
18575SOL     OW74618   8.752   4.761   0.991
18575SOL    HW274619   8.766   4.733   1.082
18575SOL    HW374620   8.838   4.792   0.963
18575SOL    MW474621   8.765   4.762   1.000
18576SOL     OW74622   8.835   4.256   1.270
18576SOL    HW274623   8.856   4.257   1.177
18576SOL    HW374624   8.880   4.178   1.303
18576SOL    MW474625   8.842   4.246   1.262
18577SOL     OW74626   9.328   4.387   1.812
18577SOL    HW274627   9.365   4.332   1.881
18577SOL    HW374628   9.353   4.344   1.730
18577SOL    MW474629   9.335   4.375   1.811
18578SOL     OW74630   8.875   4.685   1.863
18578SOL    HW274631   8.941   4.633   1.817
18578SOL    HW374632   8.895   4.672   1.956
18578SOL    MW474633   8.886   4.676   1.870
18579SOL     OW74634   8.886   4.546   0.490
18579SOL    HW274635   8.801   4.516   0.460
18579SOL    HW374636   8.878   4.553   0.585
18579SOL    MW474637   8.874   4.544   0.499
18580SOL     OW74638   7.962   5.009   1.221
18580SOL    HW274639   7.974   5.036   1.312
18580SOL    HW374640   7.943   5.090   1.174
18580SOL    MW474641   7.961   5.024   1.226
18581SOL     OW74642   8.246   3.989   1.044
18581SOL    HW274643   8.219   3.991   1.135
18581SOL    HW374644   8.176   3.941   0.999
18581SOL    MW474645   8.234   3.985   1.051
18582SOL     OW74646   8.100   5.481   1.206
18582SOL    HW274647   8.152   5.558   1.183
18582SOL    HW374648   8.109   5.473   1.301
18582SOL    MW474649   8.109   5.488   1.217
18583SOL     OW74650   9.002   5.066   1.438
18583SOL    HW274651   8.987   4.995   1.501
18583SOL    HW374652   9.048   5.024   1.366
18583SOL    MW474653   9.008   5.050   1.438
18584SOL     OW74654   8.076   4.797   1.555
18584SOL    HW274655   8.113   4.802   1.467
18584SOL    HW374656   8.115   4.870   1.602
18584SOL    MW474657   8.086   4.807   1.550
18585SOL     OW74658   8.256   4.840   1.367
18585SOL    HW274659   8.315   4.786   1.420
18585SOL    HW374660   8.271   4.812   1.277
18585SOL    MW474661   8.266   4.829   1.363
18586SOL     OW74662   9.067   5.329   1.539
18586SOL    HW274663   9.109   5.314   1.624
18586SOL    HW374664   9.058   5.242   1.501
18586SOL    MW474665   9.071   5.317   1.546
18587SOL     OW74666   8.727   3.808   1.130
18587SOL    HW274667   8.782   3.817   1.052
18587SOL    HW374668   8.782   3.842   1.201
18587SOL    MW474669   8.741   3.813   1.129
18588SOL     OW74670   7.734   4.721   0.314
18588SOL    HW274671   7.671   4.737   0.243
18588SOL    HW374672   7.681   4.684   0.385
18588SOL    MW474673   7.719   4.718   0.314
18589SOL     OW74674   7.888   5.464   0.894
18589SOL    HW274675   7.892   5.375   0.929
18589SOL    HW374676   7.914   5.455   0.803
18589SOL    MW474677   7.891   5.452   0.886
18590SOL     OW74678   8.505   4.942   1.137
18590SOL    HW274679   8.437   4.876   1.153
18590SOL    HW374680   8.523   4.936   1.044
18590SOL    MW474681   8.498   4.933   1.128
18591SOL     OW74682   7.594   5.217   1.388
18591SOL    HW274683   7.584   5.175   1.474
18591SOL    HW374684   7.515   5.270   1.378
18591SOL    MW474685   7.583   5.218   1.399
18592SOL     OW74686   8.498   4.081   0.958
18592SOL    HW274687   8.428   4.033   1.003
18592SOL    HW374688   8.530   4.144   1.022
18592SOL    MW474689   8.493   4.083   0.972
18593SOL     OW74690   8.149   4.517   1.578
18593SOL    HW274691   8.142   4.612   1.566
18593SOL    HW374692   8.158   4.506   1.673
18593SOL    MW474693   8.150   4.529   1.588
18594SOL     OW74694   7.870   5.032   1.836
18594SOL    HW274695   7.942   5.034   1.773
18594SOL    HW374696   7.840   4.941   1.835
18594SOL    MW474697   7.875   5.021   1.828
18595SOL     OW74698   8.954   3.795   1.303
18595SOL    HW274699   9.025   3.741   1.267
18595SOL    HW374700   8.953   3.774   1.396
18595SOL    MW474701   8.963   3.786   1.311
18596SOL     OW74702   9.154   5.325   1.787
18596SOL    HW274703   9.127   5.322   1.878
18596SOL    HW374704   9.250   5.329   1.790
18596SOL    MW474705   9.164   5.325   1.799
18597SOL     OW74706   7.965   4.187   0.771
18597SOL    HW274707   8.036   4.135   0.734
18597SOL    HW374708   7.951   4.152   0.858
18597SOL    MW474709   7.973   4.176   0.778
18598SOL     OW74710   7.520   5.522   1.843
18598SOL    HW274711   7.570   5.500   1.765
18598SOL    HW374712   7.528   5.617   1.851
18598SOL    MW474713   7.528   5.531   1.834
18599SOL     OW74714   8.281   5.280   0.847
18599SOL    HW274715   8.209   5.217   0.860
18599SOL    HW374716   8.242   5.365   0.865
18599SOL    MW474717   8.265   5.283   0.850
18600SOL     OW74718   8.601   4.128   0.495
18600SOL    HW274719   8.623   4.065   0.427
18600SOL    HW374720   8.506   4.120   0.506
18600SOL    MW474721   8.591   4.119   0.487
18601SOL     OW74722   7.686   3.818   0.427
18601SOL    HW274723   7.757   3.839   0.366
18601SOL    HW374724   7.640   3.746   0.385
18601SOL    MW474725   7.690   3.812   0.413
18602SOL     OW74726   7.517   4.285   1.570
18602SOL    HW274727   7.581   4.351   1.545
18602SOL    HW374728   7.436   4.312   1.527
18602SOL    MW474729   7.515   4.297   1.562
18603SOL     OW74730   9.255   5.192   0.527
18603SOL    HW274731   9.225   5.125   0.588
18603SOL    HW374732   9.349   5.198   0.541
18603SOL    MW474733   9.263   5.184   0.537
18604SOL     OW74734   8.473   3.789   0.510
18604SOL    HW274735   8.510   3.848   0.575
18604SOL    HW374736   8.450   3.845   0.436
18604SOL    MW474737   8.474   3.804   0.509
18605SOL     OW74738   9.326   4.671   0.932
18605SOL    HW274739   9.317   4.703   0.843
18605SOL    HW374740   9.279   4.587   0.932
18605SOL    MW474741   9.319   4.664   0.922
18606SOL     OW74742   7.702   4.511   1.511
18606SOL    HW274743   7.723   4.580   1.449
18606SOL    HW374744   7.782   4.458   1.516
18606SOL    MW474745   7.715   4.512   1.505
18607SOL     OW74746   9.238   4.602   0.633
18607SOL    HW274747   9.332   4.591   0.621
18607SOL    HW374748   9.214   4.674   0.574
18607SOL    MW474749   9.248   4.610   0.624
18608SOL     OW74750   7.687   4.526   1.778
18608SOL    HW274751   7.613   4.470   1.804
18608SOL    HW374752   7.682   4.529   1.683
18608SOL    MW474753   7.676   4.519   1.768
18609SOL     OW74754   7.853   3.813   1.228
18609SOL    HW274755   7.896   3.897   1.248
18609SOL    HW374756   7.926   3.751   1.221
18609SOL    MW474757   7.868   3.816   1.229
18610SOL     OW74758   7.894   4.480   0.406
18610SOL    HW274759   7.894   4.575   0.391
18610SOL    HW374760   7.971   4.464   0.460
18610SOL    MW474761   7.904   4.491   0.411
18611SOL     OW74762   8.670   4.339   1.470
18611SOL    HW274763   8.706   4.312   1.386
18611SOL    HW374764   8.583   4.373   1.449
18611SOL    MW474765   8.664   4.340   1.457
18612SOL     OW74766   7.653   4.211   0.695
18612SOL    HW274767   7.715   4.218   0.768
18612SOL    HW374768   7.653   4.118   0.672
18612SOL    MW474769   7.661   4.200   0.702
18613SOL     OW74770   8.335   4.472   1.179
18613SOL    HW274771   8.293   4.390   1.155
18613SOL    HW374772   8.336   4.471   1.275
18613SOL    MW474773   8.328   4.461   1.188
18614SOL     OW74774   9.006   5.605   1.578
18614SOL    HW274775   9.009   5.511   1.561
18614SOL    HW374776   9.029   5.613   1.670
18614SOL    MW474777   9.009   5.593   1.588
18615SOL     OW74778   8.139   3.942   1.284
18615SOL    HW274779   8.070   4.005   1.305
18615SOL    HW374780   8.166   3.906   1.369
18615SOL    MW474781   8.133   3.945   1.297
18616SOL     OW74782   8.934   3.795   0.901
18616SOL    HW274783   9.022   3.804   0.938
18616SOL    HW374784   8.944   3.736   0.827
18616SOL    MW474785   8.948   3.789   0.895
18617SOL     OW74786   8.966   4.534   0.745
18617SOL    HW274787   9.046   4.549   0.694
18617SOL    HW374788   8.959   4.439   0.751
18617SOL    MW474789   8.975   4.523   0.740
18618SOL     OW74790   8.416   4.460   1.442
18618SOL    HW274791   8.485   4.527   1.439
18618SOL    HW374792   8.349   4.498   1.498
18618SOL    MW474793   8.417   4.473   1.449
18619SOL     OW74794   7.834   4.760   1.690
18619SOL    HW274795   7.788   4.676   1.692
18619SOL    HW374796   7.891   4.754   1.614
18619SOL    MW474797   7.836   4.748   1.682
18620SOL     OW74798   8.085   5.135   0.691
18620SOL    HW274799   8.150   5.068   0.712
18620SOL    HW374800   8.137   5.212   0.668
18620SOL    MW474801   8.100   5.137   0.690
18621SOL     OW74802   8.346   4.300   0.821
18621SOL    HW274803   8.286   4.318   0.893
18621SOL    HW374804   8.380   4.212   0.840
18621SOL    MW474805   8.342   4.290   0.834
18622SOL     OW74806   9.287   3.799   1.490
18622SOL    HW274807   9.208   3.845   1.518
18622SOL    HW374808   9.322   3.853   1.419
18622SOL    MW474809   9.281   3.812   1.484
18623SOL     OW74810   8.571   4.883   0.840
18623SOL    HW274811   8.663   4.864   0.858
18623SOL    HW374812   8.544   4.813   0.780
18623SOL    MW474813   8.579   4.871   0.834
18624SOL     OW74814   8.845   5.121   0.936
18624SOL    HW274815   8.818   5.205   0.901
18624SOL    HW374816   8.805   5.116   1.023
18624SOL    MW474817   8.838   5.130   0.942
18625SOL     OW74818   8.764   5.069   1.204
18625SOL    HW274819   8.775   5.036   1.293
18625SOL    HW374820   8.683   5.028   1.173
18625SOL    MW474821   8.754   5.061   1.210
18626SOL     OW74822   7.777   4.427   0.974
18626SOL    HW274823   7.727   4.426   1.055
18626SOL    HW374824   7.797   4.519   0.958
18626SOL    MW474825   7.773   4.439   0.982
18627SOL     OW74826   8.844   5.191   1.736
18627SOL    HW274827   8.844   5.285   1.752
18627SOL    HW374828   8.889   5.181   1.652
18627SOL    MW474829   8.850   5.201   1.727
18628SOL     OW74830   7.699   4.095   1.715
18628SOL    HW274831   7.656   4.154   1.652
18628SOL    HW374832   7.767   4.150   1.755
18628SOL    MW474833   7.703   4.110   1.712
18629SOL     OW74834   8.811   4.715   1.260
18629SOL    HW274835   8.874   4.712   1.333
18629SOL    HW374836   8.727   4.733   1.302
18629SOL    MW474837   8.807   4.717   1.275
18630SOL     OW74838   8.355   5.430   0.449
18630SOL    HW274839   8.413   5.501   0.476
18630SOL    HW374840   8.378   5.358   0.507
18630SOL    MW474841   8.366   5.430   0.460
18631SOL     OW74842   9.150   3.892   1.039
18631SOL    HW274843   9.195   3.810   1.058
18631SOL    HW374844   9.170   3.948   1.115
18631SOL    MW474845   9.160   3.888   1.051
18632SOL     OW74846   7.598   3.735   1.138
18632SOL    HW274847   7.589   3.736   1.043
18632SOL    HW374848   7.692   3.747   1.153
18632SOL    MW474849   7.610   3.738   1.129
18633SOL     OW74850   9.235   4.928   0.758
18633SOL    HW274851   9.214   4.874   0.681
18633SOL    HW374852   9.331   4.926   0.762
18633SOL    MW474853   9.244   4.921   0.747
18634SOL     OW74854   7.927   5.073   1.501
18634SOL    HW274855   7.848   5.023   1.524
18634SOL    HW374856   7.997   5.032   1.551
18634SOL    MW474857   7.925   5.061   1.511
18635SOL     OW74858   8.935   4.359   1.020
18635SOL    HW274859   8.858   4.405   0.986
18635SOL    HW374860   8.992   4.428   1.054
18635SOL    MW474861   8.932   4.374   1.020
18636SOL     OW74862   8.873   5.307   0.439
18636SOL    HW274863   8.936   5.297   0.368
18636SOL    HW374864   8.790   5.327   0.394
18636SOL    MW474865   8.870   5.308   0.424
18637SOL     OW74866   9.236   4.575   2.125
18637SOL    HW274867   9.277   4.517   2.190
18637SOL    HW374868   9.143   4.567   2.142
18637SOL    MW474869   9.230   4.567   2.135
18638SOL     OW74870   9.102   4.507   3.120
18638SOL    HW274871   9.057   4.574   3.171
18638SOL    HW374872   9.190   4.543   3.106
18638SOL    MW474873   9.108   4.520   3.124
18639SOL     OW74874   8.030   4.758   2.354
18639SOL    HW274875   8.120   4.733   2.338
18639SOL    HW374876   8.026   4.851   2.331
18639SOL    MW474877   8.042   4.767   2.349
18640SOL     OW74878   9.146   5.461   2.496
18640SOL    HW274879   9.158   5.407   2.574
18640SOL    HW374880   9.183   5.409   2.425
18640SOL    MW474881   9.152   5.446   2.497
18641SOL     OW74882   8.525   5.346   3.497
18641SOL    HW274883   8.566   5.382   3.418
18641SOL    HW374884   8.560   5.257   3.504
18641SOL    MW474885   8.536   5.339   3.488
18642SOL     OW74886   9.082   4.901   3.101
18642SOL    HW274887   9.003   4.866   3.059
18642SOL    HW374888   9.109   4.973   3.045
18642SOL    MW474889   9.075   4.906   3.088
18643SOL     OW74890   8.314   4.214   2.367
18643SOL    HW274891   8.289   4.302   2.395
18643SOL    HW374892   8.311   4.217   2.271
18643SOL    MW474893   8.310   4.226   2.359
18644SOL     OW74894   7.756   4.242   2.295
18644SOL    HW274895   7.788   4.330   2.277
18644SOL    HW374896   7.744   4.240   2.390
18644SOL    MW474897   7.759   4.254   2.307
18645SOL     OW74898   7.834   4.655   3.196
18645SOL    HW274899   7.897   4.602   3.147
18645SOL    HW374900   7.815   4.729   3.139
18645SOL    MW474901   7.840   4.657   3.183
18646SOL     OW74902   8.155   3.997   2.382
18646SOL    HW274903   8.213   4.073   2.384
18646SOL    HW374904   8.090   4.018   2.315
18646SOL    MW474905   8.154   4.009   2.373
18647SOL     OW74906   8.242   4.924   2.557
18647SOL    HW274907   8.322   4.927   2.609
18647SOL    HW374908   8.270   4.891   2.471
18647SOL    MW474909   8.256   4.920   2.552
18648SOL     OW74910   8.267   5.265   3.460
18648SOL    HW274911   8.351   5.291   3.499
18648SOL    HW374912   8.291   5.209   3.386
18648SOL    MW474913   8.281   5.261   3.455
18649SOL     OW74914   8.019   4.428   2.548
18649SOL    HW274915   8.004   4.348   2.599
18649SOL    HW374916   8.101   4.463   2.582
18649SOL    MW474917   8.027   4.420   2.560
18650SOL     OW74918   8.356   5.114   3.233
18650SOL    HW274919   8.320   5.180   3.173
18650SOL    HW374920   8.284   5.052   3.246
18650SOL    MW474921   8.342   5.114   3.227
18651SOL     OW74922   8.161   4.254   2.925
18651SOL    HW274923   8.067   4.250   2.943
18651SOL    HW374924   8.191   4.163   2.934
18651SOL    MW474925   8.152   4.242   2.928
18652SOL     OW74926   7.907   4.668   2.829
18652SOL    HW274927   7.862   4.675   2.745
18652SOL    HW374928   7.887   4.751   2.873
18652SOL    MW474929   7.899   4.680   2.823
18653SOL     OW74930   7.604   5.514   2.704
18653SOL    HW274931   7.693   5.506   2.739
18653SOL    HW374932   7.568   5.426   2.709
18653SOL    MW474933   7.611   5.501   2.709
18654SOL     OW74934   8.869   4.906   2.073
18654SOL    HW274935   8.787   4.942   2.039
18654SOL    HW374936   8.937   4.949   2.022
18654SOL    MW474937   8.867   4.916   2.061
18655SOL     OW74938   7.868   5.041   2.739
18655SOL    HW274939   7.844   5.094   2.815
18655SOL    HW374940   7.924   5.099   2.687
18655SOL    MW474941   7.872   5.056   2.742
18656SOL     OW74942   8.430   4.685   2.549
18656SOL    HW274943   8.344   4.672   2.589
18656SOL    HW374944   8.483   4.612   2.581
18656SOL    MW474945   8.426   4.674   2.558
18657SOL     OW74946   7.838   5.337   3.334
18657SOL    HW274947   7.746   5.313   3.319
18657SOL    HW374948   7.882   5.254   3.351
18657SOL    MW474949   7.832   5.322   3.333
18658SOL     OW74950   8.421   5.047   2.266
18658SOL    HW274951   8.398   5.109   2.334
18658SOL    HW374952   8.378   4.965   2.292
18658SOL    MW474953   8.413   5.043   2.277
18659SOL     OW74954   9.294   4.048   2.722
18659SOL    HW274955   9.231   4.028   2.791
18659SOL    HW374956   9.284   3.977   2.659
18659SOL    MW474957   9.284   4.035   2.723
18660SOL     OW74958   7.918   4.020   2.234
18660SOL    HW274959   7.892   3.982   2.150
18660SOL    HW374960   7.855   4.090   2.250
18660SOL    MW474961   7.907   4.023   2.225
18661SOL     OW74962   7.753   4.981   2.271
18661SOL    HW274963   7.701   5.049   2.227
18661SOL    HW374964   7.750   4.907   2.211
18661SOL    MW474965   7.745   4.980   2.258
18662SOL     OW74966   8.415   5.444   2.049
18662SOL    HW274967   8.370   5.460   2.132
18662SOL    HW374968   8.346   5.409   1.991
18662SOL    MW474969   8.401   5.441   2.051
18663SOL     OW74970   9.350   4.217   2.024
18663SOL    HW274971   9.259   4.219   2.052
18663SOL    HW374972   9.395   4.279   2.082
18663SOL    MW474973   9.343   4.225   2.034
18664SOL     OW74974   9.095   4.820   2.374
18664SOL    HW274975   9.005   4.820   2.409
18664SOL    HW374976   9.088   4.866   2.291
18664SOL    MW474977   9.082   4.826   2.368
18665SOL     OW74978   8.895   4.455   3.446
18665SOL    HW274979   8.964   4.393   3.423
18665SOL    HW374980   8.820   4.429   3.393
18665SOL    MW474981   8.895   4.442   3.437
18666SOL     OW74982   7.636   5.335   2.998
18666SOL    HW274983   7.619   5.281   3.075
18666SOL    HW374984   7.624   5.425   3.028
18666SOL    MW474985   7.633   5.339   3.012
18667SOL     OW74986   8.631   4.842   3.438
18667SOL    HW274987   8.616   4.935   3.423
18667SOL    HW374988   8.726   4.832   3.438
18667SOL    MW474989   8.640   4.852   3.435
18668SOL     OW74990   8.427   4.266   3.639
18668SOL    HW274991   8.517   4.267   3.606
18668SOL    HW374992   8.386   4.191   3.597
18668SOL    MW474993   8.433   4.256   3.630
18669SOL     OW74994   9.002   4.798   2.766
18669SOL    HW274995   9.005   4.732   2.697
18669SOL    HW374996   9.087   4.841   2.762
18669SOL    MW474997   9.014   4.794   2.757
18670SOL     OW74998   8.622   4.401   2.335
18670SOL    HW274999   8.648   4.425   2.246
18670SOL    HW375000   8.604   4.308   2.331
18670SOL    MW475001   8.624   4.393   2.322
18671SOL     OW75002   9.287   5.021   2.186
18671SOL    HW275003   9.243   5.062   2.261
18671SOL    HW375004   9.344   5.089   2.151
18671SOL    MW475005   9.289   5.035   2.191
18672SOL     OW75006   8.207   4.070   3.589
18672SOL    HW275007   8.217   3.996   3.529
18672SOL    HW375008   8.243   4.039   3.672
18672SOL    MW475009   8.213   4.056   3.591
18673SOL     OW75010   7.943   5.437   2.504
18673SOL    HW275011   7.975   5.525   2.482
18673SOL    HW375012   7.896   5.409   2.426
18673SOL    MW475013   7.942   5.445   2.491
18674SOL     OW75014   9.327   3.799   2.553
18674SOL    HW275015   9.381   3.750   2.615
18674SOL    HW375016   9.270   3.733   2.514
18674SOL    MW475017   9.327   3.783   2.555
18675SOL     OW75018   7.659   5.497   2.081
18675SOL    HW275019   7.688   5.587   2.073
18675SOL    HW375020   7.609   5.480   2.002
18675SOL    MW475021   7.657   5.505   2.070
18676SOL     OW75022   8.446   3.752   2.966
18676SOL    HW275023   8.405   3.830   2.928
18676SOL    HW375024   8.540   3.770   2.961
18676SOL    MW475025   8.452   3.764   2.961
18677SOL     OW75026   9.063   5.305   2.052
18677SOL    HW275027   9.111   5.374   2.098
18677SOL    HW375028   8.984   5.349   2.021
18677SOL    MW475029   9.058   5.319   2.055
18678SOL     OW75030   8.461   4.430   1.996
18678SOL    HW275031   8.463   4.377   1.917
18678SOL    HW375032   8.549   4.467   2.002
18678SOL    MW475033   8.473   4.429   1.985
18679SOL     OW75034   9.075   4.356   2.332
18679SOL    HW275035   9.114   4.356   2.419
18679SOL    HW375036   9.016   4.432   2.332
18679SOL    MW475037   9.072   4.367   2.343
18680SOL     OW75038   8.392   4.723   3.461
18680SOL    HW275039   8.369   4.703   3.551
18680SOL    HW375040   8.477   4.767   3.466
18680SOL    MW475041   8.399   4.726   3.473
18681SOL     OW75042   8.472   3.860   3.221
18681SOL    HW275043   8.478   3.822   3.134
18681SOL    HW375044   8.461   3.954   3.206
18681SOL    MW475045   8.473   3.868   3.209
18682SOL     OW75046   8.561   4.349   3.055
18682SOL    HW275047   8.636   4.378   3.002
18682SOL    HW375048   8.493   4.414   3.039
18682SOL    MW475049   8.562   4.361   3.045
18683SOL     OW75050   9.111   4.317   3.332
18683SOL    HW275051   9.092   4.226   3.311
18683SOL    HW375052   9.089   4.366   3.253
18683SOL    MW475053   9.106   4.310   3.319
18684SOL     OW75054   9.253   5.411   3.236
18684SOL    HW275055   9.181   5.373   3.287
18684SOL    HW375056   9.270   5.496   3.277
18684SOL    MW475057   9.247   5.416   3.248
18685SOL     OW75058   8.558   4.055   3.438
18685SOL    HW275059   8.524   4.094   3.357
18685SOL    HW375060   8.536   3.963   3.431
18685SOL    MW475061   8.551   4.048   3.428
18686SOL     OW75062   8.967   4.869   3.514
18686SOL    HW275063   9.049   4.910   3.544
18686SOL    HW375064   8.930   4.831   3.594
18686SOL    MW475065   8.973   4.870   3.529
18687SOL     OW75066   9.262   4.242   2.498
18687SOL    HW275067   9.351   4.211   2.515
18687SOL    HW375068   9.205   4.182   2.546
18687SOL    MW475069   9.265   4.230   2.507
18688SOL     OW75070   7.688   3.956   2.527
18688SOL    HW275071   7.679   3.896   2.453
18688SOL    HW375072   7.621   3.927   2.590
18688SOL    MW475073   7.678   3.943   2.525
18689SOL     OW75074   8.631   5.049   2.088
18689SOL    HW275075   8.581   5.051   2.170
18689SOL    HW375076   8.565   5.067   2.020
18689SOL    MW475077   8.617   5.051   2.090
18690SOL     OW75078   7.635   4.129   2.890
18690SOL    HW275079   7.607   4.220   2.899
18690SOL    HW375080   7.572   4.090   2.829
18690SOL    MW475081   7.622   4.135   2.884
18691SOL     OW75082   8.094   5.467   2.196
18691SOL    HW275083   8.015   5.425   2.229
18691SOL    HW375084   8.160   5.450   2.263
18691SOL    MW475085   8.093   5.459   2.209
18692SOL     OW75086   9.222   4.987   3.593
18692SOL    HW275087   9.272   4.913   3.625
18692SOL    HW375088   9.168   5.014   3.668
18692SOL    MW475089   9.222   4.981   3.606
18693SOL     OW75090   8.230   4.882   1.903
18693SOL    HW275091   8.152   4.828   1.890
18693SOL    HW375092   8.201   4.955   1.956
18693SOL    MW475093   8.216   4.884   1.908
18694SOL     OW75094   9.356   4.622   3.095
18694SOL    HW275095   9.372   4.660   3.008
18694SOL    HW375096   9.390   4.688   3.156
18694SOL    MW475097   9.363   4.635   3.091
18695SOL     OW75098   9.148   5.331   2.764
18695SOL    HW275099   9.177   5.398   2.825
18695SOL    HW375100   9.129   5.255   2.819
18695SOL    MW475101   9.150   5.331   2.779
18696SOL     OW75102   8.811   5.398   1.971
18696SOL    HW275103   8.737   5.361   2.021
18696SOL    HW375104   8.819   5.488   2.004
18696SOL    MW475105   8.802   5.405   1.983
18697SOL     OW75106   7.619   4.404   3.060
18697SOL    HW275107   7.681   4.434   3.126
18697SOL    HW375108   7.553   4.473   3.054
18697SOL    MW475109   7.618   4.417   3.067
18698SOL     OW75110   9.035   5.072   1.913
18698SOL    HW275111   8.982   5.121   1.849
18698SOL    HW375112   9.066   5.138   1.974
18698SOL    MW475113   9.033   5.086   1.911
18699SOL     OW75114   8.260   3.961   1.968
18699SOL    HW275115   8.208   3.881   1.956
18699SOL    HW375116   8.347   3.938   1.936
18699SOL    MW475117   8.263   3.947   1.962
18700SOL     OW75118   7.714   5.513   3.512
18700SOL    HW275119   7.688   5.581   3.450
18700SOL    HW375120   7.762   5.450   3.460
18700SOL    MW475121   7.716   5.513   3.498
18701SOL     OW75122   7.766   4.832   3.019
18701SOL    HW275123   7.819   4.907   3.044
18701SOL    HW375124   7.685   4.870   2.985
18701SOL    MW475125   7.762   4.847   3.019
18702SOL     OW75126   8.306   4.736   3.007
18702SOL    HW275127   8.334   4.645   3.019
18702SOL    HW375128   8.235   4.730   2.943
18702SOL    MW475129   8.299   4.724   3.002
18703SOL     OW75130   7.621   4.601   2.425
18703SOL    HW275131   7.712   4.616   2.452
18703SOL    HW375132   7.624   4.522   2.371
18703SOL    MW475133   7.633   4.593   2.423
18704SOL     OW75134   7.857   4.309   3.679
18704SOL    HW275135   7.804   4.389   3.686
18704SOL    HW375136   7.927   4.321   3.744
18704SOL    MW475137   7.859   4.322   3.687
18705SOL     OW75138   7.927   4.383   3.425
18705SOL    HW275139   8.007   4.433   3.411
18705SOL    HW375140   7.918   4.377   3.520
18705SOL    MW475141   7.936   4.389   3.435
18706SOL     OW75142   8.248   5.533   2.799
18706SOL    HW275143   8.337   5.548   2.829
18706SOL    HW375144   8.243   5.580   2.715
18706SOL    MW475145   8.258   5.541   2.792
18707SOL     OW75146   8.904   3.908   3.696
18707SOL    HW275147   8.960   3.835   3.722
18707SOL    HW375148   8.874   3.946   3.778
18707SOL    MW475149   8.908   3.903   3.709
18708SOL     OW75150   7.629   5.213   2.464
18708SOL    HW275151   7.601   5.252   2.546
18708SOL    HW375152   7.649   5.122   2.486
18708SOL    MW475153   7.627   5.205   2.477
18709SOL     OW75154   8.462   5.256   2.499
18709SOL    HW275155   8.545   5.210   2.483
18709SOL    HW375156   8.452   5.255   2.595
18709SOL    MW475157   8.472   5.249   2.509
18710SOL     OW75158   9.294   4.401   2.813
18710SOL    HW275159   9.383   4.431   2.795
18710SOL    HW375160   9.274   4.341   2.742
18710SOL    MW475161   9.303   4.398   2.802
18711SOL     OW75162   9.145   4.580   3.693
18711SOL    HW275163   9.200   4.504   3.674
18711SOL    HW375164   9.147   4.588   3.788
18711SOL    MW475165   9.153   4.571   3.701
18712SOL     OW75166   8.195   5.313   1.904
18712SOL    HW275167   8.135   5.382   1.874
18712SOL    HW375168   8.140   5.255   1.957
18712SOL    MW475169   8.179   5.315   1.906
18713SOL     OW75170   8.633   3.958   2.127
18713SOL    HW275171   8.566   3.934   2.064
18713SOL    HW375172   8.698   4.007   2.076
18713SOL    MW475173   8.633   3.960   2.112
18714SOL     OW75174   8.440   4.142   3.212
18714SOL    HW275175   8.359   4.183   3.240
18714SOL    HW375176   8.487   4.210   3.164
18714SOL    MW475177   8.435   4.157   3.210
18715SOL     OW75178   8.700   4.480   2.835
18715SOL    HW275179   8.713   4.574   2.845
18715SOL    HW375180   8.661   4.470   2.749
18715SOL    MW475181   8.696   4.491   2.825
18716SOL     OW75182   8.152   4.675   2.639
18716SOL    HW275183   8.063   4.666   2.672
18716SOL    HW375184   8.156   4.765   2.607
18716SOL    MW475185   8.141   4.686   2.639
18717SOL     OW75186   8.951   4.258   2.634
18717SOL    HW275187   8.896   4.179   2.633
18717SOL    HW375188   8.933   4.299   2.718
18717SOL    MW475189   8.941   4.253   2.643
18718SOL     OW75190   7.922   3.945   3.451
18718SOL    HW275191   7.843   3.963   3.503
18718SOL    HW375192   7.917   4.007   3.378
18718SOL    MW475193   7.912   3.955   3.448
18719SOL     OW75194   8.570   4.462   2.591
18719SOL    HW275195   8.507   4.394   2.615
18719SOL    HW375196   8.590   4.443   2.499
18719SOL    MW475197   8.564   4.449   2.583
18720SOL     OW75198   7.826   5.357   2.293
18720SOL    HW275199   7.787   5.404   2.219
18720SOL    HW375200   7.760   5.292   2.318
18720SOL    MW475201   7.813   5.355   2.287
18721SOL     OW75202   8.318   4.766   2.317
18721SOL    HW275203   8.320   4.740   2.224
18721SOL    HW375204   8.376   4.703   2.360
18721SOL    MW475205   8.326   4.755   2.311
18722SOL     OW75206   8.871   5.326   3.089
18722SOL    HW275207   8.796   5.372   3.127
18722SOL    HW375208   8.853   5.233   3.106
18722SOL    MW475209   8.860   5.320   3.097
18723SOL     OW75210   8.875   5.534   2.519
18723SOL    HW275211   8.818   5.487   2.458
18723SOL    HW375212   8.961   5.495   2.506
18723SOL    MW475213   8.878   5.525   2.509
18724SOL     OW75214   8.828   4.010   2.650
18724SOL    HW275215   8.856   3.942   2.711
18724SOL    HW375216   8.742   3.981   2.620
18724SOL    MW475217   8.821   3.997   2.654
18725SOL     OW75218   7.633   4.944   2.584
18725SOL    HW275219   7.697   4.976   2.647
18725SOL    HW375220   7.682   4.880   2.532
18725SOL    MW475221   7.648   4.940   2.585
18726SOL     OW75222   8.133   5.020   3.566
18726SOL    HW275223   8.181   5.103   3.553
18726SOL    HW375224   8.190   4.968   3.622
18726SOL    MW475225   8.147   5.024   3.572
18727SOL     OW75226   7.709   5.262   3.706
18727SOL    HW275227   7.765   5.186   3.721
18727SOL    HW375228   7.658   5.240   3.628
18727SOL    MW475229   7.709   5.249   3.697
18728SOL     OW75230   8.808   4.114   1.985
18728SOL    HW275231   8.781   4.180   1.921
18728SOL    HW375232   8.878   4.157   2.035
18728SOL    MW475233   8.813   4.127   1.982
18729SOL     OW75234   8.476   3.819   1.922
18729SOL    HW275235   8.532   3.811   1.844
18729SOL    HW375236   8.453   3.729   1.944
18729SOL    MW475237   8.481   3.806   1.915
18730SOL     OW75238   8.981   4.670   2.127
18730SOL    HW275239   8.948   4.759   2.117
18730SOL    HW375240   8.946   4.641   2.212
18730SOL    MW475241   8.971   4.679   2.138
18731SOL     OW75242   8.594   5.099   3.315
18731SOL    HW275243   8.505   5.105   3.283
18731SOL    HW375244   8.638   5.178   3.283
18731SOL    MW475245   8.589   5.109   3.307
18732SOL     OW75246   7.887   3.767   3.657
18732SOL    HW275247   7.815   3.732   3.605
18732SOL    HW375248   7.945   3.808   3.592
18732SOL    MW475249   7.885   3.768   3.642
18733SOL     OW75250   7.911   5.257   2.956
18733SOL    HW275251   7.956   5.319   3.013
18733SOL    HW375252   7.818   5.276   2.969
18733SOL    MW475253   7.904   5.267   2.963
18734SOL     OW75254   9.351   4.786   3.310
18734SOL    HW275255   9.266   4.799   3.269
18734SOL    HW375256   9.331   4.750   3.397
18734SOL    MW475257   9.338   4.782   3.315
18735SOL     OW75258   8.333   5.325   3.064
18735SOL    HW275259   8.357   5.314   2.973
18735SOL    HW375260   8.256   5.382   3.062
18735SOL    MW475261   8.325   5.330   3.053
18736SOL     OW75262   7.975   4.708   1.919
18736SOL    HW275263   7.898   4.721   1.975
18736SOL    HW375264   7.939   4.672   1.838
18736SOL    MW475265   7.961   4.704   1.916
18737SOL     OW75266   8.628   4.681   2.162
18737SOL    HW275267   8.538   4.702   2.137
18737SOL    HW375268   8.655   4.754   2.218
18737SOL    MW475269   8.620   4.693   2.165
18738SOL     OW75270   8.128   5.030   2.854
18738SOL    HW275271   8.121   5.009   2.948
18738SOL    HW375272   8.046   4.998   2.817
18738SOL    MW475273   8.116   5.024   2.861
18739SOL     OW75274   8.992   4.040   3.256
18739SOL    HW275275   8.939   4.042   3.336
18739SOL    HW375276   8.977   3.953   3.219
18739SOL    MW475277   8.984   4.030   3.261
18740SOL     OW75278   9.328   3.964   3.129
18740SOL    HW275279   9.309   4.031   3.064
18740SOL    HW375280   9.385   3.902   3.084
18740SOL    MW475281   9.332   3.965   3.115
18741SOL     OW75282   7.574   5.122   3.517
18741SOL    HW275283   7.618   5.055   3.463
18741SOL    HW375284   7.489   5.084   3.537
18741SOL    MW475285   7.569   5.108   3.513
18742SOL     OW75286   8.257   3.797   2.569
18742SOL    HW275287   8.186   3.858   2.551
18742SOL    HW375288   8.308   3.794   2.488
18742SOL    MW475289   8.253   3.803   2.556
18743SOL     OW75290   8.015   5.037   2.318
18743SOL    HW275291   8.008   5.069   2.408
18743SOL    HW375292   7.925   5.021   2.290
18743SOL    MW475293   8.003   5.039   2.325
18744SOL     OW75294   8.610   5.430   3.227
18744SOL    HW275295   8.530   5.415   3.177
18744SOL    HW375296   8.617   5.525   3.234
18744SOL    MW475297   8.601   5.441   3.221
18745SOL     OW75298   8.724   5.395   2.717
18745SOL    HW275299   8.771   5.468   2.676
18745SOL    HW375300   8.645   5.434   2.753
18745SOL    MW475301   8.719   5.410   2.716
18746SOL     OW75302   9.132   5.490   2.992
18746SOL    HW275303   9.175   5.460   3.072
18746SOL    HW375304   9.051   5.438   2.989
18746SOL    MW475305   9.127   5.479   3.002
18747SOL     OW75306   8.217   4.454   3.699
18747SOL    HW275307   8.287   4.396   3.671
18747SOL    HW375308   8.160   4.399   3.754
18747SOL    MW475309   8.219   4.441   3.703
18748SOL     OW75310   9.004   4.666   3.332
18748SOL    HW275311   9.009   4.719   3.412
18748SOL    HW375312   8.966   4.583   3.360
18748SOL    MW475313   9.000   4.661   3.347
18749SOL     OW75314   8.644   3.801   3.578
18749SOL    HW275315   8.639   3.708   3.559
18749SOL    HW375316   8.727   3.812   3.624
18749SOL    MW475317   8.652   3.790   3.582
18750SOL     OW75318   8.018   4.321   2.032
18750SOL    HW275319   7.984   4.377   2.102
18750SOL    HW375320   8.089   4.271   2.072
18750SOL    MW475321   8.024   4.322   2.046
18751SOL     OW75322   9.114   5.072   2.854
18751SOL    HW275323   9.149   5.054   2.767
18751SOL    HW375324   9.019   5.073   2.841
18751SOL    MW475325   9.106   5.069   2.841
18752SOL     OW75326   8.543   4.720   3.223
18752SOL    HW275327   8.586   4.755   3.301
18752SOL    HW375328   8.526   4.797   3.169
18752SOL    MW475329   8.546   4.735   3.226
18753SOL     OW75330   9.074   4.207   2.096
18753SOL    HW275331   9.066   4.278   2.033
18753SOL    HW375332   9.092   4.251   2.179
18753SOL    MW475333   9.075   4.221   2.098
18754SOL     OW75334   7.934   3.862   2.525
18754SOL    HW275335   7.984   3.905   2.456
18754SOL    HW375336   7.849   3.906   2.525
18754SOL    MW475337   7.931   3.875   2.516
18755SOL     OW75338   7.693   4.924   3.385
18755SOL    HW275339   7.721   4.877   3.463
18755SOL    HW375340   7.614   4.879   3.356
18755SOL    MW475341   7.686   4.913   3.391
18756SOL     OW75342   8.201   4.251   3.352
18756SOL    HW275343   8.173   4.339   3.376
18756SOL    HW375344   8.170   4.195   3.423
18756SOL    MW475345   8.193   4.254   3.364
18757SOL     OW75346   8.743   4.469   2.071
18757SOL    HW275347   8.790   4.487   1.990
18757SOL    HW375348   8.709   4.553   2.099
18757SOL    MW475349   8.745   4.483   2.064
18758SOL     OW75350   7.856   4.647   2.565
18758SOL    HW275351   7.914   4.703   2.513
18758SOL    HW375352   7.900   4.562   2.567
18758SOL    MW475353   7.869   4.644   2.558
18759SOL     OW75354   8.996   3.999   2.402
18759SOL    HW275355   8.918   3.949   2.427
18759SOL    HW375356   8.967   4.090   2.402
18759SOL    MW475357   8.982   4.003   2.405
18760SOL     OW75358   8.582   3.961   2.561
18760SOL    HW275359   8.602   4.036   2.505
18760SOL    HW375360   8.562   4.000   2.646
18760SOL    MW475361   8.583   3.977   2.565
18761SOL     OW75362   8.478   5.211   1.893
18761SOL    HW275363   8.505   5.289   1.845
18761SOL    HW375364   8.385   5.226   1.912
18761SOL    MW475365   8.469   5.224   1.889
18762SOL     OW75366   9.342   4.734   3.580
18762SOL    HW275367   9.255   4.714   3.616
18762SOL    HW375368   9.396   4.660   3.605
18762SOL    MW475369   9.337   4.723   3.588
18763SOL     OW75370   7.563   5.247   2.737
18763SOL    HW275371   7.595   5.251   2.828
18763SOL    HW375372   7.468   5.255   2.745
18763SOL    MW475373   7.555   5.250   2.750
18764SOL     OW75374   7.518   4.373   2.284
18764SOL    HW275375   7.458   4.345   2.354
18764SOL    HW375376   7.592   4.313   2.290
18764SOL    MW475377   7.520   4.362   2.293
18765SOL     OW75378   9.086   5.585   3.718
18765SOL    HW275379   9.131   5.509   3.683
18765SOL    HW375380   9.124   5.598   3.805
18765SOL    MW475381   9.096   5.578   3.724
18766SOL     OW75382   8.686   5.104   2.444
18766SOL    HW275383   8.709   5.055   2.522
18766SOL    HW375384   8.767   5.146   2.416
18766SOL    MW475385   8.699   5.104   2.451
18767SOL     OW75386   7.944   4.112   3.173
18767SOL    HW275387   7.977   4.193   3.213
18767SOL    HW375388   7.917   4.138   3.085
18767SOL    MW475389   7.943   4.126   3.167
18768SOL     OW75390   7.898   4.079   2.909
18768SOL    HW275391   7.928   3.993   2.880
18768SOL    HW375392   7.803   4.072   2.912
18768SOL    MW475393   7.890   4.068   2.907
18769SOL     OW75394   8.727   4.288   3.600
18769SOL    HW275395   8.779   4.223   3.553
18769SOL    HW375396   8.685   4.339   3.530
18769SOL    MW475397   8.728   4.285   3.583
18770SOL     OW75398   8.826   4.083   3.461
18770SOL    HW275399   8.733   4.067   3.448
18770SOL    HW375400   8.852   4.021   3.529
18770SOL    MW475401   8.816   4.073   3.468
18771SOL     OW75402   8.041   3.857   2.800
18771SOL    HW275403   8.051   3.766   2.826
18771SOL    HW375404   7.997   3.853   2.715
18771SOL    MW475405   8.037   3.845   2.792
18772SOL     OW75406   8.135   5.472   3.346
18772SOL    HW275407   8.052   5.457   3.391
18772SOL    HW375408   8.194   5.405   3.381
18772SOL    MW475409   8.133   5.462   3.356
18773SOL     OW75410   9.192   4.179   2.971
18773SOL    HW275411   9.125   4.212   3.031
18773SOL    HW375412   9.235   4.257   2.937
18773SOL    MW475413   9.190   4.194   2.975
18774SOL     OW75414   9.370   4.899   2.941
18774SOL    HW275415   9.363   4.839   2.866
18774SOL    HW375416   9.296   4.959   2.930
18774SOL    MW475417   9.360   4.899   2.930
18775SOL     OW75418   8.752   4.761   2.859
18775SOL    HW275419   8.766   4.733   2.950
18775SOL    HW375420   8.838   4.792   2.831
18775SOL    MW475421   8.765   4.762   2.868
18776SOL     OW75422   8.835   4.256   3.138
18776SOL    HW275423   8.856   4.257   3.045
18776SOL    HW375424   8.880   4.178   3.171
18776SOL    MW475425   8.842   4.246   3.130
18777SOL     OW75426   9.328   4.387   3.680
18777SOL    HW275427   9.365   4.332   3.749
18777SOL    HW375428   9.353   4.344   3.598
18777SOL    MW475429   9.335   4.375   3.679
18778SOL     OW75430   8.875   4.685   3.731
18778SOL    HW275431   8.941   4.633   3.685
18778SOL    HW375432   8.895   4.672   3.824
18778SOL    MW475433   8.886   4.676   3.738
18779SOL     OW75434   8.826   3.771   2.080
18779SOL    HW275435   8.900   3.815   2.123
18779SOL    HW375436   8.750   3.825   2.102
18779SOL    MW475437   8.826   3.783   2.088
18780SOL     OW75438   8.886   4.546   2.358
18780SOL    HW275439   8.801   4.516   2.328
18780SOL    HW375440   8.878   4.553   2.453
18780SOL    MW475441   8.874   4.544   2.367
18781SOL     OW75442   7.962   5.009   3.089
18781SOL    HW275443   7.974   5.036   3.180
18781SOL    HW375444   7.943   5.090   3.042
18781SOL    MW475445   7.961   5.024   3.094
18782SOL     OW75446   8.246   3.989   2.912
18782SOL    HW275447   8.219   3.991   3.003
18782SOL    HW375448   8.176   3.941   2.867
18782SOL    MW475449   8.234   3.985   2.919
18783SOL     OW75450   8.100   5.481   3.074
18783SOL    HW275451   8.152   5.558   3.051
18783SOL    HW375452   8.109   5.473   3.169
18783SOL    MW475453   8.109   5.488   3.085
18784SOL     OW75454   9.002   5.066   3.306
18784SOL    HW275455   8.987   4.995   3.369
18784SOL    HW375456   9.048   5.024   3.234
18784SOL    MW475457   9.008   5.050   3.306
18785SOL     OW75458   8.076   4.797   3.423
18785SOL    HW275459   8.113   4.802   3.335
18785SOL    HW375460   8.115   4.870   3.470
18785SOL    MW475461   8.086   4.807   3.418
18786SOL     OW75462   8.256   4.840   3.235
18786SOL    HW275463   8.315   4.786   3.288
18786SOL    HW375464   8.271   4.812   3.145
18786SOL    MW475465   8.266   4.829   3.231
18787SOL     OW75466   8.259   4.212   2.084
18787SOL    HW275467   8.332   4.261   2.047
18787SOL    HW375468   8.275   4.121   2.058
18787SOL    MW475469   8.271   4.207   2.077
18788SOL     OW75470   9.067   5.329   3.407
18788SOL    HW275471   9.109   5.314   3.492
18788SOL    HW375472   9.058   5.242   3.369
18788SOL    MW475473   9.071   5.317   3.414
18789SOL     OW75474   8.727   3.808   2.998
18789SOL    HW275475   8.782   3.817   2.920
18789SOL    HW375476   8.782   3.842   3.069
18789SOL    MW475477   8.741   3.813   2.997
18790SOL     OW75478   7.734   4.721   2.182
18790SOL    HW275479   7.671   4.737   2.111
18790SOL    HW375480   7.681   4.684   2.253
18790SOL    MW475481   7.719   4.718   2.182
18791SOL     OW75482   8.629   5.306   2.193
18791SOL    HW275483   8.637   5.224   2.144
18791SOL    HW375484   8.548   5.345   2.160
18791SOL    MW475485   8.619   5.301   2.183
18792SOL     OW75486   7.888   5.464   2.762
18792SOL    HW275487   7.892   5.375   2.797
18792SOL    HW375488   7.914   5.455   2.671
18792SOL    MW475489   7.891   5.452   2.754
18793SOL     OW75490   8.505   4.942   3.005
18793SOL    HW275491   8.437   4.876   3.021
18793SOL    HW375492   8.523   4.936   2.912
18793SOL    MW475493   8.498   4.933   2.996
18794SOL     OW75494   7.594   5.217   3.256
18794SOL    HW275495   7.584   5.175   3.342
18794SOL    HW375496   7.515   5.270   3.246
18794SOL    MW475497   7.583   5.218   3.267
18795SOL     OW75498   8.498   4.081   2.826
18795SOL    HW275499   8.428   4.033   2.871
18795SOL    HW375500   8.530   4.144   2.890
18795SOL    MW475501   8.493   4.083   2.840
18796SOL     OW75502   8.149   4.517   3.446
18796SOL    HW275503   8.142   4.612   3.434
18796SOL    HW375504   8.158   4.506   3.541
18796SOL    MW475505   8.150   4.529   3.456
18797SOL     OW75506   7.870   5.032   3.704
18797SOL    HW275507   7.942   5.034   3.641
18797SOL    HW375508   7.840   4.941   3.703
18797SOL    MW475509   7.875   5.021   3.696
18798SOL     OW75510   8.954   3.795   3.171
18798SOL    HW275511   9.025   3.741   3.135
18798SOL    HW375512   8.953   3.774   3.264
18798SOL    MW475513   8.963   3.786   3.179
18799SOL     OW75514   9.154   5.325   3.655
18799SOL    HW275515   9.127   5.322   3.746
18799SOL    HW375516   9.250   5.329   3.658
18799SOL    MW475517   9.164   5.325   3.667
18800SOL     OW75518   7.965   4.187   2.639
18800SOL    HW275519   8.036   4.135   2.602
18800SOL    HW375520   7.951   4.152   2.726
18800SOL    MW475521   7.973   4.176   2.646
18801SOL     OW75522   7.520   5.522   3.711
18801SOL    HW275523   7.570   5.500   3.633
18801SOL    HW375524   7.528   5.617   3.719
18801SOL    MW475525   7.528   5.531   3.702
18802SOL     OW75526   8.281   5.280   2.715
18802SOL    HW275527   8.209   5.217   2.728
18802SOL    HW375528   8.242   5.365   2.733
18802SOL    MW475529   8.265   5.283   2.718
18803SOL     OW75530   8.601   4.128   2.363
18803SOL    HW275531   8.623   4.065   2.295
18803SOL    HW375532   8.506   4.120   2.374
18803SOL    MW475533   8.591   4.119   2.355
18804SOL     OW75534   7.686   3.818   2.295
18804SOL    HW275535   7.757   3.839   2.234
18804SOL    HW375536   7.640   3.746   2.253
18804SOL    MW475537   7.690   3.812   2.281
18805SOL     OW75538   7.517   4.285   3.438
18805SOL    HW275539   7.581   4.351   3.413
18805SOL    HW375540   7.436   4.312   3.395
18805SOL    MW475541   7.515   4.297   3.430
18806SOL     OW75542   9.255   5.192   2.395
18806SOL    HW275543   9.225   5.125   2.456
18806SOL    HW375544   9.349   5.198   2.409
18806SOL    MW475545   9.263   5.184   2.405
18807SOL     OW75546   8.811   4.869   2.325
18807SOL    HW275547   8.783   4.955   2.358
18807SOL    HW375548   8.839   4.885   2.235
18807SOL    MW475549   8.811   4.883   2.317
18808SOL     OW75550   8.473   3.789   2.378
18808SOL    HW275551   8.510   3.848   2.443
18808SOL    HW375552   8.450   3.845   2.304
18808SOL    MW475553   8.474   3.804   2.377
18809SOL     OW75554   9.326   4.671   2.800
18809SOL    HW275555   9.317   4.703   2.711
18809SOL    HW375556   9.279   4.587   2.800
18809SOL    MW475557   9.319   4.664   2.790
18810SOL     OW75558   7.702   4.511   3.379
18810SOL    HW275559   7.723   4.580   3.317
18810SOL    HW375560   7.782   4.458   3.384
18810SOL    MW475561   7.715   4.512   3.373
18811SOL     OW75562   9.238   4.602   2.501
18811SOL    HW275563   9.332   4.591   2.489
18811SOL    HW375564   9.214   4.674   2.442
18811SOL    MW475565   9.248   4.610   2.492
18812SOL     OW75566   7.687   4.526   3.646
18812SOL    HW275567   7.613   4.470   3.672
18812SOL    HW375568   7.682   4.529   3.551
18812SOL    MW475569   7.676   4.519   3.636
18813SOL     OW75570   7.853   3.813   3.096
18813SOL    HW275571   7.896   3.897   3.116
18813SOL    HW375572   7.926   3.751   3.089
18813SOL    MW475573   7.868   3.816   3.097
18814SOL     OW75574   7.894   4.480   2.274
18814SOL    HW275575   7.894   4.575   2.259
18814SOL    HW375576   7.971   4.464   2.328
18814SOL    MW475577   7.904   4.491   2.279
18815SOL     OW75578   8.670   4.339   3.338
18815SOL    HW275579   8.706   4.312   3.254
18815SOL    HW375580   8.583   4.373   3.317
18815SOL    MW475581   8.664   4.340   3.325
18816SOL     OW75582   7.653   4.211   2.563
18816SOL    HW275583   7.715   4.218   2.636
18816SOL    HW375584   7.653   4.118   2.540
18816SOL    MW475585   7.661   4.200   2.570
18817SOL     OW75586   9.200   5.551   2.095
18817SOL    HW275587   9.267   5.584   2.035
18817SOL    HW375588   9.157   5.630   2.129
18817SOL    MW475589   9.202   5.566   2.091
18818SOL     OW75590   9.006   5.605   3.446
18818SOL    HW275591   9.009   5.511   3.429
18818SOL    HW375592   9.029   5.613   3.538
18818SOL    MW475593   9.009   5.593   3.456
18819SOL     OW75594   8.139   3.942   3.152
18819SOL    HW275595   8.070   4.005   3.173
18819SOL    HW375596   8.166   3.906   3.237
18819SOL    MW475597   8.133   3.945   3.165
18820SOL     OW75598   7.522   4.783   2.021
18820SOL    HW275599   7.491   4.848   2.084
18820SOL    HW375600   7.471   4.705   2.040
18820SOL    MW475601   7.512   4.780   2.031
18821SOL     OW75602   8.934   3.795   2.769
18821SOL    HW275603   9.022   3.804   2.806
18821SOL    HW375604   8.944   3.736   2.695
18821SOL    MW475605   8.948   3.789   2.763
18822SOL     OW75606   8.966   4.534   2.613
18822SOL    HW275607   9.046   4.549   2.562
18822SOL    HW375608   8.959   4.439   2.619
18822SOL    MW475609   8.975   4.523   2.608
18823SOL     OW75610   8.106   5.583   1.963
18823SOL    HW275611   8.011   5.583   1.955
18823SOL    HW375612   8.122   5.529   2.041
18823SOL    MW475613   8.096   5.577   1.972
18824SOL     OW75614   8.416   4.460   3.310
18824SOL    HW275615   8.485   4.527   3.307
18824SOL    HW375616   8.349   4.498   3.366
18824SOL    MW475617   8.417   4.473   3.317
18825SOL     OW75618   7.834   4.760   3.558
18825SOL    HW275619   7.788   4.676   3.560
18825SOL    HW375620   7.891   4.754   3.482
18825SOL    MW475621   7.836   4.748   3.550
18826SOL     OW75622   8.951   4.403   1.879
18826SOL    HW275623   8.879   4.379   1.821
18826SOL    HW375624   9.017   4.440   1.821
18826SOL    MW475625   8.950   4.405   1.864
18827SOL     OW75626   8.085   5.135   2.559
18827SOL    HW275627   8.150   5.068   2.580
18827SOL    HW375628   8.137   5.212   2.536
18827SOL    MW475629   8.100   5.137   2.558
18828SOL     OW75630   8.346   4.300   2.689
18828SOL    HW275631   8.286   4.318   2.761
18828SOL    HW375632   8.380   4.212   2.708
18828SOL    MW475633   8.342   4.290   2.702
18829SOL     OW75634   9.287   3.799   3.358
18829SOL    HW275635   9.208   3.845   3.386
18829SOL    HW375636   9.322   3.853   3.287
18829SOL    MW475637   9.281   3.812   3.352
18830SOL     OW75638   8.571   4.883   2.708
18830SOL    HW275639   8.663   4.864   2.726
18830SOL    HW375640   8.544   4.813   2.648
18830SOL    MW475641   8.579   4.871   2.702
18831SOL     OW75642   8.364   4.703   2.063
18831SOL    HW275643   8.350   4.615   2.028
18831SOL    HW375644   8.315   4.760   2.004
18831SOL    MW475645   8.356   4.698   2.051
18832SOL     OW75646   8.845   5.121   2.804
18832SOL    HW275647   8.818   5.205   2.769
18832SOL    HW375648   8.805   5.116   2.891
18832SOL    MW475649   8.838   5.130   2.810
18833SOL     OW75650   8.764   5.069   3.072
18833SOL    HW275651   8.775   5.036   3.161
18833SOL    HW375652   8.683   5.028   3.041
18833SOL    MW475653   8.754   5.061   3.078
18834SOL     OW75654   7.777   4.427   2.842
18834SOL    HW275655   7.727   4.426   2.923
18834SOL    HW375656   7.797   4.519   2.826
18834SOL    MW475657   7.773   4.439   2.850
18835SOL     OW75658   8.844   5.191   3.604
18835SOL    HW275659   8.844   5.285   3.620
18835SOL    HW375660   8.889   5.181   3.520
18835SOL    MW475661   8.850   5.201   3.595
18836SOL     OW75662   9.083   3.909   2.165
18836SOL    HW275663   9.076   3.913   2.260
18836SOL    HW375664   9.095   4.000   2.138
18836SOL    MW475665   9.084   3.922   2.173
18837SOL     OW75666   8.372   4.472   2.279
18837SOL    HW275667   8.352   4.458   2.186
18837SOL    HW375668   8.465   4.451   2.286
18837SOL    MW475669   8.382   4.467   2.268
18838SOL     OW75670   7.699   4.095   3.583
18838SOL    HW275671   7.656   4.154   3.520
18838SOL    HW375672   7.767   4.150   3.623
18838SOL    MW475673   7.703   4.110   3.580
18839SOL     OW75674   8.811   4.715   3.128
18839SOL    HW275675   8.874   4.712   3.201
18839SOL    HW375676   8.727   4.733   3.170
18839SOL    MW475677   8.807   4.717   3.143
18840SOL     OW75678   8.355   5.430   2.317
18840SOL    HW275679   8.413   5.501   2.344
18840SOL    HW375680   8.378   5.358   2.375
18840SOL    MW475681   8.366   5.430   2.328
18841SOL     OW75682   9.150   3.892   2.907
18841SOL    HW275683   9.195   3.810   2.926
18841SOL    HW375684   9.170   3.948   2.983
18841SOL    MW475685   9.160   3.888   2.919
18842SOL     OW75686   7.598   3.735   3.006
18842SOL    HW275687   7.589   3.736   2.911
18842SOL    HW375688   7.692   3.747   3.021
18842SOL    MW475689   7.610   3.738   2.997
18843SOL     OW75690   9.235   4.928   2.626
18843SOL    HW275691   9.214   4.874   2.549
18843SOL    HW375692   9.331   4.926   2.630
18843SOL    MW475693   9.244   4.921   2.615
18844SOL     OW75694   7.927   5.073   3.369
18844SOL    HW275695   7.848   5.023   3.392
18844SOL    HW375696   7.997   5.032   3.419
18844SOL    MW475697   7.925   5.061   3.379
18845SOL     OW75698   7.811   3.862   2.052
18845SOL    HW275699   7.740   3.917   2.020
18845SOL    HW375700   7.853   3.828   1.973
18845SOL    MW475701   7.807   3.864   2.038
18846SOL     OW75702   8.935   4.359   2.888
18846SOL    HW275703   8.858   4.405   2.854
18846SOL    HW375704   8.992   4.428   2.922
18846SOL    MW475705   8.932   4.374   2.888
18847SOL     OW75706   7.567   3.961   1.901
18847SOL    HW275707   7.534   4.040   1.945
18847SOL    HW375708   7.622   3.994   1.830
18847SOL    MW475709   7.570   3.975   1.898
18848SOL     OW75710   7.601   5.218   2.090
18848SOL    HW275711   7.618   5.302   2.132
18848SOL    HW375712   7.636   5.227   2.002
18848SOL    MW475713   7.606   5.231   2.084
18849SOL     OW75714   8.873   5.307   2.307
18849SOL    HW275715   8.936   5.297   2.236
18849SOL    HW375716   8.790   5.327   2.262
18849SOL    MW475717   8.870   5.308   2.292
18850SOL     OW75718   9.236   4.575   3.993
18850SOL    HW275719   9.277   4.517   4.058
18850SOL    HW375720   9.143   4.567   4.010
18850SOL    MW475721   9.230   4.567   4.003
18851SOL     OW75722   9.102   4.507   4.988
18851SOL    HW275723   9.057   4.574   5.039
18851SOL    HW375724   9.190   4.543   4.974
18851SOL    MW475725   9.108   4.520   4.992
18852SOL     OW75726   8.030   4.758   4.222
18852SOL    HW275727   8.120   4.733   4.206
18852SOL    HW375728   8.026   4.851   4.199
18852SOL    MW475729   8.042   4.767   4.217
18853SOL     OW75730   9.146   5.461   4.364
18853SOL    HW275731   9.158   5.407   4.442
18853SOL    HW375732   9.183   5.409   4.293
18853SOL    MW475733   9.152   5.446   4.365
18854SOL     OW75734   8.525   5.346   5.365
18854SOL    HW275735   8.566   5.382   5.286
18854SOL    HW375736   8.560   5.257   5.372
18854SOL    MW475737   8.536   5.339   5.356
18855SOL     OW75738   9.082   4.901   4.969
18855SOL    HW275739   9.003   4.866   4.927
18855SOL    HW375740   9.109   4.973   4.913
18855SOL    MW475741   9.075   4.906   4.956
18856SOL     OW75742   8.314   4.214   4.235
18856SOL    HW275743   8.289   4.302   4.263
18856SOL    HW375744   8.311   4.217   4.139
18856SOL    MW475745   8.310   4.226   4.227
18857SOL     OW75746   7.756   4.242   4.163
18857SOL    HW275747   7.788   4.330   4.145
18857SOL    HW375748   7.744   4.240   4.258
18857SOL    MW475749   7.759   4.254   4.175
18858SOL     OW75750   7.834   4.655   5.064
18858SOL    HW275751   7.897   4.602   5.015
18858SOL    HW375752   7.815   4.729   5.007
18858SOL    MW475753   7.840   4.657   5.051
18859SOL     OW75754   8.155   3.997   4.250
18859SOL    HW275755   8.213   4.073   4.252
18859SOL    HW375756   8.090   4.018   4.183
18859SOL    MW475757   8.154   4.009   4.241
18860SOL     OW75758   8.242   4.924   4.425
18860SOL    HW275759   8.322   4.927   4.477
18860SOL    HW375760   8.270   4.891   4.339
18860SOL    MW475761   8.256   4.920   4.420
18861SOL     OW75762   8.267   5.265   5.328
18861SOL    HW275763   8.351   5.291   5.367
18861SOL    HW375764   8.291   5.209   5.254
18861SOL    MW475765   8.281   5.261   5.323
18862SOL     OW75766   8.019   4.428   4.416
18862SOL    HW275767   8.004   4.348   4.467
18862SOL    HW375768   8.101   4.463   4.450
18862SOL    MW475769   8.027   4.420   4.428
18863SOL     OW75770   8.356   5.114   5.101
18863SOL    HW275771   8.320   5.180   5.041
18863SOL    HW375772   8.284   5.052   5.114
18863SOL    MW475773   8.342   5.114   5.095
18864SOL     OW75774   8.161   4.254   4.793
18864SOL    HW275775   8.067   4.250   4.811
18864SOL    HW375776   8.191   4.163   4.802
18864SOL    MW475777   8.152   4.242   4.796
18865SOL     OW75778   7.907   4.668   4.697
18865SOL    HW275779   7.862   4.675   4.613
18865SOL    HW375780   7.887   4.751   4.741
18865SOL    MW475781   7.899   4.680   4.691
18866SOL     OW75782   7.604   5.514   4.572
18866SOL    HW275783   7.693   5.506   4.607
18866SOL    HW375784   7.568   5.426   4.577
18866SOL    MW475785   7.611   5.501   4.577
18867SOL     OW75786   8.869   4.906   3.941
18867SOL    HW275787   8.787   4.942   3.907
18867SOL    HW375788   8.937   4.949   3.890
18867SOL    MW475789   8.867   4.916   3.929
18868SOL     OW75790   7.868   5.041   4.607
18868SOL    HW275791   7.844   5.094   4.683
18868SOL    HW375792   7.924   5.099   4.555
18868SOL    MW475793   7.872   5.056   4.610
18869SOL     OW75794   8.430   4.685   4.417
18869SOL    HW275795   8.344   4.672   4.457
18869SOL    HW375796   8.483   4.612   4.449
18869SOL    MW475797   8.426   4.674   4.426
18870SOL     OW75798   7.838   5.337   5.202
18870SOL    HW275799   7.746   5.313   5.187
18870SOL    HW375800   7.882   5.254   5.219
18870SOL    MW475801   7.832   5.322   5.201
18871SOL     OW75802   8.421   5.047   4.134
18871SOL    HW275803   8.398   5.109   4.202
18871SOL    HW375804   8.378   4.965   4.160
18871SOL    MW475805   8.413   5.043   4.145
18872SOL     OW75806   9.294   4.048   4.590
18872SOL    HW275807   9.231   4.028   4.659
18872SOL    HW375808   9.284   3.977   4.527
18872SOL    MW475809   9.284   4.035   4.591
18873SOL     OW75810   7.918   4.020   4.102
18873SOL    HW275811   7.892   3.982   4.018
18873SOL    HW375812   7.855   4.090   4.118
18873SOL    MW475813   7.907   4.023   4.093
18874SOL     OW75814   7.753   4.981   4.139
18874SOL    HW275815   7.701   5.049   4.095
18874SOL    HW375816   7.750   4.907   4.079
18874SOL    MW475817   7.745   4.980   4.126
18875SOL     OW75818   8.415   5.444   3.917
18875SOL    HW275819   8.370   5.460   4.000
18875SOL    HW375820   8.346   5.409   3.859
18875SOL    MW475821   8.401   5.441   3.919
18876SOL     OW75822   9.350   4.217   3.892
18876SOL    HW275823   9.259   4.219   3.920
18876SOL    HW375824   9.395   4.279   3.950
18876SOL    MW475825   9.343   4.225   3.902
18877SOL     OW75826   9.095   4.820   4.242
18877SOL    HW275827   9.005   4.820   4.277
18877SOL    HW375828   9.088   4.866   4.159
18877SOL    MW475829   9.082   4.826   4.236
18878SOL     OW75830   8.895   4.455   5.314
18878SOL    HW275831   8.964   4.393   5.291
18878SOL    HW375832   8.820   4.429   5.261
18878SOL    MW475833   8.895   4.442   5.305
18879SOL     OW75834   7.636   5.335   4.866
18879SOL    HW275835   7.619   5.281   4.943
18879SOL    HW375836   7.624   5.425   4.896
18879SOL    MW475837   7.633   5.339   4.880
18880SOL     OW75838   8.631   4.842   5.306
18880SOL    HW275839   8.616   4.935   5.291
18880SOL    HW375840   8.726   4.832   5.306
18880SOL    MW475841   8.640   4.852   5.303
18881SOL     OW75842   8.427   4.266   5.507
18881SOL    HW275843   8.517   4.267   5.474
18881SOL    HW375844   8.386   4.191   5.465
18881SOL    MW475845   8.433   4.256   5.498
18882SOL     OW75846   9.002   4.798   4.634
18882SOL    HW275847   9.005   4.732   4.565
18882SOL    HW375848   9.087   4.841   4.630
18882SOL    MW475849   9.014   4.794   4.625
18883SOL     OW75850   8.622   4.401   4.203
18883SOL    HW275851   8.648   4.425   4.114
18883SOL    HW375852   8.604   4.308   4.199
18883SOL    MW475853   8.624   4.393   4.190
18884SOL     OW75854   9.287   5.021   4.054
18884SOL    HW275855   9.243   5.062   4.129
18884SOL    HW375856   9.344   5.089   4.019
18884SOL    MW475857   9.289   5.035   4.059
18885SOL     OW75858   8.207   4.070   5.457
18885SOL    HW275859   8.217   3.996   5.397
18885SOL    HW375860   8.243   4.039   5.540
18885SOL    MW475861   8.213   4.056   5.459
18886SOL     OW75862   7.943   5.437   4.372
18886SOL    HW275863   7.975   5.525   4.350
18886SOL    HW375864   7.896   5.409   4.294
18886SOL    MW475865   7.942   5.445   4.359
18887SOL     OW75866   9.327   3.799   4.421
18887SOL    HW275867   9.381   3.750   4.483
18887SOL    HW375868   9.270   3.733   4.382
18887SOL    MW475869   9.327   3.783   4.423
18888SOL     OW75870   7.659   5.497   3.949
18888SOL    HW275871   7.688   5.587   3.941
18888SOL    HW375872   7.609   5.480   3.870
18888SOL    MW475873   7.657   5.505   3.938
18889SOL     OW75874   8.446   3.752   4.834
18889SOL    HW275875   8.405   3.830   4.796
18889SOL    HW375876   8.540   3.770   4.829
18889SOL    MW475877   8.452   3.764   4.829
18890SOL     OW75878   9.063   5.305   3.920
18890SOL    HW275879   9.111   5.374   3.966
18890SOL    HW375880   8.984   5.349   3.889
18890SOL    MW475881   9.058   5.319   3.923
18891SOL     OW75882   8.461   4.430   3.864
18891SOL    HW275883   8.463   4.377   3.785
18891SOL    HW375884   8.549   4.467   3.870
18891SOL    MW475885   8.473   4.429   3.853
18892SOL     OW75886   9.075   4.356   4.200
18892SOL    HW275887   9.114   4.356   4.287
18892SOL    HW375888   9.016   4.432   4.200
18892SOL    MW475889   9.072   4.367   4.211
18893SOL     OW75890   8.392   4.723   5.329
18893SOL    HW275891   8.369   4.703   5.419
18893SOL    HW375892   8.477   4.767   5.334
18893SOL    MW475893   8.399   4.726   5.341
18894SOL     OW75894   8.472   3.860   5.089
18894SOL    HW275895   8.478   3.822   5.002
18894SOL    HW375896   8.461   3.954   5.074
18894SOL    MW475897   8.473   3.868   5.077
18895SOL     OW75898   8.561   4.349   4.923
18895SOL    HW275899   8.636   4.378   4.870
18895SOL    HW375900   8.493   4.414   4.907
18895SOL    MW475901   8.562   4.361   4.913
18896SOL     OW75902   9.111   4.317   5.200
18896SOL    HW275903   9.092   4.226   5.179
18896SOL    HW375904   9.089   4.366   5.121
18896SOL    MW475905   9.106   4.310   5.187
18897SOL     OW75906   9.253   5.411   5.104
18897SOL    HW275907   9.181   5.373   5.155
18897SOL    HW375908   9.270   5.496   5.145
18897SOL    MW475909   9.247   5.416   5.116
18898SOL     OW75910   8.558   4.055   5.306
18898SOL    HW275911   8.524   4.094   5.225
18898SOL    HW375912   8.536   3.963   5.299
18898SOL    MW475913   8.551   4.048   5.296
18899SOL     OW75914   8.967   4.869   5.382
18899SOL    HW275915   9.049   4.910   5.412
18899SOL    HW375916   8.930   4.831   5.462
18899SOL    MW475917   8.973   4.870   5.397
18900SOL     OW75918   9.262   4.242   4.366
18900SOL    HW275919   9.351   4.211   4.383
18900SOL    HW375920   9.205   4.182   4.414
18900SOL    MW475921   9.265   4.230   4.375
18901SOL     OW75922   7.688   3.956   4.395
18901SOL    HW275923   7.679   3.896   4.321
18901SOL    HW375924   7.621   3.927   4.458
18901SOL    MW475925   7.678   3.943   4.393
18902SOL     OW75926   8.631   5.049   3.956
18902SOL    HW275927   8.581   5.051   4.038
18902SOL    HW375928   8.565   5.067   3.888
18902SOL    MW475929   8.617   5.051   3.958
18903SOL     OW75930   7.635   4.129   4.758
18903SOL    HW275931   7.607   4.220   4.767
18903SOL    HW375932   7.572   4.090   4.697
18903SOL    MW475933   7.622   4.135   4.752
18904SOL     OW75934   8.094   5.467   4.064
18904SOL    HW275935   8.015   5.425   4.097
18904SOL    HW375936   8.160   5.450   4.131
18904SOL    MW475937   8.093   5.459   4.077
18905SOL     OW75938   9.222   4.987   5.461
18905SOL    HW275939   9.272   4.913   5.493
18905SOL    HW375940   9.168   5.014   5.536
18905SOL    MW475941   9.222   4.981   5.474
18906SOL     OW75942   8.230   4.882   3.771
18906SOL    HW275943   8.152   4.828   3.758
18906SOL    HW375944   8.201   4.955   3.824
18906SOL    MW475945   8.216   4.884   3.776
18907SOL     OW75946   9.356   4.622   4.963
18907SOL    HW275947   9.372   4.660   4.876
18907SOL    HW375948   9.390   4.688   5.024
18907SOL    MW475949   9.363   4.635   4.959
18908SOL     OW75950   9.148   5.331   4.632
18908SOL    HW275951   9.177   5.398   4.693
18908SOL    HW375952   9.129   5.255   4.687
18908SOL    MW475953   9.150   5.331   4.647
18909SOL     OW75954   8.811   5.398   3.839
18909SOL    HW275955   8.737   5.361   3.889
18909SOL    HW375956   8.819   5.488   3.872
18909SOL    MW475957   8.802   5.405   3.851
18910SOL     OW75958   7.619   4.404   4.928
18910SOL    HW275959   7.681   4.434   4.994
18910SOL    HW375960   7.553   4.473   4.922
18910SOL    MW475961   7.618   4.417   4.935
18911SOL     OW75962   9.035   5.072   3.781
18911SOL    HW275963   8.982   5.121   3.717
18911SOL    HW375964   9.066   5.138   3.842
18911SOL    MW475965   9.033   5.086   3.779
18912SOL     OW75966   8.260   3.961   3.836
18912SOL    HW275967   8.208   3.881   3.824
18912SOL    HW375968   8.347   3.938   3.804
18912SOL    MW475969   8.263   3.947   3.830
18913SOL     OW75970   7.714   5.513   5.380
18913SOL    HW275971   7.688   5.581   5.318
18913SOL    HW375972   7.762   5.450   5.328
18913SOL    MW475973   7.716   5.513   5.366
18914SOL     OW75974   7.766   4.832   4.887
18914SOL    HW275975   7.819   4.907   4.912
18914SOL    HW375976   7.685   4.870   4.853
18914SOL    MW475977   7.762   4.847   4.887
18915SOL     OW75978   8.306   4.736   4.875
18915SOL    HW275979   8.334   4.645   4.887
18915SOL    HW375980   8.235   4.730   4.811
18915SOL    MW475981   8.299   4.724   4.870
18916SOL     OW75982   7.621   4.601   4.293
18916SOL    HW275983   7.712   4.616   4.320
18916SOL    HW375984   7.624   4.522   4.239
18916SOL    MW475985   7.633   4.593   4.291
18917SOL     OW75986   7.857   4.309   5.547
18917SOL    HW275987   7.804   4.389   5.554
18917SOL    HW375988   7.927   4.321   5.612
18917SOL    MW475989   7.859   4.322   5.555
18918SOL     OW75990   8.243   3.859   5.254
18918SOL    HW275991   8.220   3.767   5.256
18918SOL    HW375992   8.329   3.861   5.211
18918SOL    MW475993   8.250   3.849   5.250
18919SOL     OW75994   7.927   4.383   5.293
18919SOL    HW275995   8.007   4.433   5.279
18919SOL    HW375996   7.918   4.377   5.388
18919SOL    MW475997   7.936   4.389   5.303
18920SOL     OW75998   8.248   5.533   4.667
18920SOL    HW275999   8.337   5.548   4.697
18920SOL    HW376000   8.243   5.580   4.583
18920SOL    MW476001   8.258   5.541   4.660
18921SOL     OW76002   7.629   5.213   4.332
18921SOL    HW276003   7.601   5.252   4.414
18921SOL    HW376004   7.649   5.122   4.354
18921SOL    MW476005   7.627   5.205   4.345
18922SOL     OW76006   8.462   5.256   4.367
18922SOL    HW276007   8.545   5.210   4.351
18922SOL    HW376008   8.452   5.255   4.463
18922SOL    MW476009   8.472   5.249   4.377
18923SOL     OW76010   9.294   4.401   4.681
18923SOL    HW276011   9.383   4.431   4.663
18923SOL    HW376012   9.274   4.341   4.610
18923SOL    MW476013   9.303   4.398   4.670
18924SOL     OW76014   9.145   4.580   5.561
18924SOL    HW276015   9.200   4.504   5.542
18924SOL    HW376016   9.147   4.588   5.656
18924SOL    MW476017   9.153   4.571   5.569
18925SOL     OW76018   8.195   5.313   3.772
18925SOL    HW276019   8.135   5.382   3.742
18925SOL    HW376020   8.140   5.255   3.825
18925SOL    MW476021   8.179   5.315   3.774
18926SOL     OW76022   8.633   3.958   3.995
18926SOL    HW276023   8.566   3.934   3.932
18926SOL    HW376024   8.698   4.007   3.944
18926SOL    MW476025   8.633   3.960   3.980
18927SOL     OW76026   8.440   4.142   5.080
18927SOL    HW276027   8.359   4.183   5.108
18927SOL    HW376028   8.487   4.210   5.032
18927SOL    MW476029   8.435   4.157   5.078
18928SOL     OW76030   8.700   4.480   4.703
18928SOL    HW276031   8.713   4.574   4.713
18928SOL    HW376032   8.661   4.470   4.617
18928SOL    MW476033   8.696   4.491   4.693
18929SOL     OW76034   8.152   4.675   4.507
18929SOL    HW276035   8.063   4.666   4.540
18929SOL    HW376036   8.156   4.765   4.475
18929SOL    MW476037   8.141   4.686   4.507
18930SOL     OW76038   8.951   4.258   4.502
18930SOL    HW276039   8.896   4.179   4.501
18930SOL    HW376040   8.933   4.299   4.586
18930SOL    MW476041   8.941   4.253   4.511
18931SOL     OW76042   7.922   3.945   5.319
18931SOL    HW276043   7.843   3.963   5.371
18931SOL    HW376044   7.917   4.007   5.246
18931SOL    MW476045   7.912   3.955   5.316
18932SOL     OW76046   8.570   4.462   4.459
18932SOL    HW276047   8.507   4.394   4.483
18932SOL    HW376048   8.590   4.443   4.367
18932SOL    MW476049   8.564   4.449   4.451
18933SOL     OW76050   7.826   5.357   4.161
18933SOL    HW276051   7.787   5.404   4.087
18933SOL    HW376052   7.760   5.292   4.186
18933SOL    MW476053   7.813   5.355   4.155
18934SOL     OW76054   8.318   4.766   4.185
18934SOL    HW276055   8.320   4.740   4.092
18934SOL    HW376056   8.376   4.703   4.228
18934SOL    MW476057   8.326   4.755   4.179
18935SOL     OW76058   8.871   5.326   4.957
18935SOL    HW276059   8.796   5.372   4.995
18935SOL    HW376060   8.853   5.233   4.974
18935SOL    MW476061   8.860   5.320   4.965
18936SOL     OW76062   8.875   5.534   4.387
18936SOL    HW276063   8.818   5.487   4.326
18936SOL    HW376064   8.961   5.495   4.374
18936SOL    MW476065   8.878   5.525   4.377
18937SOL     OW76066   8.828   4.010   4.518
18937SOL    HW276067   8.856   3.942   4.579
18937SOL    HW376068   8.742   3.981   4.488
18937SOL    MW476069   8.821   3.997   4.522
18938SOL     OW76070   7.633   4.944   4.452
18938SOL    HW276071   7.697   4.976   4.515
18938SOL    HW376072   7.682   4.880   4.400
18938SOL    MW476073   7.648   4.940   4.453
18939SOL     OW76074   8.133   5.020   5.434
18939SOL    HW276075   8.181   5.103   5.421
18939SOL    HW376076   8.190   4.968   5.490
18939SOL    MW476077   8.147   5.024   5.440
18940SOL     OW76078   7.709   5.262   5.574
18940SOL    HW276079   7.765   5.186   5.589
18940SOL    HW376080   7.658   5.240   5.496
18940SOL    MW476081   7.709   5.249   5.565
18941SOL     OW76082   8.808   4.114   3.853
18941SOL    HW276083   8.781   4.180   3.789
18941SOL    HW376084   8.878   4.157   3.903
18941SOL    MW476085   8.813   4.127   3.850
18942SOL     OW76086   8.476   3.819   3.790
18942SOL    HW276087   8.532   3.811   3.712
18942SOL    HW376088   8.453   3.729   3.812
18942SOL    MW476089   8.481   3.806   3.783
18943SOL     OW76090   8.981   4.670   3.995
18943SOL    HW276091   8.948   4.759   3.985
18943SOL    HW376092   8.946   4.641   4.080
18943SOL    MW476093   8.971   4.679   4.006
18944SOL     OW76094   8.594   5.099   5.183
18944SOL    HW276095   8.505   5.105   5.151
18944SOL    HW376096   8.638   5.178   5.151
18944SOL    MW476097   8.589   5.109   5.175
18945SOL     OW76098   7.887   3.767   5.525
18945SOL    HW276099   7.815   3.732   5.473
18945SOL    HW376100   7.945   3.808   5.460
18945SOL    MW476101   7.885   3.768   5.510
18946SOL     OW76102   7.911   5.257   4.824
18946SOL    HW276103   7.956   5.319   4.881
18946SOL    HW376104   7.818   5.276   4.837
18946SOL    MW476105   7.904   5.267   4.831
18947SOL     OW76106   9.351   4.786   5.178
18947SOL    HW276107   9.266   4.799   5.137
18947SOL    HW376108   9.331   4.750   5.265
18947SOL    MW476109   9.338   4.782   5.183
18948SOL     OW76110   8.333   5.325   4.932
18948SOL    HW276111   8.357   5.314   4.841
18948SOL    HW376112   8.256   5.382   4.930
18948SOL    MW476113   8.325   5.330   4.921
18949SOL     OW76114   7.975   4.708   3.787
18949SOL    HW276115   7.898   4.721   3.843
18949SOL    HW376116   7.939   4.672   3.706
18949SOL    MW476117   7.961   4.704   3.784
18950SOL     OW76118   8.628   4.681   4.030
18950SOL    HW276119   8.538   4.702   4.005
18950SOL    HW376120   8.655   4.754   4.086
18950SOL    MW476121   8.620   4.693   4.033
18951SOL     OW76122   8.128   5.030   4.722
18951SOL    HW276123   8.121   5.009   4.816
18951SOL    HW376124   8.046   4.998   4.685
18951SOL    MW476125   8.116   5.024   4.729
18952SOL     OW76126   8.992   4.040   5.124
18952SOL    HW276127   8.939   4.042   5.204
18952SOL    HW376128   8.977   3.953   5.087
18952SOL    MW476129   8.984   4.030   5.129
18953SOL     OW76130   9.328   3.964   4.997
18953SOL    HW276131   9.309   4.031   4.932
18953SOL    HW376132   9.385   3.902   4.952
18953SOL    MW476133   9.332   3.965   4.983
18954SOL     OW76134   7.574   5.122   5.385
18954SOL    HW276135   7.618   5.055   5.331
18954SOL    HW376136   7.489   5.084   5.405
18954SOL    MW476137   7.569   5.108   5.381
18955SOL     OW76138   8.257   3.797   4.437
18955SOL    HW276139   8.186   3.858   4.419
18955SOL    HW376140   8.308   3.794   4.356
18955SOL    MW476141   8.253   3.803   4.424
18956SOL     OW76142   8.015   5.037   4.186
18956SOL    HW276143   8.008   5.069   4.276
18956SOL    HW376144   7.925   5.021   4.158
18956SOL    MW476145   8.003   5.039   4.193
18957SOL     OW76146   8.610   5.430   5.095
18957SOL    HW276147   8.530   5.415   5.045
18957SOL    HW376148   8.617   5.525   5.102
18957SOL    MW476149   8.601   5.441   5.089
18958SOL     OW76150   8.724   5.395   4.585
18958SOL    HW276151   8.771   5.468   4.544
18958SOL    HW376152   8.645   5.434   4.621
18958SOL    MW476153   8.719   5.410   4.584
18959SOL     OW76154   9.132   5.490   4.860
18959SOL    HW276155   9.175   5.460   4.940
18959SOL    HW376156   9.051   5.438   4.857
18959SOL    MW476157   9.127   5.479   4.870
18960SOL     OW76158   8.217   4.454   5.567
18960SOL    HW276159   8.287   4.396   5.539
18960SOL    HW376160   8.160   4.399   5.622
18960SOL    MW476161   8.219   4.441   5.571
18961SOL     OW76162   9.004   4.666   5.200
18961SOL    HW276163   9.009   4.719   5.280
18961SOL    HW376164   8.966   4.583   5.228
18961SOL    MW476165   9.000   4.661   5.215
18962SOL     OW76166   8.644   3.801   5.446
18962SOL    HW276167   8.639   3.708   5.427
18962SOL    HW376168   8.727   3.812   5.492
18962SOL    MW476169   8.652   3.790   5.450
18963SOL     OW76170   8.018   4.321   3.900
18963SOL    HW276171   7.984   4.377   3.970
18963SOL    HW376172   8.089   4.271   3.940
18963SOL    MW476173   8.024   4.322   3.914
18964SOL     OW76174   9.114   5.072   4.722
18964SOL    HW276175   9.149   5.054   4.635
18964SOL    HW376176   9.019   5.073   4.709
18964SOL    MW476177   9.106   5.069   4.709
18965SOL     OW76178   8.543   4.720   5.091
18965SOL    HW276179   8.586   4.755   5.169
18965SOL    HW376180   8.526   4.797   5.037
18965SOL    MW476181   8.546   4.735   5.094
18966SOL     OW76182   9.074   4.207   3.964
18966SOL    HW276183   9.066   4.278   3.901
18966SOL    HW376184   9.092   4.251   4.047
18966SOL    MW476185   9.075   4.221   3.966
18967SOL     OW76186   7.934   3.862   4.393
18967SOL    HW276187   7.984   3.905   4.324
18967SOL    HW376188   7.849   3.906   4.393
18967SOL    MW476189   7.931   3.875   4.384
18968SOL     OW76190   7.693   4.924   5.253
18968SOL    HW276191   7.721   4.877   5.331
18968SOL    HW376192   7.614   4.879   5.224
18968SOL    MW476193   7.686   4.913   5.259
18969SOL     OW76194   8.201   4.251   5.220
18969SOL    HW276195   8.173   4.339   5.244
18969SOL    HW376196   8.170   4.195   5.291
18969SOL    MW476197   8.193   4.254   5.232
18970SOL     OW76198   8.743   4.469   3.939
18970SOL    HW276199   8.790   4.487   3.858
18970SOL    HW376200   8.709   4.553   3.967
18970SOL    MW476201   8.745   4.483   3.932
18971SOL     OW76202   7.856   4.647   4.433
18971SOL    HW276203   7.914   4.703   4.381
18971SOL    HW376204   7.900   4.562   4.435
18971SOL    MW476205   7.869   4.644   4.426
18972SOL     OW76206   8.996   3.999   4.270
18972SOL    HW276207   8.918   3.949   4.295
18972SOL    HW376208   8.967   4.090   4.270
18972SOL    MW476209   8.982   4.003   4.273
18973SOL     OW76210   8.582   3.961   4.429
18973SOL    HW276211   8.602   4.036   4.373
18973SOL    HW376212   8.562   4.000   4.514
18973SOL    MW476213   8.583   3.977   4.433
18974SOL     OW76214   8.478   5.211   3.761
18974SOL    HW276215   8.505   5.289   3.713
18974SOL    HW376216   8.385   5.226   3.780
18974SOL    MW476217   8.469   5.224   3.757
18975SOL     OW76218   9.342   4.734   5.448
18975SOL    HW276219   9.255   4.714   5.484
18975SOL    HW376220   9.396   4.660   5.473
18975SOL    MW476221   9.337   4.723   5.456
18976SOL     OW76222   7.563   5.247   4.605
18976SOL    HW276223   7.595   5.251   4.696
18976SOL    HW376224   7.468   5.255   4.613
18976SOL    MW476225   7.555   5.250   4.618
18977SOL     OW76226   7.518   4.373   4.152
18977SOL    HW276227   7.458   4.345   4.222
18977SOL    HW376228   7.592   4.313   4.158
18977SOL    MW476229   7.520   4.362   4.161
18978SOL     OW76230   9.086   5.585   5.586
18978SOL    HW276231   9.131   5.509   5.551
18978SOL    HW376232   9.124   5.598   5.673
18978SOL    MW476233   9.096   5.578   5.592
18979SOL     OW76234   8.686   5.104   4.312
18979SOL    HW276235   8.709   5.055   4.390
18979SOL    HW376236   8.767   5.146   4.284
18979SOL    MW476237   8.699   5.104   4.319
18980SOL     OW76238   7.944   4.112   5.041
18980SOL    HW276239   7.977   4.193   5.081
18980SOL    HW376240   7.917   4.138   4.953
18980SOL    MW476241   7.943   4.126   5.035
18981SOL     OW76242   7.898   4.079   4.777
18981SOL    HW276243   7.928   3.993   4.748
18981SOL    HW376244   7.803   4.072   4.780
18981SOL    MW476245   7.890   4.068   4.775
18982SOL     OW76246   8.727   4.288   5.468
18982SOL    HW276247   8.779   4.223   5.421
18982SOL    HW376248   8.685   4.339   5.398
18982SOL    MW476249   8.728   4.285   5.451
18983SOL     OW76250   8.826   4.083   5.329
18983SOL    HW276251   8.733   4.067   5.316
18983SOL    HW376252   8.852   4.021   5.397
18983SOL    MW476253   8.816   4.073   5.336
18984SOL     OW76254   8.041   3.857   4.668
18984SOL    HW276255   8.051   3.766   4.694
18984SOL    HW376256   7.997   3.853   4.583
18984SOL    MW476257   8.037   3.845   4.660
18985SOL     OW76258   8.135   5.472   5.214
18985SOL    HW276259   8.052   5.457   5.259
18985SOL    HW376260   8.194   5.405   5.249
18985SOL    MW476261   8.133   5.462   5.224
18986SOL     OW76262   9.192   4.179   4.839
18986SOL    HW276263   9.125   4.212   4.899
18986SOL    HW376264   9.235   4.257   4.805
18986SOL    MW476265   9.190   4.194   4.843
18987SOL     OW76266   9.370   4.899   4.809
18987SOL    HW276267   9.363   4.839   4.734
18987SOL    HW376268   9.296   4.959   4.798
18987SOL    MW476269   9.360   4.899   4.798
18988SOL     OW76270   8.752   4.761   4.727
18988SOL    HW276271   8.766   4.733   4.818
18988SOL    HW376272   8.838   4.792   4.699
18988SOL    MW476273   8.765   4.762   4.736
18989SOL     OW76274   8.835   4.256   5.006
18989SOL    HW276275   8.856   4.257   4.913
18989SOL    HW376276   8.880   4.178   5.039
18989SOL    MW476277   8.842   4.246   4.998
18990SOL     OW76278   9.328   4.387   5.548
18990SOL    HW276279   9.365   4.332   5.617
18990SOL    HW376280   9.353   4.344   5.466
18990SOL    MW476281   9.335   4.375   5.547
18991SOL     OW76282   8.875   4.685   5.600
18991SOL    HW276283   8.941   4.633   5.554
18991SOL    HW376284   8.895   4.672   5.693
18991SOL    MW476285   8.886   4.676   5.607
18992SOL     OW76286   8.886   4.546   4.226
18992SOL    HW276287   8.801   4.516   4.196
18992SOL    HW376288   8.878   4.553   4.321
18992SOL    MW476289   8.874   4.544   4.235
18993SOL     OW76290   7.962   5.009   4.957
18993SOL    HW276291   7.974   5.036   5.048
18993SOL    HW376292   7.943   5.090   4.910
18993SOL    MW476293   7.961   5.024   4.962
18994SOL     OW76294   8.246   3.989   4.780
18994SOL    HW276295   8.219   3.991   4.871
18994SOL    HW376296   8.176   3.941   4.735
18994SOL    MW476297   8.234   3.985   4.787
18995SOL     OW76298   8.100   5.481   4.942
18995SOL    HW276299   8.152   5.558   4.919
18995SOL    HW376300   8.109   5.473   5.037
18995SOL    MW476301   8.109   5.488   4.953
18996SOL     OW76302   9.002   5.066   5.174
18996SOL    HW276303   8.987   4.995   5.237
18996SOL    HW376304   9.048   5.024   5.102
18996SOL    MW476305   9.008   5.050   5.174
18997SOL     OW76306   8.076   4.797   5.291
18997SOL    HW276307   8.113   4.802   5.203
18997SOL    HW376308   8.115   4.870   5.338
18997SOL    MW476309   8.086   4.807   5.286
18998SOL     OW76310   8.256   4.840   5.103
18998SOL    HW276311   8.315   4.786   5.156
18998SOL    HW376312   8.271   4.812   5.013
18998SOL    MW476313   8.266   4.829   5.099
18999SOL     OW76314   8.259   4.212   3.952
18999SOL    HW276315   8.332   4.261   3.915
18999SOL    HW376316   8.275   4.121   3.926
18999SOL    MW476317   8.271   4.207   3.945
19000SOL     OW76318   9.067   5.329   5.275
19000SOL    HW276319   9.109   5.314   5.360
19000SOL    HW376320   9.058   5.242   5.237
19000SOL    MW476321   9.071   5.317   5.282
19001SOL     OW76322   8.727   3.808   4.866
19001SOL    HW276323   8.782   3.817   4.788
19001SOL    HW376324   8.782   3.842   4.937
19001SOL    MW476325   8.741   3.813   4.865
19002SOL     OW76326   7.734   4.721   4.050
19002SOL    HW276327   7.671   4.737   3.979
19002SOL    HW376328   7.681   4.684   4.121
19002SOL    MW476329   7.719   4.718   4.050
19003SOL     OW76330   8.629   5.306   4.061
19003SOL    HW276331   8.637   5.224   4.012
19003SOL    HW376332   8.548   5.345   4.028
19003SOL    MW476333   8.619   5.301   4.051
19004SOL     OW76334   7.888   5.464   4.630
19004SOL    HW276335   7.892   5.375   4.665
19004SOL    HW376336   7.914   5.455   4.539
19004SOL    MW476337   7.891   5.452   4.622
19005SOL     OW76338   8.505   4.942   4.873
19005SOL    HW276339   8.437   4.876   4.889
19005SOL    HW376340   8.523   4.936   4.780
19005SOL    MW476341   8.498   4.933   4.864
19006SOL     OW76342   7.594   5.217   5.124
19006SOL    HW276343   7.584   5.175   5.210
19006SOL    HW376344   7.515   5.270   5.114
19006SOL    MW476345   7.583   5.218   5.135
19007SOL     OW76346   8.498   4.081   4.694
19007SOL    HW276347   8.428   4.033   4.739
19007SOL    HW376348   8.530   4.144   4.758
19007SOL    MW476349   8.493   4.083   4.708
19008SOL     OW76350   8.149   4.517   5.314
19008SOL    HW276351   8.142   4.612   5.302
19008SOL    HW376352   8.158   4.506   5.409
19008SOL    MW476353   8.150   4.529   5.324
19009SOL     OW76354   7.870   5.032   5.572
19009SOL    HW276355   7.942   5.034   5.509
19009SOL    HW376356   7.840   4.941   5.571
19009SOL    MW476357   7.875   5.021   5.564
19010SOL     OW76358   8.954   3.795   5.039
19010SOL    HW276359   9.025   3.741   5.003
19010SOL    HW376360   8.953   3.774   5.132
19010SOL    MW476361   8.963   3.786   5.047
19011SOL     OW76362   9.154   5.325   5.523
19011SOL    HW276363   9.127   5.322   5.614
19011SOL    HW376364   9.250   5.329   5.526
19011SOL    MW476365   9.164   5.325   5.535
19012SOL     OW76366   7.965   4.187   4.507
19012SOL    HW276367   8.036   4.135   4.470
19012SOL    HW376368   7.951   4.152   4.594
19012SOL    MW476369   7.973   4.176   4.514
19013SOL     OW76370   7.520   5.522   5.579
19013SOL    HW276371   7.570   5.500   5.501
19013SOL    HW376372   7.528   5.617   5.587
19013SOL    MW476373   7.528   5.531   5.570
19014SOL     OW76374   8.281   5.280   4.583
19014SOL    HW276375   8.209   5.217   4.596
19014SOL    HW376376   8.242   5.365   4.601
19014SOL    MW476377   8.265   5.283   4.586
19015SOL     OW76378   8.601   4.128   4.231
19015SOL    HW276379   8.623   4.065   4.163
19015SOL    HW376380   8.506   4.120   4.242
19015SOL    MW476381   8.591   4.119   4.223
19016SOL     OW76382   7.686   3.818   4.163
19016SOL    HW276383   7.757   3.839   4.102
19016SOL    HW376384   7.640   3.746   4.121
19016SOL    MW476385   7.690   3.812   4.149
19017SOL     OW76386   7.517   4.285   5.306
19017SOL    HW276387   7.581   4.351   5.281
19017SOL    HW376388   7.436   4.312   5.263
19017SOL    MW476389   7.515   4.297   5.298
19018SOL     OW76390   9.255   5.192   4.263
19018SOL    HW276391   9.225   5.125   4.324
19018SOL    HW376392   9.349   5.198   4.277
19018SOL    MW476393   9.263   5.184   4.273
19019SOL     OW76394   8.811   4.869   4.193
19019SOL    HW276395   8.783   4.955   4.226
19019SOL    HW376396   8.839   4.885   4.103
19019SOL    MW476397   8.811   4.883   4.185
19020SOL     OW76398   8.473   3.789   4.246
19020SOL    HW276399   8.510   3.848   4.311
19020SOL    HW376400   8.450   3.845   4.172
19020SOL    MW476401   8.474   3.804   4.245
19021SOL     OW76402   9.326   4.671   4.668
19021SOL    HW276403   9.317   4.703   4.579
19021SOL    HW376404   9.279   4.587   4.668
19021SOL    MW476405   9.319   4.664   4.658
19022SOL     OW76406   7.702   4.511   5.247
19022SOL    HW276407   7.723   4.580   5.185
19022SOL    HW376408   7.782   4.458   5.252
19022SOL    MW476409   7.715   4.512   5.241
19023SOL     OW76410   9.238   4.602   4.369
19023SOL    HW276411   9.332   4.591   4.357
19023SOL    HW376412   9.214   4.674   4.310
19023SOL    MW476413   9.248   4.610   4.360
19024SOL     OW76414   7.894   4.480   4.142
19024SOL    HW276415   7.894   4.575   4.127
19024SOL    HW376416   7.971   4.464   4.196
19024SOL    MW476417   7.904   4.491   4.147
19025SOL     OW76418   8.670   4.339   5.206
19025SOL    HW276419   8.706   4.312   5.122
19025SOL    HW376420   8.583   4.373   5.185
19025SOL    MW476421   8.664   4.340   5.193
19026SOL     OW76422   7.653   4.211   4.431
19026SOL    HW276423   7.715   4.218   4.504
19026SOL    HW376424   7.653   4.118   4.408
19026SOL    MW476425   7.661   4.200   4.438
19027SOL     OW76426   9.200   5.551   3.963
19027SOL    HW276427   9.267   5.584   3.903
19027SOL    HW376428   9.157   5.630   3.997
19027SOL    MW476429   9.202   5.566   3.959
19028SOL     OW76430   8.335   4.472   4.915
19028SOL    HW276431   8.293   4.390   4.891
19028SOL    HW376432   8.336   4.471   5.011
19028SOL    MW476433   8.328   4.461   4.924
19029SOL     OW76434   9.006   5.605   5.314
19029SOL    HW276435   9.009   5.511   5.297
19029SOL    HW376436   9.029   5.613   5.406
19029SOL    MW476437   9.009   5.593   5.324
19030SOL     OW76438   8.139   3.942   5.020
19030SOL    HW276439   8.070   4.005   5.041
19030SOL    HW376440   8.166   3.906   5.105
19030SOL    MW476441   8.133   3.945   5.033
19031SOL     OW76442   7.522   4.783   3.889
19031SOL    HW276443   7.491   4.848   3.952
19031SOL    HW376444   7.471   4.705   3.908
19031SOL    MW476445   7.512   4.780   3.899
19032SOL     OW76446   8.934   3.795   4.637
19032SOL    HW276447   9.022   3.804   4.674
19032SOL    HW376448   8.944   3.736   4.563
19032SOL    MW476449   8.948   3.789   4.631
19033SOL     OW76450   8.966   4.534   4.481
19033SOL    HW276451   9.046   4.549   4.430
19033SOL    HW376452   8.959   4.439   4.487
19033SOL    MW476453   8.975   4.523   4.476
19034SOL     OW76454   8.106   5.583   3.831
19034SOL    HW276455   8.011   5.583   3.823
19034SOL    HW376456   8.122   5.529   3.909
19034SOL    MW476457   8.096   5.577   3.840
19035SOL     OW76458   8.416   4.460   5.178
19035SOL    HW276459   8.485   4.527   5.175
19035SOL    HW376460   8.349   4.498   5.234
19035SOL    MW476461   8.417   4.473   5.185
19036SOL     OW76462   7.834   4.760   5.426
19036SOL    HW276463   7.788   4.676   5.428
19036SOL    HW376464   7.891   4.754   5.350
19036SOL    MW476465   7.836   4.748   5.418
19037SOL     OW76466   8.951   4.403   3.747
19037SOL    HW276467   8.879   4.379   3.689
19037SOL    HW376468   9.017   4.440   3.689
19037SOL    MW476469   8.950   4.405   3.732
19038SOL     OW76470   8.085   5.135   4.427
19038SOL    HW276471   8.150   5.068   4.448
19038SOL    HW376472   8.137   5.212   4.404
19038SOL    MW476473   8.100   5.137   4.426
19039SOL     OW76474   8.346   4.300   4.557
19039SOL    HW276475   8.286   4.318   4.629
19039SOL    HW376476   8.380   4.212   4.576
19039SOL    MW476477   8.342   4.290   4.570
19040SOL     OW76478   9.287   3.799   5.226
19040SOL    HW276479   9.208   3.845   5.254
19040SOL    HW376480   9.322   3.853   5.155
19040SOL    MW476481   9.281   3.812   5.220
19041SOL     OW76482   8.571   4.883   4.576
19041SOL    HW276483   8.663   4.864   4.594
19041SOL    HW376484   8.544   4.813   4.516
19041SOL    MW476485   8.579   4.871   4.570
19042SOL     OW76486   8.364   4.703   3.931
19042SOL    HW276487   8.350   4.615   3.896
19042SOL    HW376488   8.315   4.760   3.872
19042SOL    MW476489   8.356   4.698   3.919
19043SOL     OW76490   8.845   5.121   4.672
19043SOL    HW276491   8.818   5.205   4.637
19043SOL    HW376492   8.805   5.116   4.759
19043SOL    MW476493   8.838   5.130   4.678
19044SOL     OW76494   8.764   5.069   4.940
19044SOL    HW276495   8.775   5.036   5.029
19044SOL    HW376496   8.683   5.028   4.909
19044SOL    MW476497   8.754   5.061   4.946
19045SOL     OW76498   7.777   4.427   4.710
19045SOL    HW276499   7.727   4.426   4.791
19045SOL    HW376500   7.797   4.519   4.694
19045SOL    MW476501   7.773   4.439   4.718
19046SOL     OW76502   8.844   5.191   5.472
19046SOL    HW276503   8.844   5.285   5.488
19046SOL    HW376504   8.889   5.181   5.388
19046SOL    MW476505   8.850   5.201   5.463
19047SOL     OW76506   9.083   3.909   4.033
19047SOL    HW276507   9.076   3.913   4.128
19047SOL    HW376508   9.095   4.000   4.006
19047SOL    MW476509   9.084   3.922   4.041
19048SOL     OW76510   8.372   4.472   4.147
19048SOL    HW276511   8.352   4.458   4.054
19048SOL    HW376512   8.465   4.451   4.154
19048SOL    MW476513   8.382   4.467   4.136
19049SOL     OW76514   7.699   4.095   5.451
19049SOL    HW276515   7.656   4.154   5.388
19049SOL    HW376516   7.767   4.150   5.491
19049SOL    MW476517   7.703   4.110   5.448
19050SOL     OW76518   8.811   4.715   4.996
19050SOL    HW276519   8.874   4.712   5.069
19050SOL    HW376520   8.727   4.733   5.038
19050SOL    MW476521   8.807   4.717   5.011
19051SOL     OW76522   8.355   5.430   4.185
19051SOL    HW276523   8.413   5.501   4.212
19051SOL    HW376524   8.378   5.358   4.243
19051SOL    MW476525   8.366   5.430   4.196
19052SOL     OW76526   9.150   3.892   4.775
19052SOL    HW276527   9.195   3.810   4.794
19052SOL    HW376528   9.170   3.948   4.851
19052SOL    MW476529   9.160   3.888   4.787
19053SOL     OW76530   7.598   3.735   4.874
19053SOL    HW276531   7.589   3.736   4.779
19053SOL    HW376532   7.692   3.747   4.889
19053SOL    MW476533   7.610   3.738   4.865
19054SOL     OW76534   9.235   4.928   4.494
19054SOL    HW276535   9.214   4.874   4.417
19054SOL    HW376536   9.331   4.926   4.498
19054SOL    MW476537   9.244   4.921   4.483
19055SOL     OW76538   7.927   5.073   5.237
19055SOL    HW276539   7.848   5.023   5.260
19055SOL    HW376540   7.997   5.032   5.287
19055SOL    MW476541   7.925   5.061   5.247
19056SOL     OW76542   7.811   3.862   3.920
19056SOL    HW276543   7.740   3.917   3.888
19056SOL    HW376544   7.853   3.828   3.841
19056SOL    MW476545   7.807   3.864   3.906
19057SOL     OW76546   8.935   4.359   4.756
19057SOL    HW276547   8.858   4.405   4.722
19057SOL    HW376548   8.992   4.428   4.790
19057SOL    MW476549   8.932   4.374   4.756
19058SOL     OW76550   7.567   3.961   3.769
19058SOL    HW276551   7.534   4.040   3.813
19058SOL    HW376552   7.622   3.994   3.698
19058SOL    MW476553   7.570   3.975   3.766
19059SOL     OW76554   7.601   5.218   3.958
19059SOL    HW276555   7.618   5.302   4.000
19059SOL    HW376556   7.636   5.227   3.870
19059SOL    MW476557   7.606   5.231   3.952
19060SOL     OW76558   8.873   5.307   4.175
19060SOL    HW276559   8.936   5.297   4.104
19060SOL    HW376560   8.790   5.327   4.130
19060SOL    MW476561   8.870   5.308   4.160
19061SOL     OW76562   9.236   4.575   5.862
19061SOL    HW276563   9.277   4.517   5.927
19061SOL    HW376564   9.143   4.567   5.879
19061SOL    MW476565   9.230   4.567   5.872
19062SOL     OW76566   9.102   4.507   6.857
19062SOL    HW276567   9.057   4.574   6.908
19062SOL    HW376568   9.190   4.543   6.843
19062SOL    MW476569   9.108   4.520   6.861
19063SOL     OW76570   8.030   4.758   6.091
19063SOL    HW276571   8.120   4.733   6.075
19063SOL    HW376572   8.026   4.851   6.068
19063SOL    MW476573   8.042   4.767   6.086
19064SOL     OW76574   9.146   5.461   6.233
19064SOL    HW276575   9.158   5.407   6.311
19064SOL    HW376576   9.183   5.409   6.162
19064SOL    MW476577   9.152   5.446   6.234
19065SOL     OW76578   8.525   5.346   7.234
19065SOL    HW276579   8.566   5.382   7.155
19065SOL    HW376580   8.560   5.257   7.241
19065SOL    MW476581   8.536   5.339   7.225
19066SOL     OW76582   9.082   4.901   6.838
19066SOL    HW276583   9.003   4.866   6.796
19066SOL    HW376584   9.109   4.973   6.782
19066SOL    MW476585   9.075   4.906   6.825
19067SOL     OW76586   8.314   4.214   6.104
19067SOL    HW276587   8.289   4.302   6.132
19067SOL    HW376588   8.311   4.217   6.008
19067SOL    MW476589   8.310   4.226   6.096
19068SOL     OW76590   7.756   4.242   6.032
19068SOL    HW276591   7.788   4.330   6.014
19068SOL    HW376592   7.744   4.240   6.127
19068SOL    MW476593   7.759   4.254   6.044
19069SOL     OW76594   7.834   4.655   6.933
19069SOL    HW276595   7.897   4.602   6.884
19069SOL    HW376596   7.815   4.729   6.876
19069SOL    MW476597   7.840   4.657   6.920
19070SOL     OW76598   8.155   3.997   6.119
19070SOL    HW276599   8.213   4.073   6.121
19070SOL    HW376600   8.090   4.018   6.052
19070SOL    MW476601   8.154   4.009   6.110
19071SOL     OW76602   8.242   4.924   6.294
19071SOL    HW276603   8.322   4.927   6.346
19071SOL    HW376604   8.270   4.891   6.208
19071SOL    MW476605   8.256   4.920   6.289
19072SOL     OW76606   8.267   5.265   7.197
19072SOL    HW276607   8.351   5.291   7.236
19072SOL    HW376608   8.291   5.209   7.123
19072SOL    MW476609   8.281   5.261   7.192
19073SOL     OW76610   8.019   4.428   6.285
19073SOL    HW276611   8.004   4.348   6.336
19073SOL    HW376612   8.101   4.463   6.319
19073SOL    MW476613   8.027   4.420   6.297
19074SOL     OW76614   8.356   5.114   6.970
19074SOL    HW276615   8.320   5.180   6.910
19074SOL    HW376616   8.284   5.052   6.983
19074SOL    MW476617   8.342   5.114   6.964
19075SOL     OW76618   8.161   4.254   6.662
19075SOL    HW276619   8.067   4.250   6.680
19075SOL    HW376620   8.191   4.163   6.671
19075SOL    MW476621   8.152   4.242   6.665
19076SOL     OW76622   7.907   4.668   6.566
19076SOL    HW276623   7.862   4.675   6.482
19076SOL    HW376624   7.887   4.751   6.610
19076SOL    MW476625   7.899   4.680   6.560
19077SOL     OW76626   7.604   5.514   6.441
19077SOL    HW276627   7.693   5.506   6.476
19077SOL    HW376628   7.568   5.426   6.446
19077SOL    MW476629   7.611   5.501   6.446
19078SOL     OW76630   8.869   4.906   5.810
19078SOL    HW276631   8.787   4.942   5.776
19078SOL    HW376632   8.937   4.949   5.759
19078SOL    MW476633   8.867   4.916   5.798
19079SOL     OW76634   7.868   5.041   6.476
19079SOL    HW276635   7.844   5.094   6.552
19079SOL    HW376636   7.924   5.099   6.424
19079SOL    MW476637   7.872   5.056   6.479
19080SOL     OW76638   8.430   4.685   6.286
19080SOL    HW276639   8.344   4.672   6.326
19080SOL    HW376640   8.483   4.612   6.318
19080SOL    MW476641   8.426   4.674   6.295
19081SOL     OW76642   7.838   5.337   7.071
19081SOL    HW276643   7.746   5.313   7.056
19081SOL    HW376644   7.882   5.254   7.088
19081SOL    MW476645   7.832   5.322   7.070
19082SOL     OW76646   8.421   5.047   6.003
19082SOL    HW276647   8.398   5.109   6.071
19082SOL    HW376648   8.378   4.965   6.029
19082SOL    MW476649   8.413   5.043   6.014
19083SOL     OW76650   9.294   4.048   6.459
19083SOL    HW276651   9.231   4.028   6.528
19083SOL    HW376652   9.284   3.977   6.396
19083SOL    MW476653   9.284   4.035   6.460
19084SOL     OW76654   7.918   4.020   5.971
19084SOL    HW276655   7.892   3.982   5.887
19084SOL    HW376656   7.855   4.090   5.987
19084SOL    MW476657   7.907   4.023   5.962
19085SOL     OW76658   7.753   4.981   6.008
19085SOL    HW276659   7.701   5.049   5.964
19085SOL    HW376660   7.750   4.907   5.948
19085SOL    MW476661   7.745   4.980   5.995
19086SOL     OW76662   8.415   5.444   5.786
19086SOL    HW276663   8.370   5.460   5.869
19086SOL    HW376664   8.346   5.409   5.728
19086SOL    MW476665   8.401   5.441   5.788
19087SOL     OW76666   9.350   4.217   5.761
19087SOL    HW276667   9.259   4.219   5.789
19087SOL    HW376668   9.395   4.279   5.819
19087SOL    MW476669   9.343   4.225   5.771
19088SOL     OW76670   9.095   4.820   6.111
19088SOL    HW276671   9.005   4.820   6.146
19088SOL    HW376672   9.088   4.866   6.028
19088SOL    MW476673   9.082   4.826   6.105
19089SOL     OW76674   8.895   4.455   7.183
19089SOL    HW276675   8.964   4.393   7.160
19089SOL    HW376676   8.820   4.429   7.130
19089SOL    MW476677   8.895   4.442   7.174
19090SOL     OW76678   7.636   5.335   6.735
19090SOL    HW276679   7.619   5.281   6.812
19090SOL    HW376680   7.624   5.425   6.765
19090SOL    MW476681   7.633   5.339   6.749
19091SOL     OW76682   8.631   4.842   7.175
19091SOL    HW276683   8.616   4.935   7.160
19091SOL    HW376684   8.726   4.832   7.175
19091SOL    MW476685   8.640   4.852   7.172
19092SOL     OW76686   8.427   4.266   7.376
19092SOL    HW276687   8.517   4.267   7.343
19092SOL    HW376688   8.386   4.191   7.334
19092SOL    MW476689   8.433   4.256   7.367
19093SOL     OW76690   9.002   4.798   6.503
19093SOL    HW276691   9.005   4.732   6.434
19093SOL    HW376692   9.087   4.841   6.499
19093SOL    MW476693   9.014   4.794   6.494
19094SOL     OW76694   8.622   4.401   6.072
19094SOL    HW276695   8.648   4.425   5.983
19094SOL    HW376696   8.604   4.308   6.068
19094SOL    MW476697   8.624   4.393   6.059
19095SOL     OW76698   9.287   5.021   5.923
19095SOL    HW276699   9.243   5.062   5.998
19095SOL    HW376700   9.344   5.089   5.888
19095SOL    MW476701   9.289   5.035   5.928
19096SOL     OW76702   8.207   4.070   7.326
19096SOL    HW276703   8.217   3.996   7.266
19096SOL    HW376704   8.243   4.039   7.409
19096SOL    MW476705   8.213   4.056   7.328
19097SOL     OW76706   7.943   5.437   6.241
19097SOL    HW276707   7.975   5.525   6.219
19097SOL    HW376708   7.896   5.409   6.163
19097SOL    MW476709   7.942   5.445   6.228
19098SOL     OW76710   9.327   3.799   6.290
19098SOL    HW276711   9.381   3.750   6.352
19098SOL    HW376712   9.270   3.733   6.251
19098SOL    MW476713   9.327   3.783   6.292
19099SOL     OW76714   7.659   5.497   5.818
19099SOL    HW276715   7.688   5.587   5.810
19099SOL    HW376716   7.609   5.480   5.739
19099SOL    MW476717   7.657   5.505   5.807
19100SOL     OW76718   8.446   3.752   6.703
19100SOL    HW276719   8.405   3.830   6.665
19100SOL    HW376720   8.540   3.770   6.698
19100SOL    MW476721   8.452   3.764   6.698
19101SOL     OW76722   9.063   5.305   5.789
19101SOL    HW276723   9.111   5.374   5.835
19101SOL    HW376724   8.984   5.349   5.758
19101SOL    MW476725   9.058   5.319   5.792
19102SOL     OW76726   8.461   4.430   5.733
19102SOL    HW276727   8.463   4.377   5.654
19102SOL    HW376728   8.549   4.467   5.739
19102SOL    MW476729   8.473   4.429   5.722
19103SOL     OW76730   9.075   4.356   6.069
19103SOL    HW276731   9.114   4.356   6.156
19103SOL    HW376732   9.016   4.432   6.069
19103SOL    MW476733   9.072   4.367   6.080
19104SOL     OW76734   8.392   4.723   7.198
19104SOL    HW276735   8.369   4.703   7.288
19104SOL    HW376736   8.477   4.767   7.203
19104SOL    MW476737   8.399   4.726   7.210
19105SOL     OW76738   8.472   3.860   6.958
19105SOL    HW276739   8.478   3.822   6.871
19105SOL    HW376740   8.461   3.954   6.943
19105SOL    MW476741   8.473   3.868   6.946
19106SOL     OW76742   8.561   4.349   6.792
19106SOL    HW276743   8.636   4.378   6.739
19106SOL    HW376744   8.493   4.414   6.776
19106SOL    MW476745   8.562   4.361   6.782
19107SOL     OW76746   9.111   4.317   7.069
19107SOL    HW276747   9.092   4.226   7.048
19107SOL    HW376748   9.089   4.366   6.990
19107SOL    MW476749   9.106   4.310   7.056
19108SOL     OW76750   9.253   5.411   6.973
19108SOL    HW276751   9.181   5.373   7.024
19108SOL    HW376752   9.270   5.496   7.014
19108SOL    MW476753   9.247   5.416   6.985
19109SOL     OW76754   8.558   4.055   7.175
19109SOL    HW276755   8.524   4.094   7.094
19109SOL    HW376756   8.536   3.963   7.168
19109SOL    MW476757   8.551   4.048   7.165
19110SOL     OW76758   8.967   4.869   7.251
19110SOL    HW276759   9.049   4.910   7.281
19110SOL    HW376760   8.930   4.831   7.331
19110SOL    MW476761   8.973   4.870   7.266
19111SOL     OW76762   9.262   4.242   6.235
19111SOL    HW276763   9.351   4.211   6.252
19111SOL    HW376764   9.205   4.182   6.283
19111SOL    MW476765   9.265   4.230   6.244
19112SOL     OW76766   7.688   3.956   6.264
19112SOL    HW276767   7.679   3.896   6.190
19112SOL    HW376768   7.621   3.927   6.327
19112SOL    MW476769   7.678   3.943   6.262
19113SOL     OW76770   8.631   5.049   5.825
19113SOL    HW276771   8.581   5.051   5.907
19113SOL    HW376772   8.565   5.067   5.757
19113SOL    MW476773   8.617   5.051   5.827
19114SOL     OW76774   7.635   4.129   6.627
19114SOL    HW276775   7.607   4.220   6.636
19114SOL    HW376776   7.572   4.090   6.566
19114SOL    MW476777   7.622   4.135   6.621
19115SOL     OW76778   8.094   5.467   5.933
19115SOL    HW276779   8.015   5.425   5.966
19115SOL    HW376780   8.160   5.450   6.000
19115SOL    MW476781   8.093   5.459   5.946
19116SOL     OW76782   9.222   4.987   7.330
19116SOL    HW276783   9.272   4.913   7.362
19116SOL    HW376784   9.168   5.014   7.405
19116SOL    MW476785   9.222   4.981   7.343
19117SOL     OW76786   8.230   4.882   5.640
19117SOL    HW276787   8.152   4.828   5.627
19117SOL    HW376788   8.201   4.955   5.693
19117SOL    MW476789   8.216   4.884   5.645
19118SOL     OW76790   9.356   4.622   6.832
19118SOL    HW276791   9.372   4.660   6.745
19118SOL    HW376792   9.390   4.688   6.893
19118SOL    MW476793   9.363   4.635   6.828
19119SOL     OW76794   9.148   5.331   6.501
19119SOL    HW276795   9.177   5.398   6.562
19119SOL    HW376796   9.129   5.255   6.556
19119SOL    MW476797   9.150   5.331   6.516
19120SOL     OW76798   8.811   5.398   5.708
19120SOL    HW276799   8.737   5.361   5.758
19120SOL    HW376800   8.819   5.488   5.741
19120SOL    MW476801   8.802   5.405   5.720
19121SOL     OW76802   7.619   4.404   6.797
19121SOL    HW276803   7.681   4.434   6.863
19121SOL    HW376804   7.553   4.473   6.791
19121SOL    MW476805   7.618   4.417   6.804
19122SOL     OW76806   9.035   5.072   5.650
19122SOL    HW276807   8.982   5.121   5.586
19122SOL    HW376808   9.066   5.138   5.711
19122SOL    MW476809   9.033   5.086   5.648
19123SOL     OW76810   8.260   3.961   5.705
19123SOL    HW276811   8.208   3.881   5.693
19123SOL    HW376812   8.347   3.938   5.673
19123SOL    MW476813   8.263   3.947   5.699
19124SOL     OW76814   7.714   5.513   7.249
19124SOL    HW276815   7.688   5.581   7.187
19124SOL    HW376816   7.762   5.450   7.197
19124SOL    MW476817   7.716   5.513   7.235
19125SOL     OW76818   7.766   4.832   6.756
19125SOL    HW276819   7.819   4.907   6.781
19125SOL    HW376820   7.685   4.870   6.722
19125SOL    MW476821   7.762   4.847   6.756
19126SOL     OW76822   8.306   4.736   6.744
19126SOL    HW276823   8.334   4.645   6.756
19126SOL    HW376824   8.235   4.730   6.680
19126SOL    MW476825   8.299   4.724   6.739
19127SOL     OW76826   7.621   4.601   6.162
19127SOL    HW276827   7.712   4.616   6.189
19127SOL    HW376828   7.624   4.522   6.108
19127SOL    MW476829   7.633   4.593   6.160
19128SOL     OW76830   7.857   4.309   7.416
19128SOL    HW276831   7.804   4.389   7.423
19128SOL    HW376832   7.927   4.321   7.481
19128SOL    MW476833   7.859   4.322   7.424
19129SOL     OW76834   8.243   3.859   7.123
19129SOL    HW276835   8.220   3.767   7.125
19129SOL    HW376836   8.329   3.861   7.080
19129SOL    MW476837   8.250   3.849   7.119
19130SOL     OW76838   7.927   4.383   7.162
19130SOL    HW276839   8.007   4.433   7.148
19130SOL    HW376840   7.918   4.377   7.257
19130SOL    MW476841   7.936   4.389   7.172
19131SOL     OW76842   8.248   5.533   6.536
19131SOL    HW276843   8.337   5.548   6.566
19131SOL    HW376844   8.243   5.580   6.452
19131SOL    MW476845   8.258   5.541   6.529
19132SOL     OW76846   8.904   3.908   7.433
19132SOL    HW276847   8.960   3.835   7.459
19132SOL    HW376848   8.874   3.946   7.515
19132SOL    MW476849   8.908   3.903   7.446
19133SOL     OW76850   7.629   5.213   6.201
19133SOL    HW276851   7.601   5.252   6.283
19133SOL    HW376852   7.649   5.122   6.223
19133SOL    MW476853   7.627   5.205   6.214
19134SOL     OW76854   8.462   5.256   6.236
19134SOL    HW276855   8.545   5.210   6.220
19134SOL    HW376856   8.452   5.255   6.332
19134SOL    MW476857   8.472   5.249   6.246
19135SOL     OW76858   9.294   4.401   6.550
19135SOL    HW276859   9.383   4.431   6.532
19135SOL    HW376860   9.274   4.341   6.479
19135SOL    MW476861   9.303   4.398   6.539
19136SOL     OW76862   9.145   4.580   7.430
19136SOL    HW276863   9.200   4.504   7.411
19136SOL    HW376864   9.147   4.588   7.525
19136SOL    MW476865   9.153   4.571   7.438
19137SOL     OW76866   8.195   5.313   5.641
19137SOL    HW276867   8.135   5.382   5.611
19137SOL    HW376868   8.140   5.255   5.694
19137SOL    MW476869   8.179   5.315   5.643
19138SOL     OW76870   8.633   3.958   5.864
19138SOL    HW276871   8.566   3.934   5.801
19138SOL    HW376872   8.698   4.007   5.813
19138SOL    MW476873   8.633   3.960   5.849
19139SOL     OW76874   8.440   4.142   6.949
19139SOL    HW276875   8.359   4.183   6.977
19139SOL    HW376876   8.487   4.210   6.901
19139SOL    MW476877   8.435   4.157   6.947
19140SOL     OW76878   8.700   4.480   6.572
19140SOL    HW276879   8.713   4.574   6.582
19140SOL    HW376880   8.661   4.470   6.486
19140SOL    MW476881   8.696   4.491   6.562
19141SOL     OW76882   8.152   4.675   6.376
19141SOL    HW276883   8.063   4.666   6.409
19141SOL    HW376884   8.156   4.765   6.344
19141SOL    MW476885   8.141   4.686   6.376
19142SOL     OW76886   8.951   4.258   6.371
19142SOL    HW276887   8.896   4.179   6.370
19142SOL    HW376888   8.933   4.299   6.455
19142SOL    MW476889   8.941   4.253   6.380
19143SOL     OW76890   7.922   3.945   7.188
19143SOL    HW276891   7.843   3.963   7.240
19143SOL    HW376892   7.917   4.007   7.115
19143SOL    MW476893   7.912   3.955   7.185
19144SOL     OW76894   8.570   4.462   6.328
19144SOL    HW276895   8.507   4.394   6.352
19144SOL    HW376896   8.590   4.443   6.236
19144SOL    MW476897   8.564   4.449   6.320
19145SOL     OW76898   7.826   5.357   6.030
19145SOL    HW276899   7.787   5.404   5.956
19145SOL    HW376900   7.760   5.292   6.055
19145SOL    MW476901   7.813   5.355   6.024
19146SOL     OW76902   8.318   4.766   6.054
19146SOL    HW276903   8.320   4.740   5.961
19146SOL    HW376904   8.376   4.703   6.097
19146SOL    MW476905   8.326   4.755   6.048
19147SOL     OW76906   8.871   5.326   6.826
19147SOL    HW276907   8.796   5.372   6.864
19147SOL    HW376908   8.853   5.233   6.843
19147SOL    MW476909   8.860   5.320   6.834
19148SOL     OW76910   8.875   5.534   6.256
19148SOL    HW276911   8.818   5.487   6.195
19148SOL    HW376912   8.961   5.495   6.243
19148SOL    MW476913   8.878   5.525   6.246
19149SOL     OW76914   8.828   4.010   6.387
19149SOL    HW276915   8.856   3.942   6.448
19149SOL    HW376916   8.742   3.981   6.357
19149SOL    MW476917   8.821   3.997   6.391
19150SOL     OW76918   7.633   4.944   6.321
19150SOL    HW276919   7.697   4.976   6.384
19150SOL    HW376920   7.682   4.880   6.269
19150SOL    MW476921   7.648   4.940   6.322
19151SOL     OW76922   8.133   5.020   7.303
19151SOL    HW276923   8.181   5.103   7.290
19151SOL    HW376924   8.190   4.968   7.359
19151SOL    MW476925   8.147   5.024   7.309
19152SOL     OW76926   7.709   5.262   7.443
19152SOL    HW276927   7.765   5.186   7.458
19152SOL    HW376928   7.658   5.240   7.365
19152SOL    MW476929   7.709   5.249   7.434
19153SOL     OW76930   8.808   4.114   5.722
19153SOL    HW276931   8.781   4.180   5.658
19153SOL    HW376932   8.878   4.157   5.772
19153SOL    MW476933   8.813   4.127   5.719
19154SOL     OW76934   8.476   3.819   5.659
19154SOL    HW276935   8.532   3.811   5.581
19154SOL    HW376936   8.453   3.729   5.681
19154SOL    MW476937   8.481   3.806   5.652
19155SOL     OW76938   8.981   4.670   5.864
19155SOL    HW276939   8.948   4.759   5.854
19155SOL    HW376940   8.946   4.641   5.949
19155SOL    MW476941   8.971   4.679   5.875
19156SOL     OW76942   8.594   5.099   7.052
19156SOL    HW276943   8.505   5.105   7.020
19156SOL    HW376944   8.638   5.178   7.020
19156SOL    MW476945   8.589   5.109   7.044
19157SOL     OW76946   7.887   3.767   7.394
19157SOL    HW276947   7.815   3.732   7.342
19157SOL    HW376948   7.945   3.808   7.329
19157SOL    MW476949   7.885   3.768   7.379
19158SOL     OW76950   7.911   5.257   6.693
19158SOL    HW276951   7.956   5.319   6.750
19158SOL    HW376952   7.818   5.276   6.706
19158SOL    MW476953   7.904   5.267   6.700
19159SOL     OW76954   9.351   4.786   7.047
19159SOL    HW276955   9.266   4.799   7.006
19159SOL    HW376956   9.331   4.750   7.134
19159SOL    MW476957   9.338   4.782   7.052
19160SOL     OW76958   8.333   5.325   6.801
19160SOL    HW276959   8.357   5.314   6.710
19160SOL    HW376960   8.256   5.382   6.799
19160SOL    MW476961   8.325   5.330   6.790
19161SOL     OW76962   7.975   4.708   5.656
19161SOL    HW276963   7.898   4.721   5.712
19161SOL    HW376964   7.939   4.672   5.575
19161SOL    MW476965   7.961   4.704   5.653
19162SOL     OW76966   8.628   4.681   5.899
19162SOL    HW276967   8.538   4.702   5.874
19162SOL    HW376968   8.655   4.754   5.955
19162SOL    MW476969   8.620   4.693   5.902
19163SOL     OW76970   8.128   5.030   6.591
19163SOL    HW276971   8.121   5.009   6.685
19163SOL    HW376972   8.046   4.998   6.554
19163SOL    MW476973   8.116   5.024   6.598
19164SOL     OW76974   8.992   4.040   6.993
19164SOL    HW276975   8.939   4.042   7.073
19164SOL    HW376976   8.977   3.953   6.956
19164SOL    MW476977   8.984   4.030   6.998
19165SOL     OW76978   9.328   3.964   6.866
19165SOL    HW276979   9.309   4.031   6.801
19165SOL    HW376980   9.385   3.902   6.821
19165SOL    MW476981   9.332   3.965   6.852
19166SOL     OW76982   7.574   5.122   7.254
19166SOL    HW276983   7.618   5.055   7.200
19166SOL    HW376984   7.489   5.084   7.274
19166SOL    MW476985   7.569   5.108   7.250
19167SOL     OW76986   8.257   3.797   6.306
19167SOL    HW276987   8.186   3.858   6.288
19167SOL    HW376988   8.308   3.794   6.225
19167SOL    MW476989   8.253   3.803   6.293
19168SOL     OW76990   8.015   5.037   6.055
19168SOL    HW276991   8.008   5.069   6.145
19168SOL    HW376992   7.925   5.021   6.027
19168SOL    MW476993   8.003   5.039   6.062
19169SOL     OW76994   8.610   5.430   6.964
19169SOL    HW276995   8.530   5.415   6.914
19169SOL    HW376996   8.617   5.525   6.971
19169SOL    MW476997   8.601   5.441   6.958
19170SOL     OW76998   8.724   5.395   6.454
19170SOL    HW276999   8.771   5.468   6.413
19170SOL    HW377000   8.645   5.434   6.490
19170SOL    MW477001   8.719   5.410   6.453
19171SOL     OW77002   9.132   5.490   6.729
19171SOL    HW277003   9.175   5.460   6.809
19171SOL    HW377004   9.051   5.438   6.726
19171SOL    MW477005   9.127   5.479   6.739
19172SOL     OW77006   8.217   4.454   7.436
19172SOL    HW277007   8.287   4.396   7.408
19172SOL    HW377008   8.160   4.399   7.491
19172SOL    MW477009   8.219   4.441   7.440
19173SOL     OW77010   9.004   4.666   7.069
19173SOL    HW277011   9.009   4.719   7.149
19173SOL    HW377012   8.966   4.583   7.097
19173SOL    MW477013   9.000   4.661   7.084
19174SOL     OW77014   8.644   3.801   7.315
19174SOL    HW277015   8.639   3.708   7.296
19174SOL    HW377016   8.727   3.812   7.361
19174SOL    MW477017   8.652   3.790   7.319
19175SOL     OW77018   8.018   4.321   5.769
19175SOL    HW277019   7.984   4.377   5.839
19175SOL    HW377020   8.089   4.271   5.809
19175SOL    MW477021   8.024   4.322   5.783
19176SOL     OW77022   9.114   5.072   6.591
19176SOL    HW277023   9.149   5.054   6.504
19176SOL    HW377024   9.019   5.073   6.578
19176SOL    MW477025   9.106   5.069   6.578
19177SOL     OW77026   8.543   4.720   6.960
19177SOL    HW277027   8.586   4.755   7.038
19177SOL    HW377028   8.526   4.797   6.906
19177SOL    MW477029   8.546   4.735   6.963
19178SOL     OW77030   9.074   4.207   5.833
19178SOL    HW277031   9.066   4.278   5.770
19178SOL    HW377032   9.092   4.251   5.916
19178SOL    MW477033   9.075   4.221   5.835
19179SOL     OW77034   7.934   3.862   6.262
19179SOL    HW277035   7.984   3.905   6.193
19179SOL    HW377036   7.849   3.906   6.262
19179SOL    MW477037   7.931   3.875   6.253
19180SOL     OW77038   7.693   4.924   7.122
19180SOL    HW277039   7.721   4.877   7.200
19180SOL    HW377040   7.614   4.879   7.093
19180SOL    MW477041   7.686   4.913   7.128
19181SOL     OW77042   8.201   4.251   7.089
19181SOL    HW277043   8.173   4.339   7.113
19181SOL    HW377044   8.170   4.195   7.160
19181SOL    MW477045   8.193   4.254   7.101
19182SOL     OW77046   8.743   4.469   5.808
19182SOL    HW277047   8.790   4.487   5.727
19182SOL    HW377048   8.709   4.553   5.836
19182SOL    MW477049   8.745   4.483   5.801
19183SOL     OW77050   7.856   4.647   6.302
19183SOL    HW277051   7.914   4.703   6.250
19183SOL    HW377052   7.900   4.562   6.304
19183SOL    MW477053   7.869   4.644   6.295
19184SOL     OW77054   8.996   3.999   6.139
19184SOL    HW277055   8.918   3.949   6.164
19184SOL    HW377056   8.967   4.090   6.139
19184SOL    MW477057   8.982   4.003   6.142
19185SOL     OW77058   8.582   3.961   6.298
19185SOL    HW277059   8.602   4.036   6.242
19185SOL    HW377060   8.562   4.000   6.383
19185SOL    MW477061   8.583   3.977   6.302
19186SOL     OW77062   8.478   5.211   5.630
19186SOL    HW277063   8.505   5.289   5.582
19186SOL    HW377064   8.385   5.226   5.649
19186SOL    MW477065   8.469   5.224   5.626
19187SOL     OW77066   9.342   4.734   7.317
19187SOL    HW277067   9.255   4.714   7.353
19187SOL    HW377068   9.396   4.660   7.342
19187SOL    MW477069   9.337   4.723   7.325
19188SOL     OW77070   7.563   5.247   6.474
19188SOL    HW277071   7.595   5.251   6.565
19188SOL    HW377072   7.468   5.255   6.482
19188SOL    MW477073   7.555   5.250   6.487
19189SOL     OW77074   7.518   4.373   6.021
19189SOL    HW277075   7.458   4.345   6.091
19189SOL    HW377076   7.592   4.313   6.027
19189SOL    MW477077   7.520   4.362   6.030
19190SOL     OW77078   9.086   5.585   7.455
19190SOL    HW277079   9.131   5.509   7.420
19190SOL    HW377080   9.124   5.598   7.542
19190SOL    MW477081   9.096   5.578   7.461
19191SOL     OW77082   8.686   5.104   6.181
19191SOL    HW277083   8.709   5.055   6.259
19191SOL    HW377084   8.767   5.146   6.153
19191SOL    MW477085   8.699   5.104   6.188
19192SOL     OW77086   7.944   4.112   6.910
19192SOL    HW277087   7.977   4.193   6.950
19192SOL    HW377088   7.917   4.138   6.822
19192SOL    MW477089   7.943   4.126   6.904
19193SOL     OW77090   7.898   4.079   6.646
19193SOL    HW277091   7.928   3.993   6.617
19193SOL    HW377092   7.803   4.072   6.649
19193SOL    MW477093   7.890   4.068   6.644
19194SOL     OW77094   8.727   4.288   7.337
19194SOL    HW277095   8.779   4.223   7.290
19194SOL    HW377096   8.685   4.339   7.267
19194SOL    MW477097   8.728   4.285   7.320
19195SOL     OW77098   8.826   4.083   7.198
19195SOL    HW277099   8.733   4.067   7.185
19195SOL    HW377100   8.852   4.021   7.266
19195SOL    MW477101   8.816   4.073   7.205
19196SOL     OW77102   8.041   3.857   6.537
19196SOL    HW277103   8.051   3.766   6.563
19196SOL    HW377104   7.997   3.853   6.452
19196SOL    MW477105   8.037   3.845   6.529
19197SOL     OW77106   8.135   5.472   7.083
19197SOL    HW277107   8.052   5.457   7.128
19197SOL    HW377108   8.194   5.405   7.118
19197SOL    MW477109   8.133   5.462   7.093
19198SOL     OW77110   9.192   4.179   6.708
19198SOL    HW277111   9.125   4.212   6.768
19198SOL    HW377112   9.235   4.257   6.674
19198SOL    MW477113   9.190   4.194   6.712
19199SOL     OW77114   9.370   4.899   6.678
19199SOL    HW277115   9.363   4.839   6.603
19199SOL    HW377116   9.296   4.959   6.667
19199SOL    MW477117   9.360   4.899   6.667
19200SOL     OW77118   8.752   4.761   6.596
19200SOL    HW277119   8.766   4.733   6.687
19200SOL    HW377120   8.838   4.792   6.568
19200SOL    MW477121   8.765   4.762   6.605
19201SOL     OW77122   8.835   4.256   6.875
19201SOL    HW277123   8.856   4.257   6.782
19201SOL    HW377124   8.880   4.178   6.908
19201SOL    MW477125   8.842   4.246   6.867
19202SOL     OW77126   9.328   4.387   7.417
19202SOL    HW277127   9.365   4.332   7.486
19202SOL    HW377128   9.353   4.344   7.335
19202SOL    MW477129   9.335   4.375   7.416
19203SOL     OW77130   8.875   4.685   7.468
19203SOL    HW277131   8.941   4.633   7.422
19203SOL    HW377132   8.895   4.672   7.561
19203SOL    MW477133   8.886   4.676   7.475
19204SOL     OW77134   8.826   3.771   5.817
19204SOL    HW277135   8.900   3.815   5.860
19204SOL    HW377136   8.750   3.825   5.839
19204SOL    MW477137   8.826   3.783   5.825
19205SOL     OW77138   8.886   4.546   6.095
19205SOL    HW277139   8.801   4.516   6.065
19205SOL    HW377140   8.878   4.553   6.190
19205SOL    MW477141   8.874   4.544   6.104
19206SOL     OW77142   7.962   5.009   6.826
19206SOL    HW277143   7.974   5.036   6.917
19206SOL    HW377144   7.943   5.090   6.779
19206SOL    MW477145   7.961   5.024   6.831
19207SOL     OW77146   8.246   3.989   6.649
19207SOL    HW277147   8.219   3.991   6.740
19207SOL    HW377148   8.176   3.941   6.604
19207SOL    MW477149   8.234   3.985   6.656
19208SOL     OW77150   8.100   5.481   6.811
19208SOL    HW277151   8.152   5.558   6.788
19208SOL    HW377152   8.109   5.473   6.906
19208SOL    MW477153   8.109   5.488   6.822
19209SOL     OW77154   9.002   5.066   7.043
19209SOL    HW277155   8.987   4.995   7.106
19209SOL    HW377156   9.048   5.024   6.971
19209SOL    MW477157   9.008   5.050   7.043
19210SOL     OW77158   8.076   4.797   7.160
19210SOL    HW277159   8.113   4.802   7.072
19210SOL    HW377160   8.115   4.870   7.207
19210SOL    MW477161   8.086   4.807   7.155
19211SOL     OW77162   8.256   4.840   6.972
19211SOL    HW277163   8.315   4.786   7.025
19211SOL    HW377164   8.271   4.812   6.882
19211SOL    MW477165   8.266   4.829   6.968
19212SOL     OW77166   8.259   4.212   5.821
19212SOL    HW277167   8.332   4.261   5.784
19212SOL    HW377168   8.275   4.121   5.795
19212SOL    MW477169   8.271   4.207   5.814
19213SOL     OW77170   9.067   5.329   7.144
19213SOL    HW277171   9.109   5.314   7.229
19213SOL    HW377172   9.058   5.242   7.106
19213SOL    MW477173   9.071   5.317   7.151
19214SOL     OW77174   8.727   3.808   6.735
19214SOL    HW277175   8.782   3.817   6.657
19214SOL    HW377176   8.782   3.842   6.806
19214SOL    MW477177   8.741   3.813   6.734
19215SOL     OW77178   7.734   4.721   5.919
19215SOL    HW277179   7.671   4.737   5.848
19215SOL    HW377180   7.681   4.684   5.990
19215SOL    MW477181   7.719   4.718   5.919
19216SOL     OW77182   8.090   5.075   5.778
19216SOL    HW277183   8.105   5.051   5.870
19216SOL    HW377184   7.998   5.053   5.762
19216SOL    MW477185   8.080   5.068   5.788
19217SOL     OW77186   8.629   5.306   5.930
19217SOL    HW277187   8.637   5.224   5.881
19217SOL    HW377188   8.548   5.345   5.897
19217SOL    MW477189   8.619   5.301   5.920
19218SOL     OW77190   7.888   5.464   6.499
19218SOL    HW277191   7.892   5.375   6.534
19218SOL    HW377192   7.914   5.455   6.408
19218SOL    MW477193   7.891   5.452   6.491
19219SOL     OW77194   8.505   4.942   6.742
19219SOL    HW277195   8.437   4.876   6.758
19219SOL    HW377196   8.523   4.936   6.649
19219SOL    MW477197   8.498   4.933   6.733
19220SOL     OW77198   7.594   5.217   6.993
19220SOL    HW277199   7.584   5.175   7.079
19220SOL    HW377200   7.515   5.270   6.983
19220SOL    MW477201   7.583   5.218   7.004
19221SOL     OW77202   8.498   4.081   6.563
19221SOL    HW277203   8.428   4.033   6.608
19221SOL    HW377204   8.530   4.144   6.627
19221SOL    MW477205   8.493   4.083   6.577
19222SOL     OW77206   8.149   4.517   7.183
19222SOL    HW277207   8.142   4.612   7.171
19222SOL    HW377208   8.158   4.506   7.278
19222SOL    MW477209   8.150   4.529   7.193
19223SOL     OW77210   7.870   5.032   7.441
19223SOL    HW277211   7.942   5.034   7.378
19223SOL    HW377212   7.840   4.941   7.440
19223SOL    MW477213   7.875   5.021   7.433
19224SOL     OW77214   8.954   3.795   6.908
19224SOL    HW277215   9.025   3.741   6.872
19224SOL    HW377216   8.953   3.774   7.001
19224SOL    MW477217   8.963   3.786   6.916
19225SOL     OW77218   9.154   5.325   7.392
19225SOL    HW277219   9.127   5.322   7.483
19225SOL    HW377220   9.250   5.329   7.395
19225SOL    MW477221   9.164   5.325   7.404
19226SOL     OW77222   7.965   4.187   6.376
19226SOL    HW277223   8.036   4.135   6.339
19226SOL    HW377224   7.951   4.152   6.463
19226SOL    MW477225   7.973   4.176   6.383
19227SOL     OW77226   7.520   5.522   7.448
19227SOL    HW277227   7.570   5.500   7.370
19227SOL    HW377228   7.528   5.617   7.456
19227SOL    MW477229   7.528   5.531   7.439
19228SOL     OW77230   8.281   5.280   6.452
19228SOL    HW277231   8.209   5.217   6.465
19228SOL    HW377232   8.242   5.365   6.470
19228SOL    MW477233   8.265   5.283   6.455
19229SOL     OW77234   8.601   4.128   6.100
19229SOL    HW277235   8.623   4.065   6.032
19229SOL    HW377236   8.506   4.120   6.111
19229SOL    MW477237   8.591   4.119   6.092
19230SOL     OW77238   7.686   3.818   6.032
19230SOL    HW277239   7.757   3.839   5.971
19230SOL    HW377240   7.640   3.746   5.990
19230SOL    MW477241   7.690   3.812   6.018
19231SOL     OW77242   7.517   4.285   7.175
19231SOL    HW277243   7.581   4.351   7.150
19231SOL    HW377244   7.436   4.312   7.132
19231SOL    MW477245   7.515   4.297   7.167
19232SOL     OW77246   9.255   5.192   6.132
19232SOL    HW277247   9.225   5.125   6.193
19232SOL    HW377248   9.349   5.198   6.146
19232SOL    MW477249   9.263   5.184   6.142
19233SOL     OW77250   8.811   4.869   6.062
19233SOL    HW277251   8.783   4.955   6.095
19233SOL    HW377252   8.839   4.885   5.972
19233SOL    MW477253   8.811   4.883   6.054
19234SOL     OW77254   8.473   3.789   6.115
19234SOL    HW277255   8.510   3.848   6.180
19234SOL    HW377256   8.450   3.845   6.041
19234SOL    MW477257   8.474   3.804   6.114
19235SOL     OW77258   9.326   4.671   6.537
19235SOL    HW277259   9.317   4.703   6.448
19235SOL    HW377260   9.279   4.587   6.537
19235SOL    MW477261   9.319   4.664   6.527
19236SOL     OW77262   7.702   4.511   7.116
19236SOL    HW277263   7.723   4.580   7.054
19236SOL    HW377264   7.782   4.458   7.121
19236SOL    MW477265   7.715   4.512   7.110
19237SOL     OW77266   9.238   4.602   6.238
19237SOL    HW277267   9.332   4.591   6.226
19237SOL    HW377268   9.214   4.674   6.179
19237SOL    MW477269   9.248   4.610   6.229
19238SOL     OW77270   7.687   4.526   7.383
19238SOL    HW277271   7.613   4.470   7.409
19238SOL    HW377272   7.682   4.529   7.288
19238SOL    MW477273   7.676   4.519   7.373
19239SOL     OW77274   7.853   3.813   6.833
19239SOL    HW277275   7.896   3.897   6.853
19239SOL    HW377276   7.926   3.751   6.826
19239SOL    MW477277   7.868   3.816   6.834
19240SOL     OW77278   7.894   4.480   6.011
19240SOL    HW277279   7.894   4.575   5.996
19240SOL    HW377280   7.971   4.464   6.065
19240SOL    MW477281   7.904   4.491   6.016
19241SOL     OW77282   8.670   4.339   7.075
19241SOL    HW277283   8.706   4.312   6.991
19241SOL    HW377284   8.583   4.373   7.054
19241SOL    MW477285   8.664   4.340   7.062
19242SOL     OW77286   7.653   4.211   6.300
19242SOL    HW277287   7.715   4.218   6.373
19242SOL    HW377288   7.653   4.118   6.277
19242SOL    MW477289   7.661   4.200   6.307
19243SOL     OW77290   9.200   5.551   5.832
19243SOL    HW277291   9.267   5.584   5.772
19243SOL    HW377292   9.157   5.630   5.866
19243SOL    MW477293   9.202   5.566   5.828
19244SOL     OW77294   8.335   4.472   6.784
19244SOL    HW277295   8.293   4.390   6.760
19244SOL    HW377296   8.336   4.471   6.880
19244SOL    MW477297   8.328   4.461   6.793
19245SOL     OW77298   9.006   5.605   7.183
19245SOL    HW277299   9.009   5.511   7.166
19245SOL    HW377300   9.029   5.613   7.275
19245SOL    MW477301   9.009   5.593   7.193
19246SOL     OW77302   8.139   3.942   6.889
19246SOL    HW277303   8.070   4.005   6.910
19246SOL    HW377304   8.166   3.906   6.974
19246SOL    MW477305   8.133   3.945   6.902
19247SOL     OW77306   7.522   4.783   5.758
19247SOL    HW277307   7.491   4.848   5.821
19247SOL    HW377308   7.471   4.705   5.777
19247SOL    MW477309   7.512   4.780   5.768
19248SOL     OW77310   8.934   3.795   6.506
19248SOL    HW277311   9.022   3.804   6.543
19248SOL    HW377312   8.944   3.736   6.432
19248SOL    MW477313   8.948   3.789   6.500
19249SOL     OW77314   8.966   4.534   6.350
19249SOL    HW277315   9.046   4.549   6.299
19249SOL    HW377316   8.959   4.439   6.356
19249SOL    MW477317   8.975   4.523   6.345
19250SOL     OW77318   8.106   5.583   5.700
19250SOL    HW277319   8.011   5.583   5.692
19250SOL    HW377320   8.122   5.529   5.778
19250SOL    MW477321   8.096   5.577   5.709
19251SOL     OW77322   8.416   4.460   7.047
19251SOL    HW277323   8.485   4.527   7.044
19251SOL    HW377324   8.349   4.498   7.103
19251SOL    MW477325   8.417   4.473   7.054
19252SOL     OW77326   7.834   4.760   7.295
19252SOL    HW277327   7.788   4.676   7.297
19252SOL    HW377328   7.891   4.754   7.219
19252SOL    MW477329   7.836   4.748   7.287
19253SOL     OW77330   8.951   4.403   5.615
19253SOL    HW277331   8.879   4.379   5.557
19253SOL    HW377332   9.017   4.440   5.557
19253SOL    MW477333   8.950   4.405   5.600
19254SOL     OW77334   8.085   5.135   6.296
19254SOL    HW277335   8.150   5.068   6.317
19254SOL    HW377336   8.137   5.212   6.273
19254SOL    MW477337   8.100   5.137   6.295
19255SOL     OW77338   8.346   4.300   6.426
19255SOL    HW277339   8.286   4.318   6.498
19255SOL    HW377340   8.380   4.212   6.445
19255SOL    MW477341   8.342   4.290   6.439
19256SOL     OW77342   9.287   3.799   7.095
19256SOL    HW277343   9.208   3.845   7.123
19256SOL    HW377344   9.322   3.853   7.024
19256SOL    MW477345   9.281   3.812   7.089
19257SOL     OW77346   8.571   4.883   6.445
19257SOL    HW277347   8.663   4.864   6.463
19257SOL    HW377348   8.544   4.813   6.385
19257SOL    MW477349   8.579   4.871   6.439
19258SOL     OW77350   8.364   4.703   5.800
19258SOL    HW277351   8.350   4.615   5.765
19258SOL    HW377352   8.315   4.760   5.741
19258SOL    MW477353   8.356   4.698   5.788
19259SOL     OW77354   8.845   5.121   6.541
19259SOL    HW277355   8.818   5.205   6.506
19259SOL    HW377356   8.805   5.116   6.628
19259SOL    MW477357   8.838   5.130   6.547
19260SOL     OW77358   8.764   5.069   6.809
19260SOL    HW277359   8.775   5.036   6.898
19260SOL    HW377360   8.683   5.028   6.778
19260SOL    MW477361   8.754   5.061   6.815
19261SOL     OW77362   7.777   4.427   6.579
19261SOL    HW277363   7.727   4.426   6.660
19261SOL    HW377364   7.797   4.519   6.563
19261SOL    MW477365   7.773   4.439   6.587
19262SOL     OW77366   8.844   5.191   7.341
19262SOL    HW277367   8.844   5.285   7.357
19262SOL    HW377368   8.889   5.181   7.257
19262SOL    MW477369   8.850   5.201   7.332
19263SOL     OW77370   9.083   3.909   5.902
19263SOL    HW277371   9.076   3.913   5.997
19263SOL    HW377372   9.095   4.000   5.875
19263SOL    MW477373   9.084   3.922   5.910
19264SOL     OW77374   8.372   4.472   6.016
19264SOL    HW277375   8.352   4.458   5.923
19264SOL    HW377376   8.465   4.451   6.023
19264SOL    MW477377   8.382   4.467   6.005
19265SOL     OW77378   7.699   4.095   7.320
19265SOL    HW277379   7.656   4.154   7.257
19265SOL    HW377380   7.767   4.150   7.360
19265SOL    MW477381   7.703   4.110   7.317
19266SOL     OW77382   8.811   4.715   6.865
19266SOL    HW277383   8.874   4.712   6.938
19266SOL    HW377384   8.727   4.733   6.907
19266SOL    MW477385   8.807   4.717   6.880
19267SOL     OW77386   8.355   5.430   6.054
19267SOL    HW277387   8.413   5.501   6.081
19267SOL    HW377388   8.378   5.358   6.112
19267SOL    MW477389   8.366   5.430   6.065
19268SOL     OW77390   9.150   3.892   6.644
19268SOL    HW277391   9.195   3.810   6.663
19268SOL    HW377392   9.170   3.948   6.720
19268SOL    MW477393   9.160   3.888   6.656
19269SOL     OW77394   7.598   3.735   6.743
19269SOL    HW277395   7.589   3.736   6.648
19269SOL    HW377396   7.692   3.747   6.758
19269SOL    MW477397   7.610   3.738   6.734
19270SOL     OW77398   9.235   4.928   6.363
19270SOL    HW277399   9.214   4.874   6.286
19270SOL    HW377400   9.331   4.926   6.367
19270SOL    MW477401   9.244   4.921   6.352
19271SOL     OW77402   7.927   5.073   7.106
19271SOL    HW277403   7.848   5.023   7.129
19271SOL    HW377404   7.997   5.032   7.156
19271SOL    MW477405   7.925   5.061   7.116
19272SOL     OW77406   7.811   3.862   5.789
19272SOL    HW277407   7.740   3.917   5.757
19272SOL    HW377408   7.853   3.828   5.710
19272SOL    MW477409   7.807   3.864   5.775
19273SOL     OW77410   8.935   4.359   6.625
19273SOL    HW277411   8.858   4.405   6.591
19273SOL    HW377412   8.992   4.428   6.659
19273SOL    MW477413   8.932   4.374   6.625
19274SOL     OW77414   7.567   3.961   5.638
19274SOL    HW277415   7.534   4.040   5.682
19274SOL    HW377416   7.622   3.994   5.567
19274SOL    MW477417   7.570   3.975   5.635
19275SOL     OW77418   7.601   5.218   5.827
19275SOL    HW277419   7.618   5.302   5.869
19275SOL    HW377420   7.636   5.227   5.739
19275SOL    MW477421   7.606   5.231   5.821
19276SOL     OW77422   8.873   5.307   6.044
19276SOL    HW277423   8.936   5.297   5.973
19276SOL    HW377424   8.790   5.327   5.999
19276SOL    MW477425   8.870   5.308   6.029
19277SOL     OW77426   9.102   6.376   1.252
19277SOL    HW277427   9.057   6.443   1.303
19277SOL    HW377428   9.190   6.412   1.238
19277SOL    MW477429   9.108   6.389   1.256
19278SOL     OW77430   8.030   6.627   0.486
19278SOL    HW277431   8.120   6.602   0.470
19278SOL    HW377432   8.026   6.720   0.463
19278SOL    MW477433   8.042   6.636   0.481
19279SOL     OW77434   9.146   7.330   0.628
19279SOL    HW277435   9.158   7.276   0.706
19279SOL    HW377436   9.183   7.278   0.557
19279SOL    MW477437   9.152   7.315   0.629
19280SOL     OW77438   8.525   7.215   1.629
19280SOL    HW277439   8.566   7.251   1.550
19280SOL    HW377440   8.560   7.126   1.636
19280SOL    MW477441   8.536   7.208   1.620
19281SOL     OW77442   9.082   6.770   1.233
19281SOL    HW277443   9.003   6.735   1.191
19281SOL    HW377444   9.109   6.842   1.177
19281SOL    MW477445   9.075   6.775   1.220
19282SOL     OW77446   8.314   6.083   0.499
19282SOL    HW277447   8.289   6.171   0.527
19282SOL    HW377448   8.311   6.086   0.403
19282SOL    MW477449   8.310   6.095   0.491
19283SOL     OW77450   7.756   6.111   0.427
19283SOL    HW277451   7.788   6.199   0.409
19283SOL    HW377452   7.744   6.109   0.522
19283SOL    MW477453   7.759   6.123   0.439
19284SOL     OW77454   7.834   6.524   1.328
19284SOL    HW277455   7.897   6.471   1.279
19284SOL    HW377456   7.815   6.598   1.271
19284SOL    MW477457   7.840   6.526   1.315
19285SOL     OW77458   8.155   5.866   0.514
19285SOL    HW277459   8.213   5.942   0.516
19285SOL    HW377460   8.090   5.887   0.447
19285SOL    MW477461   8.154   5.878   0.505
19286SOL     OW77462   8.242   6.793   0.689
19286SOL    HW277463   8.322   6.796   0.741
19286SOL    HW377464   8.270   6.760   0.603
19286SOL    MW477465   8.256   6.789   0.684
19287SOL     OW77466   8.267   7.134   1.592
19287SOL    HW277467   8.351   7.160   1.631
19287SOL    HW377468   8.291   7.078   1.518
19287SOL    MW477469   8.281   7.130   1.587
19288SOL     OW77470   8.019   6.297   0.680
19288SOL    HW277471   8.004   6.217   0.731
19288SOL    HW377472   8.101   6.332   0.714
19288SOL    MW477473   8.027   6.289   0.692
19289SOL     OW77474   8.356   6.983   1.365
19289SOL    HW277475   8.320   7.049   1.305
19289SOL    HW377476   8.284   6.921   1.378
19289SOL    MW477477   8.342   6.983   1.359
19290SOL     OW77478   8.161   6.123   1.057
19290SOL    HW277479   8.067   6.119   1.075
19290SOL    HW377480   8.191   6.032   1.066
19290SOL    MW477481   8.152   6.111   1.060
19291SOL     OW77482   7.907   6.537   0.961
19291SOL    HW277483   7.862   6.544   0.877
19291SOL    HW377484   7.887   6.620   1.005
19291SOL    MW477485   7.899   6.549   0.955
19292SOL     OW77486   7.604   7.383   0.836
19292SOL    HW277487   7.693   7.375   0.871
19292SOL    HW377488   7.568   7.295   0.841
19292SOL    MW477489   7.611   7.370   0.841
19293SOL     OW77490   7.868   6.910   0.871
19293SOL    HW277491   7.844   6.963   0.947
19293SOL    HW377492   7.924   6.968   0.819
19293SOL    MW477493   7.872   6.925   0.874
19294SOL     OW77494   8.430   6.554   0.681
19294SOL    HW277495   8.344   6.541   0.721
19294SOL    HW377496   8.483   6.481   0.713
19294SOL    MW477497   8.426   6.543   0.690
19295SOL     OW77498   7.838   7.206   1.466
19295SOL    HW277499   7.746   7.182   1.451
19295SOL    HW377500   7.882   7.123   1.483
19295SOL    MW477501   7.832   7.191   1.465
19296SOL     OW77502   9.294   5.917   0.854
19296SOL    HW277503   9.231   5.897   0.923
19296SOL    HW377504   9.284   5.846   0.791
19296SOL    MW477505   9.284   5.904   0.855
19297SOL     OW77506   7.918   5.889   0.366
19297SOL    HW277507   7.892   5.851   0.282
19297SOL    HW377508   7.855   5.959   0.382
19297SOL    MW477509   7.907   5.892   0.357
19298SOL     OW77510   7.753   6.850   0.403
19298SOL    HW277511   7.701   6.918   0.359
19298SOL    HW377512   7.750   6.776   0.343
19298SOL    MW477513   7.745   6.849   0.390
19299SOL     OW77514   9.095   6.689   0.506
19299SOL    HW277515   9.005   6.689   0.541
19299SOL    HW377516   9.088   6.735   0.423
19299SOL    MW477517   9.082   6.695   0.500
19300SOL     OW77518   8.895   6.324   1.578
19300SOL    HW277519   8.964   6.262   1.555
19300SOL    HW377520   8.820   6.298   1.525
19300SOL    MW477521   8.895   6.311   1.569
19301SOL     OW77522   7.636   7.204   1.130
19301SOL    HW277523   7.619   7.150   1.207
19301SOL    HW377524   7.624   7.294   1.160
19301SOL    MW477525   7.633   7.208   1.144
19302SOL     OW77526   8.631   6.711   1.570
19302SOL    HW277527   8.616   6.804   1.555
19302SOL    HW377528   8.726   6.701   1.570
19302SOL    MW477529   8.640   6.721   1.567
19303SOL     OW77530   8.427   6.135   1.771
19303SOL    HW277531   8.517   6.136   1.738
19303SOL    HW377532   8.386   6.060   1.729
19303SOL    MW477533   8.433   6.125   1.762
19304SOL     OW77534   9.002   6.667   0.898
19304SOL    HW277535   9.005   6.601   0.829
19304SOL    HW377536   9.087   6.710   0.894
19304SOL    MW477537   9.014   6.663   0.889
19305SOL     OW77538   8.622   6.270   0.467
19305SOL    HW277539   8.648   6.294   0.378
19305SOL    HW377540   8.604   6.177   0.463
19305SOL    MW477541   8.624   6.262   0.454
19306SOL     OW77542   8.207   5.939   1.721
19306SOL    HW277543   8.217   5.865   1.661
19306SOL    HW377544   8.243   5.908   1.804
19306SOL    MW477545   8.213   5.925   1.723
19307SOL     OW77546   7.943   7.306   0.636
19307SOL    HW277547   7.975   7.394   0.614
19307SOL    HW377548   7.896   7.278   0.558
19307SOL    MW477549   7.942   7.314   0.623
19308SOL     OW77550   9.327   5.668   0.685
19308SOL    HW277551   9.381   5.619   0.747
19308SOL    HW377552   9.270   5.602   0.646
19308SOL    MW477553   9.327   5.652   0.687
19309SOL     OW77554   8.446   5.621   1.098
19309SOL    HW277555   8.405   5.699   1.060
19309SOL    HW377556   8.540   5.639   1.093
19309SOL    MW477557   8.452   5.633   1.093
19310SOL     OW77558   9.075   6.225   0.464
19310SOL    HW277559   9.114   6.225   0.551
19310SOL    HW377560   9.016   6.301   0.464
19310SOL    MW477561   9.072   6.236   0.475
19311SOL     OW77562   8.392   6.592   1.593
19311SOL    HW277563   8.369   6.572   1.683
19311SOL    HW377564   8.477   6.636   1.598
19311SOL    MW477565   8.399   6.595   1.605
19312SOL     OW77566   8.472   5.729   1.353
19312SOL    HW277567   8.478   5.691   1.266
19312SOL    HW377568   8.461   5.823   1.338
19312SOL    MW477569   8.473   5.737   1.341
19313SOL     OW77570   8.561   6.218   1.187
19313SOL    HW277571   8.636   6.247   1.134
19313SOL    HW377572   8.493   6.283   1.171
19313SOL    MW477573   8.562   6.230   1.177
19314SOL     OW77574   9.111   6.186   1.464
19314SOL    HW277575   9.092   6.095   1.443
19314SOL    HW377576   9.089   6.235   1.385
19314SOL    MW477577   9.106   6.179   1.451
19315SOL     OW77578   9.253   7.280   1.368
19315SOL    HW277579   9.181   7.242   1.419
19315SOL    HW377580   9.270   7.365   1.409
19315SOL    MW477581   9.247   7.285   1.380
19316SOL     OW77582   8.558   5.924   1.570
19316SOL    HW277583   8.524   5.963   1.489
19316SOL    HW377584   8.536   5.832   1.563
19316SOL    MW477585   8.551   5.917   1.560
19317SOL     OW77586   8.967   6.738   1.646
19317SOL    HW277587   9.049   6.779   1.676
19317SOL    HW377588   8.930   6.700   1.726
19317SOL    MW477589   8.973   6.739   1.661
19318SOL     OW77590   9.262   6.111   0.630
19318SOL    HW277591   9.351   6.080   0.647
19318SOL    HW377592   9.205   6.051   0.678
19318SOL    MW477593   9.265   6.099   0.639
19319SOL     OW77594   7.688   5.825   0.659
19319SOL    HW277595   7.679   5.765   0.585
19319SOL    HW377596   7.621   5.796   0.722
19319SOL    MW477597   7.678   5.812   0.657
19320SOL     OW77598   7.635   5.998   1.022
19320SOL    HW277599   7.607   6.089   1.031
19320SOL    HW377600   7.572   5.959   0.961
19320SOL    MW477601   7.622   6.004   1.016
19321SOL     OW77602   8.094   7.336   0.328
19321SOL    HW277603   8.015   7.294   0.361
19321SOL    HW377604   8.160   7.319   0.395
19321SOL    MW477605   8.093   7.328   0.341
19322SOL     OW77606   9.222   6.856   1.725
19322SOL    HW277607   9.272   6.782   1.757
19322SOL    HW377608   9.168   6.883   1.800
19322SOL    MW477609   9.222   6.850   1.738
19323SOL     OW77610   9.356   6.491   1.227
19323SOL    HW277611   9.372   6.529   1.140
19323SOL    HW377612   9.390   6.557   1.288
19323SOL    MW477613   9.363   6.504   1.223
19324SOL     OW77614   9.148   7.200   0.896
19324SOL    HW277615   9.177   7.267   0.957
19324SOL    HW377616   9.129   7.124   0.951
19324SOL    MW477617   9.150   7.200   0.911
19325SOL     OW77618   8.811   7.267   0.103
19325SOL    HW277619   8.737   7.230   0.153
19325SOL    HW377620   8.819   7.357   0.136
19325SOL    MW477621   8.802   7.274   0.115
19326SOL     OW77622   7.619   6.273   1.192
19326SOL    HW277623   7.681   6.303   1.258
19326SOL    HW377624   7.553   6.342   1.186
19326SOL    MW477625   7.618   6.286   1.199
19327SOL     OW77626   7.714   7.382   1.644
19327SOL    HW277627   7.688   7.450   1.582
19327SOL    HW377628   7.762   7.319   1.592
19327SOL    MW477629   7.716   7.382   1.630
19328SOL     OW77630   7.766   6.701   1.151
19328SOL    HW277631   7.819   6.776   1.176
19328SOL    HW377632   7.685   6.739   1.117
19328SOL    MW477633   7.762   6.716   1.151
19329SOL     OW77634   8.306   6.605   1.139
19329SOL    HW277635   8.334   6.514   1.151
19329SOL    HW377636   8.235   6.599   1.075
19329SOL    MW477637   8.299   6.593   1.134
19330SOL     OW77638   7.621   6.470   0.557
19330SOL    HW277639   7.712   6.485   0.584
19330SOL    HW377640   7.624   6.391   0.503
19330SOL    MW477641   7.633   6.462   0.555
19331SOL     OW77642   7.857   6.178   1.811
19331SOL    HW277643   7.804   6.258   1.818
19331SOL    HW377644   7.927   6.190   1.876
19331SOL    MW477645   7.859   6.191   1.819
19332SOL     OW77646   8.243   5.728   1.518
19332SOL    HW277647   8.220   5.636   1.520
19332SOL    HW377648   8.329   5.730   1.475
19332SOL    MW477649   8.250   5.718   1.514
19333SOL     OW77650   7.927   6.252   1.557
19333SOL    HW277651   8.007   6.302   1.543
19333SOL    HW377652   7.918   6.246   1.652
19333SOL    MW477653   7.936   6.258   1.567
19334SOL     OW77654   8.248   7.402   0.931
19334SOL    HW277655   8.337   7.417   0.961
19334SOL    HW377656   8.243   7.449   0.847
19334SOL    MW477657   8.258   7.410   0.924
19335SOL     OW77658   8.904   5.777   1.828
19335SOL    HW277659   8.960   5.704   1.854
19335SOL    HW377660   8.874   5.815   1.910
19335SOL    MW477661   8.908   5.772   1.841
19336SOL     OW77662   7.629   7.082   0.596
19336SOL    HW277663   7.601   7.121   0.678
19336SOL    HW377664   7.649   6.991   0.618
19336SOL    MW477665   7.627   7.074   0.609
19337SOL     OW77666   8.462   7.125   0.631
19337SOL    HW277667   8.545   7.079   0.615
19337SOL    HW377668   8.452   7.124   0.727
19337SOL    MW477669   8.472   7.118   0.641
19338SOL     OW77670   9.294   6.270   0.945
19338SOL    HW277671   9.383   6.300   0.927
19338SOL    HW377672   9.274   6.210   0.874
19338SOL    MW477673   9.303   6.267   0.934
19339SOL     OW77674   9.145   6.449   1.825
19339SOL    HW277675   9.200   6.373   1.806
19339SOL    HW377676   9.147   6.457   1.920
19339SOL    MW477677   9.153   6.440   1.833
19340SOL     OW77678   8.440   6.011   1.344
19340SOL    HW277679   8.359   6.052   1.372
19340SOL    HW377680   8.487   6.079   1.296
19340SOL    MW477681   8.435   6.026   1.342
19341SOL     OW77682   8.700   6.349   0.967
19341SOL    HW277683   8.713   6.443   0.977
19341SOL    HW377684   8.661   6.339   0.881
19341SOL    MW477685   8.696   6.360   0.957
19342SOL     OW77686   8.152   6.544   0.771
19342SOL    HW277687   8.063   6.535   0.804
19342SOL    HW377688   8.156   6.634   0.739
19342SOL    MW477689   8.141   6.555   0.771
19343SOL     OW77690   8.951   6.127   0.766
19343SOL    HW277691   8.896   6.048   0.765
19343SOL    HW377692   8.933   6.168   0.850
19343SOL    MW477693   8.941   6.122   0.775
19344SOL     OW77694   7.922   5.814   1.583
19344SOL    HW277695   7.843   5.832   1.635
19344SOL    HW377696   7.917   5.876   1.510
19344SOL    MW477697   7.912   5.824   1.580
19345SOL     OW77698   8.570   6.331   0.723
19345SOL    HW277699   8.507   6.263   0.747
19345SOL    HW377700   8.590   6.312   0.631
19345SOL    MW477701   8.564   6.318   0.715
19346SOL     OW77702   8.318   6.635   0.449
19346SOL    HW277703   8.320   6.609   0.356
19346SOL    HW377704   8.376   6.572   0.492
19346SOL    MW477705   8.326   6.624   0.443
19347SOL     OW77706   8.871   7.195   1.221
19347SOL    HW277707   8.796   7.241   1.259
19347SOL    HW377708   8.853   7.102   1.238
19347SOL    MW477709   8.860   7.189   1.229
19348SOL     OW77710   8.875   7.403   0.651
19348SOL    HW277711   8.818   7.356   0.590
19348SOL    HW377712   8.961   7.364   0.638
19348SOL    MW477713   8.878   7.394   0.641
19349SOL     OW77714   8.828   5.879   0.782
19349SOL    HW277715   8.856   5.811   0.843
19349SOL    HW377716   8.742   5.850   0.752
19349SOL    MW477717   8.821   5.866   0.786
19350SOL     OW77718   7.633   6.813   0.716
19350SOL    HW277719   7.697   6.845   0.779
19350SOL    HW377720   7.682   6.749   0.664
19350SOL    MW477721   7.648   6.809   0.717
19351SOL     OW77722   8.133   6.889   1.698
19351SOL    HW277723   8.181   6.972   1.685
19351SOL    HW377724   8.190   6.837   1.754
19351SOL    MW477725   8.147   6.893   1.704
19352SOL     OW77726   7.709   7.131   1.838
19352SOL    HW277727   7.765   7.055   1.853
19352SOL    HW377728   7.658   7.109   1.760
19352SOL    MW477729   7.709   7.118   1.829
19353SOL     OW77730   8.594   6.968   1.447
19353SOL    HW277731   8.505   6.974   1.415
19353SOL    HW377732   8.638   7.047   1.415
19353SOL    MW477733   8.589   6.978   1.439
19354SOL     OW77734   7.887   5.636   1.789
19354SOL    HW277735   7.815   5.601   1.737
19354SOL    HW377736   7.945   5.677   1.724
19354SOL    MW477737   7.885   5.637   1.774
19355SOL     OW77738   7.911   7.126   1.088
19355SOL    HW277739   7.956   7.188   1.145
19355SOL    HW377740   7.818   7.145   1.101
19355SOL    MW477741   7.904   7.136   1.095
19356SOL     OW77742   9.351   6.655   1.442
19356SOL    HW277743   9.266   6.668   1.401
19356SOL    HW377744   9.331   6.619   1.529
19356SOL    MW477745   9.338   6.651   1.447
19357SOL     OW77746   8.333   7.194   1.196
19357SOL    HW277747   8.357   7.183   1.105
19357SOL    HW377748   8.256   7.251   1.194
19357SOL    MW477749   8.325   7.199   1.185
19358SOL     OW77750   8.128   6.899   0.986
19358SOL    HW277751   8.121   6.878   1.080
19358SOL    HW377752   8.046   6.867   0.949
19358SOL    MW477753   8.116   6.893   0.993
19359SOL     OW77754   8.992   5.909   1.388
19359SOL    HW277755   8.939   5.911   1.468
19359SOL    HW377756   8.977   5.822   1.351
19359SOL    MW477757   8.984   5.899   1.393
19360SOL     OW77758   9.328   5.833   1.261
19360SOL    HW277759   9.309   5.900   1.196
19360SOL    HW377760   9.385   5.771   1.216
19360SOL    MW477761   9.332   5.834   1.247
19361SOL     OW77762   7.574   6.991   1.649
19361SOL    HW277763   7.618   6.924   1.595
19361SOL    HW377764   7.489   6.953   1.669
19361SOL    MW477765   7.569   6.977   1.645
19362SOL     OW77766   8.257   5.666   0.701
19362SOL    HW277767   8.186   5.727   0.683
19362SOL    HW377768   8.308   5.663   0.620
19362SOL    MW477769   8.253   5.672   0.688
19363SOL     OW77770   8.610   7.299   1.359
19363SOL    HW277771   8.530   7.284   1.309
19363SOL    HW377772   8.617   7.394   1.366
19363SOL    MW477773   8.601   7.310   1.353
19364SOL     OW77774   8.724   7.264   0.849
19364SOL    HW277775   8.771   7.337   0.808
19364SOL    HW377776   8.645   7.303   0.885
19364SOL    MW477777   8.719   7.279   0.848
19365SOL     OW77778   9.132   7.359   1.124
19365SOL    HW277779   9.175   7.329   1.204
19365SOL    HW377780   9.051   7.307   1.121
19365SOL    MW477781   9.127   7.348   1.134
19366SOL     OW77782   8.217   6.323   1.831
19366SOL    HW277783   8.287   6.265   1.803
19366SOL    HW377784   8.160   6.268   1.886
19366SOL    MW477785   8.219   6.310   1.835
19367SOL     OW77786   9.004   6.535   1.464
19367SOL    HW277787   9.009   6.588   1.544
19367SOL    HW377788   8.966   6.452   1.492
19367SOL    MW477789   9.000   6.530   1.479
19368SOL     OW77790   8.644   5.670   1.710
19368SOL    HW277791   8.639   5.577   1.691
19368SOL    HW377792   8.727   5.681   1.756
19368SOL    MW477793   8.652   5.659   1.714
19369SOL     OW77794   9.114   6.941   0.986
19369SOL    HW277795   9.149   6.923   0.899
19369SOL    HW377796   9.019   6.942   0.973
19369SOL    MW477797   9.106   6.938   0.973
19370SOL     OW77798   8.543   6.589   1.355
19370SOL    HW277799   8.586   6.624   1.433
19370SOL    HW377800   8.526   6.666   1.301
19370SOL    MW477801   8.546   6.604   1.358
19371SOL     OW77802   7.934   5.731   0.657
19371SOL    HW277803   7.984   5.774   0.588
19371SOL    HW377804   7.849   5.775   0.657
19371SOL    MW477805   7.931   5.744   0.648
19372SOL     OW77806   7.693   6.793   1.517
19372SOL    HW277807   7.721   6.746   1.595
19372SOL    HW377808   7.614   6.748   1.488
19372SOL    MW477809   7.686   6.782   1.523
19373SOL     OW77810   8.201   6.120   1.484
19373SOL    HW277811   8.173   6.208   1.508
19373SOL    HW377812   8.170   6.064   1.555
19373SOL    MW477813   8.193   6.123   1.496
19374SOL     OW77814   8.743   6.338   0.203
19374SOL    HW277815   8.790   6.356   0.122
19374SOL    HW377816   8.709   6.422   0.231
19374SOL    MW477817   8.745   6.352   0.196
19375SOL     OW77818   7.856   6.516   0.697
19375SOL    HW277819   7.914   6.572   0.645
19375SOL    HW377820   7.900   6.431   0.699
19375SOL    MW477821   7.869   6.513   0.690
19376SOL     OW77822   8.996   5.868   0.534
19376SOL    HW277823   8.918   5.818   0.559
19376SOL    HW377824   8.967   5.959   0.534
19376SOL    MW477825   8.982   5.872   0.537
19377SOL     OW77826   8.582   5.830   0.693
19377SOL    HW277827   8.602   5.905   0.637
19377SOL    HW377828   8.562   5.869   0.778
19377SOL    MW477829   8.583   5.846   0.697
19378SOL     OW77830   8.478   7.080   0.025
19378SOL    HW277831   8.505   7.158  -0.023
19378SOL    HW377832   8.385   7.095   0.044
19378SOL    MW477833   8.469   7.093   0.021
19379SOL     OW77834   9.342   6.603   1.712
19379SOL    HW277835   9.255   6.583   1.748
19379SOL    HW377836   9.396   6.529   1.737
19379SOL    MW477837   9.337   6.592   1.720
19380SOL     OW77838   7.563   7.116   0.869
19380SOL    HW277839   7.595   7.120   0.960
19380SOL    HW377840   7.468   7.124   0.877
19380SOL    MW477841   7.555   7.119   0.882
19381SOL     OW77842   7.518   6.242   0.416
19381SOL    HW277843   7.458   6.214   0.486
19381SOL    HW377844   7.592   6.182   0.422
19381SOL    MW477845   7.520   6.231   0.425
19382SOL     OW77846   9.086   7.454   1.850
19382SOL    HW277847   9.131   7.378   1.815
19382SOL    HW377848   9.124   7.467   1.937
19382SOL    MW477849   9.096   7.447   1.856
19383SOL     OW77850   8.686   6.973   0.576
19383SOL    HW277851   8.709   6.924   0.654
19383SOL    HW377852   8.767   7.015   0.548
19383SOL    MW477853   8.699   6.973   0.583
19384SOL     OW77854   7.944   5.981   1.305
19384SOL    HW277855   7.977   6.062   1.345
19384SOL    HW377856   7.917   6.007   1.217
19384SOL    MW477857   7.943   5.995   1.299
19385SOL     OW77858   7.898   5.948   1.041
19385SOL    HW277859   7.928   5.862   1.012
19385SOL    HW377860   7.803   5.941   1.044
19385SOL    MW477861   7.890   5.937   1.039
19386SOL     OW77862   8.727   6.157   1.732
19386SOL    HW277863   8.779   6.092   1.685
19386SOL    HW377864   8.685   6.208   1.662
19386SOL    MW477865   8.728   6.154   1.715
19387SOL     OW77866   8.826   5.952   1.593
19387SOL    HW277867   8.733   5.936   1.580
19387SOL    HW377868   8.852   5.890   1.661
19387SOL    MW477869   8.816   5.942   1.600
19388SOL     OW77870   8.041   5.726   0.932
19388SOL    HW277871   8.051   5.635   0.958
19388SOL    HW377872   7.997   5.722   0.847
19388SOL    MW477873   8.037   5.714   0.924
19389SOL     OW77874   8.135   7.341   1.478
19389SOL    HW277875   8.052   7.326   1.523
19389SOL    HW377876   8.194   7.274   1.513
19389SOL    MW477877   8.133   7.331   1.488
19390SOL     OW77878   9.192   6.048   1.103
19390SOL    HW277879   9.125   6.081   1.163
19390SOL    HW377880   9.235   6.126   1.069
19390SOL    MW477881   9.190   6.063   1.107
19391SOL     OW77882   9.370   6.768   1.073
19391SOL    HW277883   9.363   6.708   0.998
19391SOL    HW377884   9.296   6.828   1.062
19391SOL    MW477885   9.360   6.768   1.062
19392SOL     OW77886   8.752   6.630   0.991
19392SOL    HW277887   8.766   6.602   1.082
19392SOL    HW377888   8.838   6.661   0.963
19392SOL    MW477889   8.765   6.631   1.000
19393SOL     OW77890   8.835   6.125   1.270
19393SOL    HW277891   8.856   6.126   1.177
19393SOL    HW377892   8.880   6.047   1.303
19393SOL    MW477893   8.842   6.115   1.262
19394SOL     OW77894   9.328   6.256   1.812
19394SOL    HW277895   9.365   6.201   1.881
19394SOL    HW377896   9.353   6.213   1.730
19394SOL    MW477897   9.335   6.244   1.811
19395SOL     OW77898   8.875   6.554   1.863
19395SOL    HW277899   8.941   6.502   1.817
19395SOL    HW377900   8.895   6.541   1.956
19395SOL    MW477901   8.886   6.545   1.870
19396SOL     OW77902   8.886   6.415   0.490
19396SOL    HW277903   8.801   6.385   0.460
19396SOL    HW377904   8.878   6.422   0.585
19396SOL    MW477905   8.874   6.413   0.499
19397SOL     OW77906   7.962   6.878   1.221
19397SOL    HW277907   7.974   6.905   1.312
19397SOL    HW377908   7.943   6.959   1.174
19397SOL    MW477909   7.961   6.893   1.226
19398SOL     OW77910   8.246   5.858   1.044
19398SOL    HW277911   8.219   5.860   1.135
19398SOL    HW377912   8.176   5.810   0.999
19398SOL    MW477913   8.234   5.854   1.051
19399SOL     OW77914   8.100   7.350   1.206
19399SOL    HW277915   8.152   7.427   1.183
19399SOL    HW377916   8.109   7.342   1.301
19399SOL    MW477917   8.109   7.357   1.217
19400SOL     OW77918   9.002   6.935   1.438
19400SOL    HW277919   8.987   6.864   1.501
19400SOL    HW377920   9.048   6.893   1.366
19400SOL    MW477921   9.008   6.919   1.438
19401SOL     OW77922   8.076   6.666   1.555
19401SOL    HW277923   8.113   6.671   1.467
19401SOL    HW377924   8.115   6.739   1.602
19401SOL    MW477925   8.086   6.676   1.550
19402SOL     OW77926   8.256   6.709   1.367
19402SOL    HW277927   8.315   6.655   1.420
19402SOL    HW377928   8.271   6.681   1.277
19402SOL    MW477929   8.266   6.698   1.363
19403SOL     OW77930   9.067   7.198   1.539
19403SOL    HW277931   9.109   7.183   1.624
19403SOL    HW377932   9.058   7.111   1.501
19403SOL    MW477933   9.071   7.186   1.546
19404SOL     OW77934   8.727   5.677   1.130
19404SOL    HW277935   8.782   5.686   1.052
19404SOL    HW377936   8.782   5.711   1.201
19404SOL    MW477937   8.741   5.682   1.129
19405SOL     OW77938   7.734   6.590   0.314
19405SOL    HW277939   7.671   6.606   0.243
19405SOL    HW377940   7.681   6.553   0.385
19405SOL    MW477941   7.719   6.587   0.314
19406SOL     OW77942   7.888   7.333   0.894
19406SOL    HW277943   7.892   7.244   0.929
19406SOL    HW377944   7.914   7.324   0.803
19406SOL    MW477945   7.891   7.321   0.886
19407SOL     OW77946   8.505   6.811   1.137
19407SOL    HW277947   8.437   6.745   1.153
19407SOL    HW377948   8.523   6.805   1.044
19407SOL    MW477949   8.498   6.802   1.128
19408SOL     OW77950   7.594   7.086   1.388
19408SOL    HW277951   7.584   7.044   1.474
19408SOL    HW377952   7.515   7.139   1.378
19408SOL    MW477953   7.583   7.087   1.399
19409SOL     OW77954   8.498   5.950   0.958
19409SOL    HW277955   8.428   5.902   1.003
19409SOL    HW377956   8.530   6.013   1.022
19409SOL    MW477957   8.493   5.952   0.972
19410SOL     OW77958   8.149   6.386   1.578
19410SOL    HW277959   8.142   6.481   1.566
19410SOL    HW377960   8.158   6.375   1.673
19410SOL    MW477961   8.150   6.398   1.588
19411SOL     OW77962   7.870   6.901   1.836
19411SOL    HW277963   7.942   6.903   1.773
19411SOL    HW377964   7.840   6.810   1.835
19411SOL    MW477965   7.875   6.890   1.828
19412SOL     OW77966   8.954   5.664   1.303
19412SOL    HW277967   9.025   5.610   1.267
19412SOL    HW377968   8.953   5.643   1.396
19412SOL    MW477969   8.963   5.655   1.311
19413SOL     OW77970   9.154   7.194   1.787
19413SOL    HW277971   9.127   7.191   1.878
19413SOL    HW377972   9.250   7.198   1.790
19413SOL    MW477973   9.164   7.194   1.799
19414SOL     OW77974   7.965   6.056   0.771
19414SOL    HW277975   8.036   6.004   0.734
19414SOL    HW377976   7.951   6.021   0.858
19414SOL    MW477977   7.973   6.045   0.778
19415SOL     OW77978   7.520   7.391   1.843
19415SOL    HW277979   7.570   7.369   1.765
19415SOL    HW377980   7.528   7.486   1.851
19415SOL    MW477981   7.528   7.400   1.834
19416SOL     OW77982   8.281   7.149   0.847
19416SOL    HW277983   8.209   7.086   0.860
19416SOL    HW377984   8.242   7.234   0.865
19416SOL    MW477985   8.265   7.152   0.850
19417SOL     OW77986   8.601   5.997   0.495
19417SOL    HW277987   8.623   5.934   0.427
19417SOL    HW377988   8.506   5.989   0.506
19417SOL    MW477989   8.591   5.988   0.487
19418SOL     OW77990   7.517   6.154   1.570
19418SOL    HW277991   7.581   6.220   1.545
19418SOL    HW377992   7.436   6.181   1.527
19418SOL    MW477993   7.515   6.166   1.562
19419SOL     OW77994   9.255   7.061   0.527
19419SOL    HW277995   9.225   6.994   0.588
19419SOL    HW377996   9.349   7.067   0.541
19419SOL    MW477997   9.263   7.053   0.537
19420SOL     OW77998   8.473   5.658   0.510
19420SOL    HW277999   8.510   5.717   0.575
19420SOL    HW378000   8.450   5.714   0.436
19420SOL    MW478001   8.474   5.673   0.509
19421SOL     OW78002   9.326   6.540   0.932
19421SOL    HW278003   9.317   6.572   0.843
19421SOL    HW378004   9.279   6.456   0.932
19421SOL    MW478005   9.319   6.533   0.922
19422SOL     OW78006   7.702   6.380   1.511
19422SOL    HW278007   7.723   6.449   1.449
19422SOL    HW378008   7.782   6.327   1.516
19422SOL    MW478009   7.715   6.381   1.505
19423SOL     OW78010   9.238   6.471   0.633
19423SOL    HW278011   9.332   6.460   0.621
19423SOL    HW378012   9.214   6.543   0.574
19423SOL    MW478013   9.248   6.479   0.624
19424SOL     OW78014   7.687   6.395   1.778
19424SOL    HW278015   7.613   6.339   1.804
19424SOL    HW378016   7.682   6.398   1.683
19424SOL    MW478017   7.676   6.388   1.768
19425SOL     OW78018   7.853   5.682   1.228
19425SOL    HW278019   7.896   5.766   1.248
19425SOL    HW378020   7.926   5.620   1.221
19425SOL    MW478021   7.868   5.685   1.229
19426SOL     OW78022   7.894   6.349   0.406
19426SOL    HW278023   7.894   6.444   0.391
19426SOL    HW378024   7.971   6.333   0.460
19426SOL    MW478025   7.904   6.360   0.411
19427SOL     OW78026   8.670   6.208   1.470
19427SOL    HW278027   8.706   6.181   1.386
19427SOL    HW378028   8.583   6.242   1.449
19427SOL    MW478029   8.664   6.209   1.457
19428SOL     OW78030   7.653   6.080   0.695
19428SOL    HW278031   7.715   6.087   0.768
19428SOL    HW378032   7.653   5.987   0.672
19428SOL    MW478033   7.661   6.069   0.702
19429SOL     OW78034   8.335   6.341   1.179
19429SOL    HW278035   8.293   6.259   1.155
19429SOL    HW378036   8.336   6.340   1.275
19429SOL    MW478037   8.328   6.330   1.188
19430SOL     OW78038   9.006   7.474   1.578
19430SOL    HW278039   9.009   7.380   1.561
19430SOL    HW378040   9.029   7.482   1.670
19430SOL    MW478041   9.009   7.462   1.588
19431SOL     OW78042   8.139   5.811   1.284
19431SOL    HW278043   8.070   5.874   1.305
19431SOL    HW378044   8.166   5.775   1.369
19431SOL    MW478045   8.133   5.814   1.297
19432SOL     OW78046   8.934   5.664   0.901
19432SOL    HW278047   9.022   5.673   0.938
19432SOL    HW378048   8.944   5.605   0.827
19432SOL    MW478049   8.948   5.658   0.895
19433SOL     OW78050   8.966   6.403   0.745
19433SOL    HW278051   9.046   6.418   0.694
19433SOL    HW378052   8.959   6.308   0.751
19433SOL    MW478053   8.975   6.392   0.740
19434SOL     OW78054   8.416   6.329   1.442
19434SOL    HW278055   8.485   6.396   1.439
19434SOL    HW378056   8.349   6.367   1.498
19434SOL    MW478057   8.417   6.342   1.449
19435SOL     OW78058   7.834   6.629   1.690
19435SOL    HW278059   7.788   6.545   1.692
19435SOL    HW378060   7.891   6.623   1.614
19435SOL    MW478061   7.836   6.617   1.682
19436SOL     OW78062   8.085   7.004   0.691
19436SOL    HW278063   8.150   6.937   0.712
19436SOL    HW378064   8.137   7.081   0.668
19436SOL    MW478065   8.100   7.006   0.690
19437SOL     OW78066   8.346   6.169   0.821
19437SOL    HW278067   8.286   6.187   0.893
19437SOL    HW378068   8.380   6.081   0.840
19437SOL    MW478069   8.342   6.159   0.834
19438SOL     OW78070   9.287   5.668   1.490
19438SOL    HW278071   9.208   5.714   1.518
19438SOL    HW378072   9.322   5.722   1.419
19438SOL    MW478073   9.281   5.681   1.484
19439SOL     OW78074   8.571   6.752   0.840
19439SOL    HW278075   8.663   6.733   0.858
19439SOL    HW378076   8.544   6.682   0.780
19439SOL    MW478077   8.579   6.740   0.834
19440SOL     OW78078   8.845   6.990   0.936
19440SOL    HW278079   8.818   7.074   0.901
19440SOL    HW378080   8.805   6.985   1.023
19440SOL    MW478081   8.838   6.999   0.942
19441SOL     OW78082   8.764   6.938   1.204
19441SOL    HW278083   8.775   6.905   1.293
19441SOL    HW378084   8.683   6.897   1.173
19441SOL    MW478085   8.754   6.930   1.210
19442SOL     OW78086   7.777   6.296   0.974
19442SOL    HW278087   7.727   6.295   1.055
19442SOL    HW378088   7.797   6.388   0.958
19442SOL    MW478089   7.773   6.308   0.982
19443SOL     OW78090   8.844   7.060   1.736
19443SOL    HW278091   8.844   7.154   1.752
19443SOL    HW378092   8.889   7.050   1.652
19443SOL    MW478093   8.850   7.070   1.727
19444SOL     OW78094   7.699   5.964   1.715
19444SOL    HW278095   7.656   6.023   1.652
19444SOL    HW378096   7.767   6.019   1.755
19444SOL    MW478097   7.703   5.979   1.712
19445SOL     OW78098   8.811   6.584   1.260
19445SOL    HW278099   8.874   6.581   1.333
19445SOL    HW378100   8.727   6.602   1.302
19445SOL    MW478101   8.807   6.586   1.275
19446SOL     OW78102   8.355   7.299   0.449
19446SOL    HW278103   8.413   7.370   0.476
19446SOL    HW378104   8.378   7.227   0.507
19446SOL    MW478105   8.366   7.299   0.460
19447SOL     OW78106   9.150   5.761   1.039
19447SOL    HW278107   9.195   5.679   1.058
19447SOL    HW378108   9.170   5.817   1.115
19447SOL    MW478109   9.160   5.757   1.051
19448SOL     OW78110   7.598   5.604   1.138
19448SOL    HW278111   7.589   5.605   1.043
19448SOL    HW378112   7.692   5.616   1.153
19448SOL    MW478113   7.610   5.607   1.129
19449SOL     OW78114   9.235   6.797   0.758
19449SOL    HW278115   9.214   6.743   0.681
19449SOL    HW378116   9.331   6.795   0.762
19449SOL    MW478117   9.244   6.790   0.747
19450SOL     OW78118   7.927   6.942   1.501
19450SOL    HW278119   7.848   6.892   1.524
19450SOL    HW378120   7.997   6.901   1.551
19450SOL    MW478121   7.925   6.930   1.511
19451SOL     OW78122   7.811   5.731   0.184
19451SOL    HW278123   7.740   5.786   0.152
19451SOL    HW378124   7.853   5.697   0.105
19451SOL    MW478125   7.807   5.733   0.170
19452SOL     OW78126   8.935   6.228   1.020
19452SOL    HW278127   8.858   6.274   0.986
19452SOL    HW378128   8.992   6.297   1.054
19452SOL    MW478129   8.932   6.243   1.020
19453SOL     OW78130   8.873   7.176   0.439
19453SOL    HW278131   8.936   7.166   0.368
19453SOL    HW378132   8.790   7.196   0.394
19453SOL    MW478133   8.870   7.177   0.424
19454SOL     OW78134   9.236   6.444   2.125
19454SOL    HW278135   9.277   6.386   2.190
19454SOL    HW378136   9.143   6.436   2.142
19454SOL    MW478137   9.230   6.436   2.135
19455SOL     OW78138   9.102   6.376   3.120
19455SOL    HW278139   9.057   6.443   3.171
19455SOL    HW378140   9.190   6.412   3.106
19455SOL    MW478141   9.108   6.389   3.124
19456SOL     OW78142   8.030   6.627   2.354
19456SOL    HW278143   8.120   6.602   2.338
19456SOL    HW378144   8.026   6.720   2.331
19456SOL    MW478145   8.042   6.636   2.349
19457SOL     OW78146   9.146   7.330   2.496
19457SOL    HW278147   9.158   7.276   2.574
19457SOL    HW378148   9.183   7.278   2.425
19457SOL    MW478149   9.152   7.315   2.497
19458SOL     OW78150   8.525   7.215   3.497
19458SOL    HW278151   8.566   7.251   3.418
19458SOL    HW378152   8.560   7.126   3.504
19458SOL    MW478153   8.536   7.208   3.488
19459SOL     OW78154   9.082   6.770   3.101
19459SOL    HW278155   9.003   6.735   3.059
19459SOL    HW378156   9.109   6.842   3.045
19459SOL    MW478157   9.075   6.775   3.088
19460SOL     OW78158   8.314   6.083   2.367
19460SOL    HW278159   8.289   6.171   2.395
19460SOL    HW378160   8.311   6.086   2.271
19460SOL    MW478161   8.310   6.095   2.359
19461SOL     OW78162   7.756   6.111   2.295
19461SOL    HW278163   7.788   6.199   2.277
19461SOL    HW378164   7.744   6.109   2.390
19461SOL    MW478165   7.759   6.123   2.307
19462SOL     OW78166   7.834   6.524   3.196
19462SOL    HW278167   7.897   6.471   3.147
19462SOL    HW378168   7.815   6.598   3.139
19462SOL    MW478169   7.840   6.526   3.183
19463SOL     OW78170   8.155   5.866   2.382
19463SOL    HW278171   8.213   5.942   2.384
19463SOL    HW378172   8.090   5.887   2.315
19463SOL    MW478173   8.154   5.878   2.373
19464SOL     OW78174   8.242   6.793   2.557
19464SOL    HW278175   8.322   6.796   2.609
19464SOL    HW378176   8.270   6.760   2.471
19464SOL    MW478177   8.256   6.789   2.552
19465SOL     OW78178   8.267   7.134   3.460
19465SOL    HW278179   8.351   7.160   3.499
19465SOL    HW378180   8.291   7.078   3.386
19465SOL    MW478181   8.281   7.130   3.455
19466SOL     OW78182   8.019   6.297   2.548
19466SOL    HW278183   8.004   6.217   2.599
19466SOL    HW378184   8.101   6.332   2.582
19466SOL    MW478185   8.027   6.289   2.560
19467SOL     OW78186   8.356   6.983   3.233
19467SOL    HW278187   8.320   7.049   3.173
19467SOL    HW378188   8.284   6.921   3.246
19467SOL    MW478189   8.342   6.983   3.227
19468SOL     OW78190   8.161   6.123   2.925
19468SOL    HW278191   8.067   6.119   2.943
19468SOL    HW378192   8.191   6.032   2.934
19468SOL    MW478193   8.152   6.111   2.928
19469SOL     OW78194   7.907   6.537   2.829
19469SOL    HW278195   7.862   6.544   2.745
19469SOL    HW378196   7.887   6.620   2.873
19469SOL    MW478197   7.899   6.549   2.823
19470SOL     OW78198   7.604   7.383   2.704
19470SOL    HW278199   7.693   7.375   2.739
19470SOL    HW378200   7.568   7.295   2.709
19470SOL    MW478201   7.611   7.370   2.709
19471SOL     OW78202   8.869   6.775   2.073
19471SOL    HW278203   8.787   6.811   2.039
19471SOL    HW378204   8.937   6.818   2.022
19471SOL    MW478205   8.867   6.785   2.061
19472SOL     OW78206   7.868   6.910   2.739
19472SOL    HW278207   7.844   6.963   2.815
19472SOL    HW378208   7.924   6.968   2.687
19472SOL    MW478209   7.872   6.925   2.742
19473SOL     OW78210   8.430   6.554   2.549
19473SOL    HW278211   8.344   6.541   2.589
19473SOL    HW378212   8.483   6.481   2.581
19473SOL    MW478213   8.426   6.543   2.558
19474SOL     OW78214   7.838   7.206   3.334
19474SOL    HW278215   7.746   7.182   3.319
19474SOL    HW378216   7.882   7.123   3.351
19474SOL    MW478217   7.832   7.191   3.333
19475SOL     OW78218   8.421   6.916   2.266
19475SOL    HW278219   8.398   6.978   2.334
19475SOL    HW378220   8.378   6.834   2.292
19475SOL    MW478221   8.413   6.912   2.277
19476SOL     OW78222   9.294   5.917   2.722
19476SOL    HW278223   9.231   5.897   2.791
19476SOL    HW378224   9.284   5.846   2.659
19476SOL    MW478225   9.284   5.904   2.723
19477SOL     OW78226   7.918   5.889   2.234
19477SOL    HW278227   7.892   5.851   2.150
19477SOL    HW378228   7.855   5.959   2.250
19477SOL    MW478229   7.907   5.892   2.225
19478SOL     OW78230   7.753   6.850   2.271
19478SOL    HW278231   7.701   6.918   2.227
19478SOL    HW378232   7.750   6.776   2.211
19478SOL    MW478233   7.745   6.849   2.258
19479SOL     OW78234   8.415   7.313   2.049
19479SOL    HW278235   8.370   7.329   2.132
19479SOL    HW378236   8.346   7.278   1.991
19479SOL    MW478237   8.401   7.310   2.051
19480SOL     OW78238   9.350   6.086   2.024
19480SOL    HW278239   9.259   6.088   2.052
19480SOL    HW378240   9.395   6.148   2.082
19480SOL    MW478241   9.343   6.094   2.034
19481SOL     OW78242   9.095   6.689   2.374
19481SOL    HW278243   9.005   6.689   2.409
19481SOL    HW378244   9.088   6.735   2.291
19481SOL    MW478245   9.082   6.695   2.368
19482SOL     OW78246   8.895   6.324   3.446
19482SOL    HW278247   8.964   6.262   3.423
19482SOL    HW378248   8.820   6.298   3.393
19482SOL    MW478249   8.895   6.311   3.437
19483SOL     OW78250   8.631   6.711   3.438
19483SOL    HW278251   8.616   6.804   3.423
19483SOL    HW378252   8.726   6.701   3.438
19483SOL    MW478253   8.640   6.721   3.435
19484SOL     OW78254   8.427   6.135   3.639
19484SOL    HW278255   8.517   6.136   3.606
19484SOL    HW378256   8.386   6.060   3.597
19484SOL    MW478257   8.433   6.125   3.630
19485SOL     OW78258   9.002   6.667   2.766
19485SOL    HW278259   9.005   6.601   2.697
19485SOL    HW378260   9.087   6.710   2.762
19485SOL    MW478261   9.014   6.663   2.757
19486SOL     OW78262   8.622   6.270   2.335
19486SOL    HW278263   8.648   6.294   2.246
19486SOL    HW378264   8.604   6.177   2.331
19486SOL    MW478265   8.624   6.262   2.322
19487SOL     OW78266   9.287   6.890   2.186
19487SOL    HW278267   9.243   6.931   2.261
19487SOL    HW378268   9.344   6.958   2.151
19487SOL    MW478269   9.289   6.904   2.191
19488SOL     OW78270   8.207   5.939   3.589
19488SOL    HW278271   8.217   5.865   3.529
19488SOL    HW378272   8.243   5.908   3.672
19488SOL    MW478273   8.213   5.925   3.591
19489SOL     OW78274   7.943   7.306   2.504
19489SOL    HW278275   7.975   7.394   2.482
19489SOL    HW378276   7.896   7.278   2.426
19489SOL    MW478277   7.942   7.314   2.491
19490SOL     OW78278   9.327   5.668   2.553
19490SOL    HW278279   9.381   5.619   2.615
19490SOL    HW378280   9.270   5.602   2.514
19490SOL    MW478281   9.327   5.652   2.555
19491SOL     OW78282   7.659   7.366   2.081
19491SOL    HW278283   7.688   7.456   2.073
19491SOL    HW378284   7.609   7.349   2.002
19491SOL    MW478285   7.657   7.374   2.070
19492SOL     OW78286   8.446   5.621   2.966
19492SOL    HW278287   8.405   5.699   2.928
19492SOL    HW378288   8.540   5.639   2.961
19492SOL    MW478289   8.452   5.633   2.961
19493SOL     OW78290   9.063   7.174   2.052
19493SOL    HW278291   9.111   7.243   2.098
19493SOL    HW378292   8.984   7.218   2.021
19493SOL    MW478293   9.058   7.188   2.055
19494SOL     OW78294   8.461   6.299   1.996
19494SOL    HW278295   8.463   6.246   1.917
19494SOL    HW378296   8.549   6.336   2.002
19494SOL    MW478297   8.473   6.298   1.985
19495SOL     OW78298   9.075   6.225   2.332
19495SOL    HW278299   9.114   6.225   2.419
19495SOL    HW378300   9.016   6.301   2.332
19495SOL    MW478301   9.072   6.236   2.343
19496SOL     OW78302   8.392   6.592   3.461
19496SOL    HW278303   8.369   6.572   3.551
19496SOL    HW378304   8.477   6.636   3.466
19496SOL    MW478305   8.399   6.595   3.473
19497SOL     OW78306   8.472   5.729   3.221
19497SOL    HW278307   8.478   5.691   3.134
19497SOL    HW378308   8.461   5.823   3.206
19497SOL    MW478309   8.473   5.737   3.209
19498SOL     OW78310   8.561   6.218   3.055
19498SOL    HW278311   8.636   6.247   3.002
19498SOL    HW378312   8.493   6.283   3.039
19498SOL    MW478313   8.562   6.230   3.045
19499SOL     OW78314   9.111   6.186   3.332
19499SOL    HW278315   9.092   6.095   3.311
19499SOL    HW378316   9.089   6.235   3.253
19499SOL    MW478317   9.106   6.179   3.319
19500SOL     OW78318   9.253   7.280   3.236
19500SOL    HW278319   9.181   7.242   3.287
19500SOL    HW378320   9.270   7.365   3.277
19500SOL    MW478321   9.247   7.285   3.248
19501SOL     OW78322   8.558   5.924   3.438
19501SOL    HW278323   8.524   5.963   3.357
19501SOL    HW378324   8.536   5.832   3.431
19501SOL    MW478325   8.551   5.917   3.428
19502SOL     OW78326   8.967   6.738   3.514
19502SOL    HW278327   9.049   6.779   3.544
19502SOL    HW378328   8.930   6.700   3.594
19502SOL    MW478329   8.973   6.739   3.529
19503SOL     OW78330   9.262   6.111   2.498
19503SOL    HW278331   9.351   6.080   2.515
19503SOL    HW378332   9.205   6.051   2.546
19503SOL    MW478333   9.265   6.099   2.507
19504SOL     OW78334   7.688   5.825   2.527
19504SOL    HW278335   7.679   5.765   2.453
19504SOL    HW378336   7.621   5.796   2.590
19504SOL    MW478337   7.678   5.812   2.525
19505SOL     OW78338   8.631   6.918   2.088
19505SOL    HW278339   8.581   6.920   2.170
19505SOL    HW378340   8.565   6.936   2.020
19505SOL    MW478341   8.617   6.920   2.090
19506SOL     OW78342   7.635   5.998   2.890
19506SOL    HW278343   7.607   6.089   2.899
19506SOL    HW378344   7.572   5.959   2.829
19506SOL    MW478345   7.622   6.004   2.884
19507SOL     OW78346   8.094   7.336   2.196
19507SOL    HW278347   8.015   7.294   2.229
19507SOL    HW378348   8.160   7.319   2.263
19507SOL    MW478349   8.093   7.328   2.209
19508SOL     OW78350   9.222   6.856   3.593
19508SOL    HW278351   9.272   6.782   3.625
19508SOL    HW378352   9.168   6.883   3.668
19508SOL    MW478353   9.222   6.850   3.606
19509SOL     OW78354   8.230   6.751   1.903
19509SOL    HW278355   8.152   6.697   1.890
19509SOL    HW378356   8.201   6.824   1.956
19509SOL    MW478357   8.216   6.753   1.908
19510SOL     OW78358   9.356   6.491   3.095
19510SOL    HW278359   9.372   6.529   3.008
19510SOL    HW378360   9.390   6.557   3.156
19510SOL    MW478361   9.363   6.504   3.091
19511SOL     OW78362   9.148   7.200   2.764
19511SOL    HW278363   9.177   7.267   2.825
19511SOL    HW378364   9.129   7.124   2.819
19511SOL    MW478365   9.150   7.200   2.779
19512SOL     OW78366   8.811   7.267   1.971
19512SOL    HW278367   8.737   7.230   2.021
19512SOL    HW378368   8.819   7.357   2.004
19512SOL    MW478369   8.802   7.274   1.983
19513SOL     OW78370   7.619   6.273   3.060
19513SOL    HW278371   7.681   6.303   3.126
19513SOL    HW378372   7.553   6.342   3.054
19513SOL    MW478373   7.618   6.286   3.067
19514SOL     OW78374   9.035   6.941   1.913
19514SOL    HW278375   8.982   6.990   1.849
19514SOL    HW378376   9.066   7.007   1.974
19514SOL    MW478377   9.033   6.955   1.911
19515SOL     OW78378   8.260   5.830   1.968
19515SOL    HW278379   8.208   5.750   1.956
19515SOL    HW378380   8.347   5.807   1.936
19515SOL    MW478381   8.263   5.816   1.962
19516SOL     OW78382   7.714   7.382   3.512
19516SOL    HW278383   7.688   7.450   3.450
19516SOL    HW378384   7.762   7.319   3.460
19516SOL    MW478385   7.716   7.382   3.498
19517SOL     OW78386   7.766   6.701   3.019
19517SOL    HW278387   7.819   6.776   3.044
19517SOL    HW378388   7.685   6.739   2.985
19517SOL    MW478389   7.762   6.716   3.019
19518SOL     OW78390   8.306   6.605   3.007
19518SOL    HW278391   8.334   6.514   3.019
19518SOL    HW378392   8.235   6.599   2.943
19518SOL    MW478393   8.299   6.593   3.002
19519SOL     OW78394   7.621   6.470   2.425
19519SOL    HW278395   7.712   6.485   2.452
19519SOL    HW378396   7.624   6.391   2.371
19519SOL    MW478397   7.633   6.462   2.423
19520SOL     OW78398   7.857   6.178   3.679
19520SOL    HW278399   7.804   6.258   3.686
19520SOL    HW378400   7.927   6.190   3.744
19520SOL    MW478401   7.859   6.191   3.687
19521SOL     OW78402   8.243   5.728   3.386
19521SOL    HW278403   8.220   5.636   3.388
19521SOL    HW378404   8.329   5.730   3.343
19521SOL    MW478405   8.250   5.718   3.382
19522SOL     OW78406   8.248   7.402   2.799
19522SOL    HW278407   8.337   7.417   2.829
19522SOL    HW378408   8.243   7.449   2.715
19522SOL    MW478409   8.258   7.410   2.792
19523SOL     OW78410   8.904   5.777   3.696
19523SOL    HW278411   8.960   5.704   3.722
19523SOL    HW378412   8.874   5.815   3.778
19523SOL    MW478413   8.908   5.772   3.709
19524SOL     OW78414   7.629   7.082   2.464
19524SOL    HW278415   7.601   7.121   2.546
19524SOL    HW378416   7.649   6.991   2.486
19524SOL    MW478417   7.627   7.074   2.477
19525SOL     OW78418   8.462   7.125   2.499
19525SOL    HW278419   8.545   7.079   2.483
19525SOL    HW378420   8.452   7.124   2.595
19525SOL    MW478421   8.472   7.118   2.509
19526SOL     OW78422   9.294   6.270   2.813
19526SOL    HW278423   9.383   6.300   2.795
19526SOL    HW378424   9.274   6.210   2.742
19526SOL    MW478425   9.303   6.267   2.802
19527SOL     OW78426   9.145   6.449   3.693
19527SOL    HW278427   9.200   6.373   3.674
19527SOL    HW378428   9.147   6.457   3.788
19527SOL    MW478429   9.153   6.440   3.701
19528SOL     OW78430   8.195   7.182   1.904
19528SOL    HW278431   8.135   7.251   1.874
19528SOL    HW378432   8.140   7.124   1.957
19528SOL    MW478433   8.179   7.184   1.906
19529SOL     OW78434   8.633   5.827   2.127
19529SOL    HW278435   8.566   5.803   2.064
19529SOL    HW378436   8.698   5.876   2.076
19529SOL    MW478437   8.633   5.829   2.112
19530SOL     OW78438   8.440   6.011   3.212
19530SOL    HW278439   8.359   6.052   3.240
19530SOL    HW378440   8.487   6.079   3.164
19530SOL    MW478441   8.435   6.026   3.210
19531SOL     OW78442   8.700   6.349   2.835
19531SOL    HW278443   8.713   6.443   2.845
19531SOL    HW378444   8.661   6.339   2.749
19531SOL    MW478445   8.696   6.360   2.825
19532SOL     OW78446   8.152   6.544   2.639
19532SOL    HW278447   8.063   6.535   2.672
19532SOL    HW378448   8.156   6.634   2.607
19532SOL    MW478449   8.141   6.555   2.639
19533SOL     OW78450   8.951   6.127   2.634
19533SOL    HW278451   8.896   6.048   2.633
19533SOL    HW378452   8.933   6.168   2.718
19533SOL    MW478453   8.941   6.122   2.643
19534SOL     OW78454   7.922   5.814   3.451
19534SOL    HW278455   7.843   5.832   3.503
19534SOL    HW378456   7.917   5.876   3.378
19534SOL    MW478457   7.912   5.824   3.448
19535SOL     OW78458   8.570   6.331   2.591
19535SOL    HW278459   8.507   6.263   2.615
19535SOL    HW378460   8.590   6.312   2.499
19535SOL    MW478461   8.564   6.318   2.583
19536SOL     OW78462   7.826   7.226   2.293
19536SOL    HW278463   7.787   7.273   2.219
19536SOL    HW378464   7.760   7.161   2.318
19536SOL    MW478465   7.813   7.224   2.287
19537SOL     OW78466   8.318   6.635   2.317
19537SOL    HW278467   8.320   6.609   2.224
19537SOL    HW378468   8.376   6.572   2.360
19537SOL    MW478469   8.326   6.624   2.311
19538SOL     OW78470   8.871   7.195   3.089
19538SOL    HW278471   8.796   7.241   3.127
19538SOL    HW378472   8.853   7.102   3.106
19538SOL    MW478473   8.860   7.189   3.097
19539SOL     OW78474   8.875   7.403   2.519
19539SOL    HW278475   8.818   7.356   2.458
19539SOL    HW378476   8.961   7.364   2.506
19539SOL    MW478477   8.878   7.394   2.509
19540SOL     OW78478   8.828   5.879   2.650
19540SOL    HW278479   8.856   5.811   2.711
19540SOL    HW378480   8.742   5.850   2.620
19540SOL    MW478481   8.821   5.866   2.654
19541SOL     OW78482   7.633   6.813   2.584
19541SOL    HW278483   7.697   6.845   2.647
19541SOL    HW378484   7.682   6.749   2.532
19541SOL    MW478485   7.648   6.809   2.585
19542SOL     OW78486   8.133   6.889   3.566
19542SOL    HW278487   8.181   6.972   3.553
19542SOL    HW378488   8.190   6.837   3.622
19542SOL    MW478489   8.147   6.893   3.572
19543SOL     OW78490   7.709   7.131   3.706
19543SOL    HW278491   7.765   7.055   3.721
19543SOL    HW378492   7.658   7.109   3.628
19543SOL    MW478493   7.709   7.118   3.697
19544SOL     OW78494   8.808   5.983   1.985
19544SOL    HW278495   8.781   6.049   1.921
19544SOL    HW378496   8.878   6.026   2.035
19544SOL    MW478497   8.813   5.996   1.982
19545SOL     OW78498   8.476   5.688   1.922
19545SOL    HW278499   8.532   5.680   1.844
19545SOL    HW378500   8.453   5.598   1.944
19545SOL    MW478501   8.481   5.675   1.915
19546SOL     OW78502   8.981   6.539   2.127
19546SOL    HW278503   8.948   6.628   2.117
19546SOL    HW378504   8.946   6.510   2.212
19546SOL    MW478505   8.971   6.548   2.138
19547SOL     OW78506   8.594   6.968   3.315
19547SOL    HW278507   8.505   6.974   3.283
19547SOL    HW378508   8.638   7.047   3.283
19547SOL    MW478509   8.589   6.978   3.307
19548SOL     OW78510   7.887   5.636   3.657
19548SOL    HW278511   7.815   5.601   3.605
19548SOL    HW378512   7.945   5.677   3.592
19548SOL    MW478513   7.885   5.637   3.642
19549SOL     OW78514   7.911   7.126   2.956
19549SOL    HW278515   7.956   7.188   3.013
19549SOL    HW378516   7.818   7.145   2.969
19549SOL    MW478517   7.904   7.136   2.963
19550SOL     OW78518   9.351   6.655   3.310
19550SOL    HW278519   9.266   6.668   3.269
19550SOL    HW378520   9.331   6.619   3.397
19550SOL    MW478521   9.338   6.651   3.315
19551SOL     OW78522   8.333   7.194   3.064
19551SOL    HW278523   8.357   7.183   2.973
19551SOL    HW378524   8.256   7.251   3.062
19551SOL    MW478525   8.325   7.199   3.053
19552SOL     OW78526   7.975   6.577   1.919
19552SOL    HW278527   7.898   6.590   1.975
19552SOL    HW378528   7.939   6.541   1.838
19552SOL    MW478529   7.961   6.573   1.916
19553SOL     OW78530   8.628   6.550   2.162
19553SOL    HW278531   8.538   6.571   2.137
19553SOL    HW378532   8.655   6.623   2.218
19553SOL    MW478533   8.620   6.562   2.165
19554SOL     OW78534   8.128   6.899   2.854
19554SOL    HW278535   8.121   6.878   2.948
19554SOL    HW378536   8.046   6.867   2.817
19554SOL    MW478537   8.116   6.893   2.861
19555SOL     OW78538   8.992   5.909   3.256
19555SOL    HW278539   8.939   5.911   3.336
19555SOL    HW378540   8.977   5.822   3.219
19555SOL    MW478541   8.984   5.899   3.261
19556SOL     OW78542   9.328   5.833   3.129
19556SOL    HW278543   9.309   5.900   3.064
19556SOL    HW378544   9.385   5.771   3.084
19556SOL    MW478545   9.332   5.834   3.115
19557SOL     OW78546   7.574   6.991   3.517
19557SOL    HW278547   7.618   6.924   3.463
19557SOL    HW378548   7.489   6.953   3.537
19557SOL    MW478549   7.569   6.977   3.513
19558SOL     OW78550   8.257   5.666   2.569
19558SOL    HW278551   8.186   5.727   2.551
19558SOL    HW378552   8.308   5.663   2.488
19558SOL    MW478553   8.253   5.672   2.556
19559SOL     OW78554   8.015   6.906   2.318
19559SOL    HW278555   8.008   6.938   2.408
19559SOL    HW378556   7.925   6.890   2.290
19559SOL    MW478557   8.003   6.908   2.325
19560SOL     OW78558   8.610   7.299   3.227
19560SOL    HW278559   8.530   7.284   3.177
19560SOL    HW378560   8.617   7.394   3.234
19560SOL    MW478561   8.601   7.310   3.221
19561SOL     OW78562   8.724   7.264   2.717
19561SOL    HW278563   8.771   7.337   2.676
19561SOL    HW378564   8.645   7.303   2.753
19561SOL    MW478565   8.719   7.279   2.716
19562SOL     OW78566   9.132   7.359   2.992
19562SOL    HW278567   9.175   7.329   3.072
19562SOL    HW378568   9.051   7.307   2.989
19562SOL    MW478569   9.127   7.348   3.002
19563SOL     OW78570   8.217   6.323   3.699
19563SOL    HW278571   8.287   6.265   3.671
19563SOL    HW378572   8.160   6.268   3.754
19563SOL    MW478573   8.219   6.310   3.703
19564SOL     OW78574   9.004   6.535   3.332
19564SOL    HW278575   9.009   6.588   3.412
19564SOL    HW378576   8.966   6.452   3.360
19564SOL    MW478577   9.000   6.530   3.347
19565SOL     OW78578   8.644   5.670   3.578
19565SOL    HW278579   8.639   5.577   3.559
19565SOL    HW378580   8.727   5.681   3.624
19565SOL    MW478581   8.652   5.659   3.582
19566SOL     OW78582   8.018   6.190   2.032
19566SOL    HW278583   7.984   6.246   2.102
19566SOL    HW378584   8.089   6.140   2.072
19566SOL    MW478585   8.024   6.191   2.046
19567SOL     OW78586   9.114   6.941   2.854
19567SOL    HW278587   9.149   6.923   2.767
19567SOL    HW378588   9.019   6.942   2.841
19567SOL    MW478589   9.106   6.938   2.841
19568SOL     OW78590   8.543   6.589   3.223
19568SOL    HW278591   8.586   6.624   3.301
19568SOL    HW378592   8.526   6.666   3.169
19568SOL    MW478593   8.546   6.604   3.226
19569SOL     OW78594   9.074   6.076   2.096
19569SOL    HW278595   9.066   6.147   2.033
19569SOL    HW378596   9.092   6.120   2.179
19569SOL    MW478597   9.075   6.090   2.098
19570SOL     OW78598   7.934   5.731   2.525
19570SOL    HW278599   7.984   5.774   2.456
19570SOL    HW378600   7.849   5.775   2.525
19570SOL    MW478601   7.931   5.744   2.516
19571SOL     OW78602   7.693   6.793   3.385
19571SOL    HW278603   7.721   6.746   3.463
19571SOL    HW378604   7.614   6.748   3.356
19571SOL    MW478605   7.686   6.782   3.391
19572SOL     OW78606   8.201   6.120   3.352
19572SOL    HW278607   8.173   6.208   3.376
19572SOL    HW378608   8.170   6.064   3.423
19572SOL    MW478609   8.193   6.123   3.364
19573SOL     OW78610   8.743   6.338   2.071
19573SOL    HW278611   8.790   6.356   1.990
19573SOL    HW378612   8.709   6.422   2.099
19573SOL    MW478613   8.745   6.352   2.064
19574SOL     OW78614   7.856   6.516   2.565
19574SOL    HW278615   7.914   6.572   2.513
19574SOL    HW378616   7.900   6.431   2.567
19574SOL    MW478617   7.869   6.513   2.558
19575SOL     OW78618   8.996   5.868   2.402
19575SOL    HW278619   8.918   5.818   2.427
19575SOL    HW378620   8.967   5.959   2.402
19575SOL    MW478621   8.982   5.872   2.405
19576SOL     OW78622   8.582   5.830   2.561
19576SOL    HW278623   8.602   5.905   2.505
19576SOL    HW378624   8.562   5.869   2.646
19576SOL    MW478625   8.583   5.846   2.565
19577SOL     OW78626   8.478   7.080   1.893
19577SOL    HW278627   8.505   7.158   1.845
19577SOL    HW378628   8.385   7.095   1.912
19577SOL    MW478629   8.469   7.093   1.889
19578SOL     OW78630   9.342   6.603   3.580
19578SOL    HW278631   9.255   6.583   3.616
19578SOL    HW378632   9.396   6.529   3.605
19578SOL    MW478633   9.337   6.592   3.588
19579SOL     OW78634   7.563   7.116   2.737
19579SOL    HW278635   7.595   7.120   2.828
19579SOL    HW378636   7.468   7.124   2.745
19579SOL    MW478637   7.555   7.119   2.750
19580SOL     OW78638   7.518   6.242   2.284
19580SOL    HW278639   7.458   6.214   2.354
19580SOL    HW378640   7.592   6.182   2.290
19580SOL    MW478641   7.520   6.231   2.293
19581SOL     OW78642   9.086   7.454   3.718
19581SOL    HW278643   9.131   7.378   3.683
19581SOL    HW378644   9.124   7.467   3.805
19581SOL    MW478645   9.096   7.447   3.724
19582SOL     OW78646   8.686   6.973   2.444
19582SOL    HW278647   8.709   6.924   2.522
19582SOL    HW378648   8.767   7.015   2.416
19582SOL    MW478649   8.699   6.973   2.451
19583SOL     OW78650   7.944   5.981   3.173
19583SOL    HW278651   7.977   6.062   3.213
19583SOL    HW378652   7.917   6.007   3.085
19583SOL    MW478653   7.943   5.995   3.167
19584SOL     OW78654   7.898   5.948   2.909
19584SOL    HW278655   7.928   5.862   2.880
19584SOL    HW378656   7.803   5.941   2.912
19584SOL    MW478657   7.890   5.937   2.907
19585SOL     OW78658   8.727   6.157   3.600
19585SOL    HW278659   8.779   6.092   3.553
19585SOL    HW378660   8.685   6.208   3.530
19585SOL    MW478661   8.728   6.154   3.583
19586SOL     OW78662   8.826   5.952   3.461
19586SOL    HW278663   8.733   5.936   3.448
19586SOL    HW378664   8.852   5.890   3.529
19586SOL    MW478665   8.816   5.942   3.468
19587SOL     OW78666   8.041   5.726   2.800
19587SOL    HW278667   8.051   5.635   2.826
19587SOL    HW378668   7.997   5.722   2.715
19587SOL    MW478669   8.037   5.714   2.792
19588SOL     OW78670   8.135   7.341   3.346
19588SOL    HW278671   8.052   7.326   3.391
19588SOL    HW378672   8.194   7.274   3.381
19588SOL    MW478673   8.133   7.331   3.356
19589SOL     OW78674   9.192   6.048   2.971
19589SOL    HW278675   9.125   6.081   3.031
19589SOL    HW378676   9.235   6.126   2.937
19589SOL    MW478677   9.190   6.063   2.975
19590SOL     OW78678   9.370   6.768   2.941
19590SOL    HW278679   9.363   6.708   2.866
19590SOL    HW378680   9.296   6.828   2.930
19590SOL    MW478681   9.360   6.768   2.930
19591SOL     OW78682   8.752   6.630   2.859
19591SOL    HW278683   8.766   6.602   2.950
19591SOL    HW378684   8.838   6.661   2.831
19591SOL    MW478685   8.765   6.631   2.868
19592SOL     OW78686   8.835   6.125   3.138
19592SOL    HW278687   8.856   6.126   3.045
19592SOL    HW378688   8.880   6.047   3.171
19592SOL    MW478689   8.842   6.115   3.130
19593SOL     OW78690   9.328   6.256   3.680
19593SOL    HW278691   9.365   6.201   3.749
19593SOL    HW378692   9.353   6.213   3.598
19593SOL    MW478693   9.335   6.244   3.679
19594SOL     OW78694   8.875   6.554   3.731
19594SOL    HW278695   8.941   6.502   3.685
19594SOL    HW378696   8.895   6.541   3.824
19594SOL    MW478697   8.886   6.545   3.738
19595SOL     OW78698   8.826   5.640   2.080
19595SOL    HW278699   8.900   5.684   2.123
19595SOL    HW378700   8.750   5.694   2.102
19595SOL    MW478701   8.826   5.652   2.088
19596SOL     OW78702   8.886   6.415   2.358
19596SOL    HW278703   8.801   6.385   2.328
19596SOL    HW378704   8.878   6.422   2.453
19596SOL    MW478705   8.874   6.413   2.367
19597SOL     OW78706   7.962   6.878   3.089
19597SOL    HW278707   7.974   6.905   3.180
19597SOL    HW378708   7.943   6.959   3.042
19597SOL    MW478709   7.961   6.893   3.094
19598SOL     OW78710   8.246   5.858   2.912
19598SOL    HW278711   8.219   5.860   3.003
19598SOL    HW378712   8.176   5.810   2.867
19598SOL    MW478713   8.234   5.854   2.919
19599SOL     OW78714   8.100   7.350   3.074
19599SOL    HW278715   8.152   7.427   3.051
19599SOL    HW378716   8.109   7.342   3.169
19599SOL    MW478717   8.109   7.357   3.085
19600SOL     OW78718   9.002   6.935   3.306
19600SOL    HW278719   8.987   6.864   3.369
19600SOL    HW378720   9.048   6.893   3.234
19600SOL    MW478721   9.008   6.919   3.306
19601SOL     OW78722   8.076   6.666   3.423
19601SOL    HW278723   8.113   6.671   3.335
19601SOL    HW378724   8.115   6.739   3.470
19601SOL    MW478725   8.086   6.676   3.418
19602SOL     OW78726   8.256   6.709   3.235
19602SOL    HW278727   8.315   6.655   3.288
19602SOL    HW378728   8.271   6.681   3.145
19602SOL    MW478729   8.266   6.698   3.231
19603SOL     OW78730   8.259   6.081   2.084
19603SOL    HW278731   8.332   6.130   2.047
19603SOL    HW378732   8.275   5.990   2.058
19603SOL    MW478733   8.271   6.076   2.077
19604SOL     OW78734   9.067   7.198   3.407
19604SOL    HW278735   9.109   7.183   3.492
19604SOL    HW378736   9.058   7.111   3.369
19604SOL    MW478737   9.071   7.186   3.414
19605SOL     OW78738   8.727   5.677   2.998
19605SOL    HW278739   8.782   5.686   2.920
19605SOL    HW378740   8.782   5.711   3.069
19605SOL    MW478741   8.741   5.682   2.997
19606SOL     OW78742   7.734   6.590   2.182
19606SOL    HW278743   7.671   6.606   2.111
19606SOL    HW378744   7.681   6.553   2.253
19606SOL    MW478745   7.719   6.587   2.182
19607SOL     OW78746   8.090   6.944   2.041
19607SOL    HW278747   8.105   6.920   2.133
19607SOL    HW378748   7.998   6.922   2.025
19607SOL    MW478749   8.080   6.937   2.051
19608SOL     OW78750   8.629   7.175   2.193
19608SOL    HW278751   8.637   7.093   2.144
19608SOL    HW378752   8.548   7.214   2.160
19608SOL    MW478753   8.619   7.170   2.183
19609SOL     OW78754   7.888   7.333   2.762
19609SOL    HW278755   7.892   7.244   2.797
19609SOL    HW378756   7.914   7.324   2.671
19609SOL    MW478757   7.891   7.321   2.754
19610SOL     OW78758   8.505   6.811   3.005
19610SOL    HW278759   8.437   6.745   3.021
19610SOL    HW378760   8.523   6.805   2.912
19610SOL    MW478761   8.498   6.802   2.996
19611SOL     OW78762   7.594   7.086   3.256
19611SOL    HW278763   7.584   7.044   3.342
19611SOL    HW378764   7.515   7.139   3.246
19611SOL    MW478765   7.583   7.087   3.267
19612SOL     OW78766   8.498   5.950   2.826
19612SOL    HW278767   8.428   5.902   2.871
19612SOL    HW378768   8.530   6.013   2.890
19612SOL    MW478769   8.493   5.952   2.840
19613SOL     OW78770   8.149   6.386   3.446
19613SOL    HW278771   8.142   6.481   3.434
19613SOL    HW378772   8.158   6.375   3.541
19613SOL    MW478773   8.150   6.398   3.456
19614SOL     OW78774   7.870   6.901   3.704
19614SOL    HW278775   7.942   6.903   3.641
19614SOL    HW378776   7.840   6.810   3.703
19614SOL    MW478777   7.875   6.890   3.696
19615SOL     OW78778   8.954   5.664   3.171
19615SOL    HW278779   9.025   5.610   3.135
19615SOL    HW378780   8.953   5.643   3.264
19615SOL    MW478781   8.963   5.655   3.179
19616SOL     OW78782   9.154   7.194   3.655
19616SOL    HW278783   9.127   7.191   3.746
19616SOL    HW378784   9.250   7.198   3.658
19616SOL    MW478785   9.164   7.194   3.667
19617SOL     OW78786   7.965   6.056   2.639
19617SOL    HW278787   8.036   6.004   2.602
19617SOL    HW378788   7.951   6.021   2.726
19617SOL    MW478789   7.973   6.045   2.646
19618SOL     OW78790   7.520   7.391   3.711
19618SOL    HW278791   7.570   7.369   3.633
19618SOL    HW378792   7.528   7.486   3.719
19618SOL    MW478793   7.528   7.400   3.702
19619SOL     OW78794   8.281   7.149   2.715
19619SOL    HW278795   8.209   7.086   2.728
19619SOL    HW378796   8.242   7.234   2.733
19619SOL    MW478797   8.265   7.152   2.718
19620SOL     OW78798   8.601   5.997   2.363
19620SOL    HW278799   8.623   5.934   2.295
19620SOL    HW378800   8.506   5.989   2.374
19620SOL    MW478801   8.591   5.988   2.355
19621SOL     OW78802   7.686   5.687   2.295
19621SOL    HW278803   7.757   5.708   2.234
19621SOL    HW378804   7.640   5.615   2.253
19621SOL    MW478805   7.690   5.681   2.281
19622SOL     OW78806   7.517   6.154   3.438
19622SOL    HW278807   7.581   6.220   3.413
19622SOL    HW378808   7.436   6.181   3.395
19622SOL    MW478809   7.515   6.166   3.430
19623SOL     OW78810   9.255   7.061   2.395
19623SOL    HW278811   9.225   6.994   2.456
19623SOL    HW378812   9.349   7.067   2.409
19623SOL    MW478813   9.263   7.053   2.405
19624SOL     OW78814   8.811   6.738   2.325
19624SOL    HW278815   8.783   6.824   2.358
19624SOL    HW378816   8.839   6.754   2.235
19624SOL    MW478817   8.811   6.752   2.317
19625SOL     OW78818   8.473   5.658   2.378
19625SOL    HW278819   8.510   5.717   2.443
19625SOL    HW378820   8.450   5.714   2.304
19625SOL    MW478821   8.474   5.673   2.377
19626SOL     OW78822   9.326   6.540   2.800
19626SOL    HW278823   9.317   6.572   2.711
19626SOL    HW378824   9.279   6.456   2.800
19626SOL    MW478825   9.319   6.533   2.790
19627SOL     OW78826   7.702   6.380   3.379
19627SOL    HW278827   7.723   6.449   3.317
19627SOL    HW378828   7.782   6.327   3.384
19627SOL    MW478829   7.715   6.381   3.373
19628SOL     OW78830   9.238   6.471   2.501
19628SOL    HW278831   9.332   6.460   2.489
19628SOL    HW378832   9.214   6.543   2.442
19628SOL    MW478833   9.248   6.479   2.492
19629SOL     OW78834   7.687   6.395   3.646
19629SOL    HW278835   7.613   6.339   3.672
19629SOL    HW378836   7.682   6.398   3.551
19629SOL    MW478837   7.676   6.388   3.636
19630SOL     OW78838   7.853   5.682   3.096
19630SOL    HW278839   7.896   5.766   3.116
19630SOL    HW378840   7.926   5.620   3.089
19630SOL    MW478841   7.868   5.685   3.097
19631SOL     OW78842   7.894   6.349   2.274
19631SOL    HW278843   7.894   6.444   2.259
19631SOL    HW378844   7.971   6.333   2.328
19631SOL    MW478845   7.904   6.360   2.279
19632SOL     OW78846   8.670   6.208   3.338
19632SOL    HW278847   8.706   6.181   3.254
19632SOL    HW378848   8.583   6.242   3.317
19632SOL    MW478849   8.664   6.209   3.325
19633SOL     OW78850   7.653   6.080   2.563
19633SOL    HW278851   7.715   6.087   2.636
19633SOL    HW378852   7.653   5.987   2.540
19633SOL    MW478853   7.661   6.069   2.570
19634SOL     OW78854   9.200   7.420   2.095
19634SOL    HW278855   9.267   7.453   2.035
19634SOL    HW378856   9.157   7.499   2.129
19634SOL    MW478857   9.202   7.435   2.091
19635SOL     OW78858   8.335   6.341   3.047
19635SOL    HW278859   8.293   6.259   3.023
19635SOL    HW378860   8.336   6.340   3.143
19635SOL    MW478861   8.328   6.330   3.056
19636SOL     OW78862   9.006   7.474   3.446
19636SOL    HW278863   9.009   7.380   3.429
19636SOL    HW378864   9.029   7.482   3.538
19636SOL    MW478865   9.009   7.462   3.456
19637SOL     OW78866   8.139   5.811   3.152
19637SOL    HW278867   8.070   5.874   3.173
19637SOL    HW378868   8.166   5.775   3.237
19637SOL    MW478869   8.133   5.814   3.165
19638SOL     OW78870   7.522   6.652   2.021
19638SOL    HW278871   7.491   6.717   2.084
19638SOL    HW378872   7.471   6.574   2.040
19638SOL    MW478873   7.512   6.649   2.031
19639SOL     OW78874   8.934   5.664   2.769
19639SOL    HW278875   9.022   5.673   2.806
19639SOL    HW378876   8.944   5.605   2.695
19639SOL    MW478877   8.948   5.658   2.763
19640SOL     OW78878   8.966   6.403   2.613
19640SOL    HW278879   9.046   6.418   2.562
19640SOL    HW378880   8.959   6.308   2.619
19640SOL    MW478881   8.975   6.392   2.608
19641SOL     OW78882   8.106   7.452   1.963
19641SOL    HW278883   8.011   7.452   1.955
19641SOL    HW378884   8.122   7.398   2.041
19641SOL    MW478885   8.096   7.446   1.972
19642SOL     OW78886   8.416   6.329   3.310
19642SOL    HW278887   8.485   6.396   3.307
19642SOL    HW378888   8.349   6.367   3.366
19642SOL    MW478889   8.417   6.342   3.317
19643SOL     OW78890   7.834   6.629   3.558
19643SOL    HW278891   7.788   6.545   3.560
19643SOL    HW378892   7.891   6.623   3.482
19643SOL    MW478893   7.836   6.617   3.550
19644SOL     OW78894   8.951   6.272   1.879
19644SOL    HW278895   8.879   6.248   1.821
19644SOL    HW378896   9.017   6.309   1.821
19644SOL    MW478897   8.950   6.274   1.864
19645SOL     OW78898   8.085   7.004   2.559
19645SOL    HW278899   8.150   6.937   2.580
19645SOL    HW378900   8.137   7.081   2.536
19645SOL    MW478901   8.100   7.006   2.558
19646SOL     OW78902   8.346   6.169   2.689
19646SOL    HW278903   8.286   6.187   2.761
19646SOL    HW378904   8.380   6.081   2.708
19646SOL    MW478905   8.342   6.159   2.702
19647SOL     OW78906   9.287   5.668   3.358
19647SOL    HW278907   9.208   5.714   3.386
19647SOL    HW378908   9.322   5.722   3.287
19647SOL    MW478909   9.281   5.681   3.352
19648SOL     OW78910   8.571   6.752   2.708
19648SOL    HW278911   8.663   6.733   2.726
19648SOL    HW378912   8.544   6.682   2.648
19648SOL    MW478913   8.579   6.740   2.702
19649SOL     OW78914   8.364   6.572   2.063
19649SOL    HW278915   8.350   6.484   2.028
19649SOL    HW378916   8.315   6.629   2.004
19649SOL    MW478917   8.356   6.567   2.051
19650SOL     OW78918   8.845   6.990   2.804
19650SOL    HW278919   8.818   7.074   2.769
19650SOL    HW378920   8.805   6.985   2.891
19650SOL    MW478921   8.838   6.999   2.810
19651SOL     OW78922   8.764   6.938   3.072
19651SOL    HW278923   8.775   6.905   3.161
19651SOL    HW378924   8.683   6.897   3.041
19651SOL    MW478925   8.754   6.930   3.078
19652SOL     OW78926   7.777   6.296   2.842
19652SOL    HW278927   7.727   6.295   2.923
19652SOL    HW378928   7.797   6.388   2.826
19652SOL    MW478929   7.773   6.308   2.850
19653SOL     OW78930   8.844   7.060   3.604
19653SOL    HW278931   8.844   7.154   3.620
19653SOL    HW378932   8.889   7.050   3.520
19653SOL    MW478933   8.850   7.070   3.595
19654SOL     OW78934   9.083   5.778   2.165
19654SOL    HW278935   9.076   5.782   2.260
19654SOL    HW378936   9.095   5.869   2.138
19654SOL    MW478937   9.084   5.791   2.173
19655SOL     OW78938   8.372   6.341   2.279
19655SOL    HW278939   8.352   6.327   2.186
19655SOL    HW378940   8.465   6.320   2.286
19655SOL    MW478941   8.382   6.336   2.268
19656SOL     OW78942   7.699   5.964   3.583
19656SOL    HW278943   7.656   6.023   3.520
19656SOL    HW378944   7.767   6.019   3.623
19656SOL    MW478945   7.703   5.979   3.580
19657SOL     OW78946   8.811   6.584   3.128
19657SOL    HW278947   8.874   6.581   3.201
19657SOL    HW378948   8.727   6.602   3.170
19657SOL    MW478949   8.807   6.586   3.143
19658SOL     OW78950   8.355   7.299   2.317
19658SOL    HW278951   8.413   7.370   2.344
19658SOL    HW378952   8.378   7.227   2.375
19658SOL    MW478953   8.366   7.299   2.328
19659SOL     OW78954   9.150   5.761   2.907
19659SOL    HW278955   9.195   5.679   2.926
19659SOL    HW378956   9.170   5.817   2.983
19659SOL    MW478957   9.160   5.757   2.919
19660SOL     OW78958   7.598   5.604   3.006
19660SOL    HW278959   7.589   5.605   2.911
19660SOL    HW378960   7.692   5.616   3.021
19660SOL    MW478961   7.610   5.607   2.997
19661SOL     OW78962   9.235   6.797   2.626
19661SOL    HW278963   9.214   6.743   2.549
19661SOL    HW378964   9.331   6.795   2.630
19661SOL    MW478965   9.244   6.790   2.615
19662SOL     OW78966   7.927   6.942   3.369
19662SOL    HW278967   7.848   6.892   3.392
19662SOL    HW378968   7.997   6.901   3.419
19662SOL    MW478969   7.925   6.930   3.379
19663SOL     OW78970   7.811   5.731   2.052
19663SOL    HW278971   7.740   5.786   2.020
19663SOL    HW378972   7.853   5.697   1.973
19663SOL    MW478973   7.807   5.733   2.038
19664SOL     OW78974   8.935   6.228   2.888
19664SOL    HW278975   8.858   6.274   2.854
19664SOL    HW378976   8.992   6.297   2.922
19664SOL    MW478977   8.932   6.243   2.888
19665SOL     OW78978   7.567   5.830   1.901
19665SOL    HW278979   7.534   5.909   1.945
19665SOL    HW378980   7.622   5.863   1.830
19665SOL    MW478981   7.570   5.844   1.898
19666SOL     OW78982   7.601   7.087   2.090
19666SOL    HW278983   7.618   7.171   2.132
19666SOL    HW378984   7.636   7.096   2.002
19666SOL    MW478985   7.606   7.100   2.084
19667SOL     OW78986   8.873   7.176   2.307
19667SOL    HW278987   8.936   7.166   2.236
19667SOL    HW378988   8.790   7.196   2.262
19667SOL    MW478989   8.870   7.177   2.292
19668SOL     OW78990   9.236   6.444   3.993
19668SOL    HW278991   9.277   6.386   4.058
19668SOL    HW378992   9.143   6.436   4.010
19668SOL    MW478993   9.230   6.436   4.003
19669SOL     OW78994   9.102   6.376   4.988
19669SOL    HW278995   9.057   6.443   5.039
19669SOL    HW378996   9.190   6.412   4.974
19669SOL    MW478997   9.108   6.389   4.992
19670SOL     OW78998   8.030   6.627   4.222
19670SOL    HW278999   8.120   6.602   4.206
19670SOL    HW379000   8.026   6.720   4.199
19670SOL    MW479001   8.042   6.636   4.217
19671SOL     OW79002   9.146   7.330   4.364
19671SOL    HW279003   9.158   7.276   4.442
19671SOL    HW379004   9.183   7.278   4.293
19671SOL    MW479005   9.152   7.315   4.365
19672SOL     OW79006   8.525   7.215   5.365
19672SOL    HW279007   8.566   7.251   5.286
19672SOL    HW379008   8.560   7.126   5.372
19672SOL    MW479009   8.536   7.208   5.356
19673SOL     OW79010   9.082   6.770   4.969
19673SOL    HW279011   9.003   6.735   4.927
19673SOL    HW379012   9.109   6.842   4.913
19673SOL    MW479013   9.075   6.775   4.956
19674SOL     OW79014   8.314   6.083   4.235
19674SOL    HW279015   8.289   6.171   4.263
19674SOL    HW379016   8.311   6.086   4.139
19674SOL    MW479017   8.310   6.095   4.227
19675SOL     OW79018   7.756   6.111   4.163
19675SOL    HW279019   7.788   6.199   4.145
19675SOL    HW379020   7.744   6.109   4.258
19675SOL    MW479021   7.759   6.123   4.175
19676SOL     OW79022   7.834   6.524   5.064
19676SOL    HW279023   7.897   6.471   5.015
19676SOL    HW379024   7.815   6.598   5.007
19676SOL    MW479025   7.840   6.526   5.051
19677SOL     OW79026   8.155   5.866   4.250
19677SOL    HW279027   8.213   5.942   4.252
19677SOL    HW379028   8.090   5.887   4.183
19677SOL    MW479029   8.154   5.878   4.241
19678SOL     OW79030   8.242   6.793   4.425
19678SOL    HW279031   8.322   6.796   4.477
19678SOL    HW379032   8.270   6.760   4.339
19678SOL    MW479033   8.256   6.789   4.420
19679SOL     OW79034   8.267   7.134   5.328
19679SOL    HW279035   8.351   7.160   5.367
19679SOL    HW379036   8.291   7.078   5.254
19679SOL    MW479037   8.281   7.130   5.323
19680SOL     OW79038   8.019   6.297   4.416
19680SOL    HW279039   8.004   6.217   4.467
19680SOL    HW379040   8.101   6.332   4.450
19680SOL    MW479041   8.027   6.289   4.428
19681SOL     OW79042   8.356   6.983   5.101
19681SOL    HW279043   8.320   7.049   5.041
19681SOL    HW379044   8.284   6.921   5.114
19681SOL    MW479045   8.342   6.983   5.095
19682SOL     OW79046   8.161   6.123   4.793
19682SOL    HW279047   8.067   6.119   4.811
19682SOL    HW379048   8.191   6.032   4.802
19682SOL    MW479049   8.152   6.111   4.796
19683SOL     OW79050   7.907   6.537   4.697
19683SOL    HW279051   7.862   6.544   4.613
19683SOL    HW379052   7.887   6.620   4.741
19683SOL    MW479053   7.899   6.549   4.691
19684SOL     OW79054   7.604   7.383   4.572
19684SOL    HW279055   7.693   7.375   4.607
19684SOL    HW379056   7.568   7.295   4.577
19684SOL    MW479057   7.611   7.370   4.577
19685SOL     OW79058   8.869   6.775   3.941
19685SOL    HW279059   8.787   6.811   3.907
19685SOL    HW379060   8.937   6.818   3.890
19685SOL    MW479061   8.867   6.785   3.929
19686SOL     OW79062   7.868   6.910   4.607
19686SOL    HW279063   7.844   6.963   4.683
19686SOL    HW379064   7.924   6.968   4.555
19686SOL    MW479065   7.872   6.925   4.610
19687SOL     OW79066   8.430   6.554   4.417
19687SOL    HW279067   8.344   6.541   4.457
19687SOL    HW379068   8.483   6.481   4.449
19687SOL    MW479069   8.426   6.543   4.426
19688SOL     OW79070   7.838   7.206   5.202
19688SOL    HW279071   7.746   7.182   5.187
19688SOL    HW379072   7.882   7.123   5.219
19688SOL    MW479073   7.832   7.191   5.201
19689SOL     OW79074   8.421   6.916   4.134
19689SOL    HW279075   8.398   6.978   4.202
19689SOL    HW379076   8.378   6.834   4.160
19689SOL    MW479077   8.413   6.912   4.145
19690SOL     OW79078   9.294   5.917   4.590
19690SOL    HW279079   9.231   5.897   4.659
19690SOL    HW379080   9.284   5.846   4.527
19690SOL    MW479081   9.284   5.904   4.591
19691SOL     OW79082   7.918   5.889   4.102
19691SOL    HW279083   7.892   5.851   4.018
19691SOL    HW379084   7.855   5.959   4.118
19691SOL    MW479085   7.907   5.892   4.093
19692SOL     OW79086   7.753   6.850   4.139
19692SOL    HW279087   7.701   6.918   4.095
19692SOL    HW379088   7.750   6.776   4.079
19692SOL    MW479089   7.745   6.849   4.126
19693SOL     OW79090   8.415   7.313   3.917
19693SOL    HW279091   8.370   7.329   4.000
19693SOL    HW379092   8.346   7.278   3.859
19693SOL    MW479093   8.401   7.310   3.919
19694SOL     OW79094   9.350   6.086   3.892
19694SOL    HW279095   9.259   6.088   3.920
19694SOL    HW379096   9.395   6.148   3.950
19694SOL    MW479097   9.343   6.094   3.902
19695SOL     OW79098   9.095   6.689   4.242
19695SOL    HW279099   9.005   6.689   4.277
19695SOL    HW379100   9.088   6.735   4.159
19695SOL    MW479101   9.082   6.695   4.236
19696SOL     OW79102   8.895   6.324   5.314
19696SOL    HW279103   8.964   6.262   5.291
19696SOL    HW379104   8.820   6.298   5.261
19696SOL    MW479105   8.895   6.311   5.305
19697SOL     OW79106   7.636   7.204   4.866
19697SOL    HW279107   7.619   7.150   4.943
19697SOL    HW379108   7.624   7.294   4.896
19697SOL    MW479109   7.633   7.208   4.880
19698SOL     OW79110   8.631   6.711   5.306
19698SOL    HW279111   8.616   6.804   5.291
19698SOL    HW379112   8.726   6.701   5.306
19698SOL    MW479113   8.640   6.721   5.303
19699SOL     OW79114   8.427   6.135   5.507
19699SOL    HW279115   8.517   6.136   5.474
19699SOL    HW379116   8.386   6.060   5.465
19699SOL    MW479117   8.433   6.125   5.498
19700SOL     OW79118   9.002   6.667   4.634
19700SOL    HW279119   9.005   6.601   4.565
19700SOL    HW379120   9.087   6.710   4.630
19700SOL    MW479121   9.014   6.663   4.625
19701SOL     OW79122   8.622   6.270   4.203
19701SOL    HW279123   8.648   6.294   4.114
19701SOL    HW379124   8.604   6.177   4.199
19701SOL    MW479125   8.624   6.262   4.190
19702SOL     OW79126   8.207   5.939   5.457
19702SOL    HW279127   8.217   5.865   5.397
19702SOL    HW379128   8.243   5.908   5.540
19702SOL    MW479129   8.213   5.925   5.459
19703SOL     OW79130   7.943   7.306   4.372
19703SOL    HW279131   7.975   7.394   4.350
19703SOL    HW379132   7.896   7.278   4.294
19703SOL    MW479133   7.942   7.314   4.359
19704SOL     OW79134   9.327   5.668   4.421
19704SOL    HW279135   9.381   5.619   4.483
19704SOL    HW379136   9.270   5.602   4.382
19704SOL    MW479137   9.327   5.652   4.423
19705SOL     OW79138   7.659   7.366   3.949
19705SOL    HW279139   7.688   7.456   3.941
19705SOL    HW379140   7.609   7.349   3.870
19705SOL    MW479141   7.657   7.374   3.938
19706SOL     OW79142   8.446   5.621   4.834
19706SOL    HW279143   8.405   5.699   4.796
19706SOL    HW379144   8.540   5.639   4.829
19706SOL    MW479145   8.452   5.633   4.829
19707SOL     OW79146   9.063   7.174   3.920
19707SOL    HW279147   9.111   7.243   3.966
19707SOL    HW379148   8.984   7.218   3.889
19707SOL    MW479149   9.058   7.188   3.923
19708SOL     OW79150   8.461   6.299   3.864
19708SOL    HW279151   8.463   6.246   3.785
19708SOL    HW379152   8.549   6.336   3.870
19708SOL    MW479153   8.473   6.298   3.853
19709SOL     OW79154   9.075   6.225   4.200
19709SOL    HW279155   9.114   6.225   4.287
19709SOL    HW379156   9.016   6.301   4.200
19709SOL    MW479157   9.072   6.236   4.211
19710SOL     OW79158   8.392   6.592   5.329
19710SOL    HW279159   8.369   6.572   5.419
19710SOL    HW379160   8.477   6.636   5.334
19710SOL    MW479161   8.399   6.595   5.341
19711SOL     OW79162   8.472   5.729   5.089
19711SOL    HW279163   8.478   5.691   5.002
19711SOL    HW379164   8.461   5.823   5.074
19711SOL    MW479165   8.473   5.737   5.077
19712SOL     OW79166   8.561   6.218   4.923
19712SOL    HW279167   8.636   6.247   4.870
19712SOL    HW379168   8.493   6.283   4.907
19712SOL    MW479169   8.562   6.230   4.913
19713SOL     OW79170   9.111   6.186   5.200
19713SOL    HW279171   9.092   6.095   5.179
19713SOL    HW379172   9.089   6.235   5.121
19713SOL    MW479173   9.106   6.179   5.187
19714SOL     OW79174   9.253   7.280   5.104
19714SOL    HW279175   9.181   7.242   5.155
19714SOL    HW379176   9.270   7.365   5.145
19714SOL    MW479177   9.247   7.285   5.116
19715SOL     OW79178   8.558   5.924   5.306
19715SOL    HW279179   8.524   5.963   5.225
19715SOL    HW379180   8.536   5.832   5.299
19715SOL    MW479181   8.551   5.917   5.296
19716SOL     OW79182   8.967   6.738   5.382
19716SOL    HW279183   9.049   6.779   5.412
19716SOL    HW379184   8.930   6.700   5.462
19716SOL    MW479185   8.973   6.739   5.397
19717SOL     OW79186   9.262   6.111   4.366
19717SOL    HW279187   9.351   6.080   4.383
19717SOL    HW379188   9.205   6.051   4.414
19717SOL    MW479189   9.265   6.099   4.375
19718SOL     OW79190   7.688   5.825   4.395
19718SOL    HW279191   7.679   5.765   4.321
19718SOL    HW379192   7.621   5.796   4.458
19718SOL    MW479193   7.678   5.812   4.393
19719SOL     OW79194   8.631   6.918   3.956
19719SOL    HW279195   8.581   6.920   4.038
19719SOL    HW379196   8.565   6.936   3.888
19719SOL    MW479197   8.617   6.920   3.958
19720SOL     OW79198   7.635   5.998   4.758
19720SOL    HW279199   7.607   6.089   4.767
19720SOL    HW379200   7.572   5.959   4.697
19720SOL    MW479201   7.622   6.004   4.752
19721SOL     OW79202   8.094   7.336   4.064
19721SOL    HW279203   8.015   7.294   4.097
19721SOL    HW379204   8.160   7.319   4.131
19721SOL    MW479205   8.093   7.328   4.077
19722SOL     OW79206   9.222   6.856   5.461
19722SOL    HW279207   9.272   6.782   5.493
19722SOL    HW379208   9.168   6.883   5.536
19722SOL    MW479209   9.222   6.850   5.474
19723SOL     OW79210   8.230   6.751   3.771
19723SOL    HW279211   8.152   6.697   3.758
19723SOL    HW379212   8.201   6.824   3.824
19723SOL    MW479213   8.216   6.753   3.776
19724SOL     OW79214   9.356   6.491   4.963
19724SOL    HW279215   9.372   6.529   4.876
19724SOL    HW379216   9.390   6.557   5.024
19724SOL    MW479217   9.363   6.504   4.959
19725SOL     OW79218   9.148   7.200   4.632
19725SOL    HW279219   9.177   7.267   4.693
19725SOL    HW379220   9.129   7.124   4.687
19725SOL    MW479221   9.150   7.200   4.647
19726SOL     OW79222   8.811   7.267   3.839
19726SOL    HW279223   8.737   7.230   3.889
19726SOL    HW379224   8.819   7.357   3.872
19726SOL    MW479225   8.802   7.274   3.851
19727SOL     OW79226   7.619   6.273   4.928
19727SOL    HW279227   7.681   6.303   4.994
19727SOL    HW379228   7.553   6.342   4.922
19727SOL    MW479229   7.618   6.286   4.935
19728SOL     OW79230   9.035   6.941   3.781
19728SOL    HW279231   8.982   6.990   3.717
19728SOL    HW379232   9.066   7.007   3.842
19728SOL    MW479233   9.033   6.955   3.779
19729SOL     OW79234   8.260   5.830   3.836
19729SOL    HW279235   8.208   5.750   3.824
19729SOL    HW379236   8.347   5.807   3.804
19729SOL    MW479237   8.263   5.816   3.830
19730SOL     OW79238   7.714   7.382   5.380
19730SOL    HW279239   7.688   7.450   5.318
19730SOL    HW379240   7.762   7.319   5.328
19730SOL    MW479241   7.716   7.382   5.366
19731SOL     OW79242   7.766   6.701   4.887
19731SOL    HW279243   7.819   6.776   4.912
19731SOL    HW379244   7.685   6.739   4.853
19731SOL    MW479245   7.762   6.716   4.887
19732SOL     OW79246   8.306   6.605   4.875
19732SOL    HW279247   8.334   6.514   4.887
19732SOL    HW379248   8.235   6.599   4.811
19732SOL    MW479249   8.299   6.593   4.870
19733SOL     OW79250   7.621   6.470   4.293
19733SOL    HW279251   7.712   6.485   4.320
19733SOL    HW379252   7.624   6.391   4.239
19733SOL    MW479253   7.633   6.462   4.291
19734SOL     OW79254   7.857   6.178   5.547
19734SOL    HW279255   7.804   6.258   5.554
19734SOL    HW379256   7.927   6.190   5.612
19734SOL    MW479257   7.859   6.191   5.555
19735SOL     OW79258   8.243   5.728   5.254
19735SOL    HW279259   8.220   5.636   5.256
19735SOL    HW379260   8.329   5.730   5.211
19735SOL    MW479261   8.250   5.718   5.250
19736SOL     OW79262   7.927   6.252   5.293
19736SOL    HW279263   8.007   6.302   5.279
19736SOL    HW379264   7.918   6.246   5.388
19736SOL    MW479265   7.936   6.258   5.303
19737SOL     OW79266   8.248   7.402   4.667
19737SOL    HW279267   8.337   7.417   4.697
19737SOL    HW379268   8.243   7.449   4.583
19737SOL    MW479269   8.258   7.410   4.660
19738SOL     OW79270   8.904   5.777   5.564
19738SOL    HW279271   8.960   5.704   5.590
19738SOL    HW379272   8.874   5.815   5.646
19738SOL    MW479273   8.908   5.772   5.577
19739SOL     OW79274   7.629   7.082   4.332
19739SOL    HW279275   7.601   7.121   4.414
19739SOL    HW379276   7.649   6.991   4.354
19739SOL    MW479277   7.627   7.074   4.345
19740SOL     OW79278   8.462   7.125   4.367
19740SOL    HW279279   8.545   7.079   4.351
19740SOL    HW379280   8.452   7.124   4.463
19740SOL    MW479281   8.472   7.118   4.377
19741SOL     OW79282   9.294   6.270   4.681
19741SOL    HW279283   9.383   6.300   4.663
19741SOL    HW379284   9.274   6.210   4.610
19741SOL    MW479285   9.303   6.267   4.670
19742SOL     OW79286   9.145   6.449   5.561
19742SOL    HW279287   9.200   6.373   5.542
19742SOL    HW379288   9.147   6.457   5.656
19742SOL    MW479289   9.153   6.440   5.569
19743SOL     OW79290   8.195   7.182   3.772
19743SOL    HW279291   8.135   7.251   3.742
19743SOL    HW379292   8.140   7.124   3.825
19743SOL    MW479293   8.179   7.184   3.774
19744SOL     OW79294   8.633   5.827   3.995
19744SOL    HW279295   8.566   5.803   3.932
19744SOL    HW379296   8.698   5.876   3.944
19744SOL    MW479297   8.633   5.829   3.980
19745SOL     OW79298   8.440   6.011   5.080
19745SOL    HW279299   8.359   6.052   5.108
19745SOL    HW379300   8.487   6.079   5.032
19745SOL    MW479301   8.435   6.026   5.078
19746SOL     OW79302   8.700   6.349   4.703
19746SOL    HW279303   8.713   6.443   4.713
19746SOL    HW379304   8.661   6.339   4.617
19746SOL    MW479305   8.696   6.360   4.693
19747SOL     OW79306   8.152   6.544   4.507
19747SOL    HW279307   8.063   6.535   4.540
19747SOL    HW379308   8.156   6.634   4.475
19747SOL    MW479309   8.141   6.555   4.507
19748SOL     OW79310   8.951   6.127   4.502
19748SOL    HW279311   8.896   6.048   4.501
19748SOL    HW379312   8.933   6.168   4.586
19748SOL    MW479313   8.941   6.122   4.511
19749SOL     OW79314   7.922   5.814   5.319
19749SOL    HW279315   7.843   5.832   5.371
19749SOL    HW379316   7.917   5.876   5.246
19749SOL    MW479317   7.912   5.824   5.316
19750SOL     OW79318   8.570   6.331   4.459
19750SOL    HW279319   8.507   6.263   4.483
19750SOL    HW379320   8.590   6.312   4.367
19750SOL    MW479321   8.564   6.318   4.451
19751SOL     OW79322   7.826   7.226   4.161
19751SOL    HW279323   7.787   7.273   4.087
19751SOL    HW379324   7.760   7.161   4.186
19751SOL    MW479325   7.813   7.224   4.155
19752SOL     OW79326   8.318   6.635   4.185
19752SOL    HW279327   8.320   6.609   4.092
19752SOL    HW379328   8.376   6.572   4.228
19752SOL    MW479329   8.326   6.624   4.179
19753SOL     OW79330   8.871   7.195   4.957
19753SOL    HW279331   8.796   7.241   4.995
19753SOL    HW379332   8.853   7.102   4.974
19753SOL    MW479333   8.860   7.189   4.965
19754SOL     OW79334   8.875   7.403   4.387
19754SOL    HW279335   8.818   7.356   4.326
19754SOL    HW379336   8.961   7.364   4.374
19754SOL    MW479337   8.878   7.394   4.377
19755SOL     OW79338   8.828   5.879   4.518
19755SOL    HW279339   8.856   5.811   4.579
19755SOL    HW379340   8.742   5.850   4.488
19755SOL    MW479341   8.821   5.866   4.522
19756SOL     OW79342   7.633   6.813   4.452
19756SOL    HW279343   7.697   6.845   4.515
19756SOL    HW379344   7.682   6.749   4.400
19756SOL    MW479345   7.648   6.809   4.453
19757SOL     OW79346   8.133   6.889   5.434
19757SOL    HW279347   8.181   6.972   5.421
19757SOL    HW379348   8.190   6.837   5.490
19757SOL    MW479349   8.147   6.893   5.440
19758SOL     OW79350   7.709   7.131   5.574
19758SOL    HW279351   7.765   7.055   5.589
19758SOL    HW379352   7.658   7.109   5.496
19758SOL    MW479353   7.709   7.118   5.565
19759SOL     OW79354   8.808   5.983   3.853
19759SOL    HW279355   8.781   6.049   3.789
19759SOL    HW379356   8.878   6.026   3.903
19759SOL    MW479357   8.813   5.996   3.850
19760SOL     OW79358   8.476   5.688   3.790
19760SOL    HW279359   8.532   5.680   3.712
19760SOL    HW379360   8.453   5.598   3.812
19760SOL    MW479361   8.481   5.675   3.783
19761SOL     OW79362   8.981   6.539   3.995
19761SOL    HW279363   8.948   6.628   3.985
19761SOL    HW379364   8.946   6.510   4.080
19761SOL    MW479365   8.971   6.548   4.006
19762SOL     OW79366   8.594   6.968   5.183
19762SOL    HW279367   8.505   6.974   5.151
19762SOL    HW379368   8.638   7.047   5.151
19762SOL    MW479369   8.589   6.978   5.175
19763SOL     OW79370   7.887   5.636   5.525
19763SOL    HW279371   7.815   5.601   5.473
19763SOL    HW379372   7.945   5.677   5.460
19763SOL    MW479373   7.885   5.637   5.510
19764SOL     OW79374   7.911   7.126   4.824
19764SOL    HW279375   7.956   7.188   4.881
19764SOL    HW379376   7.818   7.145   4.837
19764SOL    MW479377   7.904   7.136   4.831
19765SOL     OW79378   9.351   6.655   5.178
19765SOL    HW279379   9.266   6.668   5.137
19765SOL    HW379380   9.331   6.619   5.265
19765SOL    MW479381   9.338   6.651   5.183
19766SOL     OW79382   8.333   7.194   4.932
19766SOL    HW279383   8.357   7.183   4.841
19766SOL    HW379384   8.256   7.251   4.930
19766SOL    MW479385   8.325   7.199   4.921
19767SOL     OW79386   7.975   6.577   3.787
19767SOL    HW279387   7.898   6.590   3.843
19767SOL    HW379388   7.939   6.541   3.706
19767SOL    MW479389   7.961   6.573   3.784
19768SOL     OW79390   8.628   6.550   4.030
19768SOL    HW279391   8.538   6.571   4.005
19768SOL    HW379392   8.655   6.623   4.086
19768SOL    MW479393   8.620   6.562   4.033
19769SOL     OW79394   8.128   6.899   4.722
19769SOL    HW279395   8.121   6.878   4.816
19769SOL    HW379396   8.046   6.867   4.685
19769SOL    MW479397   8.116   6.893   4.729
19770SOL     OW79398   8.992   5.909   5.124
19770SOL    HW279399   8.939   5.911   5.204
19770SOL    HW379400   8.977   5.822   5.087
19770SOL    MW479401   8.984   5.899   5.129
19771SOL     OW79402   9.328   5.833   4.997
19771SOL    HW279403   9.309   5.900   4.932
19771SOL    HW379404   9.385   5.771   4.952
19771SOL    MW479405   9.332   5.834   4.983
19772SOL     OW79406   7.574   6.991   5.385
19772SOL    HW279407   7.618   6.924   5.331
19772SOL    HW379408   7.489   6.953   5.405
19772SOL    MW479409   7.569   6.977   5.381
19773SOL     OW79410   8.257   5.666   4.437
19773SOL    HW279411   8.186   5.727   4.419
19773SOL    HW379412   8.308   5.663   4.356
19773SOL    MW479413   8.253   5.672   4.424
19774SOL     OW79414   8.015   6.906   4.186
19774SOL    HW279415   8.008   6.938   4.276
19774SOL    HW379416   7.925   6.890   4.158
19774SOL    MW479417   8.003   6.908   4.193
19775SOL     OW79418   8.610   7.299   5.095
19775SOL    HW279419   8.530   7.284   5.045
19775SOL    HW379420   8.617   7.394   5.102
19775SOL    MW479421   8.601   7.310   5.089
19776SOL     OW79422   8.724   7.264   4.585
19776SOL    HW279423   8.771   7.337   4.544
19776SOL    HW379424   8.645   7.303   4.621
19776SOL    MW479425   8.719   7.279   4.584
19777SOL     OW79426   9.132   7.359   4.860
19777SOL    HW279427   9.175   7.329   4.940
19777SOL    HW379428   9.051   7.307   4.857
19777SOL    MW479429   9.127   7.348   4.870
19778SOL     OW79430   8.217   6.323   5.567
19778SOL    HW279431   8.287   6.265   5.539
19778SOL    HW379432   8.160   6.268   5.622
19778SOL    MW479433   8.219   6.310   5.571
19779SOL     OW79434   9.004   6.535   5.200
19779SOL    HW279435   9.009   6.588   5.280
19779SOL    HW379436   8.966   6.452   5.228
19779SOL    MW479437   9.000   6.530   5.215
19780SOL     OW79438   8.644   5.670   5.446
19780SOL    HW279439   8.639   5.577   5.427
19780SOL    HW379440   8.727   5.681   5.492
19780SOL    MW479441   8.652   5.659   5.450
19781SOL     OW79442   8.018   6.190   3.900
19781SOL    HW279443   7.984   6.246   3.970
19781SOL    HW379444   8.089   6.140   3.940
19781SOL    MW479445   8.024   6.191   3.914
19782SOL     OW79446   9.114   6.941   4.722
19782SOL    HW279447   9.149   6.923   4.635
19782SOL    HW379448   9.019   6.942   4.709
19782SOL    MW479449   9.106   6.938   4.709
19783SOL     OW79450   8.543   6.589   5.091
19783SOL    HW279451   8.586   6.624   5.169
19783SOL    HW379452   8.526   6.666   5.037
19783SOL    MW479453   8.546   6.604   5.094
19784SOL     OW79454   9.074   6.076   3.964
19784SOL    HW279455   9.066   6.147   3.901
19784SOL    HW379456   9.092   6.120   4.047
19784SOL    MW479457   9.075   6.090   3.966
19785SOL     OW79458   7.934   5.731   4.393
19785SOL    HW279459   7.984   5.774   4.324
19785SOL    HW379460   7.849   5.775   4.393
19785SOL    MW479461   7.931   5.744   4.384
19786SOL     OW79462   7.693   6.793   5.253
19786SOL    HW279463   7.721   6.746   5.331
19786SOL    HW379464   7.614   6.748   5.224
19786SOL    MW479465   7.686   6.782   5.259
19787SOL     OW79466   8.201   6.120   5.220
19787SOL    HW279467   8.173   6.208   5.244
19787SOL    HW379468   8.170   6.064   5.291
19787SOL    MW479469   8.193   6.123   5.232
19788SOL     OW79470   8.743   6.338   3.939
19788SOL    HW279471   8.790   6.356   3.858
19788SOL    HW379472   8.709   6.422   3.967
19788SOL    MW479473   8.745   6.352   3.932
19789SOL     OW79474   7.856   6.516   4.433
19789SOL    HW279475   7.914   6.572   4.381
19789SOL    HW379476   7.900   6.431   4.435
19789SOL    MW479477   7.869   6.513   4.426
19790SOL     OW79478   8.996   5.868   4.270
19790SOL    HW279479   8.918   5.818   4.295
19790SOL    HW379480   8.967   5.959   4.270
19790SOL    MW479481   8.982   5.872   4.273
19791SOL     OW79482   8.582   5.830   4.429
19791SOL    HW279483   8.602   5.905   4.373
19791SOL    HW379484   8.562   5.869   4.514
19791SOL    MW479485   8.583   5.846   4.433
19792SOL     OW79486   8.478   7.080   3.761
19792SOL    HW279487   8.505   7.158   3.713
19792SOL    HW379488   8.385   7.095   3.780
19792SOL    MW479489   8.469   7.093   3.757
19793SOL     OW79490   9.342   6.603   5.448
19793SOL    HW279491   9.255   6.583   5.484
19793SOL    HW379492   9.396   6.529   5.473
19793SOL    MW479493   9.337   6.592   5.456
19794SOL     OW79494   7.563   7.116   4.605
19794SOL    HW279495   7.595   7.120   4.696
19794SOL    HW379496   7.468   7.124   4.613
19794SOL    MW479497   7.555   7.119   4.618
19795SOL     OW79498   7.518   6.242   4.152
19795SOL    HW279499   7.458   6.214   4.222
19795SOL    HW379500   7.592   6.182   4.158
19795SOL    MW479501   7.520   6.231   4.161
19796SOL     OW79502   9.086   7.454   5.586
19796SOL    HW279503   9.131   7.378   5.551
19796SOL    HW379504   9.124   7.467   5.673
19796SOL    MW479505   9.096   7.447   5.592
19797SOL     OW79506   8.686   6.973   4.312
19797SOL    HW279507   8.709   6.924   4.390
19797SOL    HW379508   8.767   7.015   4.284
19797SOL    MW479509   8.699   6.973   4.319
19798SOL     OW79510   7.944   5.981   5.041
19798SOL    HW279511   7.977   6.062   5.081
19798SOL    HW379512   7.917   6.007   4.953
19798SOL    MW479513   7.943   5.995   5.035
19799SOL     OW79514   7.898   5.948   4.777
19799SOL    HW279515   7.928   5.862   4.748
19799SOL    HW379516   7.803   5.941   4.780
19799SOL    MW479517   7.890   5.937   4.775
19800SOL     OW79518   8.727   6.157   5.468
19800SOL    HW279519   8.779   6.092   5.421
19800SOL    HW379520   8.685   6.208   5.398
19800SOL    MW479521   8.728   6.154   5.451
19801SOL     OW79522   8.826   5.952   5.329
19801SOL    HW279523   8.733   5.936   5.316
19801SOL    HW379524   8.852   5.890   5.397
19801SOL    MW479525   8.816   5.942   5.336
19802SOL     OW79526   8.041   5.726   4.668
19802SOL    HW279527   8.051   5.635   4.694
19802SOL    HW379528   7.997   5.722   4.583
19802SOL    MW479529   8.037   5.714   4.660
19803SOL     OW79530   8.135   7.341   5.214
19803SOL    HW279531   8.052   7.326   5.259
19803SOL    HW379532   8.194   7.274   5.249
19803SOL    MW479533   8.133   7.331   5.224
19804SOL     OW79534   9.192   6.048   4.839
19804SOL    HW279535   9.125   6.081   4.899
19804SOL    HW379536   9.235   6.126   4.805
19804SOL    MW479537   9.190   6.063   4.843
19805SOL     OW79538   9.370   6.768   4.809
19805SOL    HW279539   9.363   6.708   4.734
19805SOL    HW379540   9.296   6.828   4.798
19805SOL    MW479541   9.360   6.768   4.798
19806SOL     OW79542   8.752   6.630   4.727
19806SOL    HW279543   8.766   6.602   4.818
19806SOL    HW379544   8.838   6.661   4.699
19806SOL    MW479545   8.765   6.631   4.736
19807SOL     OW79546   8.835   6.125   5.006
19807SOL    HW279547   8.856   6.126   4.913
19807SOL    HW379548   8.880   6.047   5.039
19807SOL    MW479549   8.842   6.115   4.998
19808SOL     OW79550   9.328   6.256   5.548
19808SOL    HW279551   9.365   6.201   5.617
19808SOL    HW379552   9.353   6.213   5.466
19808SOL    MW479553   9.335   6.244   5.547
19809SOL     OW79554   8.875   6.554   5.600
19809SOL    HW279555   8.941   6.502   5.554
19809SOL    HW379556   8.895   6.541   5.693
19809SOL    MW479557   8.886   6.545   5.607
19810SOL     OW79558   8.826   5.640   3.948
19810SOL    HW279559   8.900   5.684   3.991
19810SOL    HW379560   8.750   5.694   3.970
19810SOL    MW479561   8.826   5.652   3.956
19811SOL     OW79562   8.886   6.415   4.226
19811SOL    HW279563   8.801   6.385   4.196
19811SOL    HW379564   8.878   6.422   4.321
19811SOL    MW479565   8.874   6.413   4.235
19812SOL     OW79566   7.962   6.878   4.957
19812SOL    HW279567   7.974   6.905   5.048
19812SOL    HW379568   7.943   6.959   4.910
19812SOL    MW479569   7.961   6.893   4.962
19813SOL     OW79570   8.246   5.858   4.780
19813SOL    HW279571   8.219   5.860   4.871
19813SOL    HW379572   8.176   5.810   4.735
19813SOL    MW479573   8.234   5.854   4.787
19814SOL     OW79574   8.100   7.350   4.942
19814SOL    HW279575   8.152   7.427   4.919
19814SOL    HW379576   8.109   7.342   5.037
19814SOL    MW479577   8.109   7.357   4.953
19815SOL     OW79578   9.002   6.935   5.174
19815SOL    HW279579   8.987   6.864   5.237
19815SOL    HW379580   9.048   6.893   5.102
19815SOL    MW479581   9.008   6.919   5.174
19816SOL     OW79582   8.076   6.666   5.291
19816SOL    HW279583   8.113   6.671   5.203
19816SOL    HW379584   8.115   6.739   5.338
19816SOL    MW479585   8.086   6.676   5.286
19817SOL     OW79586   8.256   6.709   5.103
19817SOL    HW279587   8.315   6.655   5.156
19817SOL    HW379588   8.271   6.681   5.013
19817SOL    MW479589   8.266   6.698   5.099
19818SOL     OW79590   8.259   6.081   3.952
19818SOL    HW279591   8.332   6.130   3.915
19818SOL    HW379592   8.275   5.990   3.926
19818SOL    MW479593   8.271   6.076   3.945
19819SOL     OW79594   9.067   7.198   5.275
19819SOL    HW279595   9.109   7.183   5.360
19819SOL    HW379596   9.058   7.111   5.237
19819SOL    MW479597   9.071   7.186   5.282
19820SOL     OW79598   8.727   5.677   4.866
19820SOL    HW279599   8.782   5.686   4.788
19820SOL    HW379600   8.782   5.711   4.937
19820SOL    MW479601   8.741   5.682   4.865
19821SOL     OW79602   7.734   6.590   4.050
19821SOL    HW279603   7.671   6.606   3.979
19821SOL    HW379604   7.681   6.553   4.121
19821SOL    MW479605   7.719   6.587   4.050
19822SOL     OW79606   8.090   6.944   3.909
19822SOL    HW279607   8.105   6.920   4.001
19822SOL    HW379608   7.998   6.922   3.893
19822SOL    MW479609   8.080   6.937   3.919
19823SOL     OW79610   8.629   7.175   4.061
19823SOL    HW279611   8.637   7.093   4.012
19823SOL    HW379612   8.548   7.214   4.028
19823SOL    MW479613   8.619   7.170   4.051
19824SOL     OW79614   7.888   7.333   4.630
19824SOL    HW279615   7.892   7.244   4.665
19824SOL    HW379616   7.914   7.324   4.539
19824SOL    MW479617   7.891   7.321   4.622
19825SOL     OW79618   8.505   6.811   4.873
19825SOL    HW279619   8.437   6.745   4.889
19825SOL    HW379620   8.523   6.805   4.780
19825SOL    MW479621   8.498   6.802   4.864
19826SOL     OW79622   7.594   7.086   5.124
19826SOL    HW279623   7.584   7.044   5.210
19826SOL    HW379624   7.515   7.139   5.114
19826SOL    MW479625   7.583   7.087   5.135
19827SOL     OW79626   8.498   5.950   4.694
19827SOL    HW279627   8.428   5.902   4.739
19827SOL    HW379628   8.530   6.013   4.758
19827SOL    MW479629   8.493   5.952   4.708
19828SOL     OW79630   8.149   6.386   5.314
19828SOL    HW279631   8.142   6.481   5.302
19828SOL    HW379632   8.158   6.375   5.409
19828SOL    MW479633   8.150   6.398   5.324
19829SOL     OW79634   7.870   6.901   5.572
19829SOL    HW279635   7.942   6.903   5.509
19829SOL    HW379636   7.840   6.810   5.571
19829SOL    MW479637   7.875   6.890   5.564
19830SOL     OW79638   8.954   5.664   5.039
19830SOL    HW279639   9.025   5.610   5.003
19830SOL    HW379640   8.953   5.643   5.132
19830SOL    MW479641   8.963   5.655   5.047
19831SOL     OW79642   9.154   7.194   5.523
19831SOL    HW279643   9.127   7.191   5.614
19831SOL    HW379644   9.250   7.198   5.526
19831SOL    MW479645   9.164   7.194   5.535
19832SOL     OW79646   7.965   6.056   4.507
19832SOL    HW279647   8.036   6.004   4.470
19832SOL    HW379648   7.951   6.021   4.594
19832SOL    MW479649   7.973   6.045   4.514
19833SOL     OW79650   7.520   7.391   5.579
19833SOL    HW279651   7.570   7.369   5.501
19833SOL    HW379652   7.528   7.486   5.587
19833SOL    MW479653   7.528   7.400   5.570
19834SOL     OW79654   8.281   7.149   4.583
19834SOL    HW279655   8.209   7.086   4.596
19834SOL    HW379656   8.242   7.234   4.601
19834SOL    MW479657   8.265   7.152   4.586
19835SOL     OW79658   8.601   5.997   4.231
19835SOL    HW279659   8.623   5.934   4.163
19835SOL    HW379660   8.506   5.989   4.242
19835SOL    MW479661   8.591   5.988   4.223
19836SOL     OW79662   7.686   5.687   4.163
19836SOL    HW279663   7.757   5.708   4.102
19836SOL    HW379664   7.640   5.615   4.121
19836SOL    MW479665   7.690   5.681   4.149
19837SOL     OW79666   7.517   6.154   5.306
19837SOL    HW279667   7.581   6.220   5.281
19837SOL    HW379668   7.436   6.181   5.263
19837SOL    MW479669   7.515   6.166   5.298
19838SOL     OW79670   9.255   7.061   4.263
19838SOL    HW279671   9.225   6.994   4.324
19838SOL    HW379672   9.349   7.067   4.277
19838SOL    MW479673   9.263   7.053   4.273
19839SOL     OW79674   8.811   6.738   4.193
19839SOL    HW279675   8.783   6.824   4.226
19839SOL    HW379676   8.839   6.754   4.103
19839SOL    MW479677   8.811   6.752   4.185
19840SOL     OW79678   8.473   5.658   4.246
19840SOL    HW279679   8.510   5.717   4.311
19840SOL    HW379680   8.450   5.714   4.172
19840SOL    MW479681   8.474   5.673   4.245
19841SOL     OW79682   9.326   6.540   4.668
19841SOL    HW279683   9.317   6.572   4.579
19841SOL    HW379684   9.279   6.456   4.668
19841SOL    MW479685   9.319   6.533   4.658
19842SOL     OW79686   7.702   6.380   5.247
19842SOL    HW279687   7.723   6.449   5.185
19842SOL    HW379688   7.782   6.327   5.252
19842SOL    MW479689   7.715   6.381   5.241
19843SOL     OW79690   9.238   6.471   4.369
19843SOL    HW279691   9.332   6.460   4.357
19843SOL    HW379692   9.214   6.543   4.310
19843SOL    MW479693   9.248   6.479   4.360
19844SOL     OW79694   7.687   6.395   5.514
19844SOL    HW279695   7.613   6.339   5.540
19844SOL    HW379696   7.682   6.398   5.419
19844SOL    MW479697   7.676   6.388   5.504
19845SOL     OW79698   7.853   5.682   4.964
19845SOL    HW279699   7.896   5.766   4.984
19845SOL    HW379700   7.926   5.620   4.957
19845SOL    MW479701   7.868   5.685   4.965
19846SOL     OW79702   7.894   6.349   4.142
19846SOL    HW279703   7.894   6.444   4.127
19846SOL    HW379704   7.971   6.333   4.196
19846SOL    MW479705   7.904   6.360   4.147
19847SOL     OW79706   8.670   6.208   5.206
19847SOL    HW279707   8.706   6.181   5.122
19847SOL    HW379708   8.583   6.242   5.185
19847SOL    MW479709   8.664   6.209   5.193
19848SOL     OW79710   7.653   6.080   4.431
19848SOL    HW279711   7.715   6.087   4.504
19848SOL    HW379712   7.653   5.987   4.408
19848SOL    MW479713   7.661   6.069   4.438
19849SOL     OW79714   9.200   7.420   3.963
19849SOL    HW279715   9.267   7.453   3.903
19849SOL    HW379716   9.157   7.499   3.997
19849SOL    MW479717   9.202   7.435   3.959
19850SOL     OW79718   8.335   6.341   4.915
19850SOL    HW279719   8.293   6.259   4.891
19850SOL    HW379720   8.336   6.340   5.011
19850SOL    MW479721   8.328   6.330   4.924
19851SOL     OW79722   9.006   7.474   5.314
19851SOL    HW279723   9.009   7.380   5.297
19851SOL    HW379724   9.029   7.482   5.406
19851SOL    MW479725   9.009   7.462   5.324
19852SOL     OW79726   8.139   5.811   5.020
19852SOL    HW279727   8.070   5.874   5.041
19852SOL    HW379728   8.166   5.775   5.105
19852SOL    MW479729   8.133   5.814   5.033
19853SOL     OW79730   7.522   6.652   3.889
19853SOL    HW279731   7.491   6.717   3.952
19853SOL    HW379732   7.471   6.574   3.908
19853SOL    MW479733   7.512   6.649   3.899
19854SOL     OW79734   8.934   5.664   4.637
19854SOL    HW279735   9.022   5.673   4.674
19854SOL    HW379736   8.944   5.605   4.563
19854SOL    MW479737   8.948   5.658   4.631
19855SOL     OW79738   8.966   6.403   4.481
19855SOL    HW279739   9.046   6.418   4.430
19855SOL    HW379740   8.959   6.308   4.487
19855SOL    MW479741   8.975   6.392   4.476
19856SOL     OW79742   8.106   7.452   3.831
19856SOL    HW279743   8.011   7.452   3.823
19856SOL    HW379744   8.122   7.398   3.909
19856SOL    MW479745   8.096   7.446   3.840
19857SOL     OW79746   8.416   6.329   5.178
19857SOL    HW279747   8.485   6.396   5.175
19857SOL    HW379748   8.349   6.367   5.234
19857SOL    MW479749   8.417   6.342   5.185
19858SOL     OW79750   7.834   6.629   5.426
19858SOL    HW279751   7.788   6.545   5.428
19858SOL    HW379752   7.891   6.623   5.350
19858SOL    MW479753   7.836   6.617   5.418
19859SOL     OW79754   8.951   6.272   3.747
19859SOL    HW279755   8.879   6.248   3.689
19859SOL    HW379756   9.017   6.309   3.689
19859SOL    MW479757   8.950   6.274   3.732
19860SOL     OW79758   8.085   7.004   4.427
19860SOL    HW279759   8.150   6.937   4.448
19860SOL    HW379760   8.137   7.081   4.404
19860SOL    MW479761   8.100   7.006   4.426
19861SOL     OW79762   8.346   6.169   4.557
19861SOL    HW279763   8.286   6.187   4.629
19861SOL    HW379764   8.380   6.081   4.576
19861SOL    MW479765   8.342   6.159   4.570
19862SOL     OW79766   9.287   5.668   5.226
19862SOL    HW279767   9.208   5.714   5.254
19862SOL    HW379768   9.322   5.722   5.155
19862SOL    MW479769   9.281   5.681   5.220
19863SOL     OW79770   8.571   6.752   4.576
19863SOL    HW279771   8.663   6.733   4.594
19863SOL    HW379772   8.544   6.682   4.516
19863SOL    MW479773   8.579   6.740   4.570
19864SOL     OW79774   8.364   6.572   3.931
19864SOL    HW279775   8.350   6.484   3.896
19864SOL    HW379776   8.315   6.629   3.872
19864SOL    MW479777   8.356   6.567   3.919
19865SOL     OW79778   8.845   6.990   4.672
19865SOL    HW279779   8.818   7.074   4.637
19865SOL    HW379780   8.805   6.985   4.759
19865SOL    MW479781   8.838   6.999   4.678
19866SOL     OW79782   8.764   6.938   4.940
19866SOL    HW279783   8.775   6.905   5.029
19866SOL    HW379784   8.683   6.897   4.909
19866SOL    MW479785   8.754   6.930   4.946
19867SOL     OW79786   7.777   6.296   4.710
19867SOL    HW279787   7.727   6.295   4.791
19867SOL    HW379788   7.797   6.388   4.694
19867SOL    MW479789   7.773   6.308   4.718
19868SOL     OW79790   8.844   7.060   5.472
19868SOL    HW279791   8.844   7.154   5.488
19868SOL    HW379792   8.889   7.050   5.388
19868SOL    MW479793   8.850   7.070   5.463
19869SOL     OW79794   9.083   5.778   4.033
19869SOL    HW279795   9.076   5.782   4.128
19869SOL    HW379796   9.095   5.869   4.006
19869SOL    MW479797   9.084   5.791   4.041
19870SOL     OW79798   8.372   6.341   4.147
19870SOL    HW279799   8.352   6.327   4.054
19870SOL    HW379800   8.465   6.320   4.154
19870SOL    MW479801   8.382   6.336   4.136
19871SOL     OW79802   7.699   5.964   5.451
19871SOL    HW279803   7.656   6.023   5.388
19871SOL    HW379804   7.767   6.019   5.491
19871SOL    MW479805   7.703   5.979   5.448
19872SOL     OW79806   8.811   6.584   4.996
19872SOL    HW279807   8.874   6.581   5.069
19872SOL    HW379808   8.727   6.602   5.038
19872SOL    MW479809   8.807   6.586   5.011
19873SOL     OW79810   8.355   7.299   4.185
19873SOL    HW279811   8.413   7.370   4.212
19873SOL    HW379812   8.378   7.227   4.243
19873SOL    MW479813   8.366   7.299   4.196
19874SOL     OW79814   9.150   5.761   4.775
19874SOL    HW279815   9.195   5.679   4.794
19874SOL    HW379816   9.170   5.817   4.851
19874SOL    MW479817   9.160   5.757   4.787
19875SOL     OW79818   7.598   5.604   4.874
19875SOL    HW279819   7.589   5.605   4.779
19875SOL    HW379820   7.692   5.616   4.889
19875SOL    MW479821   7.610   5.607   4.865
19876SOL     OW79822   9.235   6.797   4.494
19876SOL    HW279823   9.214   6.743   4.417
19876SOL    HW379824   9.331   6.795   4.498
19876SOL    MW479825   9.244   6.790   4.483
19877SOL     OW79826   7.927   6.942   5.237
19877SOL    HW279827   7.848   6.892   5.260
19877SOL    HW379828   7.997   6.901   5.287
19877SOL    MW479829   7.925   6.930   5.247
19878SOL     OW79830   7.811   5.731   3.920
19878SOL    HW279831   7.740   5.786   3.888
19878SOL    HW379832   7.853   5.697   3.841
19878SOL    MW479833   7.807   5.733   3.906
19879SOL     OW79834   8.935   6.228   4.756
19879SOL    HW279835   8.858   6.274   4.722
19879SOL    HW379836   8.992   6.297   4.790
19879SOL    MW479837   8.932   6.243   4.756
19880SOL     OW79838   7.567   5.830   3.769
19880SOL    HW279839   7.534   5.909   3.813
19880SOL    HW379840   7.622   5.863   3.698
19880SOL    MW479841   7.570   5.844   3.766
19881SOL     OW79842   7.601   7.087   3.958
19881SOL    HW279843   7.618   7.171   4.000
19881SOL    HW379844   7.636   7.096   3.870
19881SOL    MW479845   7.606   7.100   3.952
19882SOL     OW79846   8.873   7.176   4.175
19882SOL    HW279847   8.936   7.166   4.104
19882SOL    HW379848   8.790   7.196   4.130
19882SOL    MW479849   8.870   7.177   4.160
19883SOL     OW79850   9.236   6.444   5.862
19883SOL    HW279851   9.277   6.386   5.927
19883SOL    HW379852   9.143   6.436   5.879
19883SOL    MW479853   9.230   6.436   5.872
19884SOL     OW79854   9.102   6.376   6.857
19884SOL    HW279855   9.057   6.443   6.908
19884SOL    HW379856   9.190   6.412   6.843
19884SOL    MW479857   9.108   6.389   6.861
19885SOL     OW79858   8.030   6.627   6.091
19885SOL    HW279859   8.120   6.602   6.075
19885SOL    HW379860   8.026   6.720   6.068
19885SOL    MW479861   8.042   6.636   6.086
19886SOL     OW79862   9.146   7.330   6.233
19886SOL    HW279863   9.158   7.276   6.311
19886SOL    HW379864   9.183   7.278   6.162
19886SOL    MW479865   9.152   7.315   6.234
19887SOL     OW79866   8.525   7.215   7.234
19887SOL    HW279867   8.566   7.251   7.155
19887SOL    HW379868   8.560   7.126   7.241
19887SOL    MW479869   8.536   7.208   7.225
19888SOL     OW79870   9.082   6.770   6.838
19888SOL    HW279871   9.003   6.735   6.796
19888SOL    HW379872   9.109   6.842   6.782
19888SOL    MW479873   9.075   6.775   6.825
19889SOL     OW79874   8.314   6.083   6.104
19889SOL    HW279875   8.289   6.171   6.132
19889SOL    HW379876   8.311   6.086   6.008
19889SOL    MW479877   8.310   6.095   6.096
19890SOL     OW79878   7.756   6.111   6.032
19890SOL    HW279879   7.788   6.199   6.014
19890SOL    HW379880   7.744   6.109   6.127
19890SOL    MW479881   7.759   6.123   6.044
19891SOL     OW79882   7.834   6.524   6.933
19891SOL    HW279883   7.897   6.471   6.884
19891SOL    HW379884   7.815   6.598   6.876
19891SOL    MW479885   7.840   6.526   6.920
19892SOL     OW79886   8.155   5.866   6.119
19892SOL    HW279887   8.213   5.942   6.121
19892SOL    HW379888   8.090   5.887   6.052
19892SOL    MW479889   8.154   5.878   6.110
19893SOL     OW79890   8.242   6.793   6.294
19893SOL    HW279891   8.322   6.796   6.346
19893SOL    HW379892   8.270   6.760   6.208
19893SOL    MW479893   8.256   6.789   6.289
19894SOL     OW79894   8.267   7.134   7.197
19894SOL    HW279895   8.351   7.160   7.236
19894SOL    HW379896   8.291   7.078   7.123
19894SOL    MW479897   8.281   7.130   7.192
19895SOL     OW79898   8.019   6.297   6.285
19895SOL    HW279899   8.004   6.217   6.336
19895SOL    HW379900   8.101   6.332   6.319
19895SOL    MW479901   8.027   6.289   6.297
19896SOL     OW79902   8.356   6.983   6.970
19896SOL    HW279903   8.320   7.049   6.910
19896SOL    HW379904   8.284   6.921   6.983
19896SOL    MW479905   8.342   6.983   6.964
19897SOL     OW79906   8.161   6.123   6.662
19897SOL    HW279907   8.067   6.119   6.680
19897SOL    HW379908   8.191   6.032   6.671
19897SOL    MW479909   8.152   6.111   6.665
19898SOL     OW79910   7.907   6.537   6.566
19898SOL    HW279911   7.862   6.544   6.482
19898SOL    HW379912   7.887   6.620   6.610
19898SOL    MW479913   7.899   6.549   6.560
19899SOL     OW79914   7.604   7.383   6.441
19899SOL    HW279915   7.693   7.375   6.476
19899SOL    HW379916   7.568   7.295   6.446
19899SOL    MW479917   7.611   7.370   6.446
19900SOL     OW79918   8.869   6.775   5.810
19900SOL    HW279919   8.787   6.811   5.776
19900SOL    HW379920   8.937   6.818   5.759
19900SOL    MW479921   8.867   6.785   5.798
19901SOL     OW79922   7.868   6.910   6.476
19901SOL    HW279923   7.844   6.963   6.552
19901SOL    HW379924   7.924   6.968   6.424
19901SOL    MW479925   7.872   6.925   6.479
19902SOL     OW79926   8.430   6.554   6.286
19902SOL    HW279927   8.344   6.541   6.326
19902SOL    HW379928   8.483   6.481   6.318
19902SOL    MW479929   8.426   6.543   6.295
19903SOL     OW79930   7.838   7.206   7.071
19903SOL    HW279931   7.746   7.182   7.056
19903SOL    HW379932   7.882   7.123   7.088
19903SOL    MW479933   7.832   7.191   7.070
19904SOL     OW79934   8.421   6.916   6.003
19904SOL    HW279935   8.398   6.978   6.071
19904SOL    HW379936   8.378   6.834   6.029
19904SOL    MW479937   8.413   6.912   6.014
19905SOL     OW79938   9.294   5.917   6.459
19905SOL    HW279939   9.231   5.897   6.528
19905SOL    HW379940   9.284   5.846   6.396
19905SOL    MW479941   9.284   5.904   6.460
19906SOL     OW79942   7.918   5.889   5.971
19906SOL    HW279943   7.892   5.851   5.887
19906SOL    HW379944   7.855   5.959   5.987
19906SOL    MW479945   7.907   5.892   5.962
19907SOL     OW79946   7.753   6.850   6.008
19907SOL    HW279947   7.701   6.918   5.964
19907SOL    HW379948   7.750   6.776   5.948
19907SOL    MW479949   7.745   6.849   5.995
19908SOL     OW79950   8.415   7.313   5.786
19908SOL    HW279951   8.370   7.329   5.869
19908SOL    HW379952   8.346   7.278   5.728
19908SOL    MW479953   8.401   7.310   5.788
19909SOL     OW79954   9.350   6.086   5.761
19909SOL    HW279955   9.259   6.088   5.789
19909SOL    HW379956   9.395   6.148   5.819
19909SOL    MW479957   9.343   6.094   5.771
19910SOL     OW79958   9.095   6.689   6.111
19910SOL    HW279959   9.005   6.689   6.146
19910SOL    HW379960   9.088   6.735   6.028
19910SOL    MW479961   9.082   6.695   6.105
19911SOL     OW79962   8.895   6.324   7.183
19911SOL    HW279963   8.964   6.262   7.160
19911SOL    HW379964   8.820   6.298   7.130
19911SOL    MW479965   8.895   6.311   7.174
19912SOL     OW79966   7.636   7.204   6.735
19912SOL    HW279967   7.619   7.150   6.812
19912SOL    HW379968   7.624   7.294   6.765
19912SOL    MW479969   7.633   7.208   6.749
19913SOL     OW79970   8.631   6.711   7.175
19913SOL    HW279971   8.616   6.804   7.160
19913SOL    HW379972   8.726   6.701   7.175
19913SOL    MW479973   8.640   6.721   7.172
19914SOL     OW79974   8.427   6.135   7.376
19914SOL    HW279975   8.517   6.136   7.343
19914SOL    HW379976   8.386   6.060   7.334
19914SOL    MW479977   8.433   6.125   7.367
19915SOL     OW79978   9.002   6.667   6.503
19915SOL    HW279979   9.005   6.601   6.434
19915SOL    HW379980   9.087   6.710   6.499
19915SOL    MW479981   9.014   6.663   6.494
19916SOL     OW79982   8.622   6.270   6.072
19916SOL    HW279983   8.648   6.294   5.983
19916SOL    HW379984   8.604   6.177   6.068
19916SOL    MW479985   8.624   6.262   6.059
19917SOL     OW79986   9.287   6.890   5.923
19917SOL    HW279987   9.243   6.931   5.998
19917SOL    HW379988   9.344   6.958   5.888
19917SOL    MW479989   9.289   6.904   5.928
19918SOL     OW79990   8.207   5.939   7.326
19918SOL    HW279991   8.217   5.865   7.266
19918SOL    HW379992   8.243   5.908   7.409
19918SOL    MW479993   8.213   5.925   7.328
19919SOL     OW79994   7.943   7.306   6.241
19919SOL    HW279995   7.975   7.394   6.219
19919SOL    HW379996   7.896   7.278   6.163
19919SOL    MW479997   7.942   7.314   6.228
19920SOL     OW79998   9.327   5.668   6.290
19920SOL    HW279999   9.381   5.619   6.352
19920SOL    HW380000   9.270   5.602   6.251
19920SOL    MW480001   9.327   5.652   6.292
19921SOL     OW80002   7.659   7.366   5.818
19921SOL    HW280003   7.688   7.456   5.810
19921SOL    HW380004   7.609   7.349   5.739
19921SOL    MW480005   7.657   7.374   5.807
19922SOL     OW80006   8.446   5.621   6.703
19922SOL    HW280007   8.405   5.699   6.665
19922SOL    HW380008   8.540   5.639   6.698
19922SOL    MW480009   8.452   5.633   6.698
19923SOL     OW80010   9.063   7.174   5.789
19923SOL    HW280011   9.111   7.243   5.835
19923SOL    HW380012   8.984   7.218   5.758
19923SOL    MW480013   9.058   7.188   5.792
19924SOL     OW80014   8.461   6.299   5.733
19924SOL    HW280015   8.463   6.246   5.654
19924SOL    HW380016   8.549   6.336   5.739
19924SOL    MW480017   8.473   6.298   5.722
19925SOL     OW80018   9.075   6.225   6.069
19925SOL    HW280019   9.114   6.225   6.156
19925SOL    HW380020   9.016   6.301   6.069
19925SOL    MW480021   9.072   6.236   6.080
19926SOL     OW80022   8.392   6.592   7.198
19926SOL    HW280023   8.369   6.572   7.288
19926SOL    HW380024   8.477   6.636   7.203
19926SOL    MW480025   8.399   6.595   7.210
19927SOL     OW80026   8.472   5.729   6.958
19927SOL    HW280027   8.478   5.691   6.871
19927SOL    HW380028   8.461   5.823   6.943
19927SOL    MW480029   8.473   5.737   6.946
19928SOL     OW80030   8.561   6.218   6.792
19928SOL    HW280031   8.636   6.247   6.739
19928SOL    HW380032   8.493   6.283   6.776
19928SOL    MW480033   8.562   6.230   6.782
19929SOL     OW80034   9.111   6.186   7.069
19929SOL    HW280035   9.092   6.095   7.048
19929SOL    HW380036   9.089   6.235   6.990
19929SOL    MW480037   9.106   6.179   7.056
19930SOL     OW80038   9.253   7.280   6.973
19930SOL    HW280039   9.181   7.242   7.024
19930SOL    HW380040   9.270   7.365   7.014
19930SOL    MW480041   9.247   7.285   6.985
19931SOL     OW80042   8.558   5.924   7.175
19931SOL    HW280043   8.524   5.963   7.094
19931SOL    HW380044   8.536   5.832   7.168
19931SOL    MW480045   8.551   5.917   7.165
19932SOL     OW80046   8.967   6.738   7.251
19932SOL    HW280047   9.049   6.779   7.281
19932SOL    HW380048   8.930   6.700   7.331
19932SOL    MW480049   8.973   6.739   7.266
19933SOL     OW80050   9.262   6.111   6.235
19933SOL    HW280051   9.351   6.080   6.252
19933SOL    HW380052   9.205   6.051   6.283
19933SOL    MW480053   9.265   6.099   6.244
19934SOL     OW80054   7.688   5.825   6.264
19934SOL    HW280055   7.679   5.765   6.190
19934SOL    HW380056   7.621   5.796   6.327
19934SOL    MW480057   7.678   5.812   6.262
19935SOL     OW80058   8.631   6.918   5.825
19935SOL    HW280059   8.581   6.920   5.907
19935SOL    HW380060   8.565   6.936   5.757
19935SOL    MW480061   8.617   6.920   5.827
19936SOL     OW80062   7.635   5.998   6.627
19936SOL    HW280063   7.607   6.089   6.636
19936SOL    HW380064   7.572   5.959   6.566
19936SOL    MW480065   7.622   6.004   6.621
19937SOL     OW80066   8.094   7.336   5.933
19937SOL    HW280067   8.015   7.294   5.966
19937SOL    HW380068   8.160   7.319   6.000
19937SOL    MW480069   8.093   7.328   5.946
19938SOL     OW80070   9.222   6.856   7.330
19938SOL    HW280071   9.272   6.782   7.362
19938SOL    HW380072   9.168   6.883   7.405
19938SOL    MW480073   9.222   6.850   7.343
19939SOL     OW80074   8.230   6.751   5.640
19939SOL    HW280075   8.152   6.697   5.627
19939SOL    HW380076   8.201   6.824   5.693
19939SOL    MW480077   8.216   6.753   5.645
19940SOL     OW80078   9.356   6.491   6.832
19940SOL    HW280079   9.372   6.529   6.745
19940SOL    HW380080   9.390   6.557   6.893
19940SOL    MW480081   9.363   6.504   6.828
19941SOL     OW80082   9.148   7.200   6.501
19941SOL    HW280083   9.177   7.267   6.562
19941SOL    HW380084   9.129   7.124   6.556
19941SOL    MW480085   9.150   7.200   6.516
19942SOL     OW80086   8.811   7.267   5.708
19942SOL    HW280087   8.737   7.230   5.758
19942SOL    HW380088   8.819   7.357   5.741
19942SOL    MW480089   8.802   7.274   5.720
19943SOL     OW80090   7.619   6.273   6.797
19943SOL    HW280091   7.681   6.303   6.863
19943SOL    HW380092   7.553   6.342   6.791
19943SOL    MW480093   7.618   6.286   6.804
19944SOL     OW80094   9.035   6.941   5.650
19944SOL    HW280095   8.982   6.990   5.586
19944SOL    HW380096   9.066   7.007   5.711
19944SOL    MW480097   9.033   6.955   5.648
19945SOL     OW80098   8.260   5.830   5.705
19945SOL    HW280099   8.208   5.750   5.693
19945SOL    HW380100   8.347   5.807   5.673
19945SOL    MW480101   8.263   5.816   5.699
19946SOL     OW80102   7.714   7.382   7.249
19946SOL    HW280103   7.688   7.450   7.187
19946SOL    HW380104   7.762   7.319   7.197
19946SOL    MW480105   7.716   7.382   7.235
19947SOL     OW80106   7.766   6.701   6.756
19947SOL    HW280107   7.819   6.776   6.781
19947SOL    HW380108   7.685   6.739   6.722
19947SOL    MW480109   7.762   6.716   6.756
19948SOL     OW80110   8.306   6.605   6.744
19948SOL    HW280111   8.334   6.514   6.756
19948SOL    HW380112   8.235   6.599   6.680
19948SOL    MW480113   8.299   6.593   6.739
19949SOL     OW80114   7.621   6.470   6.162
19949SOL    HW280115   7.712   6.485   6.189
19949SOL    HW380116   7.624   6.391   6.108
19949SOL    MW480117   7.633   6.462   6.160
19950SOL     OW80118   7.857   6.178   7.416
19950SOL    HW280119   7.804   6.258   7.423
19950SOL    HW380120   7.927   6.190   7.481
19950SOL    MW480121   7.859   6.191   7.424
19951SOL     OW80122   8.243   5.728   7.123
19951SOL    HW280123   8.220   5.636   7.125
19951SOL    HW380124   8.329   5.730   7.080
19951SOL    MW480125   8.250   5.718   7.119
19952SOL     OW80126   7.927   6.252   7.162
19952SOL    HW280127   8.007   6.302   7.148
19952SOL    HW380128   7.918   6.246   7.257
19952SOL    MW480129   7.936   6.258   7.172
19953SOL     OW80130   8.248   7.402   6.536
19953SOL    HW280131   8.337   7.417   6.566
19953SOL    HW380132   8.243   7.449   6.452
19953SOL    MW480133   8.258   7.410   6.529
19954SOL     OW80134   8.904   5.777   7.433
19954SOL    HW280135   8.960   5.704   7.459
19954SOL    HW380136   8.874   5.815   7.515
19954SOL    MW480137   8.908   5.772   7.446
19955SOL     OW80138   7.629   7.082   6.201
19955SOL    HW280139   7.601   7.121   6.283
19955SOL    HW380140   7.649   6.991   6.223
19955SOL    MW480141   7.627   7.074   6.214
19956SOL     OW80142   8.462   7.125   6.236
19956SOL    HW280143   8.545   7.079   6.220
19956SOL    HW380144   8.452   7.124   6.332
19956SOL    MW480145   8.472   7.118   6.246
19957SOL     OW80146   9.294   6.270   6.550
19957SOL    HW280147   9.383   6.300   6.532
19957SOL    HW380148   9.274   6.210   6.479
19957SOL    MW480149   9.303   6.267   6.539
19958SOL     OW80150   9.145   6.449   7.430
19958SOL    HW280151   9.200   6.373   7.411
19958SOL    HW380152   9.147   6.457   7.525
19958SOL    MW480153   9.153   6.440   7.438
19959SOL     OW80154   8.195   7.182   5.641
19959SOL    HW280155   8.135   7.251   5.611
19959SOL    HW380156   8.140   7.124   5.694
19959SOL    MW480157   8.179   7.184   5.643
19960SOL     OW80158   8.633   5.827   5.864
19960SOL    HW280159   8.566   5.803   5.801
19960SOL    HW380160   8.698   5.876   5.813
19960SOL    MW480161   8.633   5.829   5.849
19961SOL     OW80162   8.440   6.011   6.949
19961SOL    HW280163   8.359   6.052   6.977
19961SOL    HW380164   8.487   6.079   6.901
19961SOL    MW480165   8.435   6.026   6.947
19962SOL     OW80166   8.700   6.349   6.572
19962SOL    HW280167   8.713   6.443   6.582
19962SOL    HW380168   8.661   6.339   6.486
19962SOL    MW480169   8.696   6.360   6.562
19963SOL     OW80170   8.152   6.544   6.376
19963SOL    HW280171   8.063   6.535   6.409
19963SOL    HW380172   8.156   6.634   6.344
19963SOL    MW480173   8.141   6.555   6.376
19964SOL     OW80174   8.951   6.127   6.371
19964SOL    HW280175   8.896   6.048   6.370
19964SOL    HW380176   8.933   6.168   6.455
19964SOL    MW480177   8.941   6.122   6.380
19965SOL     OW80178   7.922   5.814   7.188
19965SOL    HW280179   7.843   5.832   7.240
19965SOL    HW380180   7.917   5.876   7.115
19965SOL    MW480181   7.912   5.824   7.185
19966SOL     OW80182   8.570   6.331   6.328
19966SOL    HW280183   8.507   6.263   6.352
19966SOL    HW380184   8.590   6.312   6.236
19966SOL    MW480185   8.564   6.318   6.320
19967SOL     OW80186   7.826   7.226   6.030
19967SOL    HW280187   7.787   7.273   5.956
19967SOL    HW380188   7.760   7.161   6.055
19967SOL    MW480189   7.813   7.224   6.024
19968SOL     OW80190   8.318   6.635   6.054
19968SOL    HW280191   8.320   6.609   5.961
19968SOL    HW380192   8.376   6.572   6.097
19968SOL    MW480193   8.326   6.624   6.048
19969SOL     OW80194   8.871   7.195   6.826
19969SOL    HW280195   8.796   7.241   6.864
19969SOL    HW380196   8.853   7.102   6.843
19969SOL    MW480197   8.860   7.189   6.834
19970SOL     OW80198   8.875   7.403   6.256
19970SOL    HW280199   8.818   7.356   6.195
19970SOL    HW380200   8.961   7.364   6.243
19970SOL    MW480201   8.878   7.394   6.246
19971SOL     OW80202   8.828   5.879   6.387
19971SOL    HW280203   8.856   5.811   6.448
19971SOL    HW380204   8.742   5.850   6.357
19971SOL    MW480205   8.821   5.866   6.391
19972SOL     OW80206   7.633   6.813   6.321
19972SOL    HW280207   7.697   6.845   6.384
19972SOL    HW380208   7.682   6.749   6.269
19972SOL    MW480209   7.648   6.809   6.322
19973SOL     OW80210   8.133   6.889   7.303
19973SOL    HW280211   8.181   6.972   7.290
19973SOL    HW380212   8.190   6.837   7.359
19973SOL    MW480213   8.147   6.893   7.309
19974SOL     OW80214   7.709   7.131   7.443
19974SOL    HW280215   7.765   7.055   7.458
19974SOL    HW380216   7.658   7.109   7.365
19974SOL    MW480217   7.709   7.118   7.434
19975SOL     OW80218   8.808   5.983   5.722
19975SOL    HW280219   8.781   6.049   5.658
19975SOL    HW380220   8.878   6.026   5.772
19975SOL    MW480221   8.813   5.996   5.719
19976SOL     OW80222   8.476   5.688   5.659
19976SOL    HW280223   8.532   5.680   5.581
19976SOL    HW380224   8.453   5.598   5.681
19976SOL    MW480225   8.481   5.675   5.652
19977SOL     OW80226   8.981   6.539   5.864
19977SOL    HW280227   8.948   6.628   5.854
19977SOL    HW380228   8.946   6.510   5.949
19977SOL    MW480229   8.971   6.548   5.875
19978SOL     OW80230   8.594   6.968   7.052
19978SOL    HW280231   8.505   6.974   7.020
19978SOL    HW380232   8.638   7.047   7.020
19978SOL    MW480233   8.589   6.978   7.044
19979SOL     OW80234   7.887   5.636   7.394
19979SOL    HW280235   7.815   5.601   7.342
19979SOL    HW380236   7.945   5.677   7.329
19979SOL    MW480237   7.885   5.637   7.379
19980SOL     OW80238   7.911   7.126   6.693
19980SOL    HW280239   7.956   7.188   6.750
19980SOL    HW380240   7.818   7.145   6.706
19980SOL    MW480241   7.904   7.136   6.700
19981SOL     OW80242   9.351   6.655   7.047
19981SOL    HW280243   9.266   6.668   7.006
19981SOL    HW380244   9.331   6.619   7.134
19981SOL    MW480245   9.338   6.651   7.052
19982SOL     OW80246   8.333   7.194   6.801
19982SOL    HW280247   8.357   7.183   6.710
19982SOL    HW380248   8.256   7.251   6.799
19982SOL    MW480249   8.325   7.199   6.790
19983SOL     OW80250   7.975   6.577   5.656
19983SOL    HW280251   7.898   6.590   5.712
19983SOL    HW380252   7.939   6.541   5.575
19983SOL    MW480253   7.961   6.573   5.653
19984SOL     OW80254   8.628   6.550   5.899
19984SOL    HW280255   8.538   6.571   5.874
19984SOL    HW380256   8.655   6.623   5.955
19984SOL    MW480257   8.620   6.562   5.902
19985SOL     OW80258   8.128   6.899   6.591
19985SOL    HW280259   8.121   6.878   6.685
19985SOL    HW380260   8.046   6.867   6.554
19985SOL    MW480261   8.116   6.893   6.598
19986SOL     OW80262   8.992   5.909   6.993
19986SOL    HW280263   8.939   5.911   7.073
19986SOL    HW380264   8.977   5.822   6.956
19986SOL    MW480265   8.984   5.899   6.998
19987SOL     OW80266   9.328   5.833   6.866
19987SOL    HW280267   9.309   5.900   6.801
19987SOL    HW380268   9.385   5.771   6.821
19987SOL    MW480269   9.332   5.834   6.852
19988SOL     OW80270   7.574   6.991   7.254
19988SOL    HW280271   7.618   6.924   7.200
19988SOL    HW380272   7.489   6.953   7.274
19988SOL    MW480273   7.569   6.977   7.250
19989SOL     OW80274   8.257   5.666   6.306
19989SOL    HW280275   8.186   5.727   6.288
19989SOL    HW380276   8.308   5.663   6.225
19989SOL    MW480277   8.253   5.672   6.293
19990SOL     OW80278   8.015   6.906   6.055
19990SOL    HW280279   8.008   6.938   6.145
19990SOL    HW380280   7.925   6.890   6.027
19990SOL    MW480281   8.003   6.908   6.062
19991SOL     OW80282   8.610   7.299   6.964
19991SOL    HW280283   8.530   7.284   6.914
19991SOL    HW380284   8.617   7.394   6.971
19991SOL    MW480285   8.601   7.310   6.958
19992SOL     OW80286   8.724   7.264   6.454
19992SOL    HW280287   8.771   7.337   6.413
19992SOL    HW380288   8.645   7.303   6.490
19992SOL    MW480289   8.719   7.279   6.453
19993SOL     OW80290   9.132   7.359   6.729
19993SOL    HW280291   9.175   7.329   6.809
19993SOL    HW380292   9.051   7.307   6.726
19993SOL    MW480293   9.127   7.348   6.739
19994SOL     OW80294   8.217   6.323   7.436
19994SOL    HW280295   8.287   6.265   7.408
19994SOL    HW380296   8.160   6.268   7.491
19994SOL    MW480297   8.219   6.310   7.440
19995SOL     OW80298   9.004   6.535   7.069
19995SOL    HW280299   9.009   6.588   7.149
19995SOL    HW380300   8.966   6.452   7.097
19995SOL    MW480301   9.000   6.530   7.084
19996SOL     OW80302   8.644   5.670   7.315
19996SOL    HW280303   8.639   5.577   7.296
19996SOL    HW380304   8.727   5.681   7.361
19996SOL    MW480305   8.652   5.659   7.319
19997SOL     OW80306   8.018   6.190   5.769
19997SOL    HW280307   7.984   6.246   5.839
19997SOL    HW380308   8.089   6.140   5.809
19997SOL    MW480309   8.024   6.191   5.783
19998SOL     OW80310   9.114   6.941   6.591
19998SOL    HW280311   9.149   6.923   6.504
19998SOL    HW380312   9.019   6.942   6.578
19998SOL    MW480313   9.106   6.938   6.578
19999SOL     OW80314   8.543   6.589   6.960
19999SOL    HW280315   8.586   6.624   7.038
19999SOL    HW380316   8.526   6.666   6.906
19999SOL    MW480317   8.546   6.604   6.963
20000SOL     OW80318   9.074   6.076   5.833
20000SOL    HW280319   9.066   6.147   5.770
20000SOL    HW380320   9.092   6.120   5.916
20000SOL    MW480321   9.075   6.090   5.835
20001SOL     OW80322   7.934   5.731   6.262
20001SOL    HW280323   7.984   5.774   6.193
20001SOL    HW380324   7.849   5.775   6.262
20001SOL    MW480325   7.931   5.744   6.253
20002SOL     OW80326   7.693   6.793   7.122
20002SOL    HW280327   7.721   6.746   7.200
20002SOL    HW380328   7.614   6.748   7.093
20002SOL    MW480329   7.686   6.782   7.128
20003SOL     OW80330   8.201   6.120   7.089
20003SOL    HW280331   8.173   6.208   7.113
20003SOL    HW380332   8.170   6.064   7.160
20003SOL    MW480333   8.193   6.123   7.101
20004SOL     OW80334   8.743   6.338   5.808
20004SOL    HW280335   8.790   6.356   5.727
20004SOL    HW380336   8.709   6.422   5.836
20004SOL    MW480337   8.745   6.352   5.801
20005SOL     OW80338   7.856   6.516   6.302
20005SOL    HW280339   7.914   6.572   6.250
20005SOL    HW380340   7.900   6.431   6.304
20005SOL    MW480341   7.869   6.513   6.295
20006SOL     OW80342   8.996   5.868   6.139
20006SOL    HW280343   8.918   5.818   6.164
20006SOL    HW380344   8.967   5.959   6.139
20006SOL    MW480345   8.982   5.872   6.142
20007SOL     OW80346   8.582   5.830   6.298
20007SOL    HW280347   8.602   5.905   6.242
20007SOL    HW380348   8.562   5.869   6.383
20007SOL    MW480349   8.583   5.846   6.302
20008SOL     OW80350   8.478   7.080   5.630
20008SOL    HW280351   8.505   7.158   5.582
20008SOL    HW380352   8.385   7.095   5.649
20008SOL    MW480353   8.469   7.093   5.626
20009SOL     OW80354   9.342   6.603   7.317
20009SOL    HW280355   9.255   6.583   7.353
20009SOL    HW380356   9.396   6.529   7.342
20009SOL    MW480357   9.337   6.592   7.325
20010SOL     OW80358   7.563   7.116   6.474
20010SOL    HW280359   7.595   7.120   6.565
20010SOL    HW380360   7.468   7.124   6.482
20010SOL    MW480361   7.555   7.119   6.487
20011SOL     OW80362   7.518   6.242   6.021
20011SOL    HW280363   7.458   6.214   6.091
20011SOL    HW380364   7.592   6.182   6.027
20011SOL    MW480365   7.520   6.231   6.030
20012SOL     OW80366   9.086   7.454   7.455
20012SOL    HW280367   9.131   7.378   7.420
20012SOL    HW380368   9.124   7.467   7.542
20012SOL    MW480369   9.096   7.447   7.461
20013SOL     OW80370   8.686   6.973   6.181
20013SOL    HW280371   8.709   6.924   6.259
20013SOL    HW380372   8.767   7.015   6.153
20013SOL    MW480373   8.699   6.973   6.188
20014SOL     OW80374   7.944   5.981   6.910
20014SOL    HW280375   7.977   6.062   6.950
20014SOL    HW380376   7.917   6.007   6.822
20014SOL    MW480377   7.943   5.995   6.904
20015SOL     OW80378   7.898   5.948   6.646
20015SOL    HW280379   7.928   5.862   6.617
20015SOL    HW380380   7.803   5.941   6.649
20015SOL    MW480381   7.890   5.937   6.644
20016SOL     OW80382   8.727   6.157   7.337
20016SOL    HW280383   8.779   6.092   7.290
20016SOL    HW380384   8.685   6.208   7.267
20016SOL    MW480385   8.728   6.154   7.320
20017SOL     OW80386   8.826   5.952   7.198
20017SOL    HW280387   8.733   5.936   7.185
20017SOL    HW380388   8.852   5.890   7.266
20017SOL    MW480389   8.816   5.942   7.205
20018SOL     OW80390   8.041   5.726   6.537
20018SOL    HW280391   8.051   5.635   6.563
20018SOL    HW380392   7.997   5.722   6.452
20018SOL    MW480393   8.037   5.714   6.529
20019SOL     OW80394   9.192   6.048   6.708
20019SOL    HW280395   9.125   6.081   6.768
20019SOL    HW380396   9.235   6.126   6.674
20019SOL    MW480397   9.190   6.063   6.712
20020SOL     OW80398   9.370   6.768   6.678
20020SOL    HW280399   9.363   6.708   6.603
20020SOL    HW380400   9.296   6.828   6.667
20020SOL    MW480401   9.360   6.768   6.667
20021SOL     OW80402   8.752   6.630   6.596
20021SOL    HW280403   8.766   6.602   6.687
20021SOL    HW380404   8.838   6.661   6.568
20021SOL    MW480405   8.765   6.631   6.605
20022SOL     OW80406   8.835   6.125   6.875
20022SOL    HW280407   8.856   6.126   6.782
20022SOL    HW380408   8.880   6.047   6.908
20022SOL    MW480409   8.842   6.115   6.867
20023SOL     OW80410   9.328   6.256   7.417
20023SOL    HW280411   9.365   6.201   7.486
20023SOL    HW380412   9.353   6.213   7.335
20023SOL    MW480413   9.335   6.244   7.416
20024SOL     OW80414   8.875   6.554   7.468
20024SOL    HW280415   8.941   6.502   7.422
20024SOL    HW380416   8.895   6.541   7.561
20024SOL    MW480417   8.886   6.545   7.475
20025SOL     OW80418   8.826   5.640   5.817
20025SOL    HW280419   8.900   5.684   5.860
20025SOL    HW380420   8.750   5.694   5.839
20025SOL    MW480421   8.826   5.652   5.825
20026SOL     OW80422   8.886   6.415   6.095
20026SOL    HW280423   8.801   6.385   6.065
20026SOL    HW380424   8.878   6.422   6.190
20026SOL    MW480425   8.874   6.413   6.104
20027SOL     OW80426   7.962   6.878   6.826
20027SOL    HW280427   7.974   6.905   6.917
20027SOL    HW380428   7.943   6.959   6.779
20027SOL    MW480429   7.961   6.893   6.831
20028SOL     OW80430   8.246   5.858   6.649
20028SOL    HW280431   8.219   5.860   6.740
20028SOL    HW380432   8.176   5.810   6.604
20028SOL    MW480433   8.234   5.854   6.656
20029SOL     OW80434   8.100   7.350   6.811
20029SOL    HW280435   8.152   7.427   6.788
20029SOL    HW380436   8.109   7.342   6.906
20029SOL    MW480437   8.109   7.357   6.822
20030SOL     OW80438   9.002   6.935   7.043
20030SOL    HW280439   8.987   6.864   7.106
20030SOL    HW380440   9.048   6.893   6.971
20030SOL    MW480441   9.008   6.919   7.043
20031SOL     OW80442   8.076   6.666   7.160
20031SOL    HW280443   8.113   6.671   7.072
20031SOL    HW380444   8.115   6.739   7.207
20031SOL    MW480445   8.086   6.676   7.155
20032SOL     OW80446   8.256   6.709   6.972
20032SOL    HW280447   8.315   6.655   7.025
20032SOL    HW380448   8.271   6.681   6.882
20032SOL    MW480449   8.266   6.698   6.968
20033SOL     OW80450   8.259   6.081   5.821
20033SOL    HW280451   8.332   6.130   5.784
20033SOL    HW380452   8.275   5.990   5.795
20033SOL    MW480453   8.271   6.076   5.814
20034SOL     OW80454   9.067   7.198   7.144
20034SOL    HW280455   9.109   7.183   7.229
20034SOL    HW380456   9.058   7.111   7.106
20034SOL    MW480457   9.071   7.186   7.151
20035SOL     OW80458   8.727   5.677   6.735
20035SOL    HW280459   8.782   5.686   6.657
20035SOL    HW380460   8.782   5.711   6.806
20035SOL    MW480461   8.741   5.682   6.734
20036SOL     OW80462   7.734   6.590   5.919
20036SOL    HW280463   7.671   6.606   5.848
20036SOL    HW380464   7.681   6.553   5.990
20036SOL    MW480465   7.719   6.587   5.919
20037SOL     OW80466   8.090   6.944   5.778
20037SOL    HW280467   8.105   6.920   5.870
20037SOL    HW380468   7.998   6.922   5.762
20037SOL    MW480469   8.080   6.937   5.788
20038SOL     OW80470   8.629   7.175   5.930
20038SOL    HW280471   8.637   7.093   5.881
20038SOL    HW380472   8.548   7.214   5.897
20038SOL    MW480473   8.619   7.170   5.920
20039SOL     OW80474   7.888   7.333   6.499
20039SOL    HW280475   7.892   7.244   6.534
20039SOL    HW380476   7.914   7.324   6.408
20039SOL    MW480477   7.891   7.321   6.491
20040SOL     OW80478   8.505   6.811   6.742
20040SOL    HW280479   8.437   6.745   6.758
20040SOL    HW380480   8.523   6.805   6.649
20040SOL    MW480481   8.498   6.802   6.733
20041SOL     OW80482   7.594   7.086   6.993
20041SOL    HW280483   7.584   7.044   7.079
20041SOL    HW380484   7.515   7.139   6.983
20041SOL    MW480485   7.583   7.087   7.004
20042SOL     OW80486   8.498   5.950   6.563
20042SOL    HW280487   8.428   5.902   6.608
20042SOL    HW380488   8.530   6.013   6.627
20042SOL    MW480489   8.493   5.952   6.577
20043SOL     OW80490   8.149   6.386   7.183
20043SOL    HW280491   8.142   6.481   7.171
20043SOL    HW380492   8.158   6.375   7.278
20043SOL    MW480493   8.150   6.398   7.193
20044SOL     OW80494   7.870   6.901   7.441
20044SOL    HW280495   7.942   6.903   7.378
20044SOL    HW380496   7.840   6.810   7.440
20044SOL    MW480497   7.875   6.890   7.433
20045SOL     OW80498   8.954   5.664   6.908
20045SOL    HW280499   9.025   5.610   6.872
20045SOL    HW380500   8.953   5.643   7.001
20045SOL    MW480501   8.963   5.655   6.916
20046SOL     OW80502   9.154   7.194   7.392
20046SOL    HW280503   9.127   7.191   7.483
20046SOL    HW380504   9.250   7.198   7.395
20046SOL    MW480505   9.164   7.194   7.404
20047SOL     OW80506   7.965   6.056   6.376
20047SOL    HW280507   8.036   6.004   6.339
20047SOL    HW380508   7.951   6.021   6.463
20047SOL    MW480509   7.973   6.045   6.383
20048SOL     OW80510   7.520   7.391   7.448
20048SOL    HW280511   7.570   7.369   7.370
20048SOL    HW380512   7.528   7.486   7.456
20048SOL    MW480513   7.528   7.400   7.439
20049SOL     OW80514   8.281   7.149   6.452
20049SOL    HW280515   8.209   7.086   6.465
20049SOL    HW380516   8.242   7.234   6.470
20049SOL    MW480517   8.265   7.152   6.455
20050SOL     OW80518   8.601   5.997   6.100
20050SOL    HW280519   8.623   5.934   6.032
20050SOL    HW380520   8.506   5.989   6.111
20050SOL    MW480521   8.591   5.988   6.092
20051SOL     OW80522   7.686   5.687   6.032
20051SOL    HW280523   7.757   5.708   5.971
20051SOL    HW380524   7.640   5.615   5.990
20051SOL    MW480525   7.690   5.681   6.018
20052SOL     OW80526   7.517   6.154   7.175
20052SOL    HW280527   7.581   6.220   7.150
20052SOL    HW380528   7.436   6.181   7.132
20052SOL    MW480529   7.515   6.166   7.167
20053SOL     OW80530   9.255   7.061   6.132
20053SOL    HW280531   9.225   6.994   6.193
20053SOL    HW380532   9.349   7.067   6.146
20053SOL    MW480533   9.263   7.053   6.142
20054SOL     OW80534   8.811   6.738   6.062
20054SOL    HW280535   8.783   6.824   6.095
20054SOL    HW380536   8.839   6.754   5.972
20054SOL    MW480537   8.811   6.752   6.054
20055SOL     OW80538   8.473   5.658   6.115
20055SOL    HW280539   8.510   5.717   6.180
20055SOL    HW380540   8.450   5.714   6.041
20055SOL    MW480541   8.474   5.673   6.114
20056SOL     OW80542   9.326   6.540   6.537
20056SOL    HW280543   9.317   6.572   6.448
20056SOL    HW380544   9.279   6.456   6.537
20056SOL    MW480545   9.319   6.533   6.527
20057SOL     OW80546   7.702   6.380   7.116
20057SOL    HW280547   7.723   6.449   7.054
20057SOL    HW380548   7.782   6.327   7.121
20057SOL    MW480549   7.715   6.381   7.110
20058SOL     OW80550   7.687   6.395   7.383
20058SOL    HW280551   7.613   6.339   7.409
20058SOL    HW380552   7.682   6.398   7.288
20058SOL    MW480553   7.676   6.388   7.373
20059SOL     OW80554   7.853   5.682   6.833
20059SOL    HW280555   7.896   5.766   6.853
20059SOL    HW380556   7.926   5.620   6.826
20059SOL    MW480557   7.868   5.685   6.834
20060SOL     OW80558   7.894   6.349   6.011
20060SOL    HW280559   7.894   6.444   5.996
20060SOL    HW380560   7.971   6.333   6.065
20060SOL    MW480561   7.904   6.360   6.016
20061SOL     OW80562   8.670   6.208   7.075
20061SOL    HW280563   8.706   6.181   6.991
20061SOL    HW380564   8.583   6.242   7.054
20061SOL    MW480565   8.664   6.209   7.062
20062SOL     OW80566   9.200   7.420   5.832
20062SOL    HW280567   9.267   7.453   5.772
20062SOL    HW380568   9.157   7.499   5.866
20062SOL    MW480569   9.202   7.435   5.828
20063SOL     OW80570   8.335   6.341   6.784
20063SOL    HW280571   8.293   6.259   6.760
20063SOL    HW380572   8.336   6.340   6.880
20063SOL    MW480573   8.328   6.330   6.793
20064SOL     OW80574   9.006   7.474   7.183
20064SOL    HW280575   9.009   7.380   7.166
20064SOL    HW380576   9.029   7.482   7.275
20064SOL    MW480577   9.009   7.462   7.193
20065SOL     OW80578   8.139   5.811   6.889
20065SOL    HW280579   8.070   5.874   6.910
20065SOL    HW380580   8.166   5.775   6.974
20065SOL    MW480581   8.133   5.814   6.902
20066SOL     OW80582   7.522   6.652   5.758
20066SOL    HW280583   7.491   6.717   5.821
20066SOL    HW380584   7.471   6.574   5.777
20066SOL    MW480585   7.512   6.649   5.768
20067SOL     OW80586   8.934   5.664   6.506
20067SOL    HW280587   9.022   5.673   6.543
20067SOL    HW380588   8.944   5.605   6.432
20067SOL    MW480589   8.948   5.658   6.500
20068SOL     OW80590   8.966   6.403   6.350
20068SOL    HW280591   9.046   6.418   6.299
20068SOL    HW380592   8.959   6.308   6.356
20068SOL    MW480593   8.975   6.392   6.345
20069SOL     OW80594   8.106   7.452   5.700
20069SOL    HW280595   8.011   7.452   5.692
20069SOL    HW380596   8.122   7.398   5.778
20069SOL    MW480597   8.096   7.446   5.709
20070SOL     OW80598   8.416   6.329   7.047
20070SOL    HW280599   8.485   6.396   7.044
20070SOL    HW380600   8.349   6.367   7.103
20070SOL    MW480601   8.417   6.342   7.054
20071SOL     OW80602   7.834   6.629   7.295
20071SOL    HW280603   7.788   6.545   7.297
20071SOL    HW380604   7.891   6.623   7.219
20071SOL    MW480605   7.836   6.617   7.287
20072SOL     OW80606   8.951   6.272   5.615
20072SOL    HW280607   8.879   6.248   5.557
20072SOL    HW380608   9.017   6.309   5.557
20072SOL    MW480609   8.950   6.274   5.600
20073SOL     OW80610   8.085   7.004   6.296
20073SOL    HW280611   8.150   6.937   6.317
20073SOL    HW380612   8.137   7.081   6.273
20073SOL    MW480613   8.100   7.006   6.295
20074SOL     OW80614   8.346   6.169   6.426
20074SOL    HW280615   8.286   6.187   6.498
20074SOL    HW380616   8.380   6.081   6.445
20074SOL    MW480617   8.342   6.159   6.439
20075SOL     OW80618   9.287   5.668   7.095
20075SOL    HW280619   9.208   5.714   7.123
20075SOL    HW380620   9.322   5.722   7.024
20075SOL    MW480621   9.281   5.681   7.089
20076SOL     OW80622   8.571   6.752   6.445
20076SOL    HW280623   8.663   6.733   6.463
20076SOL    HW380624   8.544   6.682   6.385
20076SOL    MW480625   8.579   6.740   6.439
20077SOL     OW80626   8.364   6.572   5.800
20077SOL    HW280627   8.350   6.484   5.765
20077SOL    HW380628   8.315   6.629   5.741
20077SOL    MW480629   8.356   6.567   5.788
20078SOL     OW80630   8.845   6.990   6.541
20078SOL    HW280631   8.818   7.074   6.506
20078SOL    HW380632   8.805   6.985   6.628
20078SOL    MW480633   8.838   6.999   6.547
20079SOL     OW80634   8.764   6.938   6.809
20079SOL    HW280635   8.775   6.905   6.898
20079SOL    HW380636   8.683   6.897   6.778
20079SOL    MW480637   8.754   6.930   6.815
20080SOL     OW80638   7.777   6.296   6.579
20080SOL    HW280639   7.727   6.295   6.660
20080SOL    HW380640   7.797   6.388   6.563
20080SOL    MW480641   7.773   6.308   6.587
20081SOL     OW80642   8.844   7.060   7.341
20081SOL    HW280643   8.844   7.154   7.357
20081SOL    HW380644   8.889   7.050   7.257
20081SOL    MW480645   8.850   7.070   7.332
20082SOL     OW80646   9.083   5.778   5.902
20082SOL    HW280647   9.076   5.782   5.997
20082SOL    HW380648   9.095   5.869   5.875
20082SOL    MW480649   9.084   5.791   5.910
20083SOL     OW80650   8.372   6.341   6.016
20083SOL    HW280651   8.352   6.327   5.923
20083SOL    HW380652   8.465   6.320   6.023
20083SOL    MW480653   8.382   6.336   6.005
20084SOL     OW80654   7.699   5.964   7.320
20084SOL    HW280655   7.656   6.023   7.257
20084SOL    HW380656   7.767   6.019   7.360
20084SOL    MW480657   7.703   5.979   7.317
20085SOL     OW80658   8.811   6.584   6.865
20085SOL    HW280659   8.874   6.581   6.938
20085SOL    HW380660   8.727   6.602   6.907
20085SOL    MW480661   8.807   6.586   6.880
20086SOL     OW80662   8.355   7.299   6.054
20086SOL    HW280663   8.413   7.370   6.081
20086SOL    HW380664   8.378   7.227   6.112
20086SOL    MW480665   8.366   7.299   6.065
20087SOL     OW80666   9.150   5.761   6.644
20087SOL    HW280667   9.195   5.679   6.663
20087SOL    HW380668   9.170   5.817   6.720
20087SOL    MW480669   9.160   5.757   6.656
20088SOL     OW80670   7.598   5.604   6.743
20088SOL    HW280671   7.589   5.605   6.648
20088SOL    HW380672   7.692   5.616   6.758
20088SOL    MW480673   7.610   5.607   6.734
20089SOL     OW80674   9.235   6.797   6.363
20089SOL    HW280675   9.214   6.743   6.286
20089SOL    HW380676   9.331   6.795   6.367
20089SOL    MW480677   9.244   6.790   6.352
20090SOL     OW80678   7.927   6.942   7.106
20090SOL    HW280679   7.848   6.892   7.129
20090SOL    HW380680   7.997   6.901   7.156
20090SOL    MW480681   7.925   6.930   7.116
20091SOL     OW80682   7.811   5.731   5.789
20091SOL    HW280683   7.740   5.786   5.757
20091SOL    HW380684   7.853   5.697   5.710
20091SOL    MW480685   7.807   5.733   5.775
20092SOL     OW80686   8.935   6.228   6.625
20092SOL    HW280687   8.858   6.274   6.591
20092SOL    HW380688   8.992   6.297   6.659
20092SOL    MW480689   8.932   6.243   6.625
20093SOL     OW80690   7.567   5.830   5.638
20093SOL    HW280691   7.534   5.909   5.682
20093SOL    HW380692   7.622   5.863   5.567
20093SOL    MW480693   7.570   5.844   5.635
20094SOL     OW80694   7.601   7.087   5.827
20094SOL    HW280695   7.618   7.171   5.869
20094SOL    HW380696   7.636   7.096   5.739
20094SOL    MW480697   7.606   7.100   5.821
20095SOL     OW80698   8.873   7.176   6.044
20095SOL    HW280699   8.936   7.166   5.973
20095SOL    HW380700   8.790   7.196   5.999
20095SOL    MW480701   8.870   7.177   6.029
20096SOL     OW80702   8.869   1.170   7.705
20096SOL    HW280703   8.787   1.206   7.671
20096SOL    HW380704   8.937   1.213   7.654
20096SOL    MW480705   8.867   1.180   7.693
20097SOL     OW80706   7.659   1.761   7.713
20097SOL    HW280707   7.688   1.851   7.705
20097SOL    HW380708   7.609   1.744   7.634
20097SOL    MW480709   7.657   1.769   7.702
20098SOL     OW80710   9.063   1.569   7.684
20098SOL    HW280711   9.111   1.638   7.730
20098SOL    HW380712   8.984   1.613   7.653
20098SOL    MW480713   9.058   1.583   7.687
20099SOL     OW80714   8.631   1.313   7.720
20099SOL    HW280715   8.581   1.315   7.802
20099SOL    HW380716   8.565   1.331   7.652
20099SOL    MW480717   8.617   1.315   7.722
20100SOL     OW80718   8.094   1.731   7.828
20100SOL    HW280719   8.015   1.689   7.861
20100SOL    HW380720   8.160   1.714   7.895
20100SOL    MW480721   8.093   1.723   7.841
20101SOL     OW80722   8.230   1.146   7.535
20101SOL    HW280723   8.152   1.092   7.522
20101SOL    HW380724   8.201   1.219   7.588
20101SOL    MW480725   8.216   1.148   7.540
20102SOL     OW80726   8.811   1.662   7.603
20102SOL    HW280727   8.737   1.625   7.653
20102SOL    HW380728   8.819   1.752   7.636
20102SOL    MW480729   8.802   1.669   7.615
20103SOL     OW80730   9.035   1.336   7.545
20103SOL    HW280731   8.982   1.385   7.481
20103SOL    HW380732   9.066   1.402   7.606
20103SOL    MW480733   9.033   1.350   7.543
20104SOL     OW80734   8.195   1.577   7.536
20104SOL    HW280735   8.135   1.646   7.506
20104SOL    HW380736   8.140   1.519   7.589
20104SOL    MW480737   8.179   1.579   7.538
20105SOL     OW80738   8.808   0.378   7.617
20105SOL    HW280739   8.781   0.444   7.553
20105SOL    HW380740   8.878   0.421   7.667
20105SOL    MW480741   8.813   0.391   7.614
20106SOL     OW80742   7.975   0.972   7.551
20106SOL    HW280743   7.898   0.985   7.607
20106SOL    HW380744   7.939   0.936   7.470
20106SOL    MW480745   7.961   0.968   7.548
20107SOL     OW80746   9.074   0.471   7.728
20107SOL    HW280747   9.066   0.542   7.665
20107SOL    HW380748   9.092   0.515   7.811
20107SOL    MW480749   9.075   0.485   7.730
20108SOL     OW80750   8.743   0.733   7.703
20108SOL    HW280751   8.790   0.751   7.622
20108SOL    HW380752   8.709   0.817   7.731
20108SOL    MW480753   8.745   0.747   7.696
20109SOL     OW80754   8.478   1.475   7.525
20109SOL    HW280755   8.505   1.553   7.477
20109SOL    HW380756   8.385   1.490   7.544
20109SOL    MW480757   8.469   1.488   7.521
20110SOL     OW80758   9.200   1.815   7.727
20110SOL    HW280759   9.267   1.848   7.667
20110SOL    HW380760   9.157   1.894   7.761
20110SOL    MW480761   9.202   1.830   7.723
20111SOL     OW80762   8.106   1.847   7.595
20111SOL    HW280763   8.011   1.847   7.587
20111SOL    HW380764   8.122   1.793   7.673
20111SOL    MW480765   8.096   1.841   7.604
20112SOL     OW80766   8.951   0.667   7.511
20112SOL    HW280767   8.879   0.643   7.453
20112SOL    HW380768   9.017   0.704   7.453
20112SOL    MW480769   8.950   0.669   7.496
20113SOL     OW80770   8.364   0.967   7.695
20113SOL    HW280771   8.350   0.879   7.660
20113SOL    HW380772   8.315   1.024   7.636
20113SOL    MW480773   8.356   0.962   7.683
20114SOL     OW80774   7.567   0.225   7.533
20114SOL    HW280775   7.534   0.304   7.577
20114SOL    HW380776   7.622   0.258   7.462
20114SOL    MW480777   7.570   0.239   7.530
20115SOL     OW80778   8.869   3.038   7.705
20115SOL    HW280779   8.787   3.074   7.671
20115SOL    HW380780   8.937   3.081   7.654
20115SOL    MW480781   8.867   3.048   7.693
20116SOL     OW80782   7.659   3.629   7.713
20116SOL    HW280783   7.688   3.719   7.705
20116SOL    HW380784   7.609   3.612   7.634
20116SOL    MW480785   7.657   3.637   7.702
20117SOL     OW80786   9.063   3.437   7.684
20117SOL    HW280787   9.111   3.506   7.730
20117SOL    HW380788   8.984   3.481   7.653
20117SOL    MW480789   9.058   3.451   7.687
20118SOL     OW80790   8.631   3.181   7.720
20118SOL    HW280791   8.581   3.183   7.802
20118SOL    HW380792   8.565   3.199   7.652
20118SOL    MW480793   8.617   3.183   7.722
20119SOL     OW80794   8.230   3.014   7.535
20119SOL    HW280795   8.152   2.960   7.522
20119SOL    HW380796   8.201   3.087   7.588
20119SOL    MW480797   8.216   3.016   7.540
20120SOL     OW80798   8.811   3.530   7.603
20120SOL    HW280799   8.737   3.493   7.653
20120SOL    HW380800   8.819   3.620   7.636
20120SOL    MW480801   8.802   3.537   7.615
20121SOL     OW80802   9.035   3.204   7.545
20121SOL    HW280803   8.982   3.253   7.481
20121SOL    HW380804   9.066   3.270   7.606
20121SOL    MW480805   9.033   3.218   7.543
20122SOL     OW80806   8.260   2.093   7.600
20122SOL    HW280807   8.208   2.013   7.588
20122SOL    HW380808   8.347   2.070   7.568
20122SOL    MW480809   8.263   2.079   7.594
20123SOL     OW80810   8.195   3.445   7.536
20123SOL    HW280811   8.135   3.514   7.506
20123SOL    HW380812   8.140   3.387   7.589
20123SOL    MW480813   8.179   3.447   7.538
20124SOL     OW80814   8.808   2.246   7.617
20124SOL    HW280815   8.781   2.312   7.553
20124SOL    HW380816   8.878   2.289   7.667
20124SOL    MW480817   8.813   2.259   7.614
20125SOL     OW80818   7.975   2.840   7.551
20125SOL    HW280819   7.898   2.853   7.607
20125SOL    HW380820   7.939   2.804   7.470
20125SOL    MW480821   7.961   2.836   7.548
20126SOL     OW80822   9.074   2.339   7.728
20126SOL    HW280823   9.066   2.410   7.665
20126SOL    HW380824   9.092   2.383   7.811
20126SOL    MW480825   9.075   2.353   7.730
20127SOL     OW80826   8.743   2.601   7.703
20127SOL    HW280827   8.790   2.619   7.622
20127SOL    HW380828   8.709   2.685   7.731
20127SOL    MW480829   8.745   2.615   7.696
20128SOL     OW80830   8.478   3.343   7.525
20128SOL    HW280831   8.505   3.421   7.477
20128SOL    HW380832   8.385   3.358   7.544
20128SOL    MW480833   8.469   3.356   7.521
20129SOL     OW80834   8.826   1.903   7.712
20129SOL    HW280835   8.900   1.947   7.755
20129SOL    HW380836   8.750   1.957   7.734
20129SOL    MW480837   8.826   1.915   7.720
20130SOL     OW80838   8.106   3.715   7.595
20130SOL    HW280839   8.011   3.715   7.587
20130SOL    HW380840   8.122   3.661   7.673
20130SOL    MW480841   8.096   3.709   7.604
20131SOL     OW80842   8.951   2.535   7.511
20131SOL    HW280843   8.879   2.511   7.453
20131SOL    HW380844   9.017   2.572   7.453
20131SOL    MW480845   8.950   2.537   7.496
20132SOL     OW80846   8.364   2.835   7.695
20132SOL    HW280847   8.350   2.747   7.660
20132SOL    HW380848   8.315   2.892   7.636
20132SOL    MW480849   8.356   2.830   7.683
20133SOL     OW80850   7.811   1.994   7.684
20133SOL    HW280851   7.740   2.049   7.652
20133SOL    HW380852   7.853   1.960   7.605
20133SOL    MW480853   7.807   1.996   7.670
20134SOL     OW80854   7.567   2.093   7.533
20134SOL    HW280855   7.534   2.172   7.577
20134SOL    HW380856   7.622   2.126   7.462
20134SOL    MW480857   7.570   2.107   7.530
20135SOL     OW80858   8.869   4.906   7.705
20135SOL    HW280859   8.787   4.942   7.671
20135SOL    HW380860   8.937   4.949   7.654
20135SOL    MW480861   8.867   4.916   7.693
20136SOL     OW80862   8.421   5.047   7.898
20136SOL    HW280863   8.398   5.109   7.966
20136SOL    HW380864   8.378   4.965   7.924
20136SOL    MW480865   8.413   5.043   7.909
20137SOL     OW80866   8.415   5.444   7.681
20137SOL    HW280867   8.370   5.460   7.764
20137SOL    HW380868   8.346   5.409   7.623
20137SOL    MW480869   8.401   5.441   7.683
20138SOL     OW80870   7.659   5.497   7.713
20138SOL    HW280871   7.688   5.587   7.705
20138SOL    HW380872   7.609   5.480   7.634
20138SOL    MW480873   7.657   5.505   7.702
20139SOL     OW80874   9.063   5.305   7.684
20139SOL    HW280875   9.111   5.374   7.730
20139SOL    HW380876   8.984   5.349   7.653
20139SOL    MW480877   9.058   5.319   7.687
20140SOL     OW80878   8.461   4.430   7.628
20140SOL    HW280879   8.463   4.377   7.549
20140SOL    HW380880   8.549   4.467   7.634
20140SOL    MW480881   8.473   4.429   7.617
20141SOL     OW80882   8.230   4.882   7.535
20141SOL    HW280883   8.152   4.828   7.522
20141SOL    HW380884   8.201   4.955   7.588
20141SOL    MW480885   8.216   4.884   7.540
20142SOL     OW80886   9.035   5.072   7.545
20142SOL    HW280887   8.982   5.121   7.481
20142SOL    HW380888   9.066   5.138   7.606
20142SOL    MW480889   9.033   5.086   7.543
20143SOL     OW80890   8.260   3.961   7.600
20143SOL    HW280891   8.208   3.881   7.588
20143SOL    HW380892   8.347   3.938   7.568
20143SOL    MW480893   8.263   3.947   7.594
20144SOL     OW80894   8.195   5.313   7.536
20144SOL    HW280895   8.135   5.382   7.506
20144SOL    HW380896   8.140   5.255   7.589
20144SOL    MW480897   8.179   5.315   7.538
20145SOL     OW80898   8.633   3.958   7.759
20145SOL    HW280899   8.566   3.934   7.696
20145SOL    HW380900   8.698   4.007   7.708
20145SOL    MW480901   8.633   3.960   7.744
20146SOL     OW80902   8.808   4.114   7.617
20146SOL    HW280903   8.781   4.180   7.553
20146SOL    HW380904   8.878   4.157   7.667
20146SOL    MW480905   8.813   4.127   7.614
20147SOL     OW80906   7.975   4.708   7.551
20147SOL    HW280907   7.898   4.721   7.607
20147SOL    HW380908   7.939   4.672   7.470
20147SOL    MW480909   7.961   4.704   7.548
20148SOL     OW80910   8.628   4.681   7.794
20148SOL    HW280911   8.538   4.702   7.769
20148SOL    HW380912   8.655   4.754   7.850
20148SOL    MW480913   8.620   4.693   7.797
20149SOL     OW80914   9.074   4.207   7.728
20149SOL    HW280915   9.066   4.278   7.665
20149SOL    HW380916   9.092   4.251   7.811
20149SOL    MW480917   9.075   4.221   7.730
20150SOL     OW80918   8.743   4.469   7.703
20150SOL    HW280919   8.790   4.487   7.622
20150SOL    HW380920   8.709   4.553   7.731
20150SOL    MW480921   8.745   4.483   7.696
20151SOL     OW80922   8.478   5.211   7.525
20151SOL    HW280923   8.505   5.289   7.477
20151SOL    HW380924   8.385   5.226   7.544
20151SOL    MW480925   8.469   5.224   7.521
20152SOL     OW80926   8.826   3.771   7.712
20152SOL    HW280927   8.900   3.815   7.755
20152SOL    HW380928   8.750   3.825   7.734
20152SOL    MW480929   8.826   3.783   7.720
20153SOL     OW80930   8.886   4.546   7.990
20153SOL    HW280931   8.801   4.516   7.960
20153SOL    HW380932   8.878   4.553   8.085
20153SOL    MW480933   8.874   4.544   7.999
20154SOL     OW80934   8.259   4.212   7.716
20154SOL    HW280935   8.332   4.261   7.679
20154SOL    HW380936   8.275   4.121   7.690
20154SOL    MW480937   8.271   4.207   7.709
20155SOL     OW80938   8.090   5.075   7.673
20155SOL    HW280939   8.105   5.051   7.765
20155SOL    HW380940   7.998   5.053   7.657
20155SOL    MW480941   8.080   5.068   7.683
20156SOL     OW80942   9.200   5.551   7.727
20156SOL    HW280943   9.267   5.584   7.667
20156SOL    HW380944   9.157   5.630   7.761
20156SOL    MW480945   9.202   5.566   7.723
20157SOL     OW80946   8.106   5.583   7.595
20157SOL    HW280947   8.011   5.583   7.587
20157SOL    HW380948   8.122   5.529   7.673
20157SOL    MW480949   8.096   5.577   7.604
20158SOL     OW80950   8.951   4.403   7.511
20158SOL    HW280951   8.879   4.379   7.453
20158SOL    HW380952   9.017   4.440   7.453
20158SOL    MW480953   8.950   4.405   7.496
20159SOL     OW80954   7.811   3.862   7.684
20159SOL    HW280955   7.740   3.917   7.652
20159SOL    HW380956   7.853   3.828   7.605
20159SOL    MW480957   7.807   3.864   7.670
20160SOL     OW80958   7.567   3.961   7.533
20160SOL    HW280959   7.534   4.040   7.577
20160SOL    HW380960   7.622   3.994   7.462
20160SOL    MW480961   7.570   3.975   7.530
20161SOL     OW80962   8.869   6.775   7.705
20161SOL    HW280963   8.787   6.811   7.671
20161SOL    HW380964   8.937   6.818   7.654
20161SOL    MW480965   8.867   6.785   7.693
20162SOL     OW80966   8.421   6.916   7.898
20162SOL    HW280967   8.398   6.978   7.966
20162SOL    HW380968   8.378   6.834   7.924
20162SOL    MW480969   8.413   6.912   7.909
20163SOL     OW80970   8.415   7.313   7.681
20163SOL    HW280971   8.370   7.329   7.764
20163SOL    HW380972   8.346   7.278   7.623
20163SOL    MW480973   8.401   7.310   7.683
20164SOL     OW80974   7.659   7.366   7.713
20164SOL    HW280975   7.688   7.456   7.705
20164SOL    HW380976   7.609   7.349   7.634
20164SOL    MW480977   7.657   7.374   7.702
20165SOL     OW80978   9.063   7.174   7.684
20165SOL    HW280979   9.111   7.243   7.730
20165SOL    HW380980   8.984   7.218   7.653
20165SOL    MW480981   9.058   7.188   7.687
20166SOL     OW80982   8.461   6.299   7.628
20166SOL    HW280983   8.463   6.246   7.549
20166SOL    HW380984   8.549   6.336   7.634
20166SOL    MW480985   8.473   6.298   7.617
20167SOL     OW80986   8.230   6.751   7.535
20167SOL    HW280987   8.152   6.697   7.522
20167SOL    HW380988   8.201   6.824   7.588
20167SOL    MW480989   8.216   6.753   7.540
20168SOL     OW80990   9.035   6.941   7.545
20168SOL    HW280991   8.982   6.990   7.481
20168SOL    HW380992   9.066   7.007   7.606
20168SOL    MW480993   9.033   6.955   7.543
20169SOL     OW80994   8.260   5.830   7.600
20169SOL    HW280995   8.208   5.750   7.588
20169SOL    HW380996   8.347   5.807   7.568
20169SOL    MW480997   8.263   5.816   7.594
20170SOL     OW80998   8.195   7.182   7.536
20170SOL    HW280999   8.135   7.251   7.506
20170SOL    HW381000   8.140   7.124   7.589
20170SOL    MW481001   8.179   7.184   7.538
20171SOL     OW81002   8.476   5.688   7.554
20171SOL    HW281003   8.532   5.680   7.476
20171SOL    HW381004   8.453   5.598   7.576
20171SOL    MW481005   8.481   5.675   7.547
20172SOL     OW81006   7.975   6.577   7.551
20172SOL    HW281007   7.898   6.590   7.607
20172SOL    HW381008   7.939   6.541   7.470
20172SOL    MW481009   7.961   6.573   7.548
20173SOL     OW81010   8.628   6.550   7.794
20173SOL    HW281011   8.538   6.571   7.769
20173SOL    HW381012   8.655   6.623   7.850
20173SOL    MW481013   8.620   6.562   7.797
20174SOL     OW81014   8.018   6.190   7.664
20174SOL    HW281015   7.984   6.246   7.734
20174SOL    HW381016   8.089   6.140   7.704
20174SOL    MW481017   8.024   6.191   7.678
20175SOL     OW81018   8.478   7.080   7.525
20175SOL    HW281019   8.505   7.158   7.477
20175SOL    HW381020   8.385   7.095   7.544
20175SOL    MW481021   8.469   7.093   7.521
20176SOL     OW81022   8.886   6.415   7.990
20176SOL    HW281023   8.801   6.385   7.960
20176SOL    HW381024   8.878   6.422   8.085
20176SOL    MW481025   8.874   6.413   7.999
20177SOL     OW81026   8.259   6.081   7.716
20177SOL    HW281027   8.332   6.130   7.679
20177SOL    HW381028   8.275   5.990   7.690
20177SOL    MW481029   8.271   6.076   7.709
20178SOL     OW81030   8.090   6.944   7.673
20178SOL    HW281031   8.105   6.920   7.765
20178SOL    HW381032   7.998   6.922   7.657
20178SOL    MW481033   8.080   6.937   7.683
20179SOL     OW81034   9.200   7.420   7.727
20179SOL    HW281035   9.267   7.453   7.667
20179SOL    HW381036   9.157   7.499   7.761
20179SOL    MW481037   9.202   7.435   7.723
20180SOL     OW81038   8.106   7.452   7.595
20180SOL    HW281039   8.011   7.452   7.587
20180SOL    HW381040   8.122   7.398   7.673
20180SOL    MW481041   8.096   7.446   7.604
20181SOL     OW81042   8.951   6.272   7.511
20181SOL    HW281043   8.879   6.248   7.453
20181SOL    HW381044   9.017   6.309   7.453
20181SOL    MW481045   8.950   6.274   7.496
20182SOL     OW81046   7.567   5.830   7.533
20182SOL    HW281047   7.534   5.909   7.577
20182SOL    HW381048   7.622   5.863   7.462
20182SOL    MW481049   7.570   5.844   7.530
20183SOL     OW81050   9.527   1.761   7.713
20183SOL    HW281051   9.556   1.851   7.705
20183SOL    HW381052   9.477   1.744   7.634
20183SOL    MW481053   9.525   1.769   7.702
20184SOL     OW81054   9.102   8.271   1.252
20184SOL    HW281055   9.057   8.338   1.303
20184SOL    HW381056   9.190   8.307   1.238
20184SOL    MW481057   9.108   8.284   1.256
20185SOL     OW81058   8.030   8.522   0.486
20185SOL    HW281059   8.120   8.497   0.470
20185SOL    HW381060   8.026   8.615   0.463
20185SOL    MW481061   8.042   8.531   0.481
20186SOL     OW81062   9.082   8.665   1.233
20186SOL    HW281063   9.003   8.630   1.191
20186SOL    HW381064   9.109   8.737   1.177
20186SOL    MW481065   9.075   8.670   1.220
20187SOL     OW81066   8.314   7.978   0.499
20187SOL    HW281067   8.289   8.066   0.527
20187SOL    HW381068   8.311   7.981   0.403
20187SOL    MW481069   8.310   7.990   0.491
20188SOL     OW81070   7.756   8.006   0.427
20188SOL    HW281071   7.788   8.094   0.409
20188SOL    HW381072   7.744   8.004   0.522
20188SOL    MW481073   7.759   8.018   0.439
20189SOL     OW81074   7.834   8.419   1.328
20189SOL    HW281075   7.897   8.366   1.279
20189SOL    HW381076   7.815   8.493   1.271
20189SOL    MW481077   7.840   8.421   1.315
20190SOL     OW81078   8.155   7.761   0.514
20190SOL    HW281079   8.213   7.837   0.516
20190SOL    HW381080   8.090   7.782   0.447
20190SOL    MW481081   8.154   7.773   0.505
20191SOL     OW81082   8.242   8.688   0.689
20191SOL    HW281083   8.322   8.691   0.741
20191SOL    HW381084   8.270   8.655   0.603
20191SOL    MW481085   8.256   8.684   0.684
20192SOL     OW81086   8.019   8.192   0.680
20192SOL    HW281087   8.004   8.112   0.731
20192SOL    HW381088   8.101   8.227   0.714
20192SOL    MW481089   8.027   8.184   0.692
20193SOL     OW81090   8.161   8.018   1.057
20193SOL    HW281091   8.067   8.014   1.075
20193SOL    HW381092   8.191   7.927   1.066
20193SOL    MW481093   8.152   8.006   1.060
20194SOL     OW81094   7.907   8.432   0.961
20194SOL    HW281095   7.862   8.439   0.877
20194SOL    HW381096   7.887   8.515   1.005
20194SOL    MW481097   7.899   8.444   0.955
20195SOL     OW81098   7.868   8.805   0.871
20195SOL    HW281099   7.844   8.858   0.947
20195SOL    HW381100   7.924   8.863   0.819
20195SOL    MW481101   7.872   8.820   0.874
20196SOL     OW81102   8.430   8.449   0.681
20196SOL    HW281103   8.344   8.436   0.721
20196SOL    HW381104   8.483   8.376   0.713
20196SOL    MW481105   8.426   8.438   0.690
20197SOL     OW81106   9.294   7.812   0.854
20197SOL    HW281107   9.231   7.792   0.923
20197SOL    HW381108   9.284   7.741   0.791
20197SOL    MW481109   9.284   7.799   0.855
20198SOL     OW81110   7.918   7.784   0.366
20198SOL    HW281111   7.892   7.746   0.282
20198SOL    HW381112   7.855   7.854   0.382
20198SOL    MW481113   7.907   7.787   0.357
20199SOL     OW81114   7.753   8.745   0.403
20199SOL    HW281115   7.701   8.813   0.359
20199SOL    HW381116   7.750   8.671   0.343
20199SOL    MW481117   7.745   8.744   0.390
20200SOL     OW81118   9.095   8.584   0.506
20200SOL    HW281119   9.005   8.584   0.541
20200SOL    HW381120   9.088   8.630   0.423
20200SOL    MW481121   9.082   8.590   0.500
20201SOL     OW81122   8.895   8.219   1.578
20201SOL    HW281123   8.964   8.157   1.555
20201SOL    HW381124   8.820   8.193   1.525
20201SOL    MW481125   8.895   8.206   1.569
20202SOL     OW81126   8.631   8.606   1.570
20202SOL    HW281127   8.616   8.699   1.555
20202SOL    HW381128   8.726   8.596   1.570
20202SOL    MW481129   8.640   8.616   1.567
20203SOL     OW81130   8.427   8.030   1.771
20203SOL    HW281131   8.517   8.031   1.738
20203SOL    HW381132   8.386   7.955   1.729
20203SOL    MW481133   8.433   8.020   1.762
20204SOL     OW81134   9.002   8.562   0.898
20204SOL    HW281135   9.005   8.496   0.829
20204SOL    HW381136   9.087   8.605   0.894
20204SOL    MW481137   9.014   8.558   0.889
20205SOL     OW81138   8.622   8.165   0.467
20205SOL    HW281139   8.648   8.189   0.378
20205SOL    HW381140   8.604   8.072   0.463
20205SOL    MW481141   8.624   8.157   0.454
20206SOL     OW81142   8.207   7.834   1.721
20206SOL    HW281143   8.217   7.760   1.661
20206SOL    HW381144   8.243   7.803   1.804
20206SOL    MW481145   8.213   7.820   1.723
20207SOL     OW81146   9.327   7.563   0.685
20207SOL    HW281147   9.381   7.514   0.747
20207SOL    HW381148   9.270   7.497   0.646
20207SOL    MW481149   9.327   7.547   0.687
20208SOL     OW81150   8.446   7.516   1.098
20208SOL    HW281151   8.405   7.594   1.060
20208SOL    HW381152   8.540   7.534   1.093
20208SOL    MW481153   8.452   7.528   1.093
20209SOL     OW81154   9.075   8.120   0.464
20209SOL    HW281155   9.114   8.120   0.551
20209SOL    HW381156   9.016   8.196   0.464
20209SOL    MW481157   9.072   8.131   0.475
20210SOL     OW81158   8.392   8.487   1.593
20210SOL    HW281159   8.369   8.467   1.683
20210SOL    HW381160   8.477   8.531   1.598
20210SOL    MW481161   8.399   8.490   1.605
20211SOL     OW81162   8.472   7.624   1.353
20211SOL    HW281163   8.478   7.586   1.266
20211SOL    HW381164   8.461   7.718   1.338
20211SOL    MW481165   8.473   7.632   1.341
20212SOL     OW81166   8.561   8.113   1.187
20212SOL    HW281167   8.636   8.142   1.134
20212SOL    HW381168   8.493   8.178   1.171
20212SOL    MW481169   8.562   8.125   1.177
20213SOL     OW81170   9.111   8.081   1.464
20213SOL    HW281171   9.092   7.990   1.443
20213SOL    HW381172   9.089   8.130   1.385
20213SOL    MW481173   9.106   8.074   1.451
20214SOL     OW81174   8.558   7.819   1.570
20214SOL    HW281175   8.524   7.858   1.489
20214SOL    HW381176   8.536   7.727   1.563
20214SOL    MW481177   8.551   7.812   1.560
20215SOL     OW81178   8.967   8.633   1.646
20215SOL    HW281179   9.049   8.674   1.676
20215SOL    HW381180   8.930   8.595   1.726
20215SOL    MW481181   8.973   8.634   1.661
20216SOL     OW81182   9.262   8.006   0.630
20216SOL    HW281183   9.351   7.975   0.647
20216SOL    HW381184   9.205   7.946   0.678
20216SOL    MW481185   9.265   7.994   0.639
20217SOL     OW81186   7.688   7.720   0.659
20217SOL    HW281187   7.679   7.660   0.585
20217SOL    HW381188   7.621   7.691   0.722
20217SOL    MW481189   7.678   7.707   0.657
20218SOL     OW81190   8.631   8.813   0.220
20218SOL    HW281191   8.581   8.815   0.302
20218SOL    HW381192   8.565   8.831   0.152
20218SOL    MW481193   8.617   8.815   0.222
20219SOL     OW81194   7.635   7.893   1.022
20219SOL    HW281195   7.607   7.984   1.031
20219SOL    HW381196   7.572   7.854   0.961
20219SOL    MW481197   7.622   7.899   1.016
20220SOL     OW81198   9.356   8.386   1.227
20220SOL    HW281199   9.372   8.424   1.140
20220SOL    HW381200   9.390   8.452   1.288
20220SOL    MW481201   9.363   8.399   1.223
20221SOL     OW81202   7.619   8.168   1.192
20221SOL    HW281203   7.681   8.198   1.258
20221SOL    HW381204   7.553   8.237   1.186
20221SOL    MW481205   7.618   8.181   1.199
20222SOL     OW81206   7.766   8.596   1.151
20222SOL    HW281207   7.819   8.671   1.176
20222SOL    HW381208   7.685   8.634   1.117
20222SOL    MW481209   7.762   8.611   1.151
20223SOL     OW81210   8.306   8.500   1.139
20223SOL    HW281211   8.334   8.409   1.151
20223SOL    HW381212   8.235   8.494   1.075
20223SOL    MW481213   8.299   8.488   1.134
20224SOL     OW81214   7.621   8.365   0.557
20224SOL    HW281215   7.712   8.380   0.584
20224SOL    HW381216   7.624   8.286   0.503
20224SOL    MW481217   7.633   8.357   0.555
20225SOL     OW81218   7.857   8.073   1.811
20225SOL    HW281219   7.804   8.153   1.818
20225SOL    HW381220   7.927   8.085   1.876
20225SOL    MW481221   7.859   8.086   1.819
20226SOL     OW81222   8.243   7.623   1.518
20226SOL    HW281223   8.220   7.531   1.520
20226SOL    HW381224   8.329   7.625   1.475
20226SOL    MW481225   8.250   7.613   1.514
20227SOL     OW81226   7.927   8.147   1.557
20227SOL    HW281227   8.007   8.197   1.543
20227SOL    HW381228   7.918   8.141   1.652
20227SOL    MW481229   7.936   8.153   1.567
20228SOL     OW81230   8.904   7.672   1.828
20228SOL    HW281231   8.960   7.599   1.854
20228SOL    HW381232   8.874   7.710   1.910
20228SOL    MW481233   8.908   7.667   1.841
20229SOL     OW81234   9.294   8.165   0.945
20229SOL    HW281235   9.383   8.195   0.927
20229SOL    HW381236   9.274   8.105   0.874
20229SOL    MW481237   9.303   8.162   0.934
20230SOL     OW81238   9.145   8.344   1.825
20230SOL    HW281239   9.200   8.268   1.806
20230SOL    HW381240   9.147   8.352   1.920
20230SOL    MW481241   9.153   8.335   1.833
20231SOL     OW81242   8.195   9.077   0.036
20231SOL    HW281243   8.135   9.146   0.006
20231SOL    HW381244   8.140   9.019   0.089
20231SOL    MW481245   8.179   9.079   0.038
20232SOL     OW81246   8.440   7.906   1.344
20232SOL    HW281247   8.359   7.947   1.372
20232SOL    HW381248   8.487   7.974   1.296
20232SOL    MW481249   8.435   7.921   1.342
20233SOL     OW81250   8.700   8.244   0.967
20233SOL    HW281251   8.713   8.338   0.977
20233SOL    HW381252   8.661   8.234   0.881
20233SOL    MW481253   8.696   8.255   0.957
20234SOL     OW81254   8.152   8.439   0.771
20234SOL    HW281255   8.063   8.430   0.804
20234SOL    HW381256   8.156   8.529   0.739
20234SOL    MW481257   8.141   8.450   0.771
20235SOL     OW81258   8.951   8.022   0.766
20235SOL    HW281259   8.896   7.943   0.765
20235SOL    HW381260   8.933   8.063   0.850
20235SOL    MW481261   8.941   8.017   0.775
20236SOL     OW81262   7.922   7.709   1.583
20236SOL    HW281263   7.843   7.727   1.635
20236SOL    HW381264   7.917   7.771   1.510
20236SOL    MW481265   7.912   7.719   1.580
20237SOL     OW81266   8.570   8.226   0.723
20237SOL    HW281267   8.507   8.158   0.747
20237SOL    HW381268   8.590   8.207   0.631
20237SOL    MW481269   8.564   8.213   0.715
20238SOL     OW81270   8.318   8.530   0.449
20238SOL    HW281271   8.320   8.504   0.356
20238SOL    HW381272   8.376   8.467   0.492
20238SOL    MW481273   8.326   8.519   0.443
20239SOL     OW81274   8.828   7.774   0.782
20239SOL    HW281275   8.856   7.706   0.843
20239SOL    HW381276   8.742   7.745   0.752
20239SOL    MW481277   8.821   7.761   0.786
20240SOL     OW81278   7.633   8.708   0.716
20240SOL    HW281279   7.697   8.740   0.779
20240SOL    HW381280   7.682   8.644   0.664
20240SOL    MW481281   7.648   8.704   0.717
20241SOL     OW81282   7.887   7.531   1.789
20241SOL    HW281283   7.815   7.496   1.737
20241SOL    HW381284   7.945   7.572   1.724
20241SOL    MW481285   7.885   7.532   1.774
20242SOL     OW81286   9.351   8.550   1.442
20242SOL    HW281287   9.266   8.563   1.401
20242SOL    HW381288   9.331   8.514   1.529
20242SOL    MW481289   9.338   8.546   1.447
20243SOL     OW81290   8.128   8.794   0.986
20243SOL    HW281291   8.121   8.773   1.080
20243SOL    HW381292   8.046   8.762   0.949
20243SOL    MW481293   8.116   8.788   0.993
20244SOL     OW81294   8.992   7.804   1.388
20244SOL    HW281295   8.939   7.806   1.468
20244SOL    HW381296   8.977   7.717   1.351
20244SOL    MW481297   8.984   7.794   1.393
20245SOL     OW81298   9.328   7.728   1.261
20245SOL    HW281299   9.309   7.795   1.196
20245SOL    HW381300   9.385   7.666   1.216
20245SOL    MW481301   9.332   7.729   1.247
20246SOL     OW81302   8.257   7.561   0.701
20246SOL    HW281303   8.186   7.622   0.683
20246SOL    HW381304   8.308   7.558   0.620
20246SOL    MW481305   8.253   7.567   0.688
20247SOL     OW81306   8.217   8.218   1.831
20247SOL    HW281307   8.287   8.160   1.803
20247SOL    HW381308   8.160   8.163   1.886
20247SOL    MW481309   8.219   8.205   1.835
20248SOL     OW81310   9.004   8.430   1.464
20248SOL    HW281311   9.009   8.483   1.544
20248SOL    HW381312   8.966   8.347   1.492
20248SOL    MW481313   9.000   8.425   1.479
20249SOL     OW81314   8.644   7.565   1.710
20249SOL    HW281315   8.639   7.472   1.691
20249SOL    HW381316   8.727   7.576   1.756
20249SOL    MW481317   8.652   7.554   1.714
20250SOL     OW81318   9.114   8.836   0.986
20250SOL    HW281319   9.149   8.818   0.899
20250SOL    HW381320   9.019   8.837   0.973
20250SOL    MW481321   9.106   8.833   0.973
20251SOL     OW81322   8.543   8.484   1.355
20251SOL    HW281323   8.586   8.519   1.433
20251SOL    HW381324   8.526   8.561   1.301
20251SOL    MW481325   8.546   8.499   1.358
20252SOL     OW81326   7.934   7.626   0.657
20252SOL    HW281327   7.984   7.669   0.588
20252SOL    HW381328   7.849   7.670   0.657
20252SOL    MW481329   7.931   7.639   0.648
20253SOL     OW81330   7.693   8.688   1.517
20253SOL    HW281331   7.721   8.641   1.595
20253SOL    HW381332   7.614   8.643   1.488
20253SOL    MW481333   7.686   8.677   1.523
20254SOL     OW81334   8.201   8.015   1.484
20254SOL    HW281335   8.173   8.103   1.508
20254SOL    HW381336   8.170   7.959   1.555
20254SOL    MW481337   8.193   8.018   1.496
20255SOL     OW81338   8.743   8.233   0.203
20255SOL    HW281339   8.790   8.251   0.122
20255SOL    HW381340   8.709   8.317   0.231
20255SOL    MW481341   8.745   8.247   0.196
20256SOL     OW81342   7.856   8.411   0.697
20256SOL    HW281343   7.914   8.467   0.645
20256SOL    HW381344   7.900   8.326   0.699
20256SOL    MW481345   7.869   8.408   0.690
20257SOL     OW81346   8.996   7.763   0.534
20257SOL    HW281347   8.918   7.713   0.559
20257SOL    HW381348   8.967   7.854   0.534
20257SOL    MW481349   8.982   7.767   0.537
20258SOL     OW81350   8.582   7.725   0.693
20258SOL    HW281351   8.602   7.800   0.637
20258SOL    HW381352   8.562   7.764   0.778
20258SOL    MW481353   8.583   7.741   0.697
20259SOL     OW81354   8.478   8.975   0.025
20259SOL    HW281355   8.505   9.053  -0.023
20259SOL    HW381356   8.385   8.990   0.044
20259SOL    MW481357   8.469   8.988   0.021
20260SOL     OW81358   9.342   8.498   1.712
20260SOL    HW281359   9.255   8.478   1.748
20260SOL    HW381360   9.396   8.424   1.737
20260SOL    MW481361   9.337   8.487   1.720
20261SOL     OW81362   7.518   8.137   0.416
20261SOL    HW281363   7.458   8.109   0.486
20261SOL    HW381364   7.592   8.077   0.422
20261SOL    MW481365   7.520   8.126   0.425
20262SOL     OW81366   7.944   7.876   1.305
20262SOL    HW281367   7.977   7.957   1.345
20262SOL    HW381368   7.917   7.902   1.217
20262SOL    MW481369   7.943   7.890   1.299
20263SOL     OW81370   7.898   7.843   1.041
20263SOL    HW281371   7.928   7.757   1.012
20263SOL    HW381372   7.803   7.836   1.044
20263SOL    MW481373   7.890   7.832   1.039
20264SOL     OW81374   8.727   8.052   1.732
20264SOL    HW281375   8.779   7.987   1.685
20264SOL    HW381376   8.685   8.103   1.662
20264SOL    MW481377   8.728   8.049   1.715
20265SOL     OW81378   8.826   7.847   1.593
20265SOL    HW281379   8.733   7.831   1.580
20265SOL    HW381380   8.852   7.785   1.661
20265SOL    MW481381   8.816   7.837   1.600
20266SOL     OW81382   8.041   7.621   0.932
20266SOL    HW281383   8.051   7.530   0.958
20266SOL    HW381384   7.997   7.617   0.847
20266SOL    MW481385   8.037   7.609   0.924
20267SOL     OW81386   9.192   7.943   1.103
20267SOL    HW281387   9.125   7.976   1.163
20267SOL    HW381388   9.235   8.021   1.069
20267SOL    MW481389   9.190   7.958   1.107
20268SOL     OW81390   9.370   8.663   1.073
20268SOL    HW281391   9.363   8.603   0.998
20268SOL    HW381392   9.296   8.723   1.062
20268SOL    MW481393   9.360   8.663   1.062
20269SOL     OW81394   8.752   8.525   0.991
20269SOL    HW281395   8.766   8.497   1.082
20269SOL    HW381396   8.838   8.556   0.963
20269SOL    MW481397   8.765   8.526   1.000
20270SOL     OW81398   8.835   8.020   1.270
20270SOL    HW281399   8.856   8.021   1.177
20270SOL    HW381400   8.880   7.942   1.303
20270SOL    MW481401   8.842   8.010   1.262
20271SOL     OW81402   9.328   8.151   1.812
20271SOL    HW281403   9.365   8.096   1.881
20271SOL    HW381404   9.353   8.108   1.730
20271SOL    MW481405   9.335   8.139   1.811
20272SOL     OW81406   8.875   8.449   1.863
20272SOL    HW281407   8.941   8.397   1.817
20272SOL    HW381408   8.895   8.436   1.956
20272SOL    MW481409   8.886   8.440   1.870
20273SOL     OW81410   8.886   8.310   0.490
20273SOL    HW281411   8.801   8.280   0.460
20273SOL    HW381412   8.878   8.317   0.585
20273SOL    MW481413   8.874   8.308   0.499
20274SOL     OW81414   8.246   7.753   1.044
20274SOL    HW281415   8.219   7.755   1.135
20274SOL    HW381416   8.176   7.705   0.999
20274SOL    MW481417   8.234   7.749   1.051
20275SOL     OW81418   9.002   8.830   1.438
20275SOL    HW281419   8.987   8.759   1.501
20275SOL    HW381420   9.048   8.788   1.366
20275SOL    MW481421   9.008   8.814   1.438
20276SOL     OW81422   8.076   8.561   1.555
20276SOL    HW281423   8.113   8.566   1.467
20276SOL    HW381424   8.115   8.634   1.602
20276SOL    MW481425   8.086   8.571   1.550
20277SOL     OW81426   8.256   8.604   1.367
20277SOL    HW281427   8.315   8.550   1.420
20277SOL    HW381428   8.271   8.576   1.277
20277SOL    MW481429   8.266   8.593   1.363
20278SOL     OW81430   8.727   7.572   1.130
20278SOL    HW281431   8.782   7.581   1.052
20278SOL    HW381432   8.782   7.606   1.201
20278SOL    MW481433   8.741   7.577   1.129
20279SOL     OW81434   7.734   8.485   0.314
20279SOL    HW281435   7.671   8.501   0.243
20279SOL    HW381436   7.681   8.448   0.385
20279SOL    MW481437   7.719   8.482   0.314
20280SOL     OW81438   8.505   8.706   1.137
20280SOL    HW281439   8.437   8.640   1.153
20280SOL    HW381440   8.523   8.700   1.044
20280SOL    MW481441   8.498   8.697   1.128
20281SOL     OW81442   8.498   7.845   0.958
20281SOL    HW281443   8.428   7.797   1.003
20281SOL    HW381444   8.530   7.908   1.022
20281SOL    MW481445   8.493   7.847   0.972
20282SOL     OW81446   8.149   8.281   1.578
20282SOL    HW281447   8.142   8.376   1.566
20282SOL    HW381448   8.158   8.270   1.673
20282SOL    MW481449   8.150   8.293   1.588
20283SOL     OW81450   8.954   7.559   1.303
20283SOL    HW281451   9.025   7.505   1.267
20283SOL    HW381452   8.953   7.538   1.396
20283SOL    MW481453   8.963   7.550   1.311
20284SOL     OW81454   7.965   7.951   0.771
20284SOL    HW281455   8.036   7.899   0.734
20284SOL    HW381456   7.951   7.916   0.858
20284SOL    MW481457   7.973   7.940   0.778
20285SOL     OW81458   8.601   7.892   0.495
20285SOL    HW281459   8.623   7.829   0.427
20285SOL    HW381460   8.506   7.884   0.506
20285SOL    MW481461   8.591   7.883   0.487
20286SOL     OW81462   7.517   8.049   1.570
20286SOL    HW281463   7.581   8.115   1.545
20286SOL    HW381464   7.436   8.076   1.527
20286SOL    MW481465   7.515   8.061   1.562
20287SOL     OW81466   8.473   7.553   0.510
20287SOL    HW281467   8.510   7.612   0.575
20287SOL    HW381468   8.450   7.609   0.436
20287SOL    MW481469   8.474   7.568   0.509
20288SOL     OW81470   9.326   8.435   0.932
20288SOL    HW281471   9.317   8.467   0.843
20288SOL    HW381472   9.279   8.351   0.932
20288SOL    MW481473   9.319   8.428   0.922
20289SOL     OW81474   7.702   8.275   1.511
20289SOL    HW281475   7.723   8.344   1.449
20289SOL    HW381476   7.782   8.222   1.516
20289SOL    MW481477   7.715   8.276   1.505
20290SOL     OW81478   9.238   8.366   0.633
20290SOL    HW281479   9.332   8.355   0.621
20290SOL    HW381480   9.214   8.438   0.574
20290SOL    MW481481   9.248   8.374   0.624
20291SOL     OW81482   7.687   8.290   1.778
20291SOL    HW281483   7.613   8.234   1.804
20291SOL    HW381484   7.682   8.293   1.683
20291SOL    MW481485   7.676   8.283   1.768
20292SOL     OW81486   7.853   7.577   1.228
20292SOL    HW281487   7.896   7.661   1.248
20292SOL    HW381488   7.926   7.515   1.221
20292SOL    MW481489   7.868   7.580   1.229
20293SOL     OW81490   7.894   8.244   0.406
20293SOL    HW281491   7.894   8.339   0.391
20293SOL    HW381492   7.971   8.228   0.460
20293SOL    MW481493   7.904   8.255   0.411
20294SOL     OW81494   8.670   8.103   1.470
20294SOL    HW281495   8.706   8.076   1.386
20294SOL    HW381496   8.583   8.137   1.449
20294SOL    MW481497   8.664   8.104   1.457
20295SOL     OW81498   7.653   7.975   0.695
20295SOL    HW281499   7.715   7.982   0.768
20295SOL    HW381500   7.653   7.882   0.672
20295SOL    MW481501   7.661   7.964   0.702
20296SOL     OW81502   8.335   8.236   1.179
20296SOL    HW281503   8.293   8.154   1.155
20296SOL    HW381504   8.336   8.235   1.275
20296SOL    MW481505   8.328   8.225   1.188
20297SOL     OW81506   8.139   7.706   1.284
20297SOL    HW281507   8.070   7.769   1.305
20297SOL    HW381508   8.166   7.670   1.369
20297SOL    MW481509   8.133   7.709   1.297
20298SOL     OW81510   8.934   7.559   0.901
20298SOL    HW281511   9.022   7.568   0.938
20298SOL    HW381512   8.944   7.500   0.827
20298SOL    MW481513   8.948   7.553   0.895
20299SOL     OW81514   8.966   8.298   0.745
20299SOL    HW281515   9.046   8.313   0.694
20299SOL    HW381516   8.959   8.203   0.751
20299SOL    MW481517   8.975   8.287   0.740
20300SOL     OW81518   8.416   8.224   1.442
20300SOL    HW281519   8.485   8.291   1.439
20300SOL    HW381520   8.349   8.262   1.498
20300SOL    MW481521   8.417   8.237   1.449
20301SOL     OW81522   7.834   8.524   1.690
20301SOL    HW281523   7.788   8.440   1.692
20301SOL    HW381524   7.891   8.518   1.614
20301SOL    MW481525   7.836   8.512   1.682
20302SOL     OW81526   8.085   8.899   0.691
20302SOL    HW281527   8.150   8.832   0.712
20302SOL    HW381528   8.137   8.976   0.668
20302SOL    MW481529   8.100   8.901   0.690
20303SOL     OW81530   8.346   8.064   0.821
20303SOL    HW281531   8.286   8.082   0.893
20303SOL    HW381532   8.380   7.976   0.840
20303SOL    MW481533   8.342   8.054   0.834
20304SOL     OW81534   9.287   7.563   1.490
20304SOL    HW281535   9.208   7.609   1.518
20304SOL    HW381536   9.322   7.617   1.419
20304SOL    MW481537   9.281   7.576   1.484
20305SOL     OW81538   8.571   8.647   0.840
20305SOL    HW281539   8.663   8.628   0.858
20305SOL    HW381540   8.544   8.577   0.780
20305SOL    MW481541   8.579   8.635   0.834
20306SOL     OW81542   7.777   8.191   0.974
20306SOL    HW281543   7.727   8.190   1.055
20306SOL    HW381544   7.797   8.283   0.958
20306SOL    MW481545   7.773   8.203   0.982
20307SOL     OW81546   7.699   7.859   1.715
20307SOL    HW281547   7.656   7.918   1.652
20307SOL    HW381548   7.767   7.914   1.755
20307SOL    MW481549   7.703   7.874   1.712
20308SOL     OW81550   8.811   8.479   1.260
20308SOL    HW281551   8.874   8.476   1.333
20308SOL    HW381552   8.727   8.497   1.302
20308SOL    MW481553   8.807   8.481   1.275
20309SOL     OW81554   9.150   7.656   1.039
20309SOL    HW281555   9.195   7.574   1.058
20309SOL    HW381556   9.170   7.712   1.115
20309SOL    MW481557   9.160   7.652   1.051
20310SOL     OW81558   7.598   7.499   1.138
20310SOL    HW281559   7.589   7.500   1.043
20310SOL    HW381560   7.692   7.511   1.153
20310SOL    MW481561   7.610   7.502   1.129
20311SOL     OW81562   9.235   8.692   0.758
20311SOL    HW281563   9.214   8.638   0.681
20311SOL    HW381564   9.331   8.690   0.762
20311SOL    MW481565   9.244   8.685   0.747
20312SOL     OW81566   7.927   8.837   1.501
20312SOL    HW281567   7.848   8.787   1.524
20312SOL    HW381568   7.997   8.796   1.551
20312SOL    MW481569   7.925   8.825   1.511
20313SOL     OW81570   7.811   7.626   0.184
20313SOL    HW281571   7.740   7.681   0.152
20313SOL    HW381572   7.853   7.592   0.105
20313SOL    MW481573   7.807   7.628   0.170
20314SOL     OW81574   8.935   8.123   1.020
20314SOL    HW281575   8.858   8.169   0.986
20314SOL    HW381576   8.992   8.192   1.054
20314SOL    MW481577   8.932   8.138   1.020
20315SOL     OW81578   9.236   8.339   2.125
20315SOL    HW281579   9.277   8.281   2.190
20315SOL    HW381580   9.143   8.331   2.142
20315SOL    MW481581   9.230   8.331   2.135
20316SOL     OW81582   9.102   8.271   3.120
20316SOL    HW281583   9.057   8.338   3.171
20316SOL    HW381584   9.190   8.307   3.106
20316SOL    MW481585   9.108   8.284   3.124
20317SOL     OW81586   8.030   8.522   2.354
20317SOL    HW281587   8.120   8.497   2.338
20317SOL    HW381588   8.026   8.615   2.331
20317SOL    MW481589   8.042   8.531   2.349
20318SOL     OW81590   9.082   8.665   3.101
20318SOL    HW281591   9.003   8.630   3.059
20318SOL    HW381592   9.109   8.737   3.045
20318SOL    MW481593   9.075   8.670   3.088
20319SOL     OW81594   8.314   7.978   2.367
20319SOL    HW281595   8.289   8.066   2.395
20319SOL    HW381596   8.311   7.981   2.271
20319SOL    MW481597   8.310   7.990   2.359
20320SOL     OW81598   7.756   8.006   2.295
20320SOL    HW281599   7.788   8.094   2.277
20320SOL    HW381600   7.744   8.004   2.390
20320SOL    MW481601   7.759   8.018   2.307
20321SOL     OW81602   7.834   8.419   3.196
20321SOL    HW281603   7.897   8.366   3.147
20321SOL    HW381604   7.815   8.493   3.139
20321SOL    MW481605   7.840   8.421   3.183
20322SOL     OW81606   8.155   7.761   2.382
20322SOL    HW281607   8.213   7.837   2.384
20322SOL    HW381608   8.090   7.782   2.315
20322SOL    MW481609   8.154   7.773   2.373
20323SOL     OW81610   8.242   8.688   2.557
20323SOL    HW281611   8.322   8.691   2.609
20323SOL    HW381612   8.270   8.655   2.471
20323SOL    MW481613   8.256   8.684   2.552
20324SOL     OW81614   8.019   8.192   2.548
20324SOL    HW281615   8.004   8.112   2.599
20324SOL    HW381616   8.101   8.227   2.582
20324SOL    MW481617   8.027   8.184   2.560
20325SOL     OW81618   8.161   8.018   2.925
20325SOL    HW281619   8.067   8.014   2.943
20325SOL    HW381620   8.191   7.927   2.934
20325SOL    MW481621   8.152   8.006   2.928
20326SOL     OW81622   7.907   8.432   2.829
20326SOL    HW281623   7.862   8.439   2.745
20326SOL    HW381624   7.887   8.515   2.873
20326SOL    MW481625   7.899   8.444   2.823
20327SOL     OW81626   8.869   8.670   2.073
20327SOL    HW281627   8.787   8.706   2.039
20327SOL    HW381628   8.937   8.713   2.022
20327SOL    MW481629   8.867   8.680   2.061
20328SOL     OW81630   7.868   8.805   2.739
20328SOL    HW281631   7.844   8.858   2.815
20328SOL    HW381632   7.924   8.863   2.687
20328SOL    MW481633   7.872   8.820   2.742
20329SOL     OW81634   8.430   8.449   2.549
20329SOL    HW281635   8.344   8.436   2.589
20329SOL    HW381636   8.483   8.376   2.581
20329SOL    MW481637   8.426   8.438   2.558
20330SOL     OW81638   8.421   8.811   2.266
20330SOL    HW281639   8.398   8.873   2.334
20330SOL    HW381640   8.378   8.729   2.292
20330SOL    MW481641   8.413   8.807   2.277
20331SOL     OW81642   9.294   7.812   2.722
20331SOL    HW281643   9.231   7.792   2.791
20331SOL    HW381644   9.284   7.741   2.659
20331SOL    MW481645   9.284   7.799   2.723
20332SOL     OW81646   7.918   7.784   2.234
20332SOL    HW281647   7.892   7.746   2.150
20332SOL    HW381648   7.855   7.854   2.250
20332SOL    MW481649   7.907   7.787   2.225
20333SOL     OW81650   7.753   8.745   2.271
20333SOL    HW281651   7.701   8.813   2.227
20333SOL    HW381652   7.750   8.671   2.211
20333SOL    MW481653   7.745   8.744   2.258
20334SOL     OW81654   9.350   7.981   2.024
20334SOL    HW281655   9.259   7.983   2.052
20334SOL    HW381656   9.395   8.043   2.082
20334SOL    MW481657   9.343   7.989   2.034
20335SOL     OW81658   9.095   8.584   2.374
20335SOL    HW281659   9.005   8.584   2.409
20335SOL    HW381660   9.088   8.630   2.291
20335SOL    MW481661   9.082   8.590   2.368
20336SOL     OW81662   8.895   8.219   3.446
20336SOL    HW281663   8.964   8.157   3.423
20336SOL    HW381664   8.820   8.193   3.393
20336SOL    MW481665   8.895   8.206   3.437
20337SOL     OW81666   8.631   8.606   3.438
20337SOL    HW281667   8.616   8.699   3.423
20337SOL    HW381668   8.726   8.596   3.438
20337SOL    MW481669   8.640   8.616   3.435
20338SOL     OW81670   8.427   8.030   3.639
20338SOL    HW281671   8.517   8.031   3.606
20338SOL    HW381672   8.386   7.955   3.597
20338SOL    MW481673   8.433   8.020   3.630
20339SOL     OW81674   9.002   8.562   2.766
20339SOL    HW281675   9.005   8.496   2.697
20339SOL    HW381676   9.087   8.605   2.762
20339SOL    MW481677   9.014   8.558   2.757
20340SOL     OW81678   8.622   8.165   2.335
20340SOL    HW281679   8.648   8.189   2.246
20340SOL    HW381680   8.604   8.072   2.331
20340SOL    MW481681   8.624   8.157   2.322
20341SOL     OW81682   9.287   8.785   2.186
20341SOL    HW281683   9.243   8.826   2.261
20341SOL    HW381684   9.344   8.853   2.151
20341SOL    MW481685   9.289   8.799   2.191
20342SOL     OW81686   8.207   7.834   3.589
20342SOL    HW281687   8.217   7.760   3.529
20342SOL    HW381688   8.243   7.803   3.672
20342SOL    MW481689   8.213   7.820   3.591
20343SOL     OW81690   9.327   7.563   2.553
20343SOL    HW281691   9.381   7.514   2.615
20343SOL    HW381692   9.270   7.497   2.514
20343SOL    MW481693   9.327   7.547   2.555
20344SOL     OW81694   8.446   7.516   2.966
20344SOL    HW281695   8.405   7.594   2.928
20344SOL    HW381696   8.540   7.534   2.961
20344SOL    MW481697   8.452   7.528   2.961
20345SOL     OW81698   8.461   8.194   1.996
20345SOL    HW281699   8.463   8.141   1.917
20345SOL    HW381700   8.549   8.231   2.002
20345SOL    MW481701   8.473   8.193   1.985
20346SOL     OW81702   9.075   8.120   2.332
20346SOL    HW281703   9.114   8.120   2.419
20346SOL    HW381704   9.016   8.196   2.332
20346SOL    MW481705   9.072   8.131   2.343
20347SOL     OW81706   8.392   8.487   3.461
20347SOL    HW281707   8.369   8.467   3.551
20347SOL    HW381708   8.477   8.531   3.466
20347SOL    MW481709   8.399   8.490   3.473
20348SOL     OW81710   8.472   7.624   3.221
20348SOL    HW281711   8.478   7.586   3.134
20348SOL    HW381712   8.461   7.718   3.206
20348SOL    MW481713   8.473   7.632   3.209
20349SOL     OW81714   8.561   8.113   3.055
20349SOL    HW281715   8.636   8.142   3.002
20349SOL    HW381716   8.493   8.178   3.039
20349SOL    MW481717   8.562   8.125   3.045
20350SOL     OW81718   9.111   8.081   3.332
20350SOL    HW281719   9.092   7.990   3.311
20350SOL    HW381720   9.089   8.130   3.253
20350SOL    MW481721   9.106   8.074   3.319
20351SOL     OW81722   8.558   7.819   3.438
20351SOL    HW281723   8.524   7.858   3.357
20351SOL    HW381724   8.536   7.727   3.431
20351SOL    MW481725   8.551   7.812   3.428
20352SOL     OW81726   8.967   8.633   3.514
20352SOL    HW281727   9.049   8.674   3.544
20352SOL    HW381728   8.930   8.595   3.594
20352SOL    MW481729   8.973   8.634   3.529
20353SOL     OW81730   9.262   8.006   2.498
20353SOL    HW281731   9.351   7.975   2.515
20353SOL    HW381732   9.205   7.946   2.546
20353SOL    MW481733   9.265   7.994   2.507
20354SOL     OW81734   7.688   7.720   2.527
20354SOL    HW281735   7.679   7.660   2.453
20354SOL    HW381736   7.621   7.691   2.590
20354SOL    MW481737   7.678   7.707   2.525
20355SOL     OW81738   8.631   8.813   2.088
20355SOL    HW281739   8.581   8.815   2.170
20355SOL    HW381740   8.565   8.831   2.020
20355SOL    MW481741   8.617   8.815   2.090
20356SOL     OW81742   7.635   7.893   2.890
20356SOL    HW281743   7.607   7.984   2.899
20356SOL    HW381744   7.572   7.854   2.829
20356SOL    MW481745   7.622   7.899   2.884
20357SOL     OW81746   8.230   8.646   1.903
20357SOL    HW281747   8.152   8.592   1.890
20357SOL    HW381748   8.201   8.719   1.956
20357SOL    MW481749   8.216   8.648   1.908
20358SOL     OW81750   9.356   8.386   3.095
20358SOL    HW281751   9.372   8.424   3.008
20358SOL    HW381752   9.390   8.452   3.156
20358SOL    MW481753   9.363   8.399   3.091
20359SOL     OW81754   7.619   8.168   3.060
20359SOL    HW281755   7.681   8.198   3.126
20359SOL    HW381756   7.553   8.237   3.054
20359SOL    MW481757   7.618   8.181   3.067
20360SOL     OW81758   8.260   7.725   1.968
20360SOL    HW281759   8.208   7.645   1.956
20360SOL    HW381760   8.347   7.702   1.936
20360SOL    MW481761   8.263   7.711   1.962
20361SOL     OW81762   7.766   8.596   3.019
20361SOL    HW281763   7.819   8.671   3.044
20361SOL    HW381764   7.685   8.634   2.985
20361SOL    MW481765   7.762   8.611   3.019
20362SOL     OW81766   8.306   8.500   3.007
20362SOL    HW281767   8.334   8.409   3.019
20362SOL    HW381768   8.235   8.494   2.943
20362SOL    MW481769   8.299   8.488   3.002
20363SOL     OW81770   7.621   8.365   2.425
20363SOL    HW281771   7.712   8.380   2.452
20363SOL    HW381772   7.624   8.286   2.371
20363SOL    MW481773   7.633   8.357   2.423
20364SOL     OW81774   7.857   8.073   3.679
20364SOL    HW281775   7.804   8.153   3.686
20364SOL    HW381776   7.927   8.085   3.744
20364SOL    MW481777   7.859   8.086   3.687
20365SOL     OW81778   8.243   7.623   3.386
20365SOL    HW281779   8.220   7.531   3.388
20365SOL    HW381780   8.329   7.625   3.343
20365SOL    MW481781   8.250   7.613   3.382
20366SOL     OW81782   7.927   8.147   3.425
20366SOL    HW281783   8.007   8.197   3.411
20366SOL    HW381784   7.918   8.141   3.520
20366SOL    MW481785   7.936   8.153   3.435
20367SOL     OW81786   8.904   7.672   3.696
20367SOL    HW281787   8.960   7.599   3.722
20367SOL    HW381788   8.874   7.710   3.778
20367SOL    MW481789   8.908   7.667   3.709
20368SOL     OW81790   9.294   8.165   2.813
20368SOL    HW281791   9.383   8.195   2.795
20368SOL    HW381792   9.274   8.105   2.742
20368SOL    MW481793   9.303   8.162   2.802
20369SOL     OW81794   9.145   8.344   3.693
20369SOL    HW281795   9.200   8.268   3.674
20369SOL    HW381796   9.147   8.352   3.788
20369SOL    MW481797   9.153   8.335   3.701
20370SOL     OW81798   8.633   7.722   2.127
20370SOL    HW281799   8.566   7.698   2.064
20370SOL    HW381800   8.698   7.771   2.076
20370SOL    MW481801   8.633   7.724   2.112
20371SOL     OW81802   8.440   7.906   3.212
20371SOL    HW281803   8.359   7.947   3.240
20371SOL    HW381804   8.487   7.974   3.164
20371SOL    MW481805   8.435   7.921   3.210
20372SOL     OW81806   8.700   8.244   2.835
20372SOL    HW281807   8.713   8.338   2.845
20372SOL    HW381808   8.661   8.234   2.749
20372SOL    MW481809   8.696   8.255   2.825
20373SOL     OW81810   8.152   8.439   2.639
20373SOL    HW281811   8.063   8.430   2.672
20373SOL    HW381812   8.156   8.529   2.607
20373SOL    MW481813   8.141   8.450   2.639
20374SOL     OW81814   8.951   8.022   2.634
20374SOL    HW281815   8.896   7.943   2.633
20374SOL    HW381816   8.933   8.063   2.718
20374SOL    MW481817   8.941   8.017   2.643
20375SOL     OW81818   7.922   7.709   3.451
20375SOL    HW281819   7.843   7.727   3.503
20375SOL    HW381820   7.917   7.771   3.378
20375SOL    MW481821   7.912   7.719   3.448
20376SOL     OW81822   8.570   8.226   2.591
20376SOL    HW281823   8.507   8.158   2.615
20376SOL    HW381824   8.590   8.207   2.499
20376SOL    MW481825   8.564   8.213   2.583
20377SOL     OW81826   8.318   8.530   2.317
20377SOL    HW281827   8.320   8.504   2.224
20377SOL    HW381828   8.376   8.467   2.360
20377SOL    MW481829   8.326   8.519   2.311
20378SOL     OW81830   8.828   7.774   2.650
20378SOL    HW281831   8.856   7.706   2.711
20378SOL    HW381832   8.742   7.745   2.620
20378SOL    MW481833   8.821   7.761   2.654
20379SOL     OW81834   7.633   8.708   2.584
20379SOL    HW281835   7.697   8.740   2.647
20379SOL    HW381836   7.682   8.644   2.532
20379SOL    MW481837   7.648   8.704   2.585
20380SOL     OW81838   8.808   7.878   1.985
20380SOL    HW281839   8.781   7.944   1.921
20380SOL    HW381840   8.878   7.921   2.035
20380SOL    MW481841   8.813   7.891   1.982
20381SOL     OW81842   8.476   7.583   1.922
20381SOL    HW281843   8.532   7.575   1.844
20381SOL    HW381844   8.453   7.493   1.944
20381SOL    MW481845   8.481   7.570   1.915
20382SOL     OW81846   8.981   8.434   2.127
20382SOL    HW281847   8.948   8.523   2.117
20382SOL    HW381848   8.946   8.405   2.212
20382SOL    MW481849   8.971   8.443   2.138
20383SOL     OW81850   7.887   7.531   3.657
20383SOL    HW281851   7.815   7.496   3.605
20383SOL    HW381852   7.945   7.572   3.592
20383SOL    MW481853   7.885   7.532   3.642
20384SOL     OW81854   9.351   8.550   3.310
20384SOL    HW281855   9.266   8.563   3.269
20384SOL    HW381856   9.331   8.514   3.397
20384SOL    MW481857   9.338   8.546   3.315
20385SOL     OW81858   7.975   8.472   1.919
20385SOL    HW281859   7.898   8.485   1.975
20385SOL    HW381860   7.939   8.436   1.838
20385SOL    MW481861   7.961   8.468   1.916
20386SOL     OW81862   8.628   8.445   2.162
20386SOL    HW281863   8.538   8.466   2.137
20386SOL    HW381864   8.655   8.518   2.218
20386SOL    MW481865   8.620   8.457   2.165
20387SOL     OW81866   8.128   8.794   2.854
20387SOL    HW281867   8.121   8.773   2.948
20387SOL    HW381868   8.046   8.762   2.817
20387SOL    MW481869   8.116   8.788   2.861
20388SOL     OW81870   8.992   7.804   3.256
20388SOL    HW281871   8.939   7.806   3.336
20388SOL    HW381872   8.977   7.717   3.219
20388SOL    MW481873   8.984   7.794   3.261
20389SOL     OW81874   9.328   7.728   3.129
20389SOL    HW281875   9.309   7.795   3.064
20389SOL    HW381876   9.385   7.666   3.084
20389SOL    MW481877   9.332   7.729   3.115
20390SOL     OW81878   8.257   7.561   2.569
20390SOL    HW281879   8.186   7.622   2.551
20390SOL    HW381880   8.308   7.558   2.488
20390SOL    MW481881   8.253   7.567   2.556
20391SOL     OW81882   8.015   8.801   2.318
20391SOL    HW281883   8.008   8.833   2.408
20391SOL    HW381884   7.925   8.785   2.290
20391SOL    MW481885   8.003   8.803   2.325
20392SOL     OW81886   8.217   8.218   3.699
20392SOL    HW281887   8.287   8.160   3.671
20392SOL    HW381888   8.160   8.163   3.754
20392SOL    MW481889   8.219   8.205   3.703
20393SOL     OW81890   9.004   8.430   3.332
20393SOL    HW281891   9.009   8.483   3.412
20393SOL    HW381892   8.966   8.347   3.360
20393SOL    MW481893   9.000   8.425   3.347
20394SOL     OW81894   8.644   7.565   3.578
20394SOL    HW281895   8.639   7.472   3.559
20394SOL    HW381896   8.727   7.576   3.624
20394SOL    MW481897   8.652   7.554   3.582
20395SOL     OW81898   8.018   8.085   2.032
20395SOL    HW281899   7.984   8.141   2.102
20395SOL    HW381900   8.089   8.035   2.072
20395SOL    MW481901   8.024   8.086   2.046
20396SOL     OW81902   9.114   8.836   2.854
20396SOL    HW281903   9.149   8.818   2.767
20396SOL    HW381904   9.019   8.837   2.841
20396SOL    MW481905   9.106   8.833   2.841
20397SOL     OW81906   8.543   8.484   3.223
20397SOL    HW281907   8.586   8.519   3.301
20397SOL    HW381908   8.526   8.561   3.169
20397SOL    MW481909   8.546   8.499   3.226
20398SOL     OW81910   9.074   7.971   2.096
20398SOL    HW281911   9.066   8.042   2.033
20398SOL    HW381912   9.092   8.015   2.179
20398SOL    MW481913   9.075   7.985   2.098
20399SOL     OW81914   7.934   7.626   2.525
20399SOL    HW281915   7.984   7.669   2.456
20399SOL    HW381916   7.849   7.670   2.525
20399SOL    MW481917   7.931   7.639   2.516
20400SOL     OW81918   7.693   8.688   3.385
20400SOL    HW281919   7.721   8.641   3.463
20400SOL    HW381920   7.614   8.643   3.356
20400SOL    MW481921   7.686   8.677   3.391
20401SOL     OW81922   8.201   8.015   3.352
20401SOL    HW281923   8.173   8.103   3.376
20401SOL    HW381924   8.170   7.959   3.423
20401SOL    MW481925   8.193   8.018   3.364
20402SOL     OW81926   8.743   8.233   2.071
20402SOL    HW281927   8.790   8.251   1.990
20402SOL    HW381928   8.709   8.317   2.099
20402SOL    MW481929   8.745   8.247   2.064
20403SOL     OW81930   7.856   8.411   2.565
20403SOL    HW281931   7.914   8.467   2.513
20403SOL    HW381932   7.900   8.326   2.567
20403SOL    MW481933   7.869   8.408   2.558
20404SOL     OW81934   8.996   7.763   2.402
20404SOL    HW281935   8.918   7.713   2.427
20404SOL    HW381936   8.967   7.854   2.402
20404SOL    MW481937   8.982   7.767   2.405
20405SOL     OW81938   8.582   7.725   2.561
20405SOL    HW281939   8.602   7.800   2.505
20405SOL    HW381940   8.562   7.764   2.646
20405SOL    MW481941   8.583   7.741   2.565
20406SOL     OW81942   9.342   8.498   3.580
20406SOL    HW281943   9.255   8.478   3.616
20406SOL    HW381944   9.396   8.424   3.605
20406SOL    MW481945   9.337   8.487   3.588
20407SOL     OW81946   7.518   8.137   2.284
20407SOL    HW281947   7.458   8.109   2.354
20407SOL    HW381948   7.592   8.077   2.290
20407SOL    MW481949   7.520   8.126   2.293
20408SOL     OW81950   7.944   7.876   3.173
20408SOL    HW281951   7.977   7.957   3.213
20408SOL    HW381952   7.917   7.902   3.085
20408SOL    MW481953   7.943   7.890   3.167
20409SOL     OW81954   7.898   7.843   2.909
20409SOL    HW281955   7.928   7.757   2.880
20409SOL    HW381956   7.803   7.836   2.912
20409SOL    MW481957   7.890   7.832   2.907
20410SOL     OW81958   8.727   8.052   3.600
20410SOL    HW281959   8.779   7.987   3.553
20410SOL    HW381960   8.685   8.103   3.530
20410SOL    MW481961   8.728   8.049   3.583
20411SOL     OW81962   8.826   7.847   3.461
20411SOL    HW281963   8.733   7.831   3.448
20411SOL    HW381964   8.852   7.785   3.529
20411SOL    MW481965   8.816   7.837   3.468
20412SOL     OW81966   8.041   7.621   2.800
20412SOL    HW281967   8.051   7.530   2.826
20412SOL    HW381968   7.997   7.617   2.715
20412SOL    MW481969   8.037   7.609   2.792
20413SOL     OW81970   9.192   7.943   2.971
20413SOL    HW281971   9.125   7.976   3.031
20413SOL    HW381972   9.235   8.021   2.937
20413SOL    MW481973   9.190   7.958   2.975
20414SOL     OW81974   9.370   8.663   2.941
20414SOL    HW281975   9.363   8.603   2.866
20414SOL    HW381976   9.296   8.723   2.930
20414SOL    MW481977   9.360   8.663   2.930
20415SOL     OW81978   8.752   8.525   2.859
20415SOL    HW281979   8.766   8.497   2.950
20415SOL    HW381980   8.838   8.556   2.831
20415SOL    MW481981   8.765   8.526   2.868
20416SOL     OW81982   8.835   8.020   3.138
20416SOL    HW281983   8.856   8.021   3.045
20416SOL    HW381984   8.880   7.942   3.171
20416SOL    MW481985   8.842   8.010   3.130
20417SOL     OW81986   9.328   8.151   3.680
20417SOL    HW281987   9.365   8.096   3.749
20417SOL    HW381988   9.353   8.108   3.598
20417SOL    MW481989   9.335   8.139   3.679
20418SOL     OW81990   8.875   8.449   3.731
20418SOL    HW281991   8.941   8.397   3.685
20418SOL    HW381992   8.895   8.436   3.824
20418SOL    MW481993   8.886   8.440   3.738
20419SOL     OW81994   8.826   7.535   2.080
20419SOL    HW281995   8.900   7.579   2.123
20419SOL    HW381996   8.750   7.589   2.102
20419SOL    MW481997   8.826   7.547   2.088
20420SOL     OW81998   8.886   8.310   2.358
20420SOL    HW281999   8.801   8.280   2.328
20420SOL    HW382000   8.878   8.317   2.453
20420SOL    MW482001   8.874   8.308   2.367
20421SOL     OW82002   8.246   7.753   2.912
20421SOL    HW282003   8.219   7.755   3.003
20421SOL    HW382004   8.176   7.705   2.867
20421SOL    MW482005   8.234   7.749   2.919
20422SOL     OW82006   9.002   8.830   3.306
20422SOL    HW282007   8.987   8.759   3.369
20422SOL    HW382008   9.048   8.788   3.234
20422SOL    MW482009   9.008   8.814   3.306
20423SOL     OW82010   8.076   8.561   3.423
20423SOL    HW282011   8.113   8.566   3.335
20423SOL    HW382012   8.115   8.634   3.470
20423SOL    MW482013   8.086   8.571   3.418
20424SOL     OW82014   8.256   8.604   3.235
20424SOL    HW282015   8.315   8.550   3.288
20424SOL    HW382016   8.271   8.576   3.145
20424SOL    MW482017   8.266   8.593   3.231
20425SOL     OW82018   8.259   7.976   2.084
20425SOL    HW282019   8.332   8.025   2.047
20425SOL    HW382020   8.275   7.885   2.058
20425SOL    MW482021   8.271   7.971   2.077
20426SOL     OW82022   8.727   7.572   2.998
20426SOL    HW282023   8.782   7.581   2.920
20426SOL    HW382024   8.782   7.606   3.069
20426SOL    MW482025   8.741   7.577   2.997
20427SOL     OW82026   7.734   8.485   2.182
20427SOL    HW282027   7.671   8.501   2.111
20427SOL    HW382028   7.681   8.448   2.253
20427SOL    MW482029   7.719   8.482   2.182
20428SOL     OW82030   8.505   8.706   3.005
20428SOL    HW282031   8.437   8.640   3.021
20428SOL    HW382032   8.523   8.700   2.912
20428SOL    MW482033   8.498   8.697   2.996
20429SOL     OW82034   8.498   7.845   2.826
20429SOL    HW282035   8.428   7.797   2.871
20429SOL    HW382036   8.530   7.908   2.890
20429SOL    MW482037   8.493   7.847   2.840
20430SOL     OW82038   8.149   8.281   3.446
20430SOL    HW282039   8.142   8.376   3.434
20430SOL    HW382040   8.158   8.270   3.541
20430SOL    MW482041   8.150   8.293   3.456
20431SOL     OW82042   8.954   7.559   3.171
20431SOL    HW282043   9.025   7.505   3.135
20431SOL    HW382044   8.953   7.538   3.264
20431SOL    MW482045   8.963   7.550   3.179
20432SOL     OW82046   7.965   7.951   2.639
20432SOL    HW282047   8.036   7.899   2.602
20432SOL    HW382048   7.951   7.916   2.726
20432SOL    MW482049   7.973   7.940   2.646
20433SOL     OW82050   7.686   7.582   2.295
20433SOL    HW282051   7.757   7.603   2.234
20433SOL    HW382052   7.640   7.510   2.253
20433SOL    MW482053   7.690   7.576   2.281
20434SOL     OW82054   7.517   8.049   3.438
20434SOL    HW282055   7.581   8.115   3.413
20434SOL    HW382056   7.436   8.076   3.395
20434SOL    MW482057   7.515   8.061   3.430
20435SOL     OW82058   8.811   8.633   2.325
20435SOL    HW282059   8.783   8.719   2.358
20435SOL    HW382060   8.839   8.649   2.235
20435SOL    MW482061   8.811   8.647   2.317
20436SOL     OW82062   8.473   7.553   2.378
20436SOL    HW282063   8.510   7.612   2.443
20436SOL    HW382064   8.450   7.609   2.304
20436SOL    MW482065   8.474   7.568   2.377
20437SOL     OW82066   9.326   8.435   2.800
20437SOL    HW282067   9.317   8.467   2.711
20437SOL    HW382068   9.279   8.351   2.800
20437SOL    MW482069   9.319   8.428   2.790
20438SOL     OW82070   7.702   8.275   3.379
20438SOL    HW282071   7.723   8.344   3.317
20438SOL    HW382072   7.782   8.222   3.384
20438SOL    MW482073   7.715   8.276   3.373
20439SOL     OW82074   9.238   8.366   2.501
20439SOL    HW282075   9.332   8.355   2.489
20439SOL    HW382076   9.214   8.438   2.442
20439SOL    MW482077   9.248   8.374   2.492
20440SOL     OW82078   7.687   8.290   3.646
20440SOL    HW282079   7.613   8.234   3.672
20440SOL    HW382080   7.682   8.293   3.551
20440SOL    MW482081   7.676   8.283   3.636
20441SOL     OW82082   7.853   7.577   3.096
20441SOL    HW282083   7.896   7.661   3.116
20441SOL    HW382084   7.926   7.515   3.089
20441SOL    MW482085   7.868   7.580   3.097
20442SOL     OW82086   7.894   8.244   2.274
20442SOL    HW282087   7.894   8.339   2.259
20442SOL    HW382088   7.971   8.228   2.328
20442SOL    MW482089   7.904   8.255   2.279
20443SOL     OW82090   8.670   8.103   3.338
20443SOL    HW282091   8.706   8.076   3.254
20443SOL    HW382092   8.583   8.137   3.317
20443SOL    MW482093   8.664   8.104   3.325
20444SOL     OW82094   7.653   7.975   2.563
20444SOL    HW282095   7.715   7.982   2.636
20444SOL    HW382096   7.653   7.882   2.540
20444SOL    MW482097   7.661   7.964   2.570
20445SOL     OW82098   8.335   8.236   3.047
20445SOL    HW282099   8.293   8.154   3.023
20445SOL    HW382100   8.336   8.235   3.143
20445SOL    MW482101   8.328   8.225   3.056
20446SOL     OW82102   8.139   7.706   3.152
20446SOL    HW282103   8.070   7.769   3.173
20446SOL    HW382104   8.166   7.670   3.237
20446SOL    MW482105   8.133   7.709   3.165
20447SOL     OW82106   7.522   8.547   2.021
20447SOL    HW282107   7.491   8.612   2.084
20447SOL    HW382108   7.471   8.469   2.040
20447SOL    MW482109   7.512   8.544   2.031
20448SOL     OW82110   8.934   7.559   2.769
20448SOL    HW282111   9.022   7.568   2.806
20448SOL    HW382112   8.944   7.500   2.695
20448SOL    MW482113   8.948   7.553   2.763
20449SOL     OW82114   8.966   8.298   2.613
20449SOL    HW282115   9.046   8.313   2.562
20449SOL    HW382116   8.959   8.203   2.619
20449SOL    MW482117   8.975   8.287   2.608
20450SOL     OW82118   8.416   8.224   3.310
20450SOL    HW282119   8.485   8.291   3.307
20450SOL    HW382120   8.349   8.262   3.366
20450SOL    MW482121   8.417   8.237   3.317
20451SOL     OW82122   7.834   8.524   3.558
20451SOL    HW282123   7.788   8.440   3.560
20451SOL    HW382124   7.891   8.518   3.482
20451SOL    MW482125   7.836   8.512   3.550
20452SOL     OW82126   8.951   8.167   1.879
20452SOL    HW282127   8.879   8.143   1.821
20452SOL    HW382128   9.017   8.204   1.821
20452SOL    MW482129   8.950   8.169   1.864
20453SOL     OW82130   8.085   8.899   2.559
20453SOL    HW282131   8.150   8.832   2.580
20453SOL    HW382132   8.137   8.976   2.536
20453SOL    MW482133   8.100   8.901   2.558
20454SOL     OW82134   8.346   8.064   2.689
20454SOL    HW282135   8.286   8.082   2.761
20454SOL    HW382136   8.380   7.976   2.708
20454SOL    MW482137   8.342   8.054   2.702
20455SOL     OW82138   9.287   7.563   3.358
20455SOL    HW282139   9.208   7.609   3.386
20455SOL    HW382140   9.322   7.617   3.287
20455SOL    MW482141   9.281   7.576   3.352
20456SOL     OW82142   8.571   8.647   2.708
20456SOL    HW282143   8.663   8.628   2.726
20456SOL    HW382144   8.544   8.577   2.648
20456SOL    MW482145   8.579   8.635   2.702
20457SOL     OW82146   8.364   8.467   2.063
20457SOL    HW282147   8.350   8.379   2.028
20457SOL    HW382148   8.315   8.524   2.004
20457SOL    MW482149   8.356   8.462   2.051
20458SOL     OW82150   7.777   8.191   2.842
20458SOL    HW282151   7.727   8.190   2.923
20458SOL    HW382152   7.797   8.283   2.826
20458SOL    MW482153   7.773   8.203   2.850
20459SOL     OW82154   9.083   7.673   2.165
20459SOL    HW282155   9.076   7.677   2.260
20459SOL    HW382156   9.095   7.764   2.138
20459SOL    MW482157   9.084   7.686   2.173
20460SOL     OW82158   8.372   8.236   2.279
20460SOL    HW282159   8.352   8.222   2.186
20460SOL    HW382160   8.465   8.215   2.286
20460SOL    MW482161   8.382   8.231   2.268
20461SOL     OW82162   7.699   7.859   3.583
20461SOL    HW282163   7.656   7.918   3.520
20461SOL    HW382164   7.767   7.914   3.623
20461SOL    MW482165   7.703   7.874   3.580
20462SOL     OW82166   8.811   8.479   3.128
20462SOL    HW282167   8.874   8.476   3.201
20462SOL    HW382168   8.727   8.497   3.170
20462SOL    MW482169   8.807   8.481   3.143
20463SOL     OW82170   9.150   7.656   2.907
20463SOL    HW282171   9.195   7.574   2.926
20463SOL    HW382172   9.170   7.712   2.983
20463SOL    MW482173   9.160   7.652   2.919
20464SOL     OW82174   7.598   7.499   3.006
20464SOL    HW282175   7.589   7.500   2.911
20464SOL    HW382176   7.692   7.511   3.021
20464SOL    MW482177   7.610   7.502   2.997
20465SOL     OW82178   9.235   8.692   2.626
20465SOL    HW282179   9.214   8.638   2.549
20465SOL    HW382180   9.331   8.690   2.630
20465SOL    MW482181   9.244   8.685   2.615
20466SOL     OW82182   7.927   8.837   3.369
20466SOL    HW282183   7.848   8.787   3.392
20466SOL    HW382184   7.997   8.796   3.419
20466SOL    MW482185   7.925   8.825   3.379
20467SOL     OW82186   7.811   7.626   2.052
20467SOL    HW282187   7.740   7.681   2.020
20467SOL    HW382188   7.853   7.592   1.973
20467SOL    MW482189   7.807   7.628   2.038
20468SOL     OW82190   8.935   8.123   2.888
20468SOL    HW282191   8.858   8.169   2.854
20468SOL    HW382192   8.992   8.192   2.922
20468SOL    MW482193   8.932   8.138   2.888
20469SOL     OW82194   7.567   7.725   1.901
20469SOL    HW282195   7.534   7.804   1.945
20469SOL    HW382196   7.622   7.758   1.830
20469SOL    MW482197   7.570   7.739   1.898
20470SOL     OW82198   9.236   8.339   3.993
20470SOL    HW282199   9.277   8.281   4.058
20470SOL    HW382200   9.143   8.331   4.010
20470SOL    MW482201   9.230   8.331   4.003
20471SOL     OW82202   8.030   8.522   4.222
20471SOL    HW282203   8.120   8.497   4.206
20471SOL    HW382204   8.026   8.615   4.199
20471SOL    MW482205   8.042   8.531   4.217
20472SOL     OW82206   9.082   8.665   4.969
20472SOL    HW282207   9.003   8.630   4.927
20472SOL    HW382208   9.109   8.737   4.913
20472SOL    MW482209   9.075   8.670   4.956
20473SOL     OW82210   8.314   7.978   4.235
20473SOL    HW282211   8.289   8.066   4.263
20473SOL    HW382212   8.311   7.981   4.139
20473SOL    MW482213   8.310   7.990   4.227
20474SOL     OW82214   7.756   8.006   4.163
20474SOL    HW282215   7.788   8.094   4.145
20474SOL    HW382216   7.744   8.004   4.258
20474SOL    MW482217   7.759   8.018   4.175
20475SOL     OW82218   7.834   8.419   5.064
20475SOL    HW282219   7.897   8.366   5.015
20475SOL    HW382220   7.815   8.493   5.007
20475SOL    MW482221   7.840   8.421   5.051
20476SOL     OW82222   8.155   7.761   4.250
20476SOL    HW282223   8.213   7.837   4.252
20476SOL    HW382224   8.090   7.782   4.183
20476SOL    MW482225   8.154   7.773   4.241
20477SOL     OW82226   8.242   8.688   4.425
20477SOL    HW282227   8.322   8.691   4.477
20477SOL    HW382228   8.270   8.655   4.339
20477SOL    MW482229   8.256   8.684   4.420
20478SOL     OW82230   8.019   8.192   4.416
20478SOL    HW282231   8.004   8.112   4.467
20478SOL    HW382232   8.101   8.227   4.450
20478SOL    MW482233   8.027   8.184   4.428
20479SOL     OW82234   8.161   8.018   4.793
20479SOL    HW282235   8.067   8.014   4.811
20479SOL    HW382236   8.191   7.927   4.802
20479SOL    MW482237   8.152   8.006   4.796
20480SOL     OW82238   7.907   8.432   4.697
20480SOL    HW282239   7.862   8.439   4.613
20480SOL    HW382240   7.887   8.515   4.741
20480SOL    MW482241   7.899   8.444   4.691
20481SOL     OW82242   8.869   8.670   3.941
20481SOL    HW282243   8.787   8.706   3.907
20481SOL    HW382244   8.937   8.713   3.890
20481SOL    MW482245   8.867   8.680   3.929
20482SOL     OW82246   7.868   8.805   4.607
20482SOL    HW282247   7.844   8.858   4.683
20482SOL    HW382248   7.924   8.863   4.555
20482SOL    MW482249   7.872   8.820   4.610
20483SOL     OW82250   8.430   8.449   4.417
20483SOL    HW282251   8.344   8.436   4.457
20483SOL    HW382252   8.483   8.376   4.449
20483SOL    MW482253   8.426   8.438   4.426
20484SOL     OW82254   8.421   8.811   4.134
20484SOL    HW282255   8.398   8.873   4.202
20484SOL    HW382256   8.378   8.729   4.160
20484SOL    MW482257   8.413   8.807   4.145
20485SOL     OW82258   9.294   7.812   4.590
20485SOL    HW282259   9.231   7.792   4.659
20485SOL    HW382260   9.284   7.741   4.527
20485SOL    MW482261   9.284   7.799   4.591
20486SOL     OW82262   7.918   7.784   4.102
20486SOL    HW282263   7.892   7.746   4.018
20486SOL    HW382264   7.855   7.854   4.118
20486SOL    MW482265   7.907   7.787   4.093
20487SOL     OW82266   7.753   8.745   4.139
20487SOL    HW282267   7.701   8.813   4.095
20487SOL    HW382268   7.750   8.671   4.079
20487SOL    MW482269   7.745   8.744   4.126
20488SOL     OW82270   9.350   7.981   3.892
20488SOL    HW282271   9.259   7.983   3.920
20488SOL    HW382272   9.395   8.043   3.950
20488SOL    MW482273   9.343   7.989   3.902
20489SOL     OW82274   9.095   8.584   4.242
20489SOL    HW282275   9.005   8.584   4.277
20489SOL    HW382276   9.088   8.630   4.159
20489SOL    MW482277   9.082   8.590   4.236
20490SOL     OW82278   8.895   8.219   5.314
20490SOL    HW282279   8.964   8.157   5.291
20490SOL    HW382280   8.820   8.193   5.261
20490SOL    MW482281   8.895   8.206   5.305
20491SOL     OW82282   8.631   8.606   5.306
20491SOL    HW282283   8.616   8.699   5.291
20491SOL    HW382284   8.726   8.596   5.306
20491SOL    MW482285   8.640   8.616   5.303
20492SOL     OW82286   8.427   8.030   5.507
20492SOL    HW282287   8.517   8.031   5.474
20492SOL    HW382288   8.386   7.955   5.465
20492SOL    MW482289   8.433   8.020   5.498
20493SOL     OW82290   9.002   8.562   4.634
20493SOL    HW282291   9.005   8.496   4.565
20493SOL    HW382292   9.087   8.605   4.630
20493SOL    MW482293   9.014   8.558   4.625
20494SOL     OW82294   8.622   8.165   4.203
20494SOL    HW282295   8.648   8.189   4.114
20494SOL    HW382296   8.604   8.072   4.199
20494SOL    MW482297   8.624   8.157   4.190
20495SOL     OW82298   9.287   8.785   4.054
20495SOL    HW282299   9.243   8.826   4.129
20495SOL    HW382300   9.344   8.853   4.019
20495SOL    MW482301   9.289   8.799   4.059
20496SOL     OW82302   8.207   7.834   5.457
20496SOL    HW282303   8.217   7.760   5.397
20496SOL    HW382304   8.243   7.803   5.540
20496SOL    MW482305   8.213   7.820   5.459
20497SOL     OW82306   9.327   7.563   4.421
20497SOL    HW282307   9.381   7.514   4.483
20497SOL    HW382308   9.270   7.497   4.382
20497SOL    MW482309   9.327   7.547   4.423
20498SOL     OW82310   8.446   7.516   4.834
20498SOL    HW282311   8.405   7.594   4.796
20498SOL    HW382312   8.540   7.534   4.829
20498SOL    MW482313   8.452   7.528   4.829
20499SOL     OW82314   8.461   8.194   3.864
20499SOL    HW282315   8.463   8.141   3.785
20499SOL    HW382316   8.549   8.231   3.870
20499SOL    MW482317   8.473   8.193   3.853
20500SOL     OW82318   9.075   8.120   4.200
20500SOL    HW282319   9.114   8.120   4.287
20500SOL    HW382320   9.016   8.196   4.200
20500SOL    MW482321   9.072   8.131   4.211
20501SOL     OW82322   8.392   8.487   5.329
20501SOL    HW282323   8.369   8.467   5.419
20501SOL    HW382324   8.477   8.531   5.334
20501SOL    MW482325   8.399   8.490   5.341
20502SOL     OW82326   8.472   7.624   5.089
20502SOL    HW282327   8.478   7.586   5.002
20502SOL    HW382328   8.461   7.718   5.074
20502SOL    MW482329   8.473   7.632   5.077
20503SOL     OW82330   8.561   8.113   4.923
20503SOL    HW282331   8.636   8.142   4.870
20503SOL    HW382332   8.493   8.178   4.907
20503SOL    MW482333   8.562   8.125   4.913
20504SOL     OW82334   9.111   8.081   5.200
20504SOL    HW282335   9.092   7.990   5.179
20504SOL    HW382336   9.089   8.130   5.121
20504SOL    MW482337   9.106   8.074   5.187
20505SOL     OW82338   8.558   7.819   5.306
20505SOL    HW282339   8.524   7.858   5.225
20505SOL    HW382340   8.536   7.727   5.299
20505SOL    MW482341   8.551   7.812   5.296
20506SOL     OW82342   8.967   8.633   5.382
20506SOL    HW282343   9.049   8.674   5.412
20506SOL    HW382344   8.930   8.595   5.462
20506SOL    MW482345   8.973   8.634   5.397
20507SOL     OW82346   9.262   8.006   4.366
20507SOL    HW282347   9.351   7.975   4.383
20507SOL    HW382348   9.205   7.946   4.414
20507SOL    MW482349   9.265   7.994   4.375
20508SOL     OW82350   7.688   7.720   4.395
20508SOL    HW282351   7.679   7.660   4.321
20508SOL    HW382352   7.621   7.691   4.458
20508SOL    MW482353   7.678   7.707   4.393
20509SOL     OW82354   8.631   8.813   3.956
20509SOL    HW282355   8.581   8.815   4.038
20509SOL    HW382356   8.565   8.831   3.888
20509SOL    MW482357   8.617   8.815   3.958
20510SOL     OW82358   7.635   7.893   4.758
20510SOL    HW282359   7.607   7.984   4.767
20510SOL    HW382360   7.572   7.854   4.697
20510SOL    MW482361   7.622   7.899   4.752
20511SOL     OW82362   8.230   8.646   3.771
20511SOL    HW282363   8.152   8.592   3.758
20511SOL    HW382364   8.201   8.719   3.824
20511SOL    MW482365   8.216   8.648   3.776
20512SOL     OW82366   9.356   8.386   4.963
20512SOL    HW282367   9.372   8.424   4.876
20512SOL    HW382368   9.390   8.452   5.024
20512SOL    MW482369   9.363   8.399   4.959
20513SOL     OW82370   7.619   8.168   4.928
20513SOL    HW282371   7.681   8.198   4.994
20513SOL    HW382372   7.553   8.237   4.922
20513SOL    MW482373   7.618   8.181   4.935
20514SOL     OW82374   8.260   7.725   3.836
20514SOL    HW282375   8.208   7.645   3.824
20514SOL    HW382376   8.347   7.702   3.804
20514SOL    MW482377   8.263   7.711   3.830
20515SOL     OW82378   7.766   8.596   4.887
20515SOL    HW282379   7.819   8.671   4.912
20515SOL    HW382380   7.685   8.634   4.853
20515SOL    MW482381   7.762   8.611   4.887
20516SOL     OW82382   8.306   8.500   4.875
20516SOL    HW282383   8.334   8.409   4.887
20516SOL    HW382384   8.235   8.494   4.811
20516SOL    MW482385   8.299   8.488   4.870
20517SOL     OW82386   7.621   8.365   4.293
20517SOL    HW282387   7.712   8.380   4.320
20517SOL    HW382388   7.624   8.286   4.239
20517SOL    MW482389   7.633   8.357   4.291
20518SOL     OW82390   7.857   8.073   5.547
20518SOL    HW282391   7.804   8.153   5.554
20518SOL    HW382392   7.927   8.085   5.612
20518SOL    MW482393   7.859   8.086   5.555
20519SOL     OW82394   8.243   7.623   5.254
20519SOL    HW282395   8.220   7.531   5.256
20519SOL    HW382396   8.329   7.625   5.211
20519SOL    MW482397   8.250   7.613   5.250
20520SOL     OW82398   7.927   8.147   5.293
20520SOL    HW282399   8.007   8.197   5.279
20520SOL    HW382400   7.918   8.141   5.388
20520SOL    MW482401   7.936   8.153   5.303
20521SOL     OW82402   8.904   7.672   5.564
20521SOL    HW282403   8.960   7.599   5.590
20521SOL    HW382404   8.874   7.710   5.646
20521SOL    MW482405   8.908   7.667   5.577
20522SOL     OW82406   9.294   8.165   4.681
20522SOL    HW282407   9.383   8.195   4.663
20522SOL    HW382408   9.274   8.105   4.610
20522SOL    MW482409   9.303   8.162   4.670
20523SOL     OW82410   9.145   8.344   5.561
20523SOL    HW282411   9.200   8.268   5.542
20523SOL    HW382412   9.147   8.352   5.656
20523SOL    MW482413   9.153   8.335   5.569
20524SOL     OW82414   8.633   7.722   3.995
20524SOL    HW282415   8.566   7.698   3.932
20524SOL    HW382416   8.698   7.771   3.944
20524SOL    MW482417   8.633   7.724   3.980
20525SOL     OW82418   8.440   7.906   5.080
20525SOL    HW282419   8.359   7.947   5.108
20525SOL    HW382420   8.487   7.974   5.032
20525SOL    MW482421   8.435   7.921   5.078
20526SOL     OW82422   8.700   8.244   4.703
20526SOL    HW282423   8.713   8.338   4.713
20526SOL    HW382424   8.661   8.234   4.617
20526SOL    MW482425   8.696   8.255   4.693
20527SOL     OW82426   8.152   8.439   4.507
20527SOL    HW282427   8.063   8.430   4.540
20527SOL    HW382428   8.156   8.529   4.475
20527SOL    MW482429   8.141   8.450   4.507
20528SOL     OW82430   8.951   8.022   4.502
20528SOL    HW282431   8.896   7.943   4.501
20528SOL    HW382432   8.933   8.063   4.586
20528SOL    MW482433   8.941   8.017   4.511
20529SOL     OW82434   7.922   7.709   5.319
20529SOL    HW282435   7.843   7.727   5.371
20529SOL    HW382436   7.917   7.771   5.246
20529SOL    MW482437   7.912   7.719   5.316
20530SOL     OW82438   8.570   8.226   4.459
20530SOL    HW282439   8.507   8.158   4.483
20530SOL    HW382440   8.590   8.207   4.367
20530SOL    MW482441   8.564   8.213   4.451
20531SOL     OW82442   8.318   8.530   4.185
20531SOL    HW282443   8.320   8.504   4.092
20531SOL    HW382444   8.376   8.467   4.228
20531SOL    MW482445   8.326   8.519   4.179
20532SOL     OW82446   8.828   7.774   4.518
20532SOL    HW282447   8.856   7.706   4.579
20532SOL    HW382448   8.742   7.745   4.488
20532SOL    MW482449   8.821   7.761   4.522
20533SOL     OW82450   7.633   8.708   4.452
20533SOL    HW282451   7.697   8.740   4.515
20533SOL    HW382452   7.682   8.644   4.400
20533SOL    MW482453   7.648   8.704   4.453
20534SOL     OW82454   8.808   7.878   3.853
20534SOL    HW282455   8.781   7.944   3.789
20534SOL    HW382456   8.878   7.921   3.903
20534SOL    MW482457   8.813   7.891   3.850
20535SOL     OW82458   8.476   7.583   3.790
20535SOL    HW282459   8.532   7.575   3.712
20535SOL    HW382460   8.453   7.493   3.812
20535SOL    MW482461   8.481   7.570   3.783
20536SOL     OW82462   8.981   8.434   3.995
20536SOL    HW282463   8.948   8.523   3.985
20536SOL    HW382464   8.946   8.405   4.080
20536SOL    MW482465   8.971   8.443   4.006
20537SOL     OW82466   7.887   7.531   5.525
20537SOL    HW282467   7.815   7.496   5.473
20537SOL    HW382468   7.945   7.572   5.460
20537SOL    MW482469   7.885   7.532   5.510
20538SOL     OW82470   9.351   8.550   5.178
20538SOL    HW282471   9.266   8.563   5.137
20538SOL    HW382472   9.331   8.514   5.265
20538SOL    MW482473   9.338   8.546   5.183
20539SOL     OW82474   7.975   8.472   3.787
20539SOL    HW282475   7.898   8.485   3.843
20539SOL    HW382476   7.939   8.436   3.706
20539SOL    MW482477   7.961   8.468   3.784
20540SOL     OW82478   8.628   8.445   4.030
20540SOL    HW282479   8.538   8.466   4.005
20540SOL    HW382480   8.655   8.518   4.086
20540SOL    MW482481   8.620   8.457   4.033
20541SOL     OW82482   8.128   8.794   4.722
20541SOL    HW282483   8.121   8.773   4.816
20541SOL    HW382484   8.046   8.762   4.685
20541SOL    MW482485   8.116   8.788   4.729
20542SOL     OW82486   8.992   7.804   5.124
20542SOL    HW282487   8.939   7.806   5.204
20542SOL    HW382488   8.977   7.717   5.087
20542SOL    MW482489   8.984   7.794   5.129
20543SOL     OW82490   9.328   7.728   4.997
20543SOL    HW282491   9.309   7.795   4.932
20543SOL    HW382492   9.385   7.666   4.952
20543SOL    MW482493   9.332   7.729   4.983
20544SOL     OW82494   8.257   7.561   4.437
20544SOL    HW282495   8.186   7.622   4.419
20544SOL    HW382496   8.308   7.558   4.356
20544SOL    MW482497   8.253   7.567   4.424
20545SOL     OW82498   8.015   8.801   4.186
20545SOL    HW282499   8.008   8.833   4.276
20545SOL    HW382500   7.925   8.785   4.158
20545SOL    MW482501   8.003   8.803   4.193
20546SOL     OW82502   8.217   8.218   5.567
20546SOL    HW282503   8.287   8.160   5.539
20546SOL    HW382504   8.160   8.163   5.622
20546SOL    MW482505   8.219   8.205   5.571
20547SOL     OW82506   9.004   8.430   5.200
20547SOL    HW282507   9.009   8.483   5.280
20547SOL    HW382508   8.966   8.347   5.228
20547SOL    MW482509   9.000   8.425   5.215
20548SOL     OW82510   8.644   7.565   5.446
20548SOL    HW282511   8.639   7.472   5.427
20548SOL    HW382512   8.727   7.576   5.492
20548SOL    MW482513   8.652   7.554   5.450
20549SOL     OW82514   8.018   8.085   3.900
20549SOL    HW282515   7.984   8.141   3.970
20549SOL    HW382516   8.089   8.035   3.940
20549SOL    MW482517   8.024   8.086   3.914
20550SOL     OW82518   9.114   8.836   4.722
20550SOL    HW282519   9.149   8.818   4.635
20550SOL    HW382520   9.019   8.837   4.709
20550SOL    MW482521   9.106   8.833   4.709
20551SOL     OW82522   8.543   8.484   5.091
20551SOL    HW282523   8.586   8.519   5.169
20551SOL    HW382524   8.526   8.561   5.037
20551SOL    MW482525   8.546   8.499   5.094
20552SOL     OW82526   9.074   7.971   3.964
20552SOL    HW282527   9.066   8.042   3.901
20552SOL    HW382528   9.092   8.015   4.047
20552SOL    MW482529   9.075   7.985   3.966
20553SOL     OW82530   7.934   7.626   4.393
20553SOL    HW282531   7.984   7.669   4.324
20553SOL    HW382532   7.849   7.670   4.393
20553SOL    MW482533   7.931   7.639   4.384
20554SOL     OW82534   7.693   8.688   5.253
20554SOL    HW282535   7.721   8.641   5.331
20554SOL    HW382536   7.614   8.643   5.224
20554SOL    MW482537   7.686   8.677   5.259
20555SOL     OW82538   8.201   8.015   5.220
20555SOL    HW282539   8.173   8.103   5.244
20555SOL    HW382540   8.170   7.959   5.291
20555SOL    MW482541   8.193   8.018   5.232
20556SOL     OW82542   8.743   8.233   3.939
20556SOL    HW282543   8.790   8.251   3.858
20556SOL    HW382544   8.709   8.317   3.967
20556SOL    MW482545   8.745   8.247   3.932
20557SOL     OW82546   7.856   8.411   4.433
20557SOL    HW282547   7.914   8.467   4.381
20557SOL    HW382548   7.900   8.326   4.435
20557SOL    MW482549   7.869   8.408   4.426
20558SOL     OW82550   8.996   7.763   4.270
20558SOL    HW282551   8.918   7.713   4.295
20558SOL    HW382552   8.967   7.854   4.270
20558SOL    MW482553   8.982   7.767   4.273
20559SOL     OW82554   8.582   7.725   4.429
20559SOL    HW282555   8.602   7.800   4.373
20559SOL    HW382556   8.562   7.764   4.514
20559SOL    MW482557   8.583   7.741   4.433
20560SOL     OW82558   9.342   8.498   5.448
20560SOL    HW282559   9.255   8.478   5.484
20560SOL    HW382560   9.396   8.424   5.473
20560SOL    MW482561   9.337   8.487   5.456
20561SOL     OW82562   7.518   8.137   4.152
20561SOL    HW282563   7.458   8.109   4.222
20561SOL    HW382564   7.592   8.077   4.158
20561SOL    MW482565   7.520   8.126   4.161
20562SOL     OW82566   7.944   7.876   5.041
20562SOL    HW282567   7.977   7.957   5.081
20562SOL    HW382568   7.917   7.902   4.953
20562SOL    MW482569   7.943   7.890   5.035
20563SOL     OW82570   7.898   7.843   4.777
20563SOL    HW282571   7.928   7.757   4.748
20563SOL    HW382572   7.803   7.836   4.780
20563SOL    MW482573   7.890   7.832   4.775
20564SOL     OW82574   8.727   8.052   5.468
20564SOL    HW282575   8.779   7.987   5.421
20564SOL    HW382576   8.685   8.103   5.398
20564SOL    MW482577   8.728   8.049   5.451
20565SOL     OW82578   8.826   7.847   5.329
20565SOL    HW282579   8.733   7.831   5.316
20565SOL    HW382580   8.852   7.785   5.397
20565SOL    MW482581   8.816   7.837   5.336
20566SOL     OW82582   8.041   7.621   4.668
20566SOL    HW282583   8.051   7.530   4.694
20566SOL    HW382584   7.997   7.617   4.583
20566SOL    MW482585   8.037   7.609   4.660
20567SOL     OW82586   9.192   7.943   4.839
20567SOL    HW282587   9.125   7.976   4.899
20567SOL    HW382588   9.235   8.021   4.805
20567SOL    MW482589   9.190   7.958   4.843
20568SOL     OW82590   9.370   8.663   4.809
20568SOL    HW282591   9.363   8.603   4.734
20568SOL    HW382592   9.296   8.723   4.798
20568SOL    MW482593   9.360   8.663   4.798
20569SOL     OW82594   8.752   8.525   4.727
20569SOL    HW282595   8.766   8.497   4.818
20569SOL    HW382596   8.838   8.556   4.699
20569SOL    MW482597   8.765   8.526   4.736
20570SOL     OW82598   8.835   8.020   5.006
20570SOL    HW282599   8.856   8.021   4.913
20570SOL    HW382600   8.880   7.942   5.039
20570SOL    MW482601   8.842   8.010   4.998
20571SOL     OW82602   9.328   8.151   5.548
20571SOL    HW282603   9.365   8.096   5.617
20571SOL    HW382604   9.353   8.108   5.466
20571SOL    MW482605   9.335   8.139   5.547
20572SOL     OW82606   8.875   8.449   5.600
20572SOL    HW282607   8.941   8.397   5.554
20572SOL    HW382608   8.895   8.436   5.693
20572SOL    MW482609   8.886   8.440   5.607
20573SOL     OW82610   8.826   7.535   3.948
20573SOL    HW282611   8.900   7.579   3.991
20573SOL    HW382612   8.750   7.589   3.970
20573SOL    MW482613   8.826   7.547   3.956
20574SOL     OW82614   8.886   8.310   4.226
20574SOL    HW282615   8.801   8.280   4.196
20574SOL    HW382616   8.878   8.317   4.321
20574SOL    MW482617   8.874   8.308   4.235
20575SOL     OW82618   9.002   8.830   5.174
20575SOL    HW282619   8.987   8.759   5.237
20575SOL    HW382620   9.048   8.788   5.102
20575SOL    MW482621   9.008   8.814   5.174
20576SOL     OW82622   8.076   8.561   5.291
20576SOL    HW282623   8.113   8.566   5.203
20576SOL    HW382624   8.115   8.634   5.338
20576SOL    MW482625   8.086   8.571   5.286
20577SOL     OW82626   8.256   8.604   5.103
20577SOL    HW282627   8.315   8.550   5.156
20577SOL    HW382628   8.271   8.576   5.013
20577SOL    MW482629   8.266   8.593   5.099
20578SOL     OW82630   8.259   7.976   3.952
20578SOL    HW282631   8.332   8.025   3.915
20578SOL    HW382632   8.275   7.885   3.926
20578SOL    MW482633   8.271   7.971   3.945
20579SOL     OW82634   8.727   7.572   4.866
20579SOL    HW282635   8.782   7.581   4.788
20579SOL    HW382636   8.782   7.606   4.937
20579SOL    MW482637   8.741   7.577   4.865
20580SOL     OW82638   7.734   8.485   4.050
20580SOL    HW282639   7.671   8.501   3.979
20580SOL    HW382640   7.681   8.448   4.121
20580SOL    MW482641   7.719   8.482   4.050
20581SOL     OW82642   8.505   8.706   4.873
20581SOL    HW282643   8.437   8.640   4.889
20581SOL    HW382644   8.523   8.700   4.780
20581SOL    MW482645   8.498   8.697   4.864
20582SOL     OW82646   8.498   7.845   4.694
20582SOL    HW282647   8.428   7.797   4.739
20582SOL    HW382648   8.530   7.908   4.758
20582SOL    MW482649   8.493   7.847   4.708
20583SOL     OW82650   8.149   8.281   5.314
20583SOL    HW282651   8.142   8.376   5.302
20583SOL    HW382652   8.158   8.270   5.409
20583SOL    MW482653   8.150   8.293   5.324
20584SOL     OW82654   8.954   7.559   5.039
20584SOL    HW282655   9.025   7.505   5.003
20584SOL    HW382656   8.953   7.538   5.132
20584SOL    MW482657   8.963   7.550   5.047
20585SOL     OW82658   7.965   7.951   4.507
20585SOL    HW282659   8.036   7.899   4.470
20585SOL    HW382660   7.951   7.916   4.594
20585SOL    MW482661   7.973   7.940   4.514
20586SOL     OW82662   8.601   7.892   4.231
20586SOL    HW282663   8.623   7.829   4.163
20586SOL    HW382664   8.506   7.884   4.242
20586SOL    MW482665   8.591   7.883   4.223
20587SOL     OW82666   7.686   7.582   4.163
20587SOL    HW282667   7.757   7.603   4.102
20587SOL    HW382668   7.640   7.510   4.121
20587SOL    MW482669   7.690   7.576   4.149
20588SOL     OW82670   7.517   8.049   5.306
20588SOL    HW282671   7.581   8.115   5.281
20588SOL    HW382672   7.436   8.076   5.263
20588SOL    MW482673   7.515   8.061   5.298
20589SOL     OW82674   8.811   8.633   4.193
20589SOL    HW282675   8.783   8.719   4.226
20589SOL    HW382676   8.839   8.649   4.103
20589SOL    MW482677   8.811   8.647   4.185
20590SOL     OW82678   8.473   7.553   4.246
20590SOL    HW282679   8.510   7.612   4.311
20590SOL    HW382680   8.450   7.609   4.172
20590SOL    MW482681   8.474   7.568   4.245
20591SOL     OW82682   9.326   8.435   4.668
20591SOL    HW282683   9.317   8.467   4.579
20591SOL    HW382684   9.279   8.351   4.668
20591SOL    MW482685   9.319   8.428   4.658
20592SOL     OW82686   7.702   8.275   5.247
20592SOL    HW282687   7.723   8.344   5.185
20592SOL    HW382688   7.782   8.222   5.252
20592SOL    MW482689   7.715   8.276   5.241
20593SOL     OW82690   9.238   8.366   4.369
20593SOL    HW282691   9.332   8.355   4.357
20593SOL    HW382692   9.214   8.438   4.310
20593SOL    MW482693   9.248   8.374   4.360
20594SOL     OW82694   7.687   8.290   5.514
20594SOL    HW282695   7.613   8.234   5.540
20594SOL    HW382696   7.682   8.293   5.419
20594SOL    MW482697   7.676   8.283   5.504
20595SOL     OW82698   7.853   7.577   4.964
20595SOL    HW282699   7.896   7.661   4.984
20595SOL    HW382700   7.926   7.515   4.957
20595SOL    MW482701   7.868   7.580   4.965
20596SOL     OW82702   7.894   8.244   4.142
20596SOL    HW282703   7.894   8.339   4.127
20596SOL    HW382704   7.971   8.228   4.196
20596SOL    MW482705   7.904   8.255   4.147
20597SOL     OW82706   8.670   8.103   5.206
20597SOL    HW282707   8.706   8.076   5.122
20597SOL    HW382708   8.583   8.137   5.185
20597SOL    MW482709   8.664   8.104   5.193
20598SOL     OW82710   7.653   7.975   4.431
20598SOL    HW282711   7.715   7.982   4.504
20598SOL    HW382712   7.653   7.882   4.408
20598SOL    MW482713   7.661   7.964   4.438
20599SOL     OW82714   8.335   8.236   4.915
20599SOL    HW282715   8.293   8.154   4.891
20599SOL    HW382716   8.336   8.235   5.011
20599SOL    MW482717   8.328   8.225   4.924
20600SOL     OW82718   8.139   7.706   5.020
20600SOL    HW282719   8.070   7.769   5.041
20600SOL    HW382720   8.166   7.670   5.105
20600SOL    MW482721   8.133   7.709   5.033
20601SOL     OW82722   7.522   8.547   3.889
20601SOL    HW282723   7.491   8.612   3.952
20601SOL    HW382724   7.471   8.469   3.908
20601SOL    MW482725   7.512   8.544   3.899
20602SOL     OW82726   8.934   7.559   4.637
20602SOL    HW282727   9.022   7.568   4.674
20602SOL    HW382728   8.944   7.500   4.563
20602SOL    MW482729   8.948   7.553   4.631
20603SOL     OW82730   8.966   8.298   4.481
20603SOL    HW282731   9.046   8.313   4.430
20603SOL    HW382732   8.959   8.203   4.487
20603SOL    MW482733   8.975   8.287   4.476
20604SOL     OW82734   8.416   8.224   5.178
20604SOL    HW282735   8.485   8.291   5.175
20604SOL    HW382736   8.349   8.262   5.234
20604SOL    MW482737   8.417   8.237   5.185
20605SOL     OW82738   7.834   8.524   5.426
20605SOL    HW282739   7.788   8.440   5.428
20605SOL    HW382740   7.891   8.518   5.350
20605SOL    MW482741   7.836   8.512   5.418
20606SOL     OW82742   8.951   8.167   3.747
20606SOL    HW282743   8.879   8.143   3.689
20606SOL    HW382744   9.017   8.204   3.689
20606SOL    MW482745   8.950   8.169   3.732
20607SOL     OW82746   8.085   8.899   4.427
20607SOL    HW282747   8.150   8.832   4.448
20607SOL    HW382748   8.137   8.976   4.404
20607SOL    MW482749   8.100   8.901   4.426
20608SOL     OW82750   8.346   8.064   4.557
20608SOL    HW282751   8.286   8.082   4.629
20608SOL    HW382752   8.380   7.976   4.576
20608SOL    MW482753   8.342   8.054   4.570
20609SOL     OW82754   9.287   7.563   5.226
20609SOL    HW282755   9.208   7.609   5.254
20609SOL    HW382756   9.322   7.617   5.155
20609SOL    MW482757   9.281   7.576   5.220
20610SOL     OW82758   8.571   8.647   4.576
20610SOL    HW282759   8.663   8.628   4.594
20610SOL    HW382760   8.544   8.577   4.516
20610SOL    MW482761   8.579   8.635   4.570
20611SOL     OW82762   8.364   8.467   3.931
20611SOL    HW282763   8.350   8.379   3.896
20611SOL    HW382764   8.315   8.524   3.872
20611SOL    MW482765   8.356   8.462   3.919
20612SOL     OW82766   7.777   8.191   4.710
20612SOL    HW282767   7.727   8.190   4.791
20612SOL    HW382768   7.797   8.283   4.694
20612SOL    MW482769   7.773   8.203   4.718
20613SOL     OW82770   9.083   7.673   4.033
20613SOL    HW282771   9.076   7.677   4.128
20613SOL    HW382772   9.095   7.764   4.006
20613SOL    MW482773   9.084   7.686   4.041
20614SOL     OW82774   8.372   8.236   4.147
20614SOL    HW282775   8.352   8.222   4.054
20614SOL    HW382776   8.465   8.215   4.154
20614SOL    MW482777   8.382   8.231   4.136
20615SOL     OW82778   7.699   7.859   5.451
20615SOL    HW282779   7.656   7.918   5.388
20615SOL    HW382780   7.767   7.914   5.491
20615SOL    MW482781   7.703   7.874   5.448
20616SOL     OW82782   8.811   8.479   4.996
20616SOL    HW282783   8.874   8.476   5.069
20616SOL    HW382784   8.727   8.497   5.038
20616SOL    MW482785   8.807   8.481   5.011
20617SOL     OW82786   9.150   7.656   4.775
20617SOL    HW282787   9.195   7.574   4.794
20617SOL    HW382788   9.170   7.712   4.851
20617SOL    MW482789   9.160   7.652   4.787
20618SOL     OW82790   7.598   7.499   4.874
20618SOL    HW282791   7.589   7.500   4.779
20618SOL    HW382792   7.692   7.511   4.889
20618SOL    MW482793   7.610   7.502   4.865
20619SOL     OW82794   9.235   8.692   4.494
20619SOL    HW282795   9.214   8.638   4.417
20619SOL    HW382796   9.331   8.690   4.498
20619SOL    MW482797   9.244   8.685   4.483
20620SOL     OW82798   7.927   8.837   5.237
20620SOL    HW282799   7.848   8.787   5.260
20620SOL    HW382800   7.997   8.796   5.287
20620SOL    MW482801   7.925   8.825   5.247
20621SOL     OW82802   7.811   7.626   3.920
20621SOL    HW282803   7.740   7.681   3.888
20621SOL    HW382804   7.853   7.592   3.841
20621SOL    MW482805   7.807   7.628   3.906
20622SOL     OW82806   8.935   8.123   4.756
20622SOL    HW282807   8.858   8.169   4.722
20622SOL    HW382808   8.992   8.192   4.790
20622SOL    MW482809   8.932   8.138   4.756
20623SOL     OW82810   7.567   7.725   3.769
20623SOL    HW282811   7.534   7.804   3.813
20623SOL    HW382812   7.622   7.758   3.698
20623SOL    MW482813   7.570   7.739   3.766
20624SOL     OW82814   9.236   8.339   5.862
20624SOL    HW282815   9.277   8.281   5.927
20624SOL    HW382816   9.143   8.331   5.879
20624SOL    MW482817   9.230   8.331   5.872
20625SOL     OW82818   9.102   8.271   6.857
20625SOL    HW282819   9.057   8.338   6.908
20625SOL    HW382820   9.190   8.307   6.843
20625SOL    MW482821   9.108   8.284   6.861
20626SOL     OW82822   8.030   8.522   6.091
20626SOL    HW282823   8.120   8.497   6.075
20626SOL    HW382824   8.026   8.615   6.068
20626SOL    MW482825   8.042   8.531   6.086
20627SOL     OW82826   9.082   8.665   6.838
20627SOL    HW282827   9.003   8.630   6.796
20627SOL    HW382828   9.109   8.737   6.782
20627SOL    MW482829   9.075   8.670   6.825
20628SOL     OW82830   8.314   7.978   6.104
20628SOL    HW282831   8.289   8.066   6.132
20628SOL    HW382832   8.311   7.981   6.008
20628SOL    MW482833   8.310   7.990   6.096
20629SOL     OW82834   7.756   8.006   6.032
20629SOL    HW282835   7.788   8.094   6.014
20629SOL    HW382836   7.744   8.004   6.127
20629SOL    MW482837   7.759   8.018   6.044
20630SOL     OW82838   7.834   8.419   6.933
20630SOL    HW282839   7.897   8.366   6.884
20630SOL    HW382840   7.815   8.493   6.876
20630SOL    MW482841   7.840   8.421   6.920
20631SOL     OW82842   8.155   7.761   6.119
20631SOL    HW282843   8.213   7.837   6.121
20631SOL    HW382844   8.090   7.782   6.052
20631SOL    MW482845   8.154   7.773   6.110
20632SOL     OW82846   8.242   8.688   6.294
20632SOL    HW282847   8.322   8.691   6.346
20632SOL    HW382848   8.270   8.655   6.208
20632SOL    MW482849   8.256   8.684   6.289
20633SOL     OW82850   8.019   8.192   6.285
20633SOL    HW282851   8.004   8.112   6.336
20633SOL    HW382852   8.101   8.227   6.319
20633SOL    MW482853   8.027   8.184   6.297
20634SOL     OW82854   8.161   8.018   6.662
20634SOL    HW282855   8.067   8.014   6.680
20634SOL    HW382856   8.191   7.927   6.671
20634SOL    MW482857   8.152   8.006   6.665
20635SOL     OW82858   7.907   8.432   6.566
20635SOL    HW282859   7.862   8.439   6.482
20635SOL    HW382860   7.887   8.515   6.610
20635SOL    MW482861   7.899   8.444   6.560
20636SOL     OW82862   8.869   8.670   5.810
20636SOL    HW282863   8.787   8.706   5.776
20636SOL    HW382864   8.937   8.713   5.759
20636SOL    MW482865   8.867   8.680   5.798
20637SOL     OW82866   7.868   8.805   6.476
20637SOL    HW282867   7.844   8.858   6.552
20637SOL    HW382868   7.924   8.863   6.424
20637SOL    MW482869   7.872   8.820   6.479
20638SOL     OW82870   8.430   8.449   6.286
20638SOL    HW282871   8.344   8.436   6.326
20638SOL    HW382872   8.483   8.376   6.318
20638SOL    MW482873   8.426   8.438   6.295
20639SOL     OW82874   8.421   8.811   6.003
20639SOL    HW282875   8.398   8.873   6.071
20639SOL    HW382876   8.378   8.729   6.029
20639SOL    MW482877   8.413   8.807   6.014
20640SOL     OW82878   9.294   7.812   6.459
20640SOL    HW282879   9.231   7.792   6.528
20640SOL    HW382880   9.284   7.741   6.396
20640SOL    MW482881   9.284   7.799   6.460
20641SOL     OW82882   7.918   7.784   5.971
20641SOL    HW282883   7.892   7.746   5.887
20641SOL    HW382884   7.855   7.854   5.987
20641SOL    MW482885   7.907   7.787   5.962
20642SOL     OW82886   7.753   8.745   6.008
20642SOL    HW282887   7.701   8.813   5.964
20642SOL    HW382888   7.750   8.671   5.948
20642SOL    MW482889   7.745   8.744   5.995
20643SOL     OW82890   9.350   7.981   5.761
20643SOL    HW282891   9.259   7.983   5.789
20643SOL    HW382892   9.395   8.043   5.819
20643SOL    MW482893   9.343   7.989   5.771
20644SOL     OW82894   9.095   8.584   6.111
20644SOL    HW282895   9.005   8.584   6.146
20644SOL    HW382896   9.088   8.630   6.028
20644SOL    MW482897   9.082   8.590   6.105
20645SOL     OW82898   8.895   8.219   7.183
20645SOL    HW282899   8.964   8.157   7.160
20645SOL    HW382900   8.820   8.193   7.130
20645SOL    MW482901   8.895   8.206   7.174
20646SOL     OW82902   8.631   8.606   7.175
20646SOL    HW282903   8.616   8.699   7.160
20646SOL    HW382904   8.726   8.596   7.175
20646SOL    MW482905   8.640   8.616   7.172
20647SOL     OW82906   8.427   8.030   7.376
20647SOL    HW282907   8.517   8.031   7.343
20647SOL    HW382908   8.386   7.955   7.334
20647SOL    MW482909   8.433   8.020   7.367
20648SOL     OW82910   9.002   8.562   6.503
20648SOL    HW282911   9.005   8.496   6.434
20648SOL    HW382912   9.087   8.605   6.499
20648SOL    MW482913   9.014   8.558   6.494
20649SOL     OW82914   8.622   8.165   6.072
20649SOL    HW282915   8.648   8.189   5.983
20649SOL    HW382916   8.604   8.072   6.068
20649SOL    MW482917   8.624   8.157   6.059
20650SOL     OW82918   9.287   8.785   5.923
20650SOL    HW282919   9.243   8.826   5.998
20650SOL    HW382920   9.344   8.853   5.888
20650SOL    MW482921   9.289   8.799   5.928
20651SOL     OW82922   8.207   7.834   7.326
20651SOL    HW282923   8.217   7.760   7.266
20651SOL    HW382924   8.243   7.803   7.409
20651SOL    MW482925   8.213   7.820   7.328
20652SOL     OW82926   9.327   7.563   6.290
20652SOL    HW282927   9.381   7.514   6.352
20652SOL    HW382928   9.270   7.497   6.251
20652SOL    MW482929   9.327   7.547   6.292
20653SOL     OW82930   8.446   7.516   6.703
20653SOL    HW282931   8.405   7.594   6.665
20653SOL    HW382932   8.540   7.534   6.698
20653SOL    MW482933   8.452   7.528   6.698
20654SOL     OW82934   8.461   8.194   5.733
20654SOL    HW282935   8.463   8.141   5.654
20654SOL    HW382936   8.549   8.231   5.739
20654SOL    MW482937   8.473   8.193   5.722
20655SOL     OW82938   9.075   8.120   6.069
20655SOL    HW282939   9.114   8.120   6.156
20655SOL    HW382940   9.016   8.196   6.069
20655SOL    MW482941   9.072   8.131   6.080
20656SOL     OW82942   8.392   8.487   7.198
20656SOL    HW282943   8.369   8.467   7.288
20656SOL    HW382944   8.477   8.531   7.203
20656SOL    MW482945   8.399   8.490   7.210
20657SOL     OW82946   8.472   7.624   6.958
20657SOL    HW282947   8.478   7.586   6.871
20657SOL    HW382948   8.461   7.718   6.943
20657SOL    MW482949   8.473   7.632   6.946
20658SOL     OW82950   8.561   8.113   6.792
20658SOL    HW282951   8.636   8.142   6.739
20658SOL    HW382952   8.493   8.178   6.776
20658SOL    MW482953   8.562   8.125   6.782
20659SOL     OW82954   9.111   8.081   7.069
20659SOL    HW282955   9.092   7.990   7.048
20659SOL    HW382956   9.089   8.130   6.990
20659SOL    MW482957   9.106   8.074   7.056
20660SOL     OW82958   8.558   7.819   7.175
20660SOL    HW282959   8.524   7.858   7.094
20660SOL    HW382960   8.536   7.727   7.168
20660SOL    MW482961   8.551   7.812   7.165
20661SOL     OW82962   8.967   8.633   7.251
20661SOL    HW282963   9.049   8.674   7.281
20661SOL    HW382964   8.930   8.595   7.331
20661SOL    MW482965   8.973   8.634   7.266
20662SOL     OW82966   9.262   8.006   6.235
20662SOL    HW282967   9.351   7.975   6.252
20662SOL    HW382968   9.205   7.946   6.283
20662SOL    MW482969   9.265   7.994   6.244
20663SOL     OW82970   7.688   7.720   6.264
20663SOL    HW282971   7.679   7.660   6.190
20663SOL    HW382972   7.621   7.691   6.327
20663SOL    MW482973   7.678   7.707   6.262
20664SOL     OW82974   8.631   8.813   5.825
20664SOL    HW282975   8.581   8.815   5.907
20664SOL    HW382976   8.565   8.831   5.757
20664SOL    MW482977   8.617   8.815   5.827
20665SOL     OW82978   7.635   7.893   6.627
20665SOL    HW282979   7.607   7.984   6.636
20665SOL    HW382980   7.572   7.854   6.566
20665SOL    MW482981   7.622   7.899   6.621
20666SOL     OW82982   8.230   8.646   5.640
20666SOL    HW282983   8.152   8.592   5.627
20666SOL    HW382984   8.201   8.719   5.693
20666SOL    MW482985   8.216   8.648   5.645
20667SOL     OW82986   9.356   8.386   6.832
20667SOL    HW282987   9.372   8.424   6.745
20667SOL    HW382988   9.390   8.452   6.893
20667SOL    MW482989   9.363   8.399   6.828
20668SOL     OW82990   7.619   8.168   6.797
20668SOL    HW282991   7.681   8.198   6.863
20668SOL    HW382992   7.553   8.237   6.791
20668SOL    MW482993   7.618   8.181   6.804
20669SOL     OW82994   8.260   7.725   5.705
20669SOL    HW282995   8.208   7.645   5.693
20669SOL    HW382996   8.347   7.702   5.673
20669SOL    MW482997   8.263   7.711   5.699
20670SOL     OW82998   7.766   8.596   6.756
20670SOL    HW282999   7.819   8.671   6.781
20670SOL    HW383000   7.685   8.634   6.722
20670SOL    MW483001   7.762   8.611   6.756
20671SOL     OW83002   8.306   8.500   6.744
20671SOL    HW283003   8.334   8.409   6.756
20671SOL    HW383004   8.235   8.494   6.680
20671SOL    MW483005   8.299   8.488   6.739
20672SOL     OW83006   7.621   8.365   6.162
20672SOL    HW283007   7.712   8.380   6.189
20672SOL    HW383008   7.624   8.286   6.108
20672SOL    MW483009   7.633   8.357   6.160
20673SOL     OW83010   7.857   8.073   7.416
20673SOL    HW283011   7.804   8.153   7.423
20673SOL    HW383012   7.927   8.085   7.481
20673SOL    MW483013   7.859   8.086   7.424
20674SOL     OW83014   8.243   7.623   7.123
20674SOL    HW283015   8.220   7.531   7.125
20674SOL    HW383016   8.329   7.625   7.080
20674SOL    MW483017   8.250   7.613   7.119
20675SOL     OW83018   7.927   8.147   7.162
20675SOL    HW283019   8.007   8.197   7.148
20675SOL    HW383020   7.918   8.141   7.257
20675SOL    MW483021   7.936   8.153   7.172
20676SOL     OW83022   8.904   7.672   7.433
20676SOL    HW283023   8.960   7.599   7.459
20676SOL    HW383024   8.874   7.710   7.515
20676SOL    MW483025   8.908   7.667   7.446
20677SOL     OW83026   9.294   8.165   6.550
20677SOL    HW283027   9.383   8.195   6.532
20677SOL    HW383028   9.274   8.105   6.479
20677SOL    MW483029   9.303   8.162   6.539
20678SOL     OW83030   9.145   8.344   7.430
20678SOL    HW283031   9.200   8.268   7.411
20678SOL    HW383032   9.147   8.352   7.525
20678SOL    MW483033   9.153   8.335   7.438
20679SOL     OW83034   8.633   7.722   5.864
20679SOL    HW283035   8.566   7.698   5.801
20679SOL    HW383036   8.698   7.771   5.813
20679SOL    MW483037   8.633   7.724   5.849
20680SOL     OW83038   8.440   7.906   6.949
20680SOL    HW283039   8.359   7.947   6.977
20680SOL    HW383040   8.487   7.974   6.901
20680SOL    MW483041   8.435   7.921   6.947
20681SOL     OW83042   8.700   8.244   6.572
20681SOL    HW283043   8.713   8.338   6.582
20681SOL    HW383044   8.661   8.234   6.486
20681SOL    MW483045   8.696   8.255   6.562
20682SOL     OW83046   8.152   8.439   6.376
20682SOL    HW283047   8.063   8.430   6.409
20682SOL    HW383048   8.156   8.529   6.344
20682SOL    MW483049   8.141   8.450   6.376
20683SOL     OW83050   8.951   8.022   6.371
20683SOL    HW283051   8.896   7.943   6.370
20683SOL    HW383052   8.933   8.063   6.455
20683SOL    MW483053   8.941   8.017   6.380
20684SOL     OW83054   7.922   7.709   7.188
20684SOL    HW283055   7.843   7.727   7.240
20684SOL    HW383056   7.917   7.771   7.115
20684SOL    MW483057   7.912   7.719   7.185
20685SOL     OW83058   8.570   8.226   6.328
20685SOL    HW283059   8.507   8.158   6.352
20685SOL    HW383060   8.590   8.207   6.236
20685SOL    MW483061   8.564   8.213   6.320
20686SOL     OW83062   8.318   8.530   6.054
20686SOL    HW283063   8.320   8.504   5.961
20686SOL    HW383064   8.376   8.467   6.097
20686SOL    MW483065   8.326   8.519   6.048
20687SOL     OW83066   8.828   7.774   6.387
20687SOL    HW283067   8.856   7.706   6.448
20687SOL    HW383068   8.742   7.745   6.357
20687SOL    MW483069   8.821   7.761   6.391
20688SOL     OW83070   7.633   8.708   6.321
20688SOL    HW283071   7.697   8.740   6.384
20688SOL    HW383072   7.682   8.644   6.269
20688SOL    MW483073   7.648   8.704   6.322
20689SOL     OW83074   8.808   7.878   5.722
20689SOL    HW283075   8.781   7.944   5.658
20689SOL    HW383076   8.878   7.921   5.772
20689SOL    MW483077   8.813   7.891   5.719
20690SOL     OW83078   8.476   7.583   5.659
20690SOL    HW283079   8.532   7.575   5.581
20690SOL    HW383080   8.453   7.493   5.681
20690SOL    MW483081   8.481   7.570   5.652
20691SOL     OW83082   8.981   8.434   5.864
20691SOL    HW283083   8.948   8.523   5.854
20691SOL    HW383084   8.946   8.405   5.949
20691SOL    MW483085   8.971   8.443   5.875
20692SOL     OW83086   7.887   7.531   7.394
20692SOL    HW283087   7.815   7.496   7.342
20692SOL    HW383088   7.945   7.572   7.329
20692SOL    MW483089   7.885   7.532   7.379
20693SOL     OW83090   9.351   8.550   7.047
20693SOL    HW283091   9.266   8.563   7.006
20693SOL    HW383092   9.331   8.514   7.134
20693SOL    MW483093   9.338   8.546   7.052
20694SOL     OW83094   7.975   8.472   5.656
20694SOL    HW283095   7.898   8.485   5.712
20694SOL    HW383096   7.939   8.436   5.575
20694SOL    MW483097   7.961   8.468   5.653
20695SOL     OW83098   8.628   8.445   5.899
20695SOL    HW283099   8.538   8.466   5.874
20695SOL    HW383100   8.655   8.518   5.955
20695SOL    MW483101   8.620   8.457   5.902
20696SOL     OW83102   8.128   8.794   6.591
20696SOL    HW283103   8.121   8.773   6.685
20696SOL    HW383104   8.046   8.762   6.554
20696SOL    MW483105   8.116   8.788   6.598
20697SOL     OW83106   8.992   7.804   6.993
20697SOL    HW283107   8.939   7.806   7.073
20697SOL    HW383108   8.977   7.717   6.956
20697SOL    MW483109   8.984   7.794   6.998
20698SOL     OW83110   9.328   7.728   6.866
20698SOL    HW283111   9.309   7.795   6.801
20698SOL    HW383112   9.385   7.666   6.821
20698SOL    MW483113   9.332   7.729   6.852
20699SOL     OW83114   8.257   7.561   6.306
20699SOL    HW283115   8.186   7.622   6.288
20699SOL    HW383116   8.308   7.558   6.225
20699SOL    MW483117   8.253   7.567   6.293
20700SOL     OW83118   8.015   8.801   6.055
20700SOL    HW283119   8.008   8.833   6.145
20700SOL    HW383120   7.925   8.785   6.027
20700SOL    MW483121   8.003   8.803   6.062
20701SOL     OW83122   8.217   8.218   7.436
20701SOL    HW283123   8.287   8.160   7.408
20701SOL    HW383124   8.160   8.163   7.491
20701SOL    MW483125   8.219   8.205   7.440
20702SOL     OW83126   9.004   8.430   7.069
20702SOL    HW283127   9.009   8.483   7.149
20702SOL    HW383128   8.966   8.347   7.097
20702SOL    MW483129   9.000   8.425   7.084
20703SOL     OW83130   8.644   7.565   7.315
20703SOL    HW283131   8.639   7.472   7.296
20703SOL    HW383132   8.727   7.576   7.361
20703SOL    MW483133   8.652   7.554   7.319
20704SOL     OW83134   8.018   8.085   5.769
20704SOL    HW283135   7.984   8.141   5.839
20704SOL    HW383136   8.089   8.035   5.809
20704SOL    MW483137   8.024   8.086   5.783
20705SOL     OW83138   9.114   8.836   6.591
20705SOL    HW283139   9.149   8.818   6.504
20705SOL    HW383140   9.019   8.837   6.578
20705SOL    MW483141   9.106   8.833   6.578
20706SOL     OW83142   8.543   8.484   6.960
20706SOL    HW283143   8.586   8.519   7.038
20706SOL    HW383144   8.526   8.561   6.906
20706SOL    MW483145   8.546   8.499   6.963
20707SOL     OW83146   9.074   7.971   5.833
20707SOL    HW283147   9.066   8.042   5.770
20707SOL    HW383148   9.092   8.015   5.916
20707SOL    MW483149   9.075   7.985   5.835
20708SOL     OW83150   7.934   7.626   6.262
20708SOL    HW283151   7.984   7.669   6.193
20708SOL    HW383152   7.849   7.670   6.262
20708SOL    MW483153   7.931   7.639   6.253
20709SOL     OW83154   7.693   8.688   7.122
20709SOL    HW283155   7.721   8.641   7.200
20709SOL    HW383156   7.614   8.643   7.093
20709SOL    MW483157   7.686   8.677   7.128
20710SOL     OW83158   8.201   8.015   7.089
20710SOL    HW283159   8.173   8.103   7.113
20710SOL    HW383160   8.170   7.959   7.160
20710SOL    MW483161   8.193   8.018   7.101
20711SOL     OW83162   8.743   8.233   5.808
20711SOL    HW283163   8.790   8.251   5.727
20711SOL    HW383164   8.709   8.317   5.836
20711SOL    MW483165   8.745   8.247   5.801
20712SOL     OW83166   7.856   8.411   6.302
20712SOL    HW283167   7.914   8.467   6.250
20712SOL    HW383168   7.900   8.326   6.304
20712SOL    MW483169   7.869   8.408   6.295
20713SOL     OW83170   8.996   7.763   6.139
20713SOL    HW283171   8.918   7.713   6.164
20713SOL    HW383172   8.967   7.854   6.139
20713SOL    MW483173   8.982   7.767   6.142
20714SOL     OW83174   8.582   7.725   6.298
20714SOL    HW283175   8.602   7.800   6.242
20714SOL    HW383176   8.562   7.764   6.383
20714SOL    MW483177   8.583   7.741   6.302
20715SOL     OW83178   9.342   8.498   7.317
20715SOL    HW283179   9.255   8.478   7.353
20715SOL    HW383180   9.396   8.424   7.342
20715SOL    MW483181   9.337   8.487   7.325
20716SOL     OW83182   7.518   8.137   6.021
20716SOL    HW283183   7.458   8.109   6.091
20716SOL    HW383184   7.592   8.077   6.027
20716SOL    MW483185   7.520   8.126   6.030
20717SOL     OW83186   7.944   7.876   6.910
20717SOL    HW283187   7.977   7.957   6.950
20717SOL    HW383188   7.917   7.902   6.822
20717SOL    MW483189   7.943   7.890   6.904
20718SOL     OW83190   7.898   7.843   6.646
20718SOL    HW283191   7.928   7.757   6.617
20718SOL    HW383192   7.803   7.836   6.649
20718SOL    MW483193   7.890   7.832   6.644
20719SOL     OW83194   8.727   8.052   7.337
20719SOL    HW283195   8.779   7.987   7.290
20719SOL    HW383196   8.685   8.103   7.267
20719SOL    MW483197   8.728   8.049   7.320
20720SOL     OW83198   8.826   7.847   7.198
20720SOL    HW283199   8.733   7.831   7.185
20720SOL    HW383200   8.852   7.785   7.266
20720SOL    MW483201   8.816   7.837   7.205
20721SOL     OW83202   8.041   7.621   6.537
20721SOL    HW283203   8.051   7.530   6.563
20721SOL    HW383204   7.997   7.617   6.452
20721SOL    MW483205   8.037   7.609   6.529
20722SOL     OW83206   9.192   7.943   6.708
20722SOL    HW283207   9.125   7.976   6.768
20722SOL    HW383208   9.235   8.021   6.674
20722SOL    MW483209   9.190   7.958   6.712
20723SOL     OW83210   9.370   8.663   6.678
20723SOL    HW283211   9.363   8.603   6.603
20723SOL    HW383212   9.296   8.723   6.667
20723SOL    MW483213   9.360   8.663   6.667
20724SOL     OW83214   8.752   8.525   6.596
20724SOL    HW283215   8.766   8.497   6.687
20724SOL    HW383216   8.838   8.556   6.568
20724SOL    MW483217   8.765   8.526   6.605
20725SOL     OW83218   8.835   8.020   6.875
20725SOL    HW283219   8.856   8.021   6.782
20725SOL    HW383220   8.880   7.942   6.908
20725SOL    MW483221   8.842   8.010   6.867
20726SOL     OW83222   9.328   8.151   7.417
20726SOL    HW283223   9.365   8.096   7.486
20726SOL    HW383224   9.353   8.108   7.335
20726SOL    MW483225   9.335   8.139   7.416
20727SOL     OW83226   8.875   8.449   7.468
20727SOL    HW283227   8.941   8.397   7.422
20727SOL    HW383228   8.895   8.436   7.561
20727SOL    MW483229   8.886   8.440   7.475
20728SOL     OW83230   8.826   7.535   5.817
20728SOL    HW283231   8.900   7.579   5.860
20728SOL    HW383232   8.750   7.589   5.839
20728SOL    MW483233   8.826   7.547   5.825
20729SOL     OW83234   8.886   8.310   6.095
20729SOL    HW283235   8.801   8.280   6.065
20729SOL    HW383236   8.878   8.317   6.190
20729SOL    MW483237   8.874   8.308   6.104
20730SOL     OW83238   8.246   7.753   6.649
20730SOL    HW283239   8.219   7.755   6.740
20730SOL    HW383240   8.176   7.705   6.604
20730SOL    MW483241   8.234   7.749   6.656
20731SOL     OW83242   9.002   8.830   7.043
20731SOL    HW283243   8.987   8.759   7.106
20731SOL    HW383244   9.048   8.788   6.971
20731SOL    MW483245   9.008   8.814   7.043
20732SOL     OW83246   8.076   8.561   7.160
20732SOL    HW283247   8.113   8.566   7.072
20732SOL    HW383248   8.115   8.634   7.207
20732SOL    MW483249   8.086   8.571   7.155
20733SOL     OW83250   8.256   8.604   6.972
20733SOL    HW283251   8.315   8.550   7.025
20733SOL    HW383252   8.271   8.576   6.882
20733SOL    MW483253   8.266   8.593   6.968
20734SOL     OW83254   8.259   7.976   5.821
20734SOL    HW283255   8.332   8.025   5.784
20734SOL    HW383256   8.275   7.885   5.795
20734SOL    MW483257   8.271   7.971   5.814
20735SOL     OW83258   8.727   7.572   6.735
20735SOL    HW283259   8.782   7.581   6.657
20735SOL    HW383260   8.782   7.606   6.806
20735SOL    MW483261   8.741   7.577   6.734
20736SOL     OW83262   7.734   8.485   5.919
20736SOL    HW283263   7.671   8.501   5.848
20736SOL    HW383264   7.681   8.448   5.990
20736SOL    MW483265   7.719   8.482   5.919
20737SOL     OW83266   8.505   8.706   6.742
20737SOL    HW283267   8.437   8.640   6.758
20737SOL    HW383268   8.523   8.700   6.649
20737SOL    MW483269   8.498   8.697   6.733
20738SOL     OW83270   8.498   7.845   6.563
20738SOL    HW283271   8.428   7.797   6.608
20738SOL    HW383272   8.530   7.908   6.627
20738SOL    MW483273   8.493   7.847   6.577
20739SOL     OW83274   8.149   8.281   7.183
20739SOL    HW283275   8.142   8.376   7.171
20739SOL    HW383276   8.158   8.270   7.278
20739SOL    MW483277   8.150   8.293   7.193
20740SOL     OW83278   8.954   7.559   6.908
20740SOL    HW283279   9.025   7.505   6.872
20740SOL    HW383280   8.953   7.538   7.001
20740SOL    MW483281   8.963   7.550   6.916
20741SOL     OW83282   7.965   7.951   6.376
20741SOL    HW283283   8.036   7.899   6.339
20741SOL    HW383284   7.951   7.916   6.463
20741SOL    MW483285   7.973   7.940   6.383
20742SOL     OW83286   8.601   7.892   6.100
20742SOL    HW283287   8.623   7.829   6.032
20742SOL    HW383288   8.506   7.884   6.111
20742SOL    MW483289   8.591   7.883   6.092
20743SOL     OW83290   7.686   7.582   6.032
20743SOL    HW283291   7.757   7.603   5.971
20743SOL    HW383292   7.640   7.510   5.990
20743SOL    MW483293   7.690   7.576   6.018
20744SOL     OW83294   7.517   8.049   7.175
20744SOL    HW283295   7.581   8.115   7.150
20744SOL    HW383296   7.436   8.076   7.132
20744SOL    MW483297   7.515   8.061   7.167
20745SOL     OW83298   8.811   8.633   6.062
20745SOL    HW283299   8.783   8.719   6.095
20745SOL    HW383300   8.839   8.649   5.972
20745SOL    MW483301   8.811   8.647   6.054
20746SOL     OW83302   8.473   7.553   6.115
20746SOL    HW283303   8.510   7.612   6.180
20746SOL    HW383304   8.450   7.609   6.041
20746SOL    MW483305   8.474   7.568   6.114
20747SOL     OW83306   9.326   8.435   6.537
20747SOL    HW283307   9.317   8.467   6.448
20747SOL    HW383308   9.279   8.351   6.537
20747SOL    MW483309   9.319   8.428   6.527
20748SOL     OW83310   7.702   8.275   7.116
20748SOL    HW283311   7.723   8.344   7.054
20748SOL    HW383312   7.782   8.222   7.121
20748SOL    MW483313   7.715   8.276   7.110
20749SOL     OW83314   9.238   8.366   6.238
20749SOL    HW283315   9.332   8.355   6.226
20749SOL    HW383316   9.214   8.438   6.179
20749SOL    MW483317   9.248   8.374   6.229
20750SOL     OW83318   7.687   8.290   7.383
20750SOL    HW283319   7.613   8.234   7.409
20750SOL    HW383320   7.682   8.293   7.288
20750SOL    MW483321   7.676   8.283   7.373
20751SOL     OW83322   7.853   7.577   6.833
20751SOL    HW283323   7.896   7.661   6.853
20751SOL    HW383324   7.926   7.515   6.826
20751SOL    MW483325   7.868   7.580   6.834
20752SOL     OW83326   7.894   8.244   6.011
20752SOL    HW283327   7.894   8.339   5.996
20752SOL    HW383328   7.971   8.228   6.065
20752SOL    MW483329   7.904   8.255   6.016
20753SOL     OW83330   8.670   8.103   7.075
20753SOL    HW283331   8.706   8.076   6.991
20753SOL    HW383332   8.583   8.137   7.054
20753SOL    MW483333   8.664   8.104   7.062
20754SOL     OW83334   7.653   7.975   6.300
20754SOL    HW283335   7.715   7.982   6.373
20754SOL    HW383336   7.653   7.882   6.277
20754SOL    MW483337   7.661   7.964   6.307
20755SOL     OW83338   8.335   8.236   6.784
20755SOL    HW283339   8.293   8.154   6.760
20755SOL    HW383340   8.336   8.235   6.880
20755SOL    MW483341   8.328   8.225   6.793
20756SOL     OW83342   8.139   7.706   6.889
20756SOL    HW283343   8.070   7.769   6.910
20756SOL    HW383344   8.166   7.670   6.974
20756SOL    MW483345   8.133   7.709   6.902
20757SOL     OW83346   7.522   8.547   5.758
20757SOL    HW283347   7.491   8.612   5.821
20757SOL    HW383348   7.471   8.469   5.777
20757SOL    MW483349   7.512   8.544   5.768
20758SOL     OW83350   8.934   7.559   6.506
20758SOL    HW283351   9.022   7.568   6.543
20758SOL    HW383352   8.944   7.500   6.432
20758SOL    MW483353   8.948   7.553   6.500
20759SOL     OW83354   8.966   8.298   6.350
20759SOL    HW283355   9.046   8.313   6.299
20759SOL    HW383356   8.959   8.203   6.356
20759SOL    MW483357   8.975   8.287   6.345
20760SOL     OW83358   8.416   8.224   7.047
20760SOL    HW283359   8.485   8.291   7.044
20760SOL    HW383360   8.349   8.262   7.103
20760SOL    MW483361   8.417   8.237   7.054
20761SOL     OW83362   7.834   8.524   7.295
20761SOL    HW283363   7.788   8.440   7.297
20761SOL    HW383364   7.891   8.518   7.219
20761SOL    MW483365   7.836   8.512   7.287
20762SOL     OW83366   8.951   8.167   5.615
20762SOL    HW283367   8.879   8.143   5.557
20762SOL    HW383368   9.017   8.204   5.557
20762SOL    MW483369   8.950   8.169   5.600
20763SOL     OW83370   8.085   8.899   6.296
20763SOL    HW283371   8.150   8.832   6.317
20763SOL    HW383372   8.137   8.976   6.273
20763SOL    MW483373   8.100   8.901   6.295
20764SOL     OW83374   8.346   8.064   6.426
20764SOL    HW283375   8.286   8.082   6.498
20764SOL    HW383376   8.380   7.976   6.445
20764SOL    MW483377   8.342   8.054   6.439
20765SOL     OW83378   9.287   7.563   7.095
20765SOL    HW283379   9.208   7.609   7.123
20765SOL    HW383380   9.322   7.617   7.024
20765SOL    MW483381   9.281   7.576   7.089
20766SOL     OW83382   8.571   8.647   6.445
20766SOL    HW283383   8.663   8.628   6.463
20766SOL    HW383384   8.544   8.577   6.385
20766SOL    MW483385   8.579   8.635   6.439
20767SOL     OW83386   8.364   8.467   5.800
20767SOL    HW283387   8.350   8.379   5.765
20767SOL    HW383388   8.315   8.524   5.741
20767SOL    MW483389   8.356   8.462   5.788
20768SOL     OW83390   7.777   8.191   6.579
20768SOL    HW283391   7.727   8.190   6.660
20768SOL    HW383392   7.797   8.283   6.563
20768SOL    MW483393   7.773   8.203   6.587
20769SOL     OW83394   8.844   8.955   7.341
20769SOL    HW283395   8.844   9.049   7.357
20769SOL    HW383396   8.889   8.945   7.257
20769SOL    MW483397   8.850   8.965   7.332
20770SOL     OW83398   9.083   7.673   5.902
20770SOL    HW283399   9.076   7.677   5.997
20770SOL    HW383400   9.095   7.764   5.875
20770SOL    MW483401   9.084   7.686   5.910
20771SOL     OW83402   8.372   8.236   6.016
20771SOL    HW283403   8.352   8.222   5.923
20771SOL    HW383404   8.465   8.215   6.023
20771SOL    MW483405   8.382   8.231   6.005
20772SOL     OW83406   7.699   7.859   7.320
20772SOL    HW283407   7.656   7.918   7.257
20772SOL    HW383408   7.767   7.914   7.360
20772SOL    MW483409   7.703   7.874   7.317
20773SOL     OW83410   8.811   8.479   6.865
20773SOL    HW283411   8.874   8.476   6.938
20773SOL    HW383412   8.727   8.497   6.907
20773SOL    MW483413   8.807   8.481   6.880
20774SOL     OW83414   9.150   7.656   6.644
20774SOL    HW283415   9.195   7.574   6.663
20774SOL    HW383416   9.170   7.712   6.720
20774SOL    MW483417   9.160   7.652   6.656
20775SOL     OW83418   7.598   7.499   6.743
20775SOL    HW283419   7.589   7.500   6.648
20775SOL    HW383420   7.692   7.511   6.758
20775SOL    MW483421   7.610   7.502   6.734
20776SOL     OW83422   9.235   8.692   6.363
20776SOL    HW283423   9.214   8.638   6.286
20776SOL    HW383424   9.331   8.690   6.367
20776SOL    MW483425   9.244   8.685   6.352
20777SOL     OW83426   7.927   8.837   7.106
20777SOL    HW283427   7.848   8.787   7.129
20777SOL    HW383428   7.997   8.796   7.156
20777SOL    MW483429   7.925   8.825   7.116
20778SOL     OW83430   7.811   7.626   5.789
20778SOL    HW283431   7.740   7.681   5.757
20778SOL    HW383432   7.853   7.592   5.710
20778SOL    MW483433   7.807   7.628   5.775
20779SOL     OW83434   8.935   8.123   6.625
20779SOL    HW283435   8.858   8.169   6.591
20779SOL    HW383436   8.992   8.192   6.659
20779SOL    MW483437   8.932   8.138   6.625
20780SOL     OW83438   7.567   7.725   5.638
20780SOL    HW283439   7.534   7.804   5.682
20780SOL    HW383440   7.622   7.758   5.567
20780SOL    MW483441   7.570   7.739   5.635
20781SOL     OW83442   9.621   8.745   0.403
20781SOL    HW283443   9.569   8.813   0.359
20781SOL    HW383444   9.618   8.671   0.343
20781SOL    MW483445   9.613   8.744   0.390
20782SOL     OW83446   8.869   8.670   7.705
20782SOL    HW283447   8.787   8.706   7.671
20782SOL    HW383448   8.937   8.713   7.654
20782SOL    MW483449   8.867   8.680   7.693
20783SOL     OW83450   8.421   8.811   7.898
20783SOL    HW283451   8.398   8.873   7.966
20783SOL    HW383452   8.378   8.729   7.924
20783SOL    MW483453   8.413   8.807   7.909
20784SOL     OW83454   8.461   8.194   7.628
20784SOL    HW283455   8.463   8.141   7.549
20784SOL    HW383456   8.549   8.231   7.634
20784SOL    MW483457   8.473   8.193   7.617
20785SOL     OW83458   8.230   8.646   7.535
20785SOL    HW283459   8.152   8.592   7.522
20785SOL    HW383460   8.201   8.719   7.588
20785SOL    MW483461   8.216   8.648   7.540
20786SOL     OW83462   8.260   7.725   7.600
20786SOL    HW283463   8.208   7.645   7.588
20786SOL    HW383464   8.347   7.702   7.568
20786SOL    MW483465   8.263   7.711   7.594
20787SOL     OW83466   8.318   8.530   7.949
20787SOL    HW283467   8.320   8.504   7.856
20787SOL    HW383468   8.376   8.467   7.992
20787SOL    MW483469   8.326   8.519   7.943
20788SOL     OW83470   8.476   7.583   7.554
20788SOL    HW283471   8.532   7.575   7.476
20788SOL    HW383472   8.453   7.493   7.576
20788SOL    MW483473   8.481   7.570   7.547
20789SOL     OW83474   7.975   8.472   7.551
20789SOL    HW283475   7.898   8.485   7.607
20789SOL    HW383476   7.939   8.436   7.470
20789SOL    MW483477   7.961   8.468   7.548
20790SOL     OW83478   8.628   8.445   7.794
20790SOL    HW283479   8.538   8.466   7.769
20790SOL    HW383480   8.655   8.518   7.850
20790SOL    MW483481   8.620   8.457   7.797
20791SOL     OW83482   8.018   8.085   7.664
20791SOL    HW283483   7.984   8.141   7.734
20791SOL    HW383484   8.089   8.035   7.704
20791SOL    MW483485   8.024   8.086   7.678
20792SOL     OW83486   8.886   8.310   7.990
20792SOL    HW283487   8.801   8.280   7.960
20792SOL    HW383488   8.878   8.317   8.085
20792SOL    MW483489   8.874   8.308   7.999
20793SOL     OW83490   8.951   8.167   7.511
20793SOL    HW283491   8.879   8.143   7.453
20793SOL    HW383492   9.017   8.204   7.453
20793SOL    MW483493   8.950   8.169   7.496
20794SOL     OW83494   7.567   7.725   7.533
20794SOL    HW283495   7.534   7.804   7.577
20794SOL    HW383496   7.622   7.758   7.462
20794SOL    MW483497   7.570   7.739   7.530
20795NA      NA83498   1.170   0.603   3.338
20796NA      NA83499   0.730   1.146   3.771
20797NA      NA83500   0.398   0.343   4.777
20798NA      NA83501   1.850   0.481   5.761
20799NA      NA83502   0.074   3.254   3.517
20800NA      NA83503   1.386   4.546   2.358
20801NA      NA83504   0.961   4.430   3.864
20802NA      NA83505   1.502   6.935   1.438
20803NA      NA83506   3.710   0.998   7.317
20804NA      NA83507   3.132   1.333   6.809
20805NA      NA83508   3.360   2.172   1.388
20806NA      NA83509   1.886   2.505   0.416
20807NA      NA83510   3.370   3.198   3.306
20808NA      NA83511   3.322   1.927   5.039
20809NA      NA83512   2.145   4.427   6.579
20810NA      NA83513   2.798   6.554   4.417
20811NA      NA83514   3.243   7.403   4.387
20812NA      NA83515   1.962   7.086   6.993
20813NA      NA83516   4.592   1.378   3.233
20814NA      NA83517   4.666   0.949   4.417
20815NA      NA83518   3.756   1.786   7.448
20816NA      NA83519   4.657   3.179   6.003
20817NA      NA83520   4.676   4.142   5.080
20818NA      NA83521   5.319   5.778   0.297
20819NA      NA83522   4.342   7.452   1.963
20820NA      NA83523   6.520   1.708   0.181
20821NA      NA83524   6.775   0.603   1.470
20822NA      NA83525   6.687   0.225   4.429
20823NA      NA83526   6.581   0.083   5.659
20824NA      NA83527   6.749   1.933   3.578
20825NA      NA83528   6.497   4.723   3.461
20826NA      NA83529   6.238   5.020   7.303
20827NA      NA83530   7.207   6.376   3.120
20828NA      NA83531   7.207   6.376   6.857
20829NA      NA83532   7.358   7.280   6.973
20830NA      NA83533   1.736   2.707   7.757
20831NA      NA83534   4.697   4.430   7.628
20832NA      NA83535   2.939   8.647   0.840
20833NA      NA83536   3.560   7.943   2.971
20834NA      NA83537   2.054   7.582   4.163
20835NA      NA83538   3.196   7.774   6.387
20836NA      NA83539   4.666   8.449   6.286
20837NA      NA83540   5.471   8.692   6.363
20838NA      NA83541   5.044   7.878   7.617
20839NA      NA83542   9.095   1.084   0.506
20840NA      NA83543   9.351   1.050   1.442
20841NA      NA83544   7.520   1.786   1.843
20842NA      NA83545   7.563   1.511   2.737
20843NA      NA83546   8.571   1.147   4.576
20844NA      NA83547   8.622   0.665   6.072
20845NA      NA83548   9.082   3.033   6.838
20846NA      NA83549   8.243   3.859   3.386
20847NA      NA83550   8.335   4.472   3.047
20848NA      NA83551   8.904   3.908   5.564
20849NA      NA83552   8.090   5.075   3.909
20850NA      NA83553   7.687   4.526   5.514
20851NA      NA83554   7.636   7.204   2.998
20852NA      NA83555   8.246   7.753   4.780
20853CL      CL83556   0.846   0.564   2.689
20854CL      CL83557   1.144   0.065   7.315
20855CL      CL83558   0.368   3.173   0.871
20856CL      CL83559   0.628   3.162   4.722
20857CL      CL83560   0.635   3.604   7.083
20858CL      CL83561   0.742   4.924   4.425
20859CL      CL83562   0.916   6.329   1.442
20860CL      CL83563   2.503   3.604   3.346
20861CL      CL83564   2.330   5.009   1.221
20862CL      CL83565   3.590   4.987   7.330
20863CL      CL83566   2.444   4.797   7.160
20864CL      CL83567   3.696   5.833   3.129
20865CL      CL83568   3.132   6.938   3.072
20866CL      CL83569   3.194   5.640   5.817
20867CL      CL83570   5.081   1.385   0.936
20868CL      CL83571   4.657   1.311   2.266
20869CL      CL83572   5.368   1.754   4.860
20870CL      CL83573   3.857   0.865   6.162
20871CL      CL83574   5.240   4.666   1.464
20872CL      CL83575   3.840   5.514   4.572
20873CL      CL83576   5.044   4.114   3.853
20874CL      CL83577   4.158   3.945   7.188
20875CL      CL83578   4.336   7.350   3.074
20876CL      CL83579   6.049   0.376   5.041
20877CL      CL83580   6.411   1.000   6.744
20878CL      CL83581   6.715   3.562   5.095
20879CL      CL83582   6.365   2.093   5.705
20880CL      CL83583   5.672   3.961   0.033
20881CL      CL83584   6.123   4.321   3.900
20882CL      CL83585   7.343   4.602   4.369
20883CL      CL83586   5.992   3.767   7.394
20884CL      CL83587   7.255   3.892   6.644
20885CL      CL83588   6.663   5.924   1.570
20886CL      CL83589   6.497   6.592   3.461
20887CL      CL83590   6.675   6.331   4.459
20888CL      CL83591   6.578   5.658   4.246
20889CL      CL83592   0.594   3.599   7.828
20890CL      CL83593   2.627   2.344   7.716
20891CL      CL83594   5.044   2.246   7.617
20892CL      CL83595   0.717   8.218   1.831
20893CL      CL83596   1.335   8.020   5.006
20894CL      CL83597   1.375   8.449   7.468
20895CL      CL83598   2.873   8.706   4.873
20896CL      CL83599   3.243   8.449   7.468
20897CL      CL83600   2.262   8.244   6.011
20898CL      CL83601   5.062   7.535   0.212
20899CL      CL83602   5.238   8.830   1.438
20900CL      CL83603   4.002   8.596   3.019
20901CL      CL83604   4.741   8.706   3.005
20902CL      CL83605   7.870   1.296   1.836
20903CL      CL83606   8.811   1.662   1.971
20904CL      CL83607   8.306   2.868   1.139
20905CL      CL83608   8.992   4.040   1.388
20906CL      CL83609   8.090   5.075   2.041
20907CL      CL83610   8.826   3.771   3.948
20908CL      CL83611   7.853   3.813   4.964
20909CL      CL83612   7.927   6.252   3.425
20910CL      CL83613   9.287   6.890   4.054
20911CL      CL83614   8.135   7.341   7.083
20912CL      CL83615   9.238   6.471   6.238
20913CL      CL83616   7.653   6.080   6.300
20914CL      CL83617   8.601   7.892   2.363
20915CL      CL83618   9.102   8.271   4.988
   9.43716   8.89744   7.70541   0.00000   0.00000   3.14572   0.00000  -3.14572   4.44872
