Gyas ROwers Mature At Cryogenic Speed
83981
    1ASP      N    1   6.804   6.970   1.652
    1ASP     H1    2   6.740   6.968   1.575
    1ASP     H2    3   6.804   7.062   1.693
    1ASP     H3    4   6.896   6.949   1.619
    1ASP     CA    5   6.763   6.871   1.752
    1ASP     HA    6   6.767   6.780   1.712
    1ASP     CB    7   6.861   6.874   1.870
    1ASP    HB1    8   6.842   6.954   1.927
    1ASP    HB2    9   6.955   6.879   1.835
    1ASP     CG   10   6.844   6.748   1.953
    1ASP    OD1   11   6.809   6.646   1.889
    1ASP    OD2   12   6.861   6.758   2.076
    1ASP      C   13   6.620   6.901   1.792
    1ASP      O   14   6.588   7.014   1.827
    2SER      N   15   6.530   6.808   1.761
    2SER      H   16   6.563   6.714   1.747
    2SER     CA   17   6.387   6.834   1.748
    2SER     HA   18   6.379   6.913   1.688
    2SER     CB   19   6.319   6.713   1.685
    2SER    HB1   20   6.219   6.723   1.686
    2SER    HB2   21   6.343   6.628   1.733
    2SER     OG   22   6.361   6.702   1.551
    2SER     HG   23   6.317   6.623   1.508
    2SER      C   24   6.325   6.870   1.883
    2SER      O   25   6.297   6.784   1.965
    3HIS      N   26   6.292   6.999   1.897
    3HIS      H   27   6.334   7.061   1.830
    3HIS     CA   28   6.205   7.062   1.996
    3HIS     HA   29   6.242   7.037   2.086
    3HIS     CB   30   6.212   7.215   1.972
    3HIS    HB1   31   6.121   7.249   1.952
    3HIS    HB2   32   6.272   7.233   1.894
    3HIS     CG   33   6.266   7.295   2.088
    3HIS    ND1   34   6.248   7.269   2.222
    3HIS    CE1   35   6.313   7.364   2.291
    3HIS    HE1   36   6.317   7.369   2.391
    3HIS    NE2   37   6.369   7.452   2.207
    3HIS    HE2   38   6.422   7.533   2.233
    3HIS    CD2   39   6.340   7.409   2.078
    3HIS    HD2   40   6.369   7.454   1.993
    3HIS      C   41   6.060   7.010   1.994
    3HIS      O   42   5.963   7.083   2.015
    4ALA      N   43   6.041   6.882   1.964
    4ALA      H   44   6.121   6.822   1.960
    4ALA     CA   45   5.912   6.824   1.938
    4ALA     HA   46   5.844   6.870   1.996
    4ALA     CB   47   5.878   6.847   1.790
    4ALA    HB1   48   5.788   6.807   1.770
    4ALA    HB2   49   5.875   6.945   1.771
    4ALA    HB3   50   5.947   6.803   1.733
    4ALA      C   51   5.914   6.677   1.977
    4ALA      O   52   5.962   6.593   1.900
    5LYS      N   53   5.849   6.649   2.089
    5LYS      H   54   5.867   6.708   2.168
    5LYS     CA   55   5.752   6.540   2.110
    5LYS     HA   56   5.667   6.591   2.125
    5LYS     CB   57   5.731   6.449   1.986
    5LYS    HB1   58   5.676   6.370   2.013
    5LYS    HB2   59   5.820   6.418   1.954
    5LYS     CG   60   5.659   6.523   1.871
    5LYS    HG1   61   5.696   6.615   1.864
    5LYS    HG2   62   5.561   6.527   1.892
    5LYS     CD   63   5.675   6.454   1.735
    5LYS    HD1   64   5.627   6.366   1.736
    5LYS    HD2   65   5.772   6.438   1.717
    5LYS     CE   66   5.617   6.543   1.623
    5LYS    HE1   67   5.669   6.628   1.619
    5LYS    HE2   68   5.521   6.563   1.643
    5LYS     NZ   69   5.623   6.478   1.490
    5LYS    HZ1   70   5.585   6.539   1.421
    5LYS    HZ2   71   5.719   6.458   1.467
    5LYS    HZ3   72   5.571   6.392   1.492
    5LYS      C   73   5.781   6.459   2.237
    5LYS      O   74   5.862   6.368   2.239
    6ARG      N   75   5.694   6.483   2.335
    6ARG      H   76   5.668   6.579   2.352
    6ARG     CA   77   5.633   6.380   2.420
    6ARG     HA   78   5.565   6.433   2.470
    6ARG     CB   79   5.576   6.267   2.330
    6ARG    HB1   80   5.536   6.198   2.390
    6ARG    HB2   81   5.652   6.227   2.279
    6ARG     CG   82   5.469   6.304   2.228
    6ARG    HG1   83   5.498   6.384   2.175
    6ARG    HG2   84   5.383   6.324   2.275
    6ARG     CD   85   5.452   6.182   2.136
    6ARG    HD1   86   5.449   6.099   2.191
    6ARG    HD2   87   5.528   6.178   2.072
    6ARG     NE   88   5.327   6.191   2.059
    6ARG     HE   89   5.259   6.257   2.091
    6ARG     CZ   90   5.297   6.120   1.951
    6ARG    NH1   91   5.383   6.041   1.893
    6ARG   HH11   92   5.475   6.032   1.930
    6ARG   HH12   93   5.356   5.989   1.812
    6ARG    NH2   94   5.177   6.128   1.900
    6ARG   HH21   95   5.109   6.188   1.942
    6ARG   HH22   96   5.154   6.075   1.819
    6ARG      C   97   5.723   6.316   2.525
    6ARG      O   98   5.745   6.197   2.516
    7HIS      N   99   5.762   6.385   2.632
    7HIS      H  100   5.764   6.485   2.629
    7HIS     CA  101   5.802   6.316   2.755
    7HIS     HA  102   5.759   6.226   2.751
    7HIS     CB  103   5.955   6.290   2.758
    7HIS    HB1  104   5.987   6.301   2.852
    7HIS    HB2  105   5.999   6.357   2.699
    7HIS     CG  106   5.996   6.151   2.711
    7HIS    ND1  107   5.970   6.092   2.589
    7HIS    CE1  108   6.014   5.966   2.589
    7HIS    HE1  109   6.004   5.901   2.513
    7HIS    NE2  110   6.073   5.940   2.706
    7HIS    HE2  111   6.116   5.853   2.733
    7HIS    CD2  112   6.064   6.056   2.783
    7HIS    HD2  113   6.102   6.068   2.875
    7HIS      C  114   5.745   6.386   2.880
    7HIS      O  115   5.799   6.482   2.932
    8HIS      N  116   5.630   6.336   2.927
    8HIS      H  117   5.560   6.309   2.860
    8HIS     CA  118   5.600   6.320   3.070
    8HIS     HA  119   5.501   6.304   3.064
    8HIS     CB  120   5.682   6.200   3.121
    8HIS    HB1  121   5.677   6.197   3.221
    8HIS    HB2  122   5.778   6.211   3.093
    8HIS     CG  123   5.631   6.070   3.066
    8HIS    ND1  124   5.504   6.021   3.085
    8HIS    CE1  125   5.496   5.902   3.024
    8HIS    HE1  126   5.415   5.843   3.022
    8HIS    NE2  127   5.613   5.873   2.966
    8HIS    HE2  128   5.633   5.790   2.912
    8HIS    CD2  129   5.701   5.978   2.992
    8HIS    HD2  130   5.796   5.985   2.963
    8HIS      C  131   5.597   6.439   3.168
    8HIS      O  132   5.622   6.420   3.286
    9GLY      N  133   5.552   6.558   3.127
    9GLY      H  134   5.537   6.574   3.029
    9GLY     CA  135   5.525   6.667   3.223
    9GLY    HA1  136   5.546   6.753   3.176
    9GLY    HA2  137   5.588   6.655   3.299
    9GLY      C  138   5.382   6.675   3.278
    9GLY      O  139   5.359   6.737   3.382
   10TYR      N  140   5.283   6.614   3.213
   10TYR      H  141   5.307   6.549   3.140
   10TYR     CA  142   5.141   6.637   3.242
   10TYR     HA  143   5.138   6.734   3.265
   10TYR     CB  144   5.055   6.609   3.118
   10TYR    HB1  145   5.091   6.663   3.042
   10TYR    HB2  146   4.961   6.638   3.137
   10TYR     CG  147   5.052   6.464   3.076
   10TYR    CD1  148   5.141   6.417   2.977
   10TYR    HD1  149   5.205   6.481   2.934
   10TYR    CE1  150   5.139   6.282   2.938
   10TYR    HE1  151   5.202   6.249   2.867
   10TYR     CZ  152   5.048   6.193   2.999
   10TYR     OH  153   5.047   6.062   2.964
   10TYR     HH  154   4.977   6.014   3.017
   10TYR    CE2  155   4.959   6.239   3.098
   10TYR    HE2  156   4.895   6.176   3.141
   10TYR    CD2  157   4.960   6.375   3.135
   10TYR    HD2  158   4.896   6.408   3.205
   10TYR      C  159   5.087   6.565   3.368
   10TYR      O  160   4.968   6.573   3.397
   11LYS      N  161   5.173   6.499   3.447
   11LYS      H  162   5.267   6.486   3.416
   11LYS     CA  163   5.134   6.445   3.579
   11LYS     HA  164   5.039   6.415   3.568
   11LYS     CB  165   5.217   6.321   3.617
   11LYS    HB1  166   5.202   6.302   3.714
   11LYS    HB2  167   5.314   6.342   3.602
   11LYS     CG  168   5.180   6.196   3.536
   11LYS    HG1  169   5.214   6.206   3.442
   11LYS    HG2  170   5.081   6.186   3.535
   11LYS     CD  171   5.244   6.072   3.600
   11LYS    HD1  172   5.212   6.064   3.695
   11LYS    HD2  173   5.343   6.082   3.599
   11LYS     CE  174   5.205   5.945   3.524
   11LYS    HE1  175   5.236   5.952   3.429
   11LYS    HE2  176   5.106   5.934   3.526
   11LYS     NZ  177   5.267   5.823   3.584
   11LYS    HZ1  178   5.239   5.743   3.532
   11LYS    HZ2  179   5.366   5.832   3.582
   11LYS    HZ3  180   5.236   5.814   3.679
   11LYS      C  181   5.137   6.554   3.686
   11LYS      O  182   5.196   6.535   3.793
   12ARG      N  183   5.070   6.667   3.662
   12ARG      H  184   5.038   6.685   3.569
   12ARG     CA  185   5.041   6.764   3.768
   12ARG     HA  186   5.122   6.778   3.825
   12ARG     CB  187   5.011   6.902   3.706
   12ARG    HB1  188   4.912   6.915   3.700
   12ARG    HB2  189   5.050   6.906   3.614
   12ARG     CG  190   5.071   7.015   3.790
   12ARG    HG1  191   5.171   7.011   3.783
   12ARG    HG2  192   5.044   7.001   3.886
   12ARG     CD  193   5.025   7.155   3.747
   12ARG    HD1  194   5.049   7.170   3.651
   12ARG    HD2  195   5.069   7.224   3.804
   12ARG     NE  196   4.879   7.171   3.760
   12ARG     HE  197   4.825   7.088   3.773
   12ARG     CZ  198   4.811   7.284   3.756
   12ARG    NH1  199   4.870   7.400   3.743
   12ARG   HH11  200   4.969   7.405   3.736
   12ARG   HH12  201   4.815   7.484   3.741
   12ARG    NH2  202   4.681   7.283   3.766
   12ARG   HH21  203   4.632   7.197   3.776
   12ARG   HH22  204   4.630   7.369   3.763
   12ARG      C  205   4.930   6.705   3.856
   12ARG      O  206   4.813   6.738   3.841
   13LYS      N  207   4.966   6.607   3.940
   13LYS      H  208   5.063   6.585   3.945
   13LYS     CA  209   4.875   6.531   4.027
   13LYS     HA  210   4.793   6.509   3.974
   13LYS     CB  211   4.942   6.397   4.066
   13LYS    HB1  212   5.001   6.413   4.145
   13LYS    HB2  213   4.997   6.365   3.989
   13LYS     CG  214   4.842   6.285   4.104
   13LYS    HG1  215   4.789   6.261   4.022
   13LYS    HG2  216   4.780   6.320   4.174
   13LYS     CD  217   4.912   6.159   4.156
   13LYS    HD1  218   4.952   6.179   4.246
   13LYS    HD2  219   4.985   6.133   4.093
   13LYS     CE  220   4.814   6.042   4.170
   13LYS    HE1  221   4.790   6.007   4.079
   13LYS    HE2  222   4.731   6.073   4.217
   13LYS     NZ  223   4.871   5.929   4.248
   13LYS    HZ1  224   4.804   5.855   4.254
   13LYS    HZ2  225   4.954   5.895   4.202
   13LYS    HZ3  226   4.895   5.960   4.340
   13LYS      C  227   4.829   6.617   4.146
   13LYS      O  228   4.850   6.580   4.260
   14PHE      N  229   4.769   6.732   4.118
   14PHE      H  230   4.772   6.766   4.024
   14PHE     CA  231   4.697   6.813   4.217
   14PHE     HA  232   4.750   6.812   4.302
   14PHE     CB  233   4.687   6.960   4.170
   14PHE    HB1  234   4.599   6.997   4.200
   14PHE    HB2  235   4.692   6.962   4.070
   14PHE     CG  236   4.795   7.051   4.223
   14PHE    CD1  237   4.773   7.128   4.339
   14PHE    HD1  238   4.685   7.122   4.387
   14PHE    CE1  239   4.873   7.214   4.388
   14PHE    HE1  240   4.857   7.268   4.470
   14PHE     CZ  241   4.996   7.224   4.321
   14PHE     HZ  242   5.067   7.286   4.355
   14PHE    CE2  243   5.020   7.147   4.205
   14PHE    HE2  244   5.107   7.153   4.157
   14PHE    CD2  245   4.919   7.060   4.158
   14PHE    HD2  246   4.937   7.004   4.077
   14PHE      C  247   4.560   6.749   4.241
   14PHE      O  248   4.461   6.791   4.182
   15HIS      N  249   4.555   6.646   4.324
   15HIS      H  250   4.639   6.596   4.344
   15HIS     CA  251   4.430   6.602   4.389
   15HIS     HA  252   4.355   6.644   4.339
   15HIS     CB  253   4.408   6.450   4.377
   15HIS    HB1  254   4.325   6.426   4.427
   15HIS    HB2  255   4.487   6.403   4.417
   15HIS     CG  256   4.394   6.403   4.235
   15HIS    ND1  257   4.496   6.360   4.154
   15HIS    CE1  258   4.443   6.325   4.035
   15HIS    HE1  259   4.496   6.290   3.958
   15HIS    NE2  260   4.311   6.342   4.036
   15HIS    HE2  261   4.248   6.323   3.961
   15HIS    CD2  262   4.278   6.393   4.162
   15HIS    HD2  263   4.186   6.417   4.194
   15HIS      C  264   4.429   6.653   4.534
   15HIS      O  265   4.400   6.579   4.628
   16GLU      N  266   4.466   6.779   4.552
   16GLU      H  267   4.506   6.828   4.475
   16GLU     CA  268   4.450   6.850   4.678
   16GLU     HA  269   4.443   6.785   4.753
   16GLU     CB  270   4.575   6.936   4.704
   16GLU    HB1  271   4.578   7.011   4.637
   16GLU    HB2  272   4.657   6.879   4.694
   16GLU     CG  273   4.574   6.997   4.845
   16GLU    HG1  274   4.564   6.923   4.912
   16GLU    HG2  275   4.497   7.060   4.853
   16GLU     CD  276   4.704   7.073   4.871
   16GLU    OE1  277   4.697   7.197   4.881
   16GLU    OE2  278   4.809   7.005   4.877
   16GLU      C  279   4.321   6.931   4.667
   16GLU      O  280   4.320   7.033   4.598
   17LYS      N  281   4.213   6.877   4.724
   17LYS      H  282   4.208   6.777   4.725
   17LYS     CA  283   4.098   6.948   4.786
   17LYS     HA  284   4.128   6.966   4.880
   17LYS     CB  285   4.068   7.084   4.720
   17LYS    HB1  286   4.032   7.067   4.628
   17LYS    HB2  287   4.153   7.136   4.713
   17LYS     CG  288   3.967   7.171   4.795
   17LYS    HG1  289   3.994   7.179   4.891
   17LYS    HG2  290   3.876   7.129   4.790
   17LYS     CD  291   3.963   7.310   4.730
   17LYS    HD1  292   3.917   7.304   4.641
   17LYS    HD2  293   4.056   7.343   4.717
   17LYS     CE  294   3.886   7.410   4.818
   17LYS    HE1  295   3.929   7.415   4.908
   17LYS    HE2  296   3.791   7.380   4.827
   17LYS     NZ  297   3.887   7.546   4.758
   17LYS    HZ1  298   3.837   7.608   4.817
   17LYS    HZ2  299   3.982   7.578   4.749
   17LYS    HZ3  300   3.844   7.543   4.668
   17LYS      C  301   3.973   6.859   4.789
   17LYS      O  302   3.886   6.869   4.703
   18HIS      N  303   3.960   6.779   4.894
   18HIS      H  304   4.041   6.753   4.946
   18HIS     CA  305   3.830   6.727   4.938
   18HIS     HA  306   3.761   6.761   4.873
   18HIS     CB  307   3.823   6.574   4.928
   18HIS    HB1  308   3.740   6.542   4.974
   18HIS    HB2  309   3.904   6.535   4.974
   18HIS     CG  310   3.822   6.524   4.785
   18HIS    ND1  311   3.711   6.513   4.704
   18HIS    CE1  312   3.751   6.465   4.585
   18HIS    HE1  313   3.690   6.448   4.507
   18HIS    NE2  314   3.883   6.445   4.585
   18HIS    HE2  315   3.938   6.410   4.509
   18HIS    CD2  316   3.929   6.482   4.712
   18HIS    HD2  317   4.024   6.477   4.744
   18HIS      C  318   3.796   6.786   5.076
   18HIS      O  319   3.789   6.716   5.176
   19HIS      N  320   3.775   6.918   5.081
   19HIS      H  321   3.804   6.973   5.003
   19HIS     CA  322   3.712   6.987   5.194
   19HIS     HA  323   3.734   6.932   5.275
   19HIS     CB  324   3.769   7.128   5.213
   19HIS    HB1  325   3.705   7.182   5.267
   19HIS    HB2  326   3.780   7.170   5.123
   19HIS     CG  327   3.902   7.131   5.282
   19HIS    ND1  328   3.925   7.102   5.414
   19HIS    CE1  329   4.055   7.124   5.439
   19HIS    HE1  330   4.099   7.111   5.528
   19HIS    NE2  331   4.117   7.167   5.328
   19HIS    HE2  332   4.214   7.190   5.319
   19HIS    CD2  333   4.020   7.172   5.228
   19HIS    HD2  334   4.035   7.201   5.133
   19HIS      C  335   3.559   6.990   5.178
   19HIS      O  336   3.498   7.096   5.171
   20SER      N  337   3.496   6.874   5.166
   20SER      H  338   3.549   6.790   5.155
   20SER     CA  339   3.350   6.867   5.168
   20SER     HA  340   3.319   6.943   5.224
   20SER     CB  341   3.288   6.885   5.028
   20SER    HB1  342   3.291   6.981   5.001
   20SER    HB2  343   3.194   6.852   5.027
   20SER     OG  344   3.357   6.813   4.928
   20SER     HG  345   3.313   6.828   4.839
   20SER      C  346   3.307   6.736   5.233
   20SER      O  347   3.308   6.632   5.169
   21HIS      N  348   3.281   6.742   5.364
   21HIS      H  349   3.347   6.789   5.423
   21HIS     CA  350   3.161   6.686   5.430
   21HIS     HA  351   3.093   6.758   5.417
   21HIS     CB  352   3.105   6.559   5.361
   21HIS    HB1  353   3.159   6.480   5.389
   21HIS    HB2  354   3.112   6.571   5.262
   21HIS     CG  355   2.961   6.529   5.393
   21HIS    ND1  356   2.865   6.617   5.438
   21HIS    CE1  357   2.746   6.556   5.434
   21HIS    HE1  358   2.660   6.596   5.463
   21HIS    NE2  359   2.760   6.432   5.385
   21HIS    HE2  360   2.687   6.365   5.370
   21HIS    CD2  361   2.896   6.414   5.358
   21HIS    HD2  362   2.938   6.332   5.320
   21HIS      C  363   3.186   6.663   5.580
   21HIS      O  364   3.199   6.551   5.628
   22ARG      N  365   3.192   6.771   5.658
   22ARG      H  366   3.225   6.857   5.620
   22ARG     CA  367   3.152   6.766   5.800
   22ARG     HA  368   3.096   6.685   5.815
   22ARG     CB  369   3.272   6.746   5.894
   22ARG    HB1  370   3.323   6.831   5.903
   22ARG    HB2  371   3.332   6.675   5.856
   22ARG     CG  372   3.223   6.701   6.033
   22ARG    HG1  373   3.163   6.622   6.022
   22ARG    HG2  374   3.174   6.776   6.076
   22ARG     CD  375   3.341   6.661   6.122
   22ARG    HD1  376   3.410   6.733   6.121
   22ARG    HD2  377   3.381   6.576   6.090
   22ARG     NE  378   3.297   6.641   6.261
   22ARG     HE  379   3.200   6.656   6.280
   22ARG     CZ  380   3.372   6.606   6.364
   22ARG    NH1  381   3.498   6.576   6.351
   22ARG   HH11  382   3.541   6.580   6.261
   22ARG   HH12  383   3.552   6.550   6.431
   22ARG    NH2  384   3.320   6.600   6.484
   22ARG   HH21  385   3.224   6.623   6.498
   22ARG   HH22  386   3.377   6.573   6.561
   22ARG      C  387   3.066   6.889   5.828
   22ARG      O  388   3.108   6.984   5.892
   23GLY      N  389   2.951   6.890   5.760
   23GLY      H  390   2.943   6.829   5.681
   23GLY     CA  391   2.838   6.973   5.796
   23GLY    HA1  392   2.787   6.996   5.713
   23GLY    HA2  393   2.872   7.058   5.838
   23GLY      C  394   2.752   6.894   5.893
   23GLY      O  395   2.727   6.777   5.866
   24TYR      N  396   2.711   6.962   6.000
   24TYR      H  397   2.732   7.060   6.000
   24TYR     CA  398   2.639   6.914   6.120
   24TYR     HA  399   2.612   7.000   6.163
   24TYR     CB  400   2.511   6.838   6.083
   24TYR    HB1  401   2.462   6.815   6.167
   24TYR    HB2  402   2.536   6.754   6.034
   24TYR     CG  403   2.419   6.920   5.994
   24TYR    CD1  404   2.337   7.018   6.052
   24TYR    HD1  405   2.337   7.032   6.151
   24TYR    CE1  406   2.254   7.098   5.970
   24TYR    HE1  407   2.195   7.168   6.011
   24TYR     CZ  408   2.255   7.079   5.830
   24TYR     OH  409   2.176   7.156   5.750
   24TYR     HH  410   2.189   7.129   5.655
   24TYR    CE2  411   2.337   6.981   5.772
   24TYR    HE2  412   2.338   6.968   5.673
   24TYR    CD2  413   2.419   6.901   5.854
   24TYR    HD2  414   2.476   6.830   5.814
   24TYR      C  415   2.726   6.849   6.228
   24TYR    OC1  416   2.710   6.897   6.342
   24TYR    OC2  417   2.811   6.762   6.197
   25SOL     OW  418   1.736   0.839   0.257
   25SOL    HW2  419   1.777   0.781   0.322
   25SOL    HW3  420   1.643   0.831   0.274
   25SOL    MW4  421   1.730   0.831   0.267
   26SOL     OW  422   1.602   0.771   1.252
   26SOL    HW2  423   1.557   0.838   1.303
   26SOL    HW3  424   1.690   0.807   1.238
   26SOL    MW4  425   1.608   0.784   1.256
   27SOL     OW  426   0.530   1.022   0.486
   27SOL    HW2  427   0.620   0.997   0.470
   27SOL    HW3  428   0.526   1.115   0.463
   27SOL    MW4  429   0.542   1.031   0.481
   28SOL     OW  430   1.646   1.725   0.628
   28SOL    HW2  431   1.658   1.671   0.706
   28SOL    HW3  432   1.683   1.673   0.557
   28SOL    MW4  433   1.652   1.710   0.629
   29SOL     OW  434   1.025   1.610   1.629
   29SOL    HW2  435   1.066   1.646   1.550
   29SOL    HW3  436   1.060   1.521   1.636
   29SOL    MW4  437   1.036   1.603   1.620
   30SOL     OW  438   1.582   1.165   1.233
   30SOL    HW2  439   1.503   1.130   1.191
   30SOL    HW3  440   1.609   1.237   1.177
   30SOL    MW4  441   1.575   1.170   1.220
   31SOL     OW  442   0.814   0.478   0.499
   31SOL    HW2  443   0.789   0.566   0.527
   31SOL    HW3  444   0.811   0.481   0.403
   31SOL    MW4  445   0.810   0.490   0.491
   32SOL     OW  446   0.256   0.506   0.427
   32SOL    HW2  447   0.288   0.594   0.409
   32SOL    HW3  448   0.244   0.504   0.522
   32SOL    MW4  449   0.259   0.518   0.439
   33SOL     OW  450   0.334   0.919   1.328
   33SOL    HW2  451   0.397   0.866   1.279
   33SOL    HW3  452   0.315   0.993   1.271
   33SOL    MW4  453   0.340   0.921   1.315
   34SOL     OW  454   0.655   0.261   0.514
   34SOL    HW2  455   0.713   0.337   0.516
   34SOL    HW3  456   0.590   0.282   0.447
   34SOL    MW4  457   0.654   0.273   0.505
   35SOL     OW  458   0.742   1.188   0.689
   35SOL    HW2  459   0.822   1.191   0.741
   35SOL    HW3  460   0.770   1.155   0.603
   35SOL    MW4  461   0.756   1.184   0.684
   36SOL     OW  462   0.767   1.529   1.592
   36SOL    HW2  463   0.851   1.555   1.631
   36SOL    HW3  464   0.791   1.473   1.518
   36SOL    MW4  465   0.781   1.525   1.587
   37SOL     OW  466   0.519   0.692   0.680
   37SOL    HW2  467   0.504   0.612   0.731
   37SOL    HW3  468   0.601   0.727   0.714
   37SOL    MW4  469   0.527   0.684   0.692
   38SOL     OW  470   0.856   1.378   1.365
   38SOL    HW2  471   0.820   1.444   1.305
   38SOL    HW3  472   0.784   1.316   1.378
   38SOL    MW4  473   0.842   1.378   1.359
   39SOL     OW  474   0.661   0.518   1.057
   39SOL    HW2  475   0.567   0.514   1.075
   39SOL    HW3  476   0.691   0.427   1.066
   39SOL    MW4  477   0.652   0.506   1.060
   40SOL     OW  478   0.407   0.932   0.961
   40SOL    HW2  479   0.362   0.939   0.877
   40SOL    HW3  480   0.387   1.015   1.005
   40SOL    MW4  481   0.399   0.944   0.955
   41SOL     OW  482   0.104   1.778   0.836
   41SOL    HW2  483   0.193   1.770   0.871
   41SOL    HW3  484   0.068   1.690   0.841
   41SOL    MW4  485   0.111   1.765   0.841
   42SOL     OW  486   1.369   1.170   0.205
   42SOL    HW2  487   1.287   1.206   0.171
   42SOL    HW3  488   1.437   1.213   0.154
   42SOL    MW4  489   1.367   1.180   0.193
   43SOL     OW  490   0.368   1.305   0.871
   43SOL    HW2  491   0.344   1.358   0.947
   43SOL    HW3  492   0.424   1.363   0.819
   43SOL    MW4  493   0.372   1.320   0.874
   44SOL     OW  494   0.930   0.949   0.681
   44SOL    HW2  495   0.844   0.936   0.721
   44SOL    HW3  496   0.983   0.876   0.713
   44SOL    MW4  497   0.926   0.938   0.690
   45SOL     OW  498   0.338   1.601   1.466
   45SOL    HW2  499   0.246   1.577   1.451
   45SOL    HW3  500   0.382   1.518   1.483
   45SOL    MW4  501   0.332   1.586   1.465
   46SOL     OW  502   0.921   1.311   0.398
   46SOL    HW2  503   0.898   1.373   0.466
   46SOL    HW3  504   0.878   1.229   0.424
   46SOL    MW4  505   0.913   1.307   0.409
   47SOL     OW  506   1.794   0.312   0.854
   47SOL    HW2  507   1.731   0.292   0.923
   47SOL    HW3  508   1.784   0.241   0.791
   47SOL    MW4  509   1.784   0.299   0.855
   48SOL     OW  510   0.418   0.284   0.366
   48SOL    HW2  511   0.392   0.246   0.282
   48SOL    HW3  512   0.355   0.354   0.382
   48SOL    MW4  513   0.407   0.287   0.357
   49SOL     OW  514   0.253   1.245   0.403
   49SOL    HW2  515   0.201   1.313   0.359
   49SOL    HW3  516   0.250   1.171   0.343
   49SOL    MW4  517   0.245   1.244   0.390
   50SOL     OW  518   0.915   1.708   0.181
   50SOL    HW2  519   0.870   1.724   0.264
   50SOL    HW3  520   0.846   1.673   0.123
   50SOL    MW4  521   0.901   1.705   0.183
   51SOL     OW  522   1.850   0.481   0.156
   51SOL    HW2  523   1.759   0.483   0.184
   51SOL    HW3  524   1.895   0.543   0.214
   51SOL    MW4  525   1.843   0.489   0.166
   52SOL     OW  526   1.595   1.084   0.506
   52SOL    HW2  527   1.505   1.084   0.541
   52SOL    HW3  528   1.588   1.130   0.423
   52SOL    MW4  529   1.582   1.090   0.500
   53SOL     OW  530   1.395   0.719   1.578
   53SOL    HW2  531   1.464   0.657   1.555
   53SOL    HW3  532   1.320   0.693   1.525
   53SOL    MW4  533   1.395   0.706   1.569
   54SOL     OW  534   0.136   1.599   1.130
   54SOL    HW2  535   0.119   1.545   1.207
   54SOL    HW3  536   0.124   1.689   1.160
   54SOL    MW4  537   0.133   1.603   1.144
   55SOL     OW  538   1.131   1.106   1.570
   55SOL    HW2  539   1.116   1.199   1.555
   55SOL    HW3  540   1.226   1.096   1.570
   55SOL    MW4  541   1.140   1.116   1.567
   56SOL     OW  542   0.927   0.530   1.771
   56SOL    HW2  543   1.017   0.531   1.738
   56SOL    HW3  544   0.886   0.455   1.729
   56SOL    MW4  545   0.933   0.520   1.762
   57SOL     OW  546   1.502   1.062   0.898
   57SOL    HW2  547   1.505   0.996   0.829
   57SOL    HW3  548   1.587   1.105   0.894
   57SOL    MW4  549   1.514   1.058   0.889
   58SOL     OW  550   1.122   0.665   0.467
   58SOL    HW2  551   1.148   0.689   0.378
   58SOL    HW3  552   1.104   0.572   0.463
   58SOL    MW4  553   1.124   0.657   0.454
   59SOL     OW  554   1.787   1.285   0.318
   59SOL    HW2  555   1.743   1.326   0.393
   59SOL    HW3  556   1.844   1.353   0.283
   59SOL    MW4  557   1.789   1.299   0.323
   60SOL     OW  558   0.707   0.334   1.721
   60SOL    HW2  559   0.717   0.260   1.661
   60SOL    HW3  560   0.743   0.303   1.804
   60SOL    MW4  561   0.713   0.320   1.723
   61SOL     OW  562   0.443   1.701   0.636
   61SOL    HW2  563   0.475   1.789   0.614
   61SOL    HW3  564   0.396   1.673   0.558
   61SOL    MW4  565   0.442   1.709   0.623
   62SOL     OW  566   1.827   0.063   0.685
   62SOL    HW2  567   1.881   0.014   0.747
   62SOL    HW3  568   1.770  -0.003   0.646
   62SOL    MW4  569   1.827   0.047   0.687
   63SOL     OW  570   0.159   1.761   0.213
   63SOL    HW2  571   0.188   1.851   0.205
   63SOL    HW3  572   0.109   1.744   0.134
   63SOL    MW4  573   0.157   1.769   0.202
   64SOL     OW  574   0.946   0.016   1.098
   64SOL    HW2  575   0.905   0.094   1.060
   64SOL    HW3  576   1.040   0.034   1.093
   64SOL    MW4  577   0.952   0.028   1.093
   65SOL     OW  578   1.563   1.569   0.184
   65SOL    HW2  579   1.611   1.638   0.230
   65SOL    HW3  580   1.484   1.613   0.153
   65SOL    MW4  581   1.558   1.583   0.187
   66SOL     OW  582   0.961   0.694   0.128
   66SOL    HW2  583   0.963   0.641   0.049
   66SOL    HW3  584   1.049   0.731   0.134
   66SOL    MW4  585   0.973   0.693   0.117
   67SOL     OW  586   1.575   0.620   0.464
   67SOL    HW2  587   1.614   0.620   0.551
   67SOL    HW3  588   1.516   0.696   0.464
   67SOL    MW4  589   1.572   0.631   0.475
   68SOL     OW  590   0.892   0.987   1.593
   68SOL    HW2  591   0.869   0.967   1.683
   68SOL    HW3  592   0.977   1.031   1.598
   68SOL    MW4  593   0.899   0.990   1.605
   69SOL     OW  594   0.972   0.124   1.353
   69SOL    HW2  595   0.978   0.086   1.266
   69SOL    HW3  596   0.961   0.218   1.338
   69SOL    MW4  597   0.973   0.132   1.341
   70SOL     OW  598   1.061   0.613   1.187
   70SOL    HW2  599   1.136   0.642   1.134
   70SOL    HW3  600   0.993   0.678   1.171
   70SOL    MW4  601   1.062   0.625   1.177
   71SOL     OW  602   1.611   0.581   1.464
   71SOL    HW2  603   1.592   0.490   1.443
   71SOL    HW3  604   1.589   0.630   1.385
   71SOL    MW4  605   1.606   0.574   1.451
   72SOL     OW  606   1.753   1.675   1.368
   72SOL    HW2  607   1.681   1.637   1.419
   72SOL    HW3  608   1.770   1.760   1.409
   72SOL    MW4  609   1.747   1.680   1.380
   73SOL     OW  610   1.058   0.319   1.570
   73SOL    HW2  611   1.024   0.358   1.489
   73SOL    HW3  612   1.036   0.227   1.563
   73SOL    MW4  613   1.051   0.312   1.560
   74SOL     OW  614   1.467   1.133   1.646
   74SOL    HW2  615   1.549   1.174   1.676
   74SOL    HW3  616   1.430   1.095   1.726
   74SOL    MW4  617   1.473   1.134   1.661
   75SOL     OW  618   1.762   0.506   0.630
   75SOL    HW2  619   1.851   0.475   0.647
   75SOL    HW3  620   1.705   0.446   0.678
   75SOL    MW4  621   1.765   0.494   0.639
   76SOL     OW  622   0.188   0.220   0.659
   76SOL    HW2  623   0.179   0.160   0.585
   76SOL    HW3  624   0.121   0.191   0.722
   76SOL    MW4  625   0.178   0.207   0.657
   77SOL     OW  626   1.131   1.313   0.220
   77SOL    HW2  627   1.081   1.315   0.302
   77SOL    HW3  628   1.065   1.331   0.152
   77SOL    MW4  629   1.117   1.315   0.222
   78SOL     OW  630   0.135   0.393   1.022
   78SOL    HW2  631   0.107   0.484   1.031
   78SOL    HW3  632   0.072   0.354   0.961
   78SOL    MW4  633   0.122   0.399   1.016
   79SOL     OW  634   0.594   1.731   0.328
   79SOL    HW2  635   0.515   1.689   0.361
   79SOL    HW3  636   0.660   1.714   0.395
   79SOL    MW4  637   0.593   1.723   0.341
   80SOL     OW  638   1.722   1.251   1.725
   80SOL    HW2  639   1.772   1.177   1.757
   80SOL    HW3  640   1.668   1.278   1.800
   80SOL    MW4  641   1.722   1.245   1.738
   81SOL     OW  642   0.730   1.146   0.035
   81SOL    HW2  643   0.652   1.092   0.022
   81SOL    HW3  644   0.701   1.219   0.088
   81SOL    MW4  645   0.716   1.148   0.040
   82SOL     OW  646   1.856   0.886   1.227
   82SOL    HW2  647   1.872   0.924   1.140
   82SOL    HW3  648   1.890   0.952   1.288
   82SOL    MW4  649   1.863   0.899   1.223
   83SOL     OW  650   1.648   1.595   0.896
   83SOL    HW2  651   1.677   1.662   0.957
   83SOL    HW3  652   1.629   1.519   0.951
   83SOL    MW4  653   1.650   1.595   0.911
   84SOL     OW  654   1.311   1.662   0.103
   84SOL    HW2  655   1.237   1.625   0.153
   84SOL    HW3  656   1.319   1.752   0.136
   84SOL    MW4  657   1.302   1.669   0.115
   85SOL     OW  658   0.119   0.668   1.192
   85SOL    HW2  659   0.181   0.698   1.258
   85SOL    HW3  660   0.053   0.737   1.186
   85SOL    MW4  661   0.118   0.681   1.199
   86SOL     OW  662   1.535   1.336   0.045
   86SOL    HW2  663   1.482   1.385  -0.019
   86SOL    HW3  664   1.566   1.402   0.106
   86SOL    MW4  665   1.533   1.350   0.043
   87SOL     OW  666   0.760   0.225   0.100
   87SOL    HW2  667   0.708   0.145   0.088
   87SOL    HW3  668   0.847   0.202   0.068
   87SOL    MW4  669   0.763   0.211   0.094
   88SOL     OW  670   0.214   1.777   1.644
   88SOL    HW2  671   0.188   1.845   1.582
   88SOL    HW3  672   0.262   1.714   1.592
   88SOL    MW4  673   0.216   1.777   1.630
   89SOL     OW  674   0.266   1.096   1.151
   89SOL    HW2  675   0.319   1.171   1.176
   89SOL    HW3  676   0.185   1.134   1.117
   89SOL    MW4  677   0.262   1.111   1.151
   90SOL     OW  678   0.806   1.000   1.139
   90SOL    HW2  679   0.834   0.909   1.151
   90SOL    HW3  680   0.735   0.994   1.075
   90SOL    MW4  681   0.799   0.988   1.134
   91SOL     OW  682   0.121   0.865   0.557
   91SOL    HW2  683   0.212   0.880   0.584
   91SOL    HW3  684   0.124   0.786   0.503
   91SOL    MW4  685   0.133   0.857   0.555
   92SOL     OW  686   0.357   0.573   1.811
   92SOL    HW2  687   0.304   0.653   1.818
   92SOL    HW3  688   0.427   0.585   1.876
   92SOL    MW4  689   0.359   0.586   1.819
   93SOL     OW  690   0.743   0.123   1.518
   93SOL    HW2  691   0.720   0.031   1.520
   93SOL    HW3  692   0.829   0.125   1.475
   93SOL    MW4  693   0.750   0.113   1.514
   94SOL     OW  694   0.427   0.647   1.557
   94SOL    HW2  695   0.507   0.697   1.543
   94SOL    HW3  696   0.418   0.641   1.652
   94SOL    MW4  697   0.436   0.653   1.567
   95SOL     OW  698   0.748   1.797   0.931
   95SOL    HW2  699   0.837   1.812   0.961
   95SOL    HW3  700   0.743   1.844   0.847
   95SOL    MW4  701   0.758   1.805   0.924
   96SOL     OW  702   1.404   0.172   1.828
   96SOL    HW2  703   1.460   0.099   1.854
   96SOL    HW3  704   1.374   0.210   1.910
   96SOL    MW4  705   1.408   0.167   1.841
   97SOL     OW  706   0.129   1.477   0.596
   97SOL    HW2  707   0.101   1.516   0.678
   97SOL    HW3  708   0.149   1.386   0.618
   97SOL    MW4  709   0.127   1.469   0.609
   98SOL     OW  710   0.962   1.520   0.631
   98SOL    HW2  711   1.045   1.474   0.615
   98SOL    HW3  712   0.952   1.519   0.727
   98SOL    MW4  713   0.972   1.513   0.641
   99SOL     OW  714   1.794   0.665   0.945
   99SOL    HW2  715   1.883   0.695   0.927
   99SOL    HW3  716   1.774   0.605   0.874
   99SOL    MW4  717   1.803   0.662   0.934
  100SOL     OW  718   1.645   0.844   1.825
  100SOL    HW2  719   1.700   0.768   1.806
  100SOL    HW3  720   1.647   0.852   1.920
  100SOL    MW4  721   1.653   0.835   1.833
  101SOL     OW  722   0.695   1.577   0.036
  101SOL    HW2  723   0.635   1.646   0.006
  101SOL    HW3  724   0.640   1.519   0.089
  101SOL    MW4  725   0.679   1.579   0.038
  102SOL     OW  726   1.133   0.222   0.259
  102SOL    HW2  727   1.066   0.198   0.196
  102SOL    HW3  728   1.198   0.271   0.208
  102SOL    MW4  729   1.133   0.224   0.244
  103SOL     OW  730   0.940   0.406   1.344
  103SOL    HW2  731   0.859   0.447   1.372
  103SOL    HW3  732   0.987   0.474   1.296
  103SOL    MW4  733   0.935   0.421   1.342
  104SOL     OW  734   1.200   0.744   0.967
  104SOL    HW2  735   1.213   0.838   0.977
  104SOL    HW3  736   1.161   0.734   0.881
  104SOL    MW4  737   1.196   0.755   0.957
  105SOL     OW  738   0.652   0.939   0.771
  105SOL    HW2  739   0.563   0.930   0.804
  105SOL    HW3  740   0.656   1.029   0.739
  105SOL    MW4  741   0.641   0.950   0.771
  106SOL     OW  742   1.451   0.522   0.766
  106SOL    HW2  743   1.396   0.443   0.765
  106SOL    HW3  744   1.433   0.563   0.850
  106SOL    MW4  745   1.441   0.517   0.775
  107SOL     OW  746   0.422   0.209   1.583
  107SOL    HW2  747   0.343   0.227   1.635
  107SOL    HW3  748   0.417   0.271   1.510
  107SOL    MW4  749   0.412   0.219   1.580
  108SOL     OW  750   1.070   0.726   0.723
  108SOL    HW2  751   1.007   0.658   0.747
  108SOL    HW3  752   1.090   0.707   0.631
  108SOL    MW4  753   1.064   0.713   0.715
  109SOL     OW  754   0.326   1.621   0.425
  109SOL    HW2  755   0.287   1.668   0.351
  109SOL    HW3  756   0.260   1.556   0.450
  109SOL    MW4  757   0.313   1.619   0.419
  110SOL     OW  758   0.818   1.030   0.449
  110SOL    HW2  759   0.820   1.004   0.356
  110SOL    HW3  760   0.876   0.967   0.492
  110SOL    MW4  761   0.826   1.019   0.443
  111SOL     OW  762   1.371   1.590   1.221
  111SOL    HW2  763   1.296   1.636   1.259
  111SOL    HW3  764   1.353   1.497   1.238
  111SOL    MW4  765   1.360   1.584   1.229
  112SOL     OW  766   1.375   1.798   0.651
  112SOL    HW2  767   1.318   1.751   0.590
  112SOL    HW3  768   1.461   1.759   0.638
  112SOL    MW4  769   1.378   1.789   0.641
  113SOL     OW  770   1.328   0.274   0.782
  113SOL    HW2  771   1.356   0.206   0.843
  113SOL    HW3  772   1.242   0.245   0.752
  113SOL    MW4  773   1.321   0.261   0.786
  114SOL     OW  774   0.133   1.208   0.716
  114SOL    HW2  775   0.197   1.240   0.779
  114SOL    HW3  776   0.182   1.144   0.664
  114SOL    MW4  777   0.148   1.204   0.717
  115SOL     OW  778   0.633   1.284   1.698
  115SOL    HW2  779   0.681   1.367   1.685
  115SOL    HW3  780   0.690   1.232   1.754
  115SOL    MW4  781   0.647   1.288   1.704
  116SOL     OW  782   0.209   1.526   1.838
  116SOL    HW2  783   0.265   1.450   1.853
  116SOL    HW3  784   0.158   1.504   1.760
  116SOL    MW4  785   0.209   1.513   1.829
  117SOL     OW  786   1.308   0.378   0.117
  117SOL    HW2  787   1.281   0.444   0.053
  117SOL    HW3  788   1.378   0.421   0.167
  117SOL    MW4  789   1.313   0.391   0.114
  118SOL     OW  790   0.976   0.083   0.054
  118SOL    HW2  791   1.032   0.075  -0.024
  118SOL    HW3  792   0.953  -0.007   0.076
  118SOL    MW4  793   0.981   0.070   0.047
  119SOL     OW  794   1.481   0.934   0.259
  119SOL    HW2  795   1.448   1.023   0.249
  119SOL    HW3  796   1.446   0.905   0.344
  119SOL    MW4  797   1.471   0.943   0.270
  120SOL     OW  798   1.094   1.363   1.447
  120SOL    HW2  799   1.005   1.369   1.415
  120SOL    HW3  800   1.138   1.442   1.415
  120SOL    MW4  801   1.089   1.373   1.439
  121SOL     OW  802   0.387   0.031   1.789
  121SOL    HW2  803   0.315  -0.004   1.737
  121SOL    HW3  804   0.445   0.072   1.724
  121SOL    MW4  805   0.385   0.032   1.774
  122SOL     OW  806   0.411   1.521   1.088
  122SOL    HW2  807   0.456   1.583   1.145
  122SOL    HW3  808   0.318   1.540   1.101
  122SOL    MW4  809   0.404   1.531   1.095
  123SOL     OW  810   1.851   1.050   1.442
  123SOL    HW2  811   1.766   1.063   1.401
  123SOL    HW3  812   1.831   1.014   1.529
  123SOL    MW4  813   1.838   1.046   1.447
  124SOL     OW  814   0.833   1.589   1.196
  124SOL    HW2  815   0.857   1.578   1.105
  124SOL    HW3  816   0.756   1.646   1.194
  124SOL    MW4  817   0.825   1.594   1.185
  125SOL     OW  818   0.475   0.972   0.051
  125SOL    HW2  819   0.398   0.985   0.107
  125SOL    HW3  820   0.439   0.936  -0.030
  125SOL    MW4  821   0.461   0.968   0.048
  126SOL     OW  822   1.128   0.945   0.294
  126SOL    HW2  823   1.038   0.966   0.269
  126SOL    HW3  824   1.155   1.018   0.350
  126SOL    MW4  825   1.120   0.957   0.297
  127SOL     OW  826   0.628   1.294   0.986
  127SOL    HW2  827   0.621   1.273   1.080
  127SOL    HW3  828   0.546   1.262   0.949
  127SOL    MW4  829   0.616   1.288   0.993
  128SOL     OW  830   1.492   0.304   1.388
  128SOL    HW2  831   1.439   0.306   1.468
  128SOL    HW3  832   1.477   0.217   1.351
  128SOL    MW4  833   1.484   0.294   1.393
  129SOL     OW  834   1.828   0.228   1.261
  129SOL    HW2  835   1.809   0.295   1.196
  129SOL    HW3  836   1.885   0.166   1.216
  129SOL    MW4  837   1.832   0.229   1.247
  130SOL     OW  838   0.074   1.386   1.649
  130SOL    HW2  839   0.118   1.319   1.595
  130SOL    HW3  840  -0.011   1.348   1.669
  130SOL    MW4  841   0.069   1.372   1.645
  131SOL     OW  842   0.757   0.061   0.701
  131SOL    HW2  843   0.686   0.122   0.683
  131SOL    HW3  844   0.808   0.058   0.620
  131SOL    MW4  845   0.753   0.067   0.688
  132SOL     OW  846   0.515   1.301   0.450
  132SOL    HW2  847   0.508   1.333   0.540
  132SOL    HW3  848   0.425   1.285   0.422
  132SOL    MW4  849   0.503   1.303   0.457
  133SOL     OW  850   1.110   1.694   1.359
  133SOL    HW2  851   1.030   1.679   1.309
  133SOL    HW3  852   1.117   1.789   1.366
  133SOL    MW4  853   1.101   1.705   1.353
  134SOL     OW  854   1.224   1.659   0.849
  134SOL    HW2  855   1.271   1.732   0.808
  134SOL    HW3  856   1.145   1.698   0.885
  134SOL    MW4  857   1.219   1.674   0.848
  135SOL     OW  858   1.632   1.754   1.124
  135SOL    HW2  859   1.675   1.724   1.204
  135SOL    HW3  860   1.551   1.702   1.121
  135SOL    MW4  861   1.627   1.743   1.134
  136SOL     OW  862   0.717   0.718   1.831
  136SOL    HW2  863   0.787   0.660   1.803
  136SOL    HW3  864   0.660   0.663   1.886
  136SOL    MW4  865   0.719   0.705   1.835
  137SOL     OW  866   1.504   0.930   1.464
  137SOL    HW2  867   1.509   0.983   1.544
  137SOL    HW3  868   1.466   0.847   1.492
  137SOL    MW4  869   1.500   0.925   1.479
  138SOL     OW  870   1.144   0.065   1.710
  138SOL    HW2  871   1.139  -0.028   1.691
  138SOL    HW3  872   1.227   0.076   1.756
  138SOL    MW4  873   1.152   0.054   1.714
  139SOL     OW  874   0.518   0.585   0.164
  139SOL    HW2  875   0.484   0.641   0.234
  139SOL    HW3  876   0.589   0.535   0.204
  139SOL    MW4  877   0.524   0.586   0.178
  140SOL     OW  878   1.614   1.336   0.986
  140SOL    HW2  879   1.649   1.318   0.899
  140SOL    HW3  880   1.519   1.337   0.973
  140SOL    MW4  881   1.606   1.333   0.973
  141SOL     OW  882   1.043   0.984   1.355
  141SOL    HW2  883   1.086   1.019   1.433
  141SOL    HW3  884   1.026   1.061   1.301
  141SOL    MW4  885   1.046   0.999   1.358
  142SOL     OW  886   1.574   0.471   0.228
  142SOL    HW2  887   1.566   0.542   0.165
  142SOL    HW3  888   1.592   0.515   0.311
  142SOL    MW4  889   1.575   0.485   0.230
  143SOL     OW  890   0.434   0.126   0.657
  143SOL    HW2  891   0.484   0.169   0.588
  143SOL    HW3  892   0.349   0.170   0.657
  143SOL    MW4  893   0.431   0.139   0.648
  144SOL     OW  894   0.193   1.188   1.517
  144SOL    HW2  895   0.221   1.141   1.595
  144SOL    HW3  896   0.114   1.143   1.488
  144SOL    MW4  897   0.186   1.177   1.523
  145SOL     OW  898   0.701   0.515   1.484
  145SOL    HW2  899   0.673   0.603   1.508
  145SOL    HW3  900   0.670   0.459   1.555
  145SOL    MW4  901   0.693   0.518   1.496
  146SOL     OW  902   1.243   0.733   0.203
  146SOL    HW2  903   1.290   0.751   0.122
  146SOL    HW3  904   1.209   0.817   0.231
  146SOL    MW4  905   1.245   0.747   0.196
  147SOL     OW  906   0.356   0.911   0.697
  147SOL    HW2  907   0.414   0.967   0.645
  147SOL    HW3  908   0.400   0.826   0.699
  147SOL    MW4  909   0.369   0.908   0.690
  148SOL     OW  910   1.496   0.263   0.534
  148SOL    HW2  911   1.418   0.213   0.559
  148SOL    HW3  912   1.467   0.354   0.534
  148SOL    MW4  913   1.482   0.267   0.537
  149SOL     OW  914   1.082   0.225   0.693
  149SOL    HW2  915   1.102   0.300   0.637
  149SOL    HW3  916   1.062   0.264   0.778
  149SOL    MW4  917   1.083   0.241   0.697
  150SOL     OW  918   0.978   1.475   0.025
  150SOL    HW2  919   1.005   1.553  -0.023
  150SOL    HW3  920   0.885   1.490   0.044
  150SOL    MW4  921   0.969   1.488   0.021
  151SOL     OW  922   1.842   0.998   1.712
  151SOL    HW2  923   1.755   0.978   1.748
  151SOL    HW3  924   1.896   0.924   1.737
  151SOL    MW4  925   1.837   0.987   1.720
  152SOL     OW  926   0.063   1.511   0.869
  152SOL    HW2  927   0.095   1.515   0.960
  152SOL    HW3  928  -0.032   1.519   0.877
  152SOL    MW4  929   0.055   1.514   0.882
  153SOL     OW  930   0.018   0.637   0.416
  153SOL    HW2  931  -0.042   0.609   0.486
  153SOL    HW3  932   0.092   0.577   0.422
  153SOL    MW4  933   0.020   0.626   0.425
  154SOL     OW  934   1.586   1.849   1.850
  154SOL    HW2  935   1.631   1.773   1.815
  154SOL    HW3  936   1.624   1.862   1.937
  154SOL    MW4  937   1.596   1.842   1.856
  155SOL     OW  938   1.186   1.368   0.576
  155SOL    HW2  939   1.209   1.319   0.654
  155SOL    HW3  940   1.267   1.410   0.548
  155SOL    MW4  941   1.199   1.368   0.583
  156SOL     OW  942   0.444   0.376   1.305
  156SOL    HW2  943   0.477   0.457   1.345
  156SOL    HW3  944   0.417   0.402   1.217
  156SOL    MW4  945   0.443   0.390   1.299
  157SOL     OW  946   0.398   0.343   1.041
  157SOL    HW2  947   0.428   0.257   1.012
  157SOL    HW3  948   0.303   0.336   1.044
  157SOL    MW4  949   0.390   0.332   1.039
  158SOL     OW  950   1.227   0.552   1.732
  158SOL    HW2  951   1.279   0.487   1.685
  158SOL    HW3  952   1.185   0.603   1.662
  158SOL    MW4  953   1.228   0.549   1.715
  159SOL     OW  954   1.326   0.347   1.593
  159SOL    HW2  955   1.233   0.331   1.580
  159SOL    HW3  956   1.352   0.285   1.661
  159SOL    MW4  957   1.316   0.337   1.600
  160SOL     OW  958   0.541   0.121   0.932
  160SOL    HW2  959   0.551   0.030   0.958
  160SOL    HW3  960   0.497   0.117   0.847
  160SOL    MW4  961   0.537   0.109   0.924
  161SOL     OW  962   0.635   1.736   1.478
  161SOL    HW2  963   0.552   1.721   1.523
  161SOL    HW3  964   0.694   1.669   1.513
  161SOL    MW4  965   0.633   1.726   1.488
  162SOL     OW  966   1.692   0.443   1.103
  162SOL    HW2  967   1.625   0.476   1.163
  162SOL    HW3  968   1.735   0.521   1.069
  162SOL    MW4  969   1.690   0.458   1.107
  163SOL     OW  970   1.870   1.163   1.073
  163SOL    HW2  971   1.863   1.103   0.998
  163SOL    HW3  972   1.796   1.223   1.062
  163SOL    MW4  973   1.860   1.163   1.062
  164SOL     OW  974   1.252   1.025   0.991
  164SOL    HW2  975   1.266   0.997   1.082
  164SOL    HW3  976   1.338   1.056   0.963
  164SOL    MW4  977   1.265   1.026   1.000
  165SOL     OW  978   1.335   0.520   1.270
  165SOL    HW2  979   1.356   0.521   1.177
  165SOL    HW3  980   1.380   0.442   1.303
  165SOL    MW4  981   1.342   0.510   1.262
  166SOL     OW  982   1.828   0.651   1.812
  166SOL    HW2  983   1.865   0.596   1.881
  166SOL    HW3  984   1.853   0.608   1.730
  166SOL    MW4  985   1.835   0.639   1.811
  167SOL     OW  986   1.375   0.949   1.863
  167SOL    HW2  987   1.441   0.897   1.817
  167SOL    HW3  988   1.395   0.936   1.956
  167SOL    MW4  989   1.386   0.940   1.870
  168SOL     OW  990   1.326   0.035   0.212
  168SOL    HW2  991   1.400   0.079   0.255
  168SOL    HW3  992   1.250   0.089   0.234
  168SOL    MW4  993   1.326   0.047   0.220
  169SOL     OW  994   1.386   0.810   0.490
  169SOL    HW2  995   1.301   0.780   0.460
  169SOL    HW3  996   1.378   0.817   0.585
  169SOL    MW4  997   1.374   0.808   0.499
  170SOL     OW  998   0.462   1.273   1.221
  170SOL    HW2  999   0.474   1.300   1.312
  170SOL    HW3 1000   0.443   1.354   1.174
  170SOL    MW4 1001   0.461   1.288   1.226
  171SOL     OW 1002   0.746   0.253   1.044
  171SOL    HW2 1003   0.719   0.255   1.135
  171SOL    HW3 1004   0.676   0.205   0.999
  171SOL    MW4 1005   0.734   0.249   1.051
  172SOL     OW 1006   0.600   1.745   1.206
  172SOL    HW2 1007   0.652   1.822   1.183
  172SOL    HW3 1008   0.609   1.737   1.301
  172SOL    MW4 1009   0.609   1.752   1.217
  173SOL     OW 1010   1.502   1.330   1.438
  173SOL    HW2 1011   1.487   1.259   1.501
  173SOL    HW3 1012   1.548   1.288   1.366
  173SOL    MW4 1013   1.508   1.314   1.438
  174SOL     OW 1014   0.576   1.061   1.555
  174SOL    HW2 1015   0.613   1.066   1.467
  174SOL    HW3 1016   0.615   1.134   1.602
  174SOL    MW4 1017   0.586   1.071   1.550
  175SOL     OW 1018   0.756   1.104   1.367
  175SOL    HW2 1019   0.815   1.050   1.420
  175SOL    HW3 1020   0.771   1.076   1.277
  175SOL    MW4 1021   0.766   1.093   1.363
  176SOL     OW 1022   0.759   0.476   0.216
  176SOL    HW2 1023   0.832   0.525   0.179
  176SOL    HW3 1024   0.775   0.385   0.190
  176SOL    MW4 1025   0.771   0.471   0.209
  177SOL     OW 1026   1.567   1.593   1.539
  177SOL    HW2 1027   1.609   1.578   1.624
  177SOL    HW3 1028   1.558   1.506   1.501
  177SOL    MW4 1029   1.571   1.581   1.546
  178SOL     OW 1030   1.227   0.072   1.130
  178SOL    HW2 1031   1.282   0.081   1.052
  178SOL    HW3 1032   1.282   0.106   1.201
  178SOL    MW4 1033   1.241   0.077   1.129
  179SOL     OW 1034   0.234   0.985   0.314
  179SOL    HW2 1035   0.171   1.001   0.243
  179SOL    HW3 1036   0.181   0.948   0.385
  179SOL    MW4 1037   0.219   0.982   0.314
  180SOL     OW 1038   0.590   1.339   0.173
  180SOL    HW2 1039   0.605   1.315   0.265
  180SOL    HW3 1040   0.498   1.317   0.157
  180SOL    MW4 1041   0.580   1.332   0.183
  181SOL     OW 1042   1.129   1.570   0.325
  181SOL    HW2 1043   1.137   1.488   0.276
  181SOL    HW3 1044   1.048   1.609   0.292
  181SOL    MW4 1045   1.119   1.565   0.315
  182SOL     OW 1046   0.388   1.728   0.894
  182SOL    HW2 1047   0.392   1.639   0.929
  182SOL    HW3 1048   0.414   1.719   0.803
  182SOL    MW4 1049   0.391   1.716   0.886
  183SOL     OW 1050   1.005   1.206   1.137
  183SOL    HW2 1051   0.937   1.140   1.153
  183SOL    HW3 1052   1.023   1.200   1.044
  183SOL    MW4 1053   0.998   1.197   1.128
  184SOL     OW 1054   0.094   1.481   1.388
  184SOL    HW2 1055   0.084   1.439   1.474
  184SOL    HW3 1056   0.015   1.534   1.378
  184SOL    MW4 1057   0.083   1.482   1.399
  185SOL     OW 1058   0.998   0.345   0.958
  185SOL    HW2 1059   0.928   0.297   1.003
  185SOL    HW3 1060   1.030   0.408   1.022
  185SOL    MW4 1061   0.993   0.347   0.972
  186SOL     OW 1062   0.649   0.781   1.578
  186SOL    HW2 1063   0.642   0.876   1.566
  186SOL    HW3 1064   0.658   0.770   1.673
  186SOL    MW4 1065   0.650   0.793   1.588
  187SOL     OW 1066   0.370   1.296   1.836
  187SOL    HW2 1067   0.442   1.298   1.773
  187SOL    HW3 1068   0.340   1.205   1.835
  187SOL    MW4 1069   0.375   1.285   1.828
  188SOL     OW 1070   1.454   0.059   1.303
  188SOL    HW2 1071   1.525   0.005   1.267
  188SOL    HW3 1072   1.453   0.038   1.396
  188SOL    MW4 1073   1.463   0.050   1.311
  189SOL     OW 1074   1.654   1.589   1.787
  189SOL    HW2 1075   1.627   1.586   1.878
  189SOL    HW3 1076   1.750   1.593   1.790
  189SOL    MW4 1077   1.664   1.589   1.799
  190SOL     OW 1078   0.465   0.451   0.771
  190SOL    HW2 1079   0.536   0.399   0.734
  190SOL    HW3 1080   0.451   0.416   0.858
  190SOL    MW4 1081   0.473   0.440   0.778
  191SOL     OW 1082   0.020   1.786   1.843
  191SOL    HW2 1083   0.070   1.764   1.765
  191SOL    HW3 1084   0.028   1.881   1.851
  191SOL    MW4 1085   0.028   1.795   1.834
  192SOL     OW 1086   0.781   1.544   0.847
  192SOL    HW2 1087   0.709   1.481   0.860
  192SOL    HW3 1088   0.742   1.629   0.865
  192SOL    MW4 1089   0.765   1.547   0.850
  193SOL     OW 1090   1.101   0.392   0.495
  193SOL    HW2 1091   1.123   0.329   0.427
  193SOL    HW3 1092   1.006   0.384   0.506
  193SOL    MW4 1093   1.091   0.383   0.487
  194SOL     OW 1094   0.186   0.082   0.427
  194SOL    HW2 1095   0.257   0.103   0.366
  194SOL    HW3 1096   0.140   0.010   0.385
  194SOL    MW4 1097   0.190   0.076   0.413
  195SOL     OW 1098   0.017   0.549   1.570
  195SOL    HW2 1099   0.081   0.615   1.545
  195SOL    HW3 1100  -0.064   0.576   1.527
  195SOL    MW4 1101   0.015   0.561   1.562
  196SOL     OW 1102   1.755   1.456   0.527
  196SOL    HW2 1103   1.725   1.389   0.588
  196SOL    HW3 1104   1.849   1.462   0.541
  196SOL    MW4 1105   1.763   1.448   0.537
  197SOL     OW 1106   1.311   1.133   0.457
  197SOL    HW2 1107   1.283   1.219   0.490
  197SOL    HW3 1108   1.339   1.149   0.367
  197SOL    MW4 1109   1.311   1.147   0.449
  198SOL     OW 1110   0.973   0.053   0.510
  198SOL    HW2 1111   1.010   0.112   0.575
  198SOL    HW3 1112   0.950   0.109   0.436
  198SOL    MW4 1113   0.974   0.068   0.509
  199SOL     OW 1114   1.826   0.935   0.932
  199SOL    HW2 1115   1.817   0.967   0.843
  199SOL    HW3 1116   1.779   0.851   0.932
  199SOL    MW4 1117   1.819   0.928   0.922
  200SOL     OW 1118   0.202   0.775   1.511
  200SOL    HW2 1119   0.223   0.844   1.449
  200SOL    HW3 1120   0.282   0.722   1.516
  200SOL    MW4 1121   0.215   0.776   1.505
  201SOL     OW 1122   1.738   0.866   0.633
  201SOL    HW2 1123   1.832   0.855   0.621
  201SOL    HW3 1124   1.714   0.938   0.574
  201SOL    MW4 1125   1.748   0.874   0.624
  202SOL     OW 1126   0.187   0.790   1.778
  202SOL    HW2 1127   0.113   0.734   1.804
  202SOL    HW3 1128   0.182   0.793   1.683
  202SOL    MW4 1129   0.176   0.783   1.768
  203SOL     OW 1130   0.353   0.077   1.228
  203SOL    HW2 1131   0.396   0.161   1.248
  203SOL    HW3 1132   0.426   0.015   1.221
  203SOL    MW4 1133   0.368   0.080   1.229
  204SOL     OW 1134   0.394   0.744   0.406
  204SOL    HW2 1135   0.394   0.839   0.391
  204SOL    HW3 1136   0.471   0.728   0.460
  204SOL    MW4 1137   0.404   0.755   0.411
  205SOL     OW 1138   1.170   0.603   1.470
  205SOL    HW2 1139   1.206   0.576   1.386
  205SOL    HW3 1140   1.083   0.637   1.449
  205SOL    MW4 1141   1.164   0.604   1.457
  206SOL     OW 1142   0.153   0.475   0.695
  206SOL    HW2 1143   0.215   0.482   0.768
  206SOL    HW3 1144   0.153   0.382   0.672
  206SOL    MW4 1145   0.161   0.464   0.702
  207SOL     OW 1146   1.700   1.815   0.227
  207SOL    HW2 1147   1.767   1.848   0.167
  207SOL    HW3 1148   1.657   1.894   0.261
  207SOL    MW4 1149   1.702   1.830   0.223
  208SOL     OW 1150   0.835   0.736   1.179
  208SOL    HW2 1151   0.793   0.654   1.155
  208SOL    HW3 1152   0.836   0.735   1.275
  208SOL    MW4 1153   0.828   0.725   1.188
  209SOL     OW 1154   1.506   1.869   1.578
  209SOL    HW2 1155   1.509   1.775   1.561
  209SOL    HW3 1156   1.529   1.877   1.670
  209SOL    MW4 1157   1.509   1.857   1.588
  210SOL     OW 1158   0.639   0.206   1.284
  210SOL    HW2 1159   0.570   0.269   1.305
  210SOL    HW3 1160   0.666   0.170   1.369
  210SOL    MW4 1161   0.633   0.209   1.297
  211SOL     OW 1162   0.022   1.047   0.153
  211SOL    HW2 1163  -0.009   1.112   0.216
  211SOL    HW3 1164  -0.029   0.969   0.172
  211SOL    MW4 1165   0.012   1.044   0.163
  212SOL     OW 1166   1.434   0.059   0.901
  212SOL    HW2 1167   1.522   0.068   0.938
  212SOL    HW3 1168   1.444   0.000   0.827
  212SOL    MW4 1169   1.448   0.053   0.895
  213SOL     OW 1170   1.466   0.798   0.745
  213SOL    HW2 1171   1.546   0.813   0.694
  213SOL    HW3 1172   1.459   0.703   0.751
  213SOL    MW4 1173   1.475   0.787   0.740
  214SOL     OW 1174   0.606   1.847   0.095
  214SOL    HW2 1175   0.511   1.847   0.087
  214SOL    HW3 1176   0.622   1.793   0.173
  214SOL    MW4 1177   0.596   1.841   0.104
  215SOL     OW 1178   0.916   0.724   1.442
  215SOL    HW2 1179   0.985   0.791   1.439
  215SOL    HW3 1180   0.849   0.762   1.498
  215SOL    MW4 1181   0.917   0.737   1.449
  216SOL     OW 1182   0.334   1.024   1.690
  216SOL    HW2 1183   0.288   0.940   1.692
  216SOL    HW3 1184   0.391   1.018   1.614
  216SOL    MW4 1185   0.336   1.012   1.682
  217SOL     OW 1186   1.451   0.667   0.011
  217SOL    HW2 1187   1.379   0.643  -0.047
  217SOL    HW3 1188   1.517   0.704  -0.047
  217SOL    MW4 1189   1.450   0.669  -0.004
  218SOL     OW 1190   0.585   1.399   0.691
  218SOL    HW2 1191   0.650   1.332   0.712
  218SOL    HW3 1192   0.637   1.476   0.668
  218SOL    MW4 1193   0.600   1.401   0.690
  219SOL     OW 1194   0.846   0.564   0.821
  219SOL    HW2 1195   0.786   0.582   0.893
  219SOL    HW3 1196   0.880   0.476   0.840
  219SOL    MW4 1197   0.842   0.554   0.834
  220SOL     OW 1198   1.787   0.063   1.490
  220SOL    HW2 1199   1.708   0.109   1.518
  220SOL    HW3 1200   1.822   0.117   1.419
  220SOL    MW4 1201   1.781   0.076   1.484
  221SOL     OW 1202   1.071   1.147   0.840
  221SOL    HW2 1203   1.163   1.128   0.858
  221SOL    HW3 1204   1.044   1.077   0.780
  221SOL    MW4 1205   1.079   1.135   0.834
  222SOL     OW 1206   0.864   0.967   0.195
  222SOL    HW2 1207   0.850   0.879   0.160
  222SOL    HW3 1208   0.815   1.024   0.136
  222SOL    MW4 1209   0.856   0.962   0.183
  223SOL     OW 1210   1.345   1.385   0.936
  223SOL    HW2 1211   1.318   1.469   0.901
  223SOL    HW3 1212   1.305   1.380   1.023
  223SOL    MW4 1213   1.338   1.394   0.942
  224SOL     OW 1214   1.264   1.333   1.204
  224SOL    HW2 1215   1.275   1.300   1.293
  224SOL    HW3 1216   1.183   1.292   1.173
  224SOL    MW4 1217   1.254   1.325   1.210
  225SOL     OW 1218   0.277   0.691   0.974
  225SOL    HW2 1219   0.227   0.690   1.055
  225SOL    HW3 1220   0.297   0.783   0.958
  225SOL    MW4 1221   0.273   0.703   0.982
  226SOL     OW 1222   1.344   1.455   1.736
  226SOL    HW2 1223   1.344   1.549   1.752
  226SOL    HW3 1224   1.389   1.445   1.652
  226SOL    MW4 1225   1.350   1.465   1.727
  227SOL     OW 1226   1.583   0.173   0.297
  227SOL    HW2 1227   1.576   0.177   0.392
  227SOL    HW3 1228   1.595   0.264   0.270
  227SOL    MW4 1229   1.584   0.186   0.305
  228SOL     OW 1230   0.872   0.736   0.411
  228SOL    HW2 1231   0.852   0.722   0.318
  228SOL    HW3 1232   0.965   0.715   0.418
  228SOL    MW4 1233   0.882   0.731   0.400
  229SOL     OW 1234   0.199   0.359   1.715
  229SOL    HW2 1235   0.156   0.418   1.652
  229SOL    HW3 1236   0.267   0.414   1.755
  229SOL    MW4 1237   0.203   0.374   1.712
  230SOL     OW 1238   1.311   0.979   1.260
  230SOL    HW2 1239   1.374   0.976   1.333
  230SOL    HW3 1240   1.227   0.997   1.302
  230SOL    MW4 1241   1.307   0.981   1.275
  231SOL     OW 1242   0.855   1.694   0.449
  231SOL    HW2 1243   0.913   1.765   0.476
  231SOL    HW3 1244   0.878   1.622   0.507
  231SOL    MW4 1245   0.866   1.694   0.460
  232SOL     OW 1246   1.650   0.156   1.039
  232SOL    HW2 1247   1.695   0.074   1.058
  232SOL    HW3 1248   1.670   0.212   1.115
  232SOL    MW4 1249   1.660   0.152   1.051
  233SOL     OW 1250   0.098  -0.001   1.138
  233SOL    HW2 1251   0.089   0.000   1.043
  233SOL    HW3 1252   0.192   0.011   1.153
  233SOL    MW4 1253   0.110   0.002   1.129
  234SOL     OW 1254   1.735   1.192   0.758
  234SOL    HW2 1255   1.714   1.138   0.681
  234SOL    HW3 1256   1.831   1.190   0.762
  234SOL    MW4 1257   1.744   1.185   0.747
  235SOL     OW 1258   0.427   1.337   1.501
  235SOL    HW2 1259   0.348   1.287   1.524
  235SOL    HW3 1260   0.497   1.296   1.551
  235SOL    MW4 1261   0.425   1.325   1.511
  236SOL     OW 1262   0.311   0.126   0.184
  236SOL    HW2 1263   0.240   0.181   0.152
  236SOL    HW3 1264   0.353   0.092   0.105
  236SOL    MW4 1265   0.307   0.128   0.170
  237SOL     OW 1266   1.435   0.623   1.020
  237SOL    HW2 1267   1.358   0.669   0.986
  237SOL    HW3 1268   1.492   0.692   1.054
  237SOL    MW4 1269   1.432   0.638   1.020
  238SOL     OW 1270   0.067   0.225   0.033
  238SOL    HW2 1271   0.034   0.304   0.077
  238SOL    HW3 1272   0.122   0.258  -0.038
  238SOL    MW4 1273   0.070   0.239   0.030
  239SOL     OW 1274   0.101   1.482   0.222
  239SOL    HW2 1275   0.118   1.566   0.264
  239SOL    HW3 1276   0.136   1.491   0.134
  239SOL    MW4 1277   0.106   1.495   0.216
  240SOL     OW 1278   1.373   1.571   0.439
  240SOL    HW2 1279   1.436   1.561   0.368
  240SOL    HW3 1280   1.290   1.591   0.394
  240SOL    MW4 1281   1.370   1.572   0.424
  241SOL     OW 1282   1.736   0.839   2.125
  241SOL    HW2 1283   1.777   0.781   2.190
  241SOL    HW3 1284   1.643   0.831   2.142
  241SOL    MW4 1285   1.730   0.831   2.135
  242SOL     OW 1286   1.602   0.771   3.120
  242SOL    HW2 1287   1.557   0.838   3.171
  242SOL    HW3 1288   1.690   0.807   3.106
  242SOL    MW4 1289   1.608   0.784   3.124
  243SOL     OW 1290   0.530   1.022   2.354
  243SOL    HW2 1291   0.620   0.997   2.338
  243SOL    HW3 1292   0.526   1.115   2.331
  243SOL    MW4 1293   0.542   1.031   2.349
  244SOL     OW 1294   1.646   1.725   2.496
  244SOL    HW2 1295   1.658   1.671   2.574
  244SOL    HW3 1296   1.683   1.673   2.425
  244SOL    MW4 1297   1.652   1.710   2.497
  245SOL     OW 1298   1.025   1.610   3.497
  245SOL    HW2 1299   1.066   1.646   3.418
  245SOL    HW3 1300   1.060   1.521   3.504
  245SOL    MW4 1301   1.036   1.603   3.488
  246SOL     OW 1302   1.582   1.165   3.101
  246SOL    HW2 1303   1.503   1.130   3.059
  246SOL    HW3 1304   1.609   1.237   3.045
  246SOL    MW4 1305   1.575   1.170   3.088
  247SOL     OW 1306   0.814   0.478   2.367
  247SOL    HW2 1307   0.789   0.566   2.395
  247SOL    HW3 1308   0.811   0.481   2.271
  247SOL    MW4 1309   0.810   0.490   2.359
  248SOL     OW 1310   0.256   0.506   2.295
  248SOL    HW2 1311   0.288   0.594   2.277
  248SOL    HW3 1312   0.244   0.504   2.390
  248SOL    MW4 1313   0.259   0.518   2.307
  249SOL     OW 1314   0.334   0.919   3.196
  249SOL    HW2 1315   0.397   0.866   3.147
  249SOL    HW3 1316   0.315   0.993   3.139
  249SOL    MW4 1317   0.340   0.921   3.183
  250SOL     OW 1318   0.655   0.261   2.382
  250SOL    HW2 1319   0.713   0.337   2.384
  250SOL    HW3 1320   0.590   0.282   2.315
  250SOL    MW4 1321   0.654   0.273   2.373
  251SOL     OW 1322   0.742   1.188   2.557
  251SOL    HW2 1323   0.822   1.191   2.609
  251SOL    HW3 1324   0.770   1.155   2.471
  251SOL    MW4 1325   0.756   1.184   2.552
  252SOL     OW 1326   0.767   1.529   3.460
  252SOL    HW2 1327   0.851   1.555   3.499
  252SOL    HW3 1328   0.791   1.473   3.386
  252SOL    MW4 1329   0.781   1.525   3.455
  253SOL     OW 1330   0.519   0.692   2.548
  253SOL    HW2 1331   0.504   0.612   2.599
  253SOL    HW3 1332   0.601   0.727   2.582
  253SOL    MW4 1333   0.527   0.684   2.560
  254SOL     OW 1334   0.856   1.378   3.233
  254SOL    HW2 1335   0.820   1.444   3.173
  254SOL    HW3 1336   0.784   1.316   3.246
  254SOL    MW4 1337   0.842   1.378   3.227
  255SOL     OW 1338   0.661   0.518   2.925
  255SOL    HW2 1339   0.567   0.514   2.943
  255SOL    HW3 1340   0.691   0.427   2.934
  255SOL    MW4 1341   0.652   0.506   2.928
  256SOL     OW 1342   0.407   0.932   2.829
  256SOL    HW2 1343   0.362   0.939   2.745
  256SOL    HW3 1344   0.387   1.015   2.873
  256SOL    MW4 1345   0.399   0.944   2.823
  257SOL     OW 1346   0.104   1.778   2.704
  257SOL    HW2 1347   0.193   1.770   2.739
  257SOL    HW3 1348   0.068   1.690   2.709
  257SOL    MW4 1349   0.111   1.765   2.709
  258SOL     OW 1350   1.369   1.170   2.073
  258SOL    HW2 1351   1.287   1.206   2.039
  258SOL    HW3 1352   1.437   1.213   2.022
  258SOL    MW4 1353   1.367   1.180   2.061
  259SOL     OW 1354   0.368   1.305   2.739
  259SOL    HW2 1355   0.344   1.358   2.815
  259SOL    HW3 1356   0.424   1.363   2.687
  259SOL    MW4 1357   0.372   1.320   2.742
  260SOL     OW 1358   0.930   0.949   2.549
  260SOL    HW2 1359   0.844   0.936   2.589
  260SOL    HW3 1360   0.983   0.876   2.581
  260SOL    MW4 1361   0.926   0.938   2.558
  261SOL     OW 1362   0.338   1.601   3.334
  261SOL    HW2 1363   0.246   1.577   3.319
  261SOL    HW3 1364   0.382   1.518   3.351
  261SOL    MW4 1365   0.332   1.586   3.333
  262SOL     OW 1366   0.921   1.311   2.266
  262SOL    HW2 1367   0.898   1.373   2.334
  262SOL    HW3 1368   0.878   1.229   2.292
  262SOL    MW4 1369   0.913   1.307   2.277
  263SOL     OW 1370   1.794   0.312   2.722
  263SOL    HW2 1371   1.731   0.292   2.791
  263SOL    HW3 1372   1.784   0.241   2.659
  263SOL    MW4 1373   1.784   0.299   2.723
  264SOL     OW 1374   0.418   0.284   2.234
  264SOL    HW2 1375   0.392   0.246   2.150
  264SOL    HW3 1376   0.355   0.354   2.250
  264SOL    MW4 1377   0.407   0.287   2.225
  265SOL     OW 1378   0.253   1.245   2.271
  265SOL    HW2 1379   0.201   1.313   2.227
  265SOL    HW3 1380   0.250   1.171   2.211
  265SOL    MW4 1381   0.245   1.244   2.258
  266SOL     OW 1382   0.915   1.708   2.049
  266SOL    HW2 1383   0.870   1.724   2.132
  266SOL    HW3 1384   0.846   1.673   1.991
  266SOL    MW4 1385   0.901   1.705   2.051
  267SOL     OW 1386   1.850   0.481   2.024
  267SOL    HW2 1387   1.759   0.483   2.052
  267SOL    HW3 1388   1.895   0.543   2.082
  267SOL    MW4 1389   1.843   0.489   2.034
  268SOL     OW 1390   1.595   1.084   2.374
  268SOL    HW2 1391   1.505   1.084   2.409
  268SOL    HW3 1392   1.588   1.130   2.291
  268SOL    MW4 1393   1.582   1.090   2.368
  269SOL     OW 1394   1.395   0.719   3.446
  269SOL    HW2 1395   1.464   0.657   3.423
  269SOL    HW3 1396   1.320   0.693   3.393
  269SOL    MW4 1397   1.395   0.706   3.437
  270SOL     OW 1398   0.136   1.599   2.998
  270SOL    HW2 1399   0.119   1.545   3.075
  270SOL    HW3 1400   0.124   1.689   3.028
  270SOL    MW4 1401   0.133   1.603   3.012
  271SOL     OW 1402   1.131   1.106   3.438
  271SOL    HW2 1403   1.116   1.199   3.423
  271SOL    HW3 1404   1.226   1.096   3.438
  271SOL    MW4 1405   1.140   1.116   3.435
  272SOL     OW 1406   0.927   0.530   3.639
  272SOL    HW2 1407   1.017   0.531   3.606
  272SOL    HW3 1408   0.886   0.455   3.597
  272SOL    MW4 1409   0.933   0.520   3.630
  273SOL     OW 1410   1.502   1.062   2.766
  273SOL    HW2 1411   1.505   0.996   2.697
  273SOL    HW3 1412   1.587   1.105   2.762
  273SOL    MW4 1413   1.514   1.058   2.757
  274SOL     OW 1414   1.122   0.665   2.335
  274SOL    HW2 1415   1.148   0.689   2.246
  274SOL    HW3 1416   1.104   0.572   2.331
  274SOL    MW4 1417   1.124   0.657   2.322
  275SOL     OW 1418   1.787   1.285   2.186
  275SOL    HW2 1419   1.743   1.326   2.261
  275SOL    HW3 1420   1.844   1.353   2.151
  275SOL    MW4 1421   1.789   1.299   2.191
  276SOL     OW 1422   0.707   0.334   3.589
  276SOL    HW2 1423   0.717   0.260   3.529
  276SOL    HW3 1424   0.743   0.303   3.672
  276SOL    MW4 1425   0.713   0.320   3.591
  277SOL     OW 1426   0.443   1.701   2.504
  277SOL    HW2 1427   0.475   1.789   2.482
  277SOL    HW3 1428   0.396   1.673   2.426
  277SOL    MW4 1429   0.442   1.709   2.491
  278SOL     OW 1430   1.827   0.063   2.553
  278SOL    HW2 1431   1.881   0.014   2.615
  278SOL    HW3 1432   1.770  -0.003   2.514
  278SOL    MW4 1433   1.827   0.047   2.555
  279SOL     OW 1434   0.159   1.761   2.081
  279SOL    HW2 1435   0.188   1.851   2.073
  279SOL    HW3 1436   0.109   1.744   2.002
  279SOL    MW4 1437   0.157   1.769   2.070
  280SOL     OW 1438   0.946   0.016   2.966
  280SOL    HW2 1439   0.905   0.094   2.928
  280SOL    HW3 1440   1.040   0.034   2.961
  280SOL    MW4 1441   0.952   0.028   2.961
  281SOL     OW 1442   1.563   1.569   2.052
  281SOL    HW2 1443   1.611   1.638   2.098
  281SOL    HW3 1444   1.484   1.613   2.021
  281SOL    MW4 1445   1.558   1.583   2.055
  282SOL     OW 1446   0.961   0.694   1.996
  282SOL    HW2 1447   0.963   0.641   1.917
  282SOL    HW3 1448   1.049   0.731   2.002
  282SOL    MW4 1449   0.973   0.693   1.985
  283SOL     OW 1450   1.575   0.620   2.332
  283SOL    HW2 1451   1.614   0.620   2.419
  283SOL    HW3 1452   1.516   0.696   2.332
  283SOL    MW4 1453   1.572   0.631   2.343
  284SOL     OW 1454   0.892   0.987   3.461
  284SOL    HW2 1455   0.869   0.967   3.551
  284SOL    HW3 1456   0.977   1.031   3.466
  284SOL    MW4 1457   0.899   0.990   3.473
  285SOL     OW 1458   0.972   0.124   3.221
  285SOL    HW2 1459   0.978   0.086   3.134
  285SOL    HW3 1460   0.961   0.218   3.206
  285SOL    MW4 1461   0.973   0.132   3.209
  286SOL     OW 1462   1.061   0.613   3.055
  286SOL    HW2 1463   1.136   0.642   3.002
  286SOL    HW3 1464   0.993   0.678   3.039
  286SOL    MW4 1465   1.062   0.625   3.045
  287SOL     OW 1466   1.611   0.581   3.332
  287SOL    HW2 1467   1.592   0.490   3.311
  287SOL    HW3 1468   1.589   0.630   3.253
  287SOL    MW4 1469   1.606   0.574   3.319
  288SOL     OW 1470   1.753   1.675   3.236
  288SOL    HW2 1471   1.681   1.637   3.287
  288SOL    HW3 1472   1.770   1.760   3.277
  288SOL    MW4 1473   1.747   1.680   3.248
  289SOL     OW 1474   1.058   0.319   3.438
  289SOL    HW2 1475   1.024   0.358   3.357
  289SOL    HW3 1476   1.036   0.227   3.431
  289SOL    MW4 1477   1.051   0.312   3.428
  290SOL     OW 1478   1.467   1.133   3.514
  290SOL    HW2 1479   1.549   1.174   3.544
  290SOL    HW3 1480   1.430   1.095   3.594
  290SOL    MW4 1481   1.473   1.134   3.529
  291SOL     OW 1482   1.762   0.506   2.498
  291SOL    HW2 1483   1.851   0.475   2.515
  291SOL    HW3 1484   1.705   0.446   2.546
  291SOL    MW4 1485   1.765   0.494   2.507
  292SOL     OW 1486   0.188   0.220   2.527
  292SOL    HW2 1487   0.179   0.160   2.453
  292SOL    HW3 1488   0.121   0.191   2.590
  292SOL    MW4 1489   0.178   0.207   2.525
  293SOL     OW 1490   1.131   1.313   2.088
  293SOL    HW2 1491   1.081   1.315   2.170
  293SOL    HW3 1492   1.065   1.331   2.020
  293SOL    MW4 1493   1.117   1.315   2.090
  294SOL     OW 1494   0.135   0.393   2.890
  294SOL    HW2 1495   0.107   0.484   2.899
  294SOL    HW3 1496   0.072   0.354   2.829
  294SOL    MW4 1497   0.122   0.399   2.884
  295SOL     OW 1498   0.594   1.731   2.196
  295SOL    HW2 1499   0.515   1.689   2.229
  295SOL    HW3 1500   0.660   1.714   2.263
  295SOL    MW4 1501   0.593   1.723   2.209
  296SOL     OW 1502   1.722   1.251   3.593
  296SOL    HW2 1503   1.772   1.177   3.625
  296SOL    HW3 1504   1.668   1.278   3.668
  296SOL    MW4 1505   1.722   1.245   3.606
  297SOL     OW 1506   0.730   1.146   1.903
  297SOL    HW2 1507   0.652   1.092   1.890
  297SOL    HW3 1508   0.701   1.219   1.956
  297SOL    MW4 1509   0.716   1.148   1.908
  298SOL     OW 1510   1.856   0.886   3.095
  298SOL    HW2 1511   1.872   0.924   3.008
  298SOL    HW3 1512   1.890   0.952   3.156
  298SOL    MW4 1513   1.863   0.899   3.091
  299SOL     OW 1514   1.648   1.595   2.764
  299SOL    HW2 1515   1.677   1.662   2.825
  299SOL    HW3 1516   1.629   1.519   2.819
  299SOL    MW4 1517   1.650   1.595   2.779
  300SOL     OW 1518   1.311   1.662   1.971
  300SOL    HW2 1519   1.237   1.625   2.021
  300SOL    HW3 1520   1.319   1.752   2.004
  300SOL    MW4 1521   1.302   1.669   1.983
  301SOL     OW 1522   0.119   0.668   3.060
  301SOL    HW2 1523   0.181   0.698   3.126
  301SOL    HW3 1524   0.053   0.737   3.054
  301SOL    MW4 1525   0.118   0.681   3.067
  302SOL     OW 1526   1.535   1.336   1.913
  302SOL    HW2 1527   1.482   1.385   1.849
  302SOL    HW3 1528   1.566   1.402   1.974
  302SOL    MW4 1529   1.533   1.350   1.911
  303SOL     OW 1530   0.760   0.225   1.968
  303SOL    HW2 1531   0.708   0.145   1.956
  303SOL    HW3 1532   0.847   0.202   1.936
  303SOL    MW4 1533   0.763   0.211   1.962
  304SOL     OW 1534   0.214   1.777   3.512
  304SOL    HW2 1535   0.188   1.845   3.450
  304SOL    HW3 1536   0.262   1.714   3.460
  304SOL    MW4 1537   0.216   1.777   3.498
  305SOL     OW 1538   0.266   1.096   3.019
  305SOL    HW2 1539   0.319   1.171   3.044
  305SOL    HW3 1540   0.185   1.134   2.985
  305SOL    MW4 1541   0.262   1.111   3.019
  306SOL     OW 1542   0.806   1.000   3.007
  306SOL    HW2 1543   0.834   0.909   3.019
  306SOL    HW3 1544   0.735   0.994   2.943
  306SOL    MW4 1545   0.799   0.988   3.002
  307SOL     OW 1546   0.121   0.865   2.425
  307SOL    HW2 1547   0.212   0.880   2.452
  307SOL    HW3 1548   0.124   0.786   2.371
  307SOL    MW4 1549   0.133   0.857   2.423
  308SOL     OW 1550   0.357   0.573   3.679
  308SOL    HW2 1551   0.304   0.653   3.686
  308SOL    HW3 1552   0.427   0.585   3.744
  308SOL    MW4 1553   0.359   0.586   3.687
  309SOL     OW 1554   0.743   0.123   3.386
  309SOL    HW2 1555   0.720   0.031   3.388
  309SOL    HW3 1556   0.829   0.125   3.343
  309SOL    MW4 1557   0.750   0.113   3.382
  310SOL     OW 1558   0.427   0.647   3.425
  310SOL    HW2 1559   0.507   0.697   3.411
  310SOL    HW3 1560   0.418   0.641   3.520
  310SOL    MW4 1561   0.436   0.653   3.435
  311SOL     OW 1562   0.748   1.797   2.799
  311SOL    HW2 1563   0.837   1.812   2.829
  311SOL    HW3 1564   0.743   1.844   2.715
  311SOL    MW4 1565   0.758   1.805   2.792
  312SOL     OW 1566   1.404   0.172   3.696
  312SOL    HW2 1567   1.460   0.099   3.722
  312SOL    HW3 1568   1.374   0.210   3.778
  312SOL    MW4 1569   1.408   0.167   3.709
  313SOL     OW 1570   0.129   1.477   2.464
  313SOL    HW2 1571   0.101   1.516   2.546
  313SOL    HW3 1572   0.149   1.386   2.486
  313SOL    MW4 1573   0.127   1.469   2.477
  314SOL     OW 1574   0.962   1.520   2.499
  314SOL    HW2 1575   1.045   1.474   2.483
  314SOL    HW3 1576   0.952   1.519   2.595
  314SOL    MW4 1577   0.972   1.513   2.509
  315SOL     OW 1578   1.794   0.665   2.813
  315SOL    HW2 1579   1.883   0.695   2.795
  315SOL    HW3 1580   1.774   0.605   2.742
  315SOL    MW4 1581   1.803   0.662   2.802
  316SOL     OW 1582   1.645   0.844   3.693
  316SOL    HW2 1583   1.700   0.768   3.674
  316SOL    HW3 1584   1.647   0.852   3.788
  316SOL    MW4 1585   1.653   0.835   3.701
  317SOL     OW 1586   0.695   1.577   1.904
  317SOL    HW2 1587   0.635   1.646   1.874
  317SOL    HW3 1588   0.640   1.519   1.957
  317SOL    MW4 1589   0.679   1.579   1.906
  318SOL     OW 1590   1.133   0.222   2.127
  318SOL    HW2 1591   1.066   0.198   2.064
  318SOL    HW3 1592   1.198   0.271   2.076
  318SOL    MW4 1593   1.133   0.224   2.112
  319SOL     OW 1594   0.940   0.406   3.212
  319SOL    HW2 1595   0.859   0.447   3.240
  319SOL    HW3 1596   0.987   0.474   3.164
  319SOL    MW4 1597   0.935   0.421   3.210
  320SOL     OW 1598   1.200   0.744   2.835
  320SOL    HW2 1599   1.213   0.838   2.845
  320SOL    HW3 1600   1.161   0.734   2.749
  320SOL    MW4 1601   1.196   0.755   2.825
  321SOL     OW 1602   0.652   0.939   2.639
  321SOL    HW2 1603   0.563   0.930   2.672
  321SOL    HW3 1604   0.656   1.029   2.607
  321SOL    MW4 1605   0.641   0.950   2.639
  322SOL     OW 1606   1.451   0.522   2.634
  322SOL    HW2 1607   1.396   0.443   2.633
  322SOL    HW3 1608   1.433   0.563   2.718
  322SOL    MW4 1609   1.441   0.517   2.643
  323SOL     OW 1610   0.422   0.209   3.451
  323SOL    HW2 1611   0.343   0.227   3.503
  323SOL    HW3 1612   0.417   0.271   3.378
  323SOL    MW4 1613   0.412   0.219   3.448
  324SOL     OW 1614   1.070   0.726   2.591
  324SOL    HW2 1615   1.007   0.658   2.615
  324SOL    HW3 1616   1.090   0.707   2.499
  324SOL    MW4 1617   1.064   0.713   2.583
  325SOL     OW 1618   0.326   1.621   2.293
  325SOL    HW2 1619   0.287   1.668   2.219
  325SOL    HW3 1620   0.260   1.556   2.318
  325SOL    MW4 1621   0.313   1.619   2.287
  326SOL     OW 1622   0.818   1.030   2.317
  326SOL    HW2 1623   0.820   1.004   2.224
  326SOL    HW3 1624   0.876   0.967   2.360
  326SOL    MW4 1625   0.826   1.019   2.311
  327SOL     OW 1626   1.371   1.590   3.089
  327SOL    HW2 1627   1.296   1.636   3.127
  327SOL    HW3 1628   1.353   1.497   3.106
  327SOL    MW4 1629   1.360   1.584   3.097
  328SOL     OW 1630   1.375   1.798   2.519
  328SOL    HW2 1631   1.318   1.751   2.458
  328SOL    HW3 1632   1.461   1.759   2.506
  328SOL    MW4 1633   1.378   1.789   2.509
  329SOL     OW 1634   1.328   0.274   2.650
  329SOL    HW2 1635   1.356   0.206   2.711
  329SOL    HW3 1636   1.242   0.245   2.620
  329SOL    MW4 1637   1.321   0.261   2.654
  330SOL     OW 1638   0.133   1.208   2.584
  330SOL    HW2 1639   0.197   1.240   2.647
  330SOL    HW3 1640   0.182   1.144   2.532
  330SOL    MW4 1641   0.148   1.204   2.585
  331SOL     OW 1642   0.633   1.284   3.566
  331SOL    HW2 1643   0.681   1.367   3.553
  331SOL    HW3 1644   0.690   1.232   3.622
  331SOL    MW4 1645   0.647   1.288   3.572
  332SOL     OW 1646   0.209   1.526   3.706
  332SOL    HW2 1647   0.265   1.450   3.721
  332SOL    HW3 1648   0.158   1.504   3.628
  332SOL    MW4 1649   0.209   1.513   3.697
  333SOL     OW 1650   1.308   0.378   1.985
  333SOL    HW2 1651   1.281   0.444   1.921
  333SOL    HW3 1652   1.378   0.421   2.035
  333SOL    MW4 1653   1.313   0.391   1.982
  334SOL     OW 1654   0.976   0.083   1.922
  334SOL    HW2 1655   1.032   0.075   1.844
  334SOL    HW3 1656   0.953  -0.007   1.944
  334SOL    MW4 1657   0.981   0.070   1.915
  335SOL     OW 1658   1.481   0.934   2.127
  335SOL    HW2 1659   1.448   1.023   2.117
  335SOL    HW3 1660   1.446   0.905   2.212
  335SOL    MW4 1661   1.471   0.943   2.138
  336SOL     OW 1662   1.094   1.363   3.315
  336SOL    HW2 1663   1.005   1.369   3.283
  336SOL    HW3 1664   1.138   1.442   3.283
  336SOL    MW4 1665   1.089   1.373   3.307
  337SOL     OW 1666   0.387   0.031   3.657
  337SOL    HW2 1667   0.315  -0.004   3.605
  337SOL    HW3 1668   0.445   0.072   3.592
  337SOL    MW4 1669   0.385   0.032   3.642
  338SOL     OW 1670   0.411   1.521   2.956
  338SOL    HW2 1671   0.456   1.583   3.013
  338SOL    HW3 1672   0.318   1.540   2.969
  338SOL    MW4 1673   0.404   1.531   2.963
  339SOL     OW 1674   1.851   1.050   3.310
  339SOL    HW2 1675   1.766   1.063   3.269
  339SOL    HW3 1676   1.831   1.014   3.397
  339SOL    MW4 1677   1.838   1.046   3.315
  340SOL     OW 1678   0.833   1.589   3.064
  340SOL    HW2 1679   0.857   1.578   2.973
  340SOL    HW3 1680   0.756   1.646   3.062
  340SOL    MW4 1681   0.825   1.594   3.053
  341SOL     OW 1682   0.475   0.972   1.919
  341SOL    HW2 1683   0.398   0.985   1.975
  341SOL    HW3 1684   0.439   0.936   1.838
  341SOL    MW4 1685   0.461   0.968   1.916
  342SOL     OW 1686   1.128   0.945   2.162
  342SOL    HW2 1687   1.038   0.966   2.137
  342SOL    HW3 1688   1.155   1.018   2.218
  342SOL    MW4 1689   1.120   0.957   2.165
  343SOL     OW 1690   0.628   1.294   2.854
  343SOL    HW2 1691   0.621   1.273   2.948
  343SOL    HW3 1692   0.546   1.262   2.817
  343SOL    MW4 1693   0.616   1.288   2.861
  344SOL     OW 1694   1.492   0.304   3.256
  344SOL    HW2 1695   1.439   0.306   3.336
  344SOL    HW3 1696   1.477   0.217   3.219
  344SOL    MW4 1697   1.484   0.294   3.261
  345SOL     OW 1698   1.828   0.228   3.129
  345SOL    HW2 1699   1.809   0.295   3.064
  345SOL    HW3 1700   1.885   0.166   3.084
  345SOL    MW4 1701   1.832   0.229   3.115
  346SOL     OW 1702   0.074   1.386   3.517
  346SOL    HW2 1703   0.118   1.319   3.463
  346SOL    HW3 1704  -0.011   1.348   3.537
  346SOL    MW4 1705   0.069   1.372   3.513
  347SOL     OW 1706   0.757   0.061   2.569
  347SOL    HW2 1707   0.686   0.122   2.551
  347SOL    HW3 1708   0.808   0.058   2.488
  347SOL    MW4 1709   0.753   0.067   2.556
  348SOL     OW 1710   0.515   1.301   2.318
  348SOL    HW2 1711   0.508   1.333   2.408
  348SOL    HW3 1712   0.425   1.285   2.290
  348SOL    MW4 1713   0.503   1.303   2.325
  349SOL     OW 1714   1.110   1.694   3.227
  349SOL    HW2 1715   1.030   1.679   3.177
  349SOL    HW3 1716   1.117   1.789   3.234
  349SOL    MW4 1717   1.101   1.705   3.221
  350SOL     OW 1718   1.224   1.659   2.717
  350SOL    HW2 1719   1.271   1.732   2.676
  350SOL    HW3 1720   1.145   1.698   2.753
  350SOL    MW4 1721   1.219   1.674   2.716
  351SOL     OW 1722   1.632   1.754   2.992
  351SOL    HW2 1723   1.675   1.724   3.072
  351SOL    HW3 1724   1.551   1.702   2.989
  351SOL    MW4 1725   1.627   1.743   3.002
  352SOL     OW 1726   0.717   0.718   3.699
  352SOL    HW2 1727   0.787   0.660   3.671
  352SOL    HW3 1728   0.660   0.663   3.754
  352SOL    MW4 1729   0.719   0.705   3.703
  353SOL     OW 1730   1.504   0.930   3.332
  353SOL    HW2 1731   1.509   0.983   3.412
  353SOL    HW3 1732   1.466   0.847   3.360
  353SOL    MW4 1733   1.500   0.925   3.347
  354SOL     OW 1734   1.144   0.065   3.578
  354SOL    HW2 1735   1.139  -0.028   3.559
  354SOL    HW3 1736   1.227   0.076   3.624
  354SOL    MW4 1737   1.152   0.054   3.582
  355SOL     OW 1738   0.518   0.585   2.032
  355SOL    HW2 1739   0.484   0.641   2.102
  355SOL    HW3 1740   0.589   0.535   2.072
  355SOL    MW4 1741   0.524   0.586   2.046
  356SOL     OW 1742   1.614   1.336   2.854
  356SOL    HW2 1743   1.649   1.318   2.767
  356SOL    HW3 1744   1.519   1.337   2.841
  356SOL    MW4 1745   1.606   1.333   2.841
  357SOL     OW 1746   1.043   0.984   3.223
  357SOL    HW2 1747   1.086   1.019   3.301
  357SOL    HW3 1748   1.026   1.061   3.169
  357SOL    MW4 1749   1.046   0.999   3.226
  358SOL     OW 1750   1.574   0.471   2.096
  358SOL    HW2 1751   1.566   0.542   2.033
  358SOL    HW3 1752   1.592   0.515   2.179
  358SOL    MW4 1753   1.575   0.485   2.098
  359SOL     OW 1754   0.434   0.126   2.525
  359SOL    HW2 1755   0.484   0.169   2.456
  359SOL    HW3 1756   0.349   0.170   2.525
  359SOL    MW4 1757   0.431   0.139   2.516
  360SOL     OW 1758   0.193   1.188   3.385
  360SOL    HW2 1759   0.221   1.141   3.463
  360SOL    HW3 1760   0.114   1.143   3.356
  360SOL    MW4 1761   0.186   1.177   3.391
  361SOL     OW 1762   0.701   0.515   3.352
  361SOL    HW2 1763   0.673   0.603   3.376
  361SOL    HW3 1764   0.670   0.459   3.423
  361SOL    MW4 1765   0.693   0.518   3.364
  362SOL     OW 1766   1.243   0.733   2.071
  362SOL    HW2 1767   1.290   0.751   1.990
  362SOL    HW3 1768   1.209   0.817   2.099
  362SOL    MW4 1769   1.245   0.747   2.064
  363SOL     OW 1770   0.356   0.911   2.565
  363SOL    HW2 1771   0.414   0.967   2.513
  363SOL    HW3 1772   0.400   0.826   2.567
  363SOL    MW4 1773   0.369   0.908   2.558
  364SOL     OW 1774   1.496   0.263   2.402
  364SOL    HW2 1775   1.418   0.213   2.427
  364SOL    HW3 1776   1.467   0.354   2.402
  364SOL    MW4 1777   1.482   0.267   2.405
  365SOL     OW 1778   1.082   0.225   2.561
  365SOL    HW2 1779   1.102   0.300   2.505
  365SOL    HW3 1780   1.062   0.264   2.646
  365SOL    MW4 1781   1.083   0.241   2.565
  366SOL     OW 1782   0.978   1.475   1.893
  366SOL    HW2 1783   1.005   1.553   1.845
  366SOL    HW3 1784   0.885   1.490   1.912
  366SOL    MW4 1785   0.969   1.488   1.889
  367SOL     OW 1786   1.842   0.998   3.580
  367SOL    HW2 1787   1.755   0.978   3.616
  367SOL    HW3 1788   1.896   0.924   3.605
  367SOL    MW4 1789   1.837   0.987   3.588
  368SOL     OW 1790   0.063   1.511   2.737
  368SOL    HW2 1791   0.095   1.515   2.828
  368SOL    HW3 1792  -0.032   1.519   2.745
  368SOL    MW4 1793   0.055   1.514   2.750
  369SOL     OW 1794   0.018   0.637   2.284
  369SOL    HW2 1795  -0.042   0.609   2.354
  369SOL    HW3 1796   0.092   0.577   2.290
  369SOL    MW4 1797   0.020   0.626   2.293
  370SOL     OW 1798   1.586   1.849   3.718
  370SOL    HW2 1799   1.631   1.773   3.683
  370SOL    HW3 1800   1.624   1.862   3.805
  370SOL    MW4 1801   1.596   1.842   3.724
  371SOL     OW 1802   1.186   1.368   2.444
  371SOL    HW2 1803   1.209   1.319   2.522
  371SOL    HW3 1804   1.267   1.410   2.416
  371SOL    MW4 1805   1.199   1.368   2.451
  372SOL     OW 1806   0.444   0.376   3.173
  372SOL    HW2 1807   0.477   0.457   3.213
  372SOL    HW3 1808   0.417   0.402   3.085
  372SOL    MW4 1809   0.443   0.390   3.167
  373SOL     OW 1810   0.398   0.343   2.909
  373SOL    HW2 1811   0.428   0.257   2.880
  373SOL    HW3 1812   0.303   0.336   2.912
  373SOL    MW4 1813   0.390   0.332   2.907
  374SOL     OW 1814   1.227   0.552   3.600
  374SOL    HW2 1815   1.279   0.487   3.553
  374SOL    HW3 1816   1.185   0.603   3.530
  374SOL    MW4 1817   1.228   0.549   3.583
  375SOL     OW 1818   1.326   0.347   3.461
  375SOL    HW2 1819   1.233   0.331   3.448
  375SOL    HW3 1820   1.352   0.285   3.529
  375SOL    MW4 1821   1.316   0.337   3.468
  376SOL     OW 1822   0.541   0.121   2.800
  376SOL    HW2 1823   0.551   0.030   2.826
  376SOL    HW3 1824   0.497   0.117   2.715
  376SOL    MW4 1825   0.537   0.109   2.792
  377SOL     OW 1826   0.635   1.736   3.346
  377SOL    HW2 1827   0.552   1.721   3.391
  377SOL    HW3 1828   0.694   1.669   3.381
  377SOL    MW4 1829   0.633   1.726   3.356
  378SOL     OW 1830   1.692   0.443   2.971
  378SOL    HW2 1831   1.625   0.476   3.031
  378SOL    HW3 1832   1.735   0.521   2.937
  378SOL    MW4 1833   1.690   0.458   2.975
  379SOL     OW 1834   1.870   1.163   2.941
  379SOL    HW2 1835   1.863   1.103   2.866
  379SOL    HW3 1836   1.796   1.223   2.930
  379SOL    MW4 1837   1.860   1.163   2.930
  380SOL     OW 1838   1.252   1.025   2.859
  380SOL    HW2 1839   1.266   0.997   2.950
  380SOL    HW3 1840   1.338   1.056   2.831
  380SOL    MW4 1841   1.265   1.026   2.868
  381SOL     OW 1842   1.335   0.520   3.138
  381SOL    HW2 1843   1.356   0.521   3.045
  381SOL    HW3 1844   1.380   0.442   3.171
  381SOL    MW4 1845   1.342   0.510   3.130
  382SOL     OW 1846   1.828   0.651   3.680
  382SOL    HW2 1847   1.865   0.596   3.749
  382SOL    HW3 1848   1.853   0.608   3.598
  382SOL    MW4 1849   1.835   0.639   3.679
  383SOL     OW 1850   1.375   0.949   3.731
  383SOL    HW2 1851   1.441   0.897   3.685
  383SOL    HW3 1852   1.395   0.936   3.824
  383SOL    MW4 1853   1.386   0.940   3.738
  384SOL     OW 1854   1.326   0.035   2.080
  384SOL    HW2 1855   1.400   0.079   2.123
  384SOL    HW3 1856   1.250   0.089   2.102
  384SOL    MW4 1857   1.326   0.047   2.088
  385SOL     OW 1858   1.386   0.810   2.358
  385SOL    HW2 1859   1.301   0.780   2.328
  385SOL    HW3 1860   1.378   0.817   2.453
  385SOL    MW4 1861   1.374   0.808   2.367
  386SOL     OW 1862   0.462   1.273   3.089
  386SOL    HW2 1863   0.474   1.300   3.180
  386SOL    HW3 1864   0.443   1.354   3.042
  386SOL    MW4 1865   0.461   1.288   3.094
  387SOL     OW 1866   0.746   0.253   2.912
  387SOL    HW2 1867   0.719   0.255   3.003
  387SOL    HW3 1868   0.676   0.205   2.867
  387SOL    MW4 1869   0.734   0.249   2.919
  388SOL     OW 1870   0.600   1.745   3.074
  388SOL    HW2 1871   0.652   1.822   3.051
  388SOL    HW3 1872   0.609   1.737   3.169
  388SOL    MW4 1873   0.609   1.752   3.085
  389SOL     OW 1874   1.502   1.330   3.306
  389SOL    HW2 1875   1.487   1.259   3.369
  389SOL    HW3 1876   1.548   1.288   3.234
  389SOL    MW4 1877   1.508   1.314   3.306
  390SOL     OW 1878   0.576   1.061   3.423
  390SOL    HW2 1879   0.613   1.066   3.335
  390SOL    HW3 1880   0.615   1.134   3.470
  390SOL    MW4 1881   0.586   1.071   3.418
  391SOL     OW 1882   0.756   1.104   3.235
  391SOL    HW2 1883   0.815   1.050   3.288
  391SOL    HW3 1884   0.771   1.076   3.145
  391SOL    MW4 1885   0.766   1.093   3.231
  392SOL     OW 1886   0.759   0.476   2.084
  392SOL    HW2 1887   0.832   0.525   2.047
  392SOL    HW3 1888   0.775   0.385   2.058
  392SOL    MW4 1889   0.771   0.471   2.077
  393SOL     OW 1890   1.567   1.593   3.407
  393SOL    HW2 1891   1.609   1.578   3.492
  393SOL    HW3 1892   1.558   1.506   3.369
  393SOL    MW4 1893   1.571   1.581   3.414
  394SOL     OW 1894   1.227   0.072   2.998
  394SOL    HW2 1895   1.282   0.081   2.920
  394SOL    HW3 1896   1.282   0.106   3.069
  394SOL    MW4 1897   1.241   0.077   2.997
  395SOL     OW 1898   0.234   0.985   2.182
  395SOL    HW2 1899   0.171   1.001   2.111
  395SOL    HW3 1900   0.181   0.948   2.253
  395SOL    MW4 1901   0.219   0.982   2.182
  396SOL     OW 1902   0.590   1.339   2.041
  396SOL    HW2 1903   0.605   1.315   2.133
  396SOL    HW3 1904   0.498   1.317   2.025
  396SOL    MW4 1905   0.580   1.332   2.051
  397SOL     OW 1906   1.129   1.570   2.193
  397SOL    HW2 1907   1.137   1.488   2.144
  397SOL    HW3 1908   1.048   1.609   2.160
  397SOL    MW4 1909   1.119   1.565   2.183
  398SOL     OW 1910   0.388   1.728   2.762
  398SOL    HW2 1911   0.392   1.639   2.797
  398SOL    HW3 1912   0.414   1.719   2.671
  398SOL    MW4 1913   0.391   1.716   2.754
  399SOL     OW 1914   1.005   1.206   3.005
  399SOL    HW2 1915   0.937   1.140   3.021
  399SOL    HW3 1916   1.023   1.200   2.912
  399SOL    MW4 1917   0.998   1.197   2.996
  400SOL     OW 1918   0.094   1.481   3.256
  400SOL    HW2 1919   0.084   1.439   3.342
  400SOL    HW3 1920   0.015   1.534   3.246
  400SOL    MW4 1921   0.083   1.482   3.267
  401SOL     OW 1922   0.998   0.345   2.826
  401SOL    HW2 1923   0.928   0.297   2.871
  401SOL    HW3 1924   1.030   0.408   2.890
  401SOL    MW4 1925   0.993   0.347   2.840
  402SOL     OW 1926   0.649   0.781   3.446
  402SOL    HW2 1927   0.642   0.876   3.434
  402SOL    HW3 1928   0.658   0.770   3.541
  402SOL    MW4 1929   0.650   0.793   3.456
  403SOL     OW 1930   0.370   1.296   3.704
  403SOL    HW2 1931   0.442   1.298   3.641
  403SOL    HW3 1932   0.340   1.205   3.703
  403SOL    MW4 1933   0.375   1.285   3.696
  404SOL     OW 1934   1.454   0.059   3.171
  404SOL    HW2 1935   1.525   0.005   3.135
  404SOL    HW3 1936   1.453   0.038   3.264
  404SOL    MW4 1937   1.463   0.050   3.179
  405SOL     OW 1938   1.654   1.589   3.655
  405SOL    HW2 1939   1.627   1.586   3.746
  405SOL    HW3 1940   1.750   1.593   3.658
  405SOL    MW4 1941   1.664   1.589   3.667
  406SOL     OW 1942   0.465   0.451   2.639
  406SOL    HW2 1943   0.536   0.399   2.602
  406SOL    HW3 1944   0.451   0.416   2.726
  406SOL    MW4 1945   0.473   0.440   2.646
  407SOL     OW 1946   0.020   1.786   3.711
  407SOL    HW2 1947   0.070   1.764   3.633
  407SOL    HW3 1948   0.028   1.881   3.719
  407SOL    MW4 1949   0.028   1.795   3.702
  408SOL     OW 1950   0.781   1.544   2.715
  408SOL    HW2 1951   0.709   1.481   2.728
  408SOL    HW3 1952   0.742   1.629   2.733
  408SOL    MW4 1953   0.765   1.547   2.718
  409SOL     OW 1954   1.101   0.392   2.363
  409SOL    HW2 1955   1.123   0.329   2.295
  409SOL    HW3 1956   1.006   0.384   2.374
  409SOL    MW4 1957   1.091   0.383   2.355
  410SOL     OW 1958   0.186   0.082   2.295
  410SOL    HW2 1959   0.257   0.103   2.234
  410SOL    HW3 1960   0.140   0.010   2.253
  410SOL    MW4 1961   0.190   0.076   2.281
  411SOL     OW 1962   0.017   0.549   3.438
  411SOL    HW2 1963   0.081   0.615   3.413
  411SOL    HW3 1964  -0.064   0.576   3.395
  411SOL    MW4 1965   0.015   0.561   3.430
  412SOL     OW 1966   1.755   1.456   2.395
  412SOL    HW2 1967   1.725   1.389   2.456
  412SOL    HW3 1968   1.849   1.462   2.409
  412SOL    MW4 1969   1.763   1.448   2.405
  413SOL     OW 1970   1.311   1.133   2.325
  413SOL    HW2 1971   1.283   1.219   2.358
  413SOL    HW3 1972   1.339   1.149   2.235
  413SOL    MW4 1973   1.311   1.147   2.317
  414SOL     OW 1974   0.973   0.053   2.378
  414SOL    HW2 1975   1.010   0.112   2.443
  414SOL    HW3 1976   0.950   0.109   2.304
  414SOL    MW4 1977   0.974   0.068   2.377
  415SOL     OW 1978   1.826   0.935   2.800
  415SOL    HW2 1979   1.817   0.967   2.711
  415SOL    HW3 1980   1.779   0.851   2.800
  415SOL    MW4 1981   1.819   0.928   2.790
  416SOL     OW 1982   0.202   0.775   3.379
  416SOL    HW2 1983   0.223   0.844   3.317
  416SOL    HW3 1984   0.282   0.722   3.384
  416SOL    MW4 1985   0.215   0.776   3.373
  417SOL     OW 1986   1.738   0.866   2.501
  417SOL    HW2 1987   1.832   0.855   2.489
  417SOL    HW3 1988   1.714   0.938   2.442
  417SOL    MW4 1989   1.748   0.874   2.492
  418SOL     OW 1990   0.187   0.790   3.646
  418SOL    HW2 1991   0.113   0.734   3.672
  418SOL    HW3 1992   0.182   0.793   3.551
  418SOL    MW4 1993   0.176   0.783   3.636
  419SOL     OW 1994   0.353   0.077   3.096
  419SOL    HW2 1995   0.396   0.161   3.116
  419SOL    HW3 1996   0.426   0.015   3.089
  419SOL    MW4 1997   0.368   0.080   3.097
  420SOL     OW 1998   0.394   0.744   2.274
  420SOL    HW2 1999   0.394   0.839   2.259
  420SOL    HW3 2000   0.471   0.728   2.328
  420SOL    MW4 2001   0.404   0.755   2.279
  421SOL     OW 2002   1.170   0.603   3.338
  421SOL    HW2 2003   1.206   0.576   3.254
  421SOL    HW3 2004   1.083   0.637   3.317
  421SOL    MW4 2005   1.164   0.604   3.325
  422SOL     OW 2006   0.153   0.475   2.563
  422SOL    HW2 2007   0.215   0.482   2.636
  422SOL    HW3 2008   0.153   0.382   2.540
  422SOL    MW4 2009   0.161   0.464   2.570
  423SOL     OW 2010   1.700   1.815   2.095
  423SOL    HW2 2011   1.767   1.848   2.035
  423SOL    HW3 2012   1.657   1.894   2.129
  423SOL    MW4 2013   1.702   1.830   2.091
  424SOL     OW 2014   0.835   0.736   3.047
  424SOL    HW2 2015   0.793   0.654   3.023
  424SOL    HW3 2016   0.836   0.735   3.143
  424SOL    MW4 2017   0.828   0.725   3.056
  425SOL     OW 2018   1.506   1.869   3.446
  425SOL    HW2 2019   1.509   1.775   3.429
  425SOL    HW3 2020   1.529   1.877   3.538
  425SOL    MW4 2021   1.509   1.857   3.456
  426SOL     OW 2022   0.639   0.206   3.152
  426SOL    HW2 2023   0.570   0.269   3.173
  426SOL    HW3 2024   0.666   0.170   3.237
  426SOL    MW4 2025   0.633   0.209   3.165
  427SOL     OW 2026   0.022   1.047   2.021
  427SOL    HW2 2027  -0.009   1.112   2.084
  427SOL    HW3 2028  -0.029   0.969   2.040
  427SOL    MW4 2029   0.012   1.044   2.031
  428SOL     OW 2030   1.434   0.059   2.769
  428SOL    HW2 2031   1.522   0.068   2.806
  428SOL    HW3 2032   1.444   0.000   2.695
  428SOL    MW4 2033   1.448   0.053   2.763
  429SOL     OW 2034   1.466   0.798   2.613
  429SOL    HW2 2035   1.546   0.813   2.562
  429SOL    HW3 2036   1.459   0.703   2.619
  429SOL    MW4 2037   1.475   0.787   2.608
  430SOL     OW 2038   0.606   1.847   1.963
  430SOL    HW2 2039   0.511   1.847   1.955
  430SOL    HW3 2040   0.622   1.793   2.041
  430SOL    MW4 2041   0.596   1.841   1.972
  431SOL     OW 2042   0.916   0.724   3.310
  431SOL    HW2 2043   0.985   0.791   3.307
  431SOL    HW3 2044   0.849   0.762   3.366
  431SOL    MW4 2045   0.917   0.737   3.317
  432SOL     OW 2046   0.334   1.024   3.558
  432SOL    HW2 2047   0.288   0.940   3.560
  432SOL    HW3 2048   0.391   1.018   3.482
  432SOL    MW4 2049   0.336   1.012   3.550
  433SOL     OW 2050   1.451   0.667   1.879
  433SOL    HW2 2051   1.379   0.643   1.821
  433SOL    HW3 2052   1.517   0.704   1.821
  433SOL    MW4 2053   1.450   0.669   1.864
  434SOL     OW 2054   0.585   1.399   2.559
  434SOL    HW2 2055   0.650   1.332   2.580
  434SOL    HW3 2056   0.637   1.476   2.536
  434SOL    MW4 2057   0.600   1.401   2.558
  435SOL     OW 2058   0.846   0.564   2.689
  435SOL    HW2 2059   0.786   0.582   2.761
  435SOL    HW3 2060   0.880   0.476   2.708
  435SOL    MW4 2061   0.842   0.554   2.702
  436SOL     OW 2062   1.787   0.063   3.358
  436SOL    HW2 2063   1.708   0.109   3.386
  436SOL    HW3 2064   1.822   0.117   3.287
  436SOL    MW4 2065   1.781   0.076   3.352
  437SOL     OW 2066   1.071   1.147   2.708
  437SOL    HW2 2067   1.163   1.128   2.726
  437SOL    HW3 2068   1.044   1.077   2.648
  437SOL    MW4 2069   1.079   1.135   2.702
  438SOL     OW 2070   0.864   0.967   2.063
  438SOL    HW2 2071   0.850   0.879   2.028
  438SOL    HW3 2072   0.815   1.024   2.004
  438SOL    MW4 2073   0.856   0.962   2.051
  439SOL     OW 2074   1.345   1.385   2.804
  439SOL    HW2 2075   1.318   1.469   2.769
  439SOL    HW3 2076   1.305   1.380   2.891
  439SOL    MW4 2077   1.338   1.394   2.810
  440SOL     OW 2078   1.264   1.333   3.072
  440SOL    HW2 2079   1.275   1.300   3.161
  440SOL    HW3 2080   1.183   1.292   3.041
  440SOL    MW4 2081   1.254   1.325   3.078
  441SOL     OW 2082   0.277   0.691   2.842
  441SOL    HW2 2083   0.227   0.690   2.923
  441SOL    HW3 2084   0.297   0.783   2.826
  441SOL    MW4 2085   0.273   0.703   2.850
  442SOL     OW 2086   1.344   1.455   3.604
  442SOL    HW2 2087   1.344   1.549   3.620
  442SOL    HW3 2088   1.389   1.445   3.520
  442SOL    MW4 2089   1.350   1.465   3.595
  443SOL     OW 2090   1.583   0.173   2.165
  443SOL    HW2 2091   1.576   0.177   2.260
  443SOL    HW3 2092   1.595   0.264   2.138
  443SOL    MW4 2093   1.584   0.186   2.173
  444SOL     OW 2094   0.872   0.736   2.279
  444SOL    HW2 2095   0.852   0.722   2.186
  444SOL    HW3 2096   0.965   0.715   2.286
  444SOL    MW4 2097   0.882   0.731   2.268
  445SOL     OW 2098   0.199   0.359   3.583
  445SOL    HW2 2099   0.156   0.418   3.520
  445SOL    HW3 2100   0.267   0.414   3.623
  445SOL    MW4 2101   0.203   0.374   3.580
  446SOL     OW 2102   1.311   0.979   3.128
  446SOL    HW2 2103   1.374   0.976   3.201
  446SOL    HW3 2104   1.227   0.997   3.170
  446SOL    MW4 2105   1.307   0.981   3.143
  447SOL     OW 2106   0.855   1.694   2.317
  447SOL    HW2 2107   0.913   1.765   2.344
  447SOL    HW3 2108   0.878   1.622   2.375
  447SOL    MW4 2109   0.866   1.694   2.328
  448SOL     OW 2110   1.650   0.156   2.907
  448SOL    HW2 2111   1.695   0.074   2.926
  448SOL    HW3 2112   1.670   0.212   2.983
  448SOL    MW4 2113   1.660   0.152   2.919
  449SOL     OW 2114   0.098  -0.001   3.006
  449SOL    HW2 2115   0.089   0.000   2.911
  449SOL    HW3 2116   0.192   0.011   3.021
  449SOL    MW4 2117   0.110   0.002   2.997
  450SOL     OW 2118   1.735   1.192   2.626
  450SOL    HW2 2119   1.714   1.138   2.549
  450SOL    HW3 2120   1.831   1.190   2.630
  450SOL    MW4 2121   1.744   1.185   2.615
  451SOL     OW 2122   0.427   1.337   3.369
  451SOL    HW2 2123   0.348   1.287   3.392
  451SOL    HW3 2124   0.497   1.296   3.419
  451SOL    MW4 2125   0.425   1.325   3.379
  452SOL     OW 2126   0.311   0.126   2.052
  452SOL    HW2 2127   0.240   0.181   2.020
  452SOL    HW3 2128   0.353   0.092   1.973
  452SOL    MW4 2129   0.307   0.128   2.038
  453SOL     OW 2130   1.435   0.623   2.888
  453SOL    HW2 2131   1.358   0.669   2.854
  453SOL    HW3 2132   1.492   0.692   2.922
  453SOL    MW4 2133   1.432   0.638   2.888
  454SOL     OW 2134   0.067   0.225   1.901
  454SOL    HW2 2135   0.034   0.304   1.945
  454SOL    HW3 2136   0.122   0.258   1.830
  454SOL    MW4 2137   0.070   0.239   1.898
  455SOL     OW 2138   0.101   1.482   2.090
  455SOL    HW2 2139   0.118   1.566   2.132
  455SOL    HW3 2140   0.136   1.491   2.002
  455SOL    MW4 2141   0.106   1.495   2.084
  456SOL     OW 2142   1.373   1.571   2.307
  456SOL    HW2 2143   1.436   1.561   2.236
  456SOL    HW3 2144   1.290   1.591   2.262
  456SOL    MW4 2145   1.370   1.572   2.292
  457SOL     OW 2146   1.736   0.839   3.993
  457SOL    HW2 2147   1.777   0.781   4.058
  457SOL    HW3 2148   1.643   0.831   4.010
  457SOL    MW4 2149   1.730   0.831   4.003
  458SOL     OW 2150   1.602   0.771   4.988
  458SOL    HW2 2151   1.557   0.838   5.039
  458SOL    HW3 2152   1.690   0.807   4.974
  458SOL    MW4 2153   1.608   0.784   4.992
  459SOL     OW 2154   0.530   1.022   4.222
  459SOL    HW2 2155   0.620   0.997   4.206
  459SOL    HW3 2156   0.526   1.115   4.199
  459SOL    MW4 2157   0.542   1.031   4.217
  460SOL     OW 2158   1.646   1.725   4.364
  460SOL    HW2 2159   1.658   1.671   4.442
  460SOL    HW3 2160   1.683   1.673   4.293
  460SOL    MW4 2161   1.652   1.710   4.365
  461SOL     OW 2162   1.025   1.610   5.365
  461SOL    HW2 2163   1.066   1.646   5.286
  461SOL    HW3 2164   1.060   1.521   5.372
  461SOL    MW4 2165   1.036   1.603   5.356
  462SOL     OW 2166   1.582   1.165   4.969
  462SOL    HW2 2167   1.503   1.130   4.927
  462SOL    HW3 2168   1.609   1.237   4.913
  462SOL    MW4 2169   1.575   1.170   4.956
  463SOL     OW 2170   0.814   0.478   4.235
  463SOL    HW2 2171   0.789   0.566   4.263
  463SOL    HW3 2172   0.811   0.481   4.139
  463SOL    MW4 2173   0.810   0.490   4.227
  464SOL     OW 2174   0.256   0.506   4.163
  464SOL    HW2 2175   0.288   0.594   4.145
  464SOL    HW3 2176   0.244   0.504   4.258
  464SOL    MW4 2177   0.259   0.518   4.175
  465SOL     OW 2178   0.334   0.919   5.064
  465SOL    HW2 2179   0.397   0.866   5.015
  465SOL    HW3 2180   0.315   0.993   5.007
  465SOL    MW4 2181   0.340   0.921   5.051
  466SOL     OW 2182   0.655   0.261   4.250
  466SOL    HW2 2183   0.713   0.337   4.252
  466SOL    HW3 2184   0.590   0.282   4.183
  466SOL    MW4 2185   0.654   0.273   4.241
  467SOL     OW 2186   0.742   1.188   4.425
  467SOL    HW2 2187   0.822   1.191   4.477
  467SOL    HW3 2188   0.770   1.155   4.339
  467SOL    MW4 2189   0.756   1.184   4.420
  468SOL     OW 2190   0.767   1.529   5.328
  468SOL    HW2 2191   0.851   1.555   5.367
  468SOL    HW3 2192   0.791   1.473   5.254
  468SOL    MW4 2193   0.781   1.525   5.323
  469SOL     OW 2194   0.519   0.692   4.416
  469SOL    HW2 2195   0.504   0.612   4.467
  469SOL    HW3 2196   0.601   0.727   4.450
  469SOL    MW4 2197   0.527   0.684   4.428
  470SOL     OW 2198   0.856   1.378   5.101
  470SOL    HW2 2199   0.820   1.444   5.041
  470SOL    HW3 2200   0.784   1.316   5.114
  470SOL    MW4 2201   0.842   1.378   5.095
  471SOL     OW 2202   0.661   0.518   4.793
  471SOL    HW2 2203   0.567   0.514   4.811
  471SOL    HW3 2204   0.691   0.427   4.802
  471SOL    MW4 2205   0.652   0.506   4.796
  472SOL     OW 2206   0.407   0.932   4.697
  472SOL    HW2 2207   0.362   0.939   4.613
  472SOL    HW3 2208   0.387   1.015   4.741
  472SOL    MW4 2209   0.399   0.944   4.691
  473SOL     OW 2210   0.104   1.778   4.572
  473SOL    HW2 2211   0.193   1.770   4.607
  473SOL    HW3 2212   0.068   1.690   4.577
  473SOL    MW4 2213   0.111   1.765   4.577
  474SOL     OW 2214   1.369   1.170   3.941
  474SOL    HW2 2215   1.287   1.206   3.907
  474SOL    HW3 2216   1.437   1.213   3.890
  474SOL    MW4 2217   1.367   1.180   3.929
  475SOL     OW 2218   0.368   1.305   4.607
  475SOL    HW2 2219   0.344   1.358   4.683
  475SOL    HW3 2220   0.424   1.363   4.555
  475SOL    MW4 2221   0.372   1.320   4.610
  476SOL     OW 2222   0.930   0.949   4.417
  476SOL    HW2 2223   0.844   0.936   4.457
  476SOL    HW3 2224   0.983   0.876   4.449
  476SOL    MW4 2225   0.926   0.938   4.426
  477SOL     OW 2226   0.338   1.601   5.202
  477SOL    HW2 2227   0.246   1.577   5.187
  477SOL    HW3 2228   0.382   1.518   5.219
  477SOL    MW4 2229   0.332   1.586   5.201
  478SOL     OW 2230   0.921   1.311   4.134
  478SOL    HW2 2231   0.898   1.373   4.202
  478SOL    HW3 2232   0.878   1.229   4.160
  478SOL    MW4 2233   0.913   1.307   4.145
  479SOL     OW 2234   1.794   0.312   4.590
  479SOL    HW2 2235   1.731   0.292   4.659
  479SOL    HW3 2236   1.784   0.241   4.527
  479SOL    MW4 2237   1.784   0.299   4.591
  480SOL     OW 2238   0.418   0.284   4.102
  480SOL    HW2 2239   0.392   0.246   4.018
  480SOL    HW3 2240   0.355   0.354   4.118
  480SOL    MW4 2241   0.407   0.287   4.093
  481SOL     OW 2242   0.253   1.245   4.139
  481SOL    HW2 2243   0.201   1.313   4.095
  481SOL    HW3 2244   0.250   1.171   4.079
  481SOL    MW4 2245   0.245   1.244   4.126
  482SOL     OW 2246   0.915   1.708   3.917
  482SOL    HW2 2247   0.870   1.724   4.000
  482SOL    HW3 2248   0.846   1.673   3.859
  482SOL    MW4 2249   0.901   1.705   3.919
  483SOL     OW 2250   1.850   0.481   3.892
  483SOL    HW2 2251   1.759   0.483   3.920
  483SOL    HW3 2252   1.895   0.543   3.950
  483SOL    MW4 2253   1.843   0.489   3.902
  484SOL     OW 2254   1.595   1.084   4.242
  484SOL    HW2 2255   1.505   1.084   4.277
  484SOL    HW3 2256   1.588   1.130   4.159
  484SOL    MW4 2257   1.582   1.090   4.236
  485SOL     OW 2258   1.395   0.719   5.314
  485SOL    HW2 2259   1.464   0.657   5.291
  485SOL    HW3 2260   1.320   0.693   5.261
  485SOL    MW4 2261   1.395   0.706   5.305
  486SOL     OW 2262   0.136   1.599   4.866
  486SOL    HW2 2263   0.119   1.545   4.943
  486SOL    HW3 2264   0.124   1.689   4.896
  486SOL    MW4 2265   0.133   1.603   4.880
  487SOL     OW 2266   1.131   1.106   5.306
  487SOL    HW2 2267   1.116   1.199   5.291
  487SOL    HW3 2268   1.226   1.096   5.306
  487SOL    MW4 2269   1.140   1.116   5.303
  488SOL     OW 2270   0.927   0.530   5.507
  488SOL    HW2 2271   1.017   0.531   5.474
  488SOL    HW3 2272   0.886   0.455   5.465
  488SOL    MW4 2273   0.933   0.520   5.498
  489SOL     OW 2274   1.502   1.062   4.634
  489SOL    HW2 2275   1.505   0.996   4.565
  489SOL    HW3 2276   1.587   1.105   4.630
  489SOL    MW4 2277   1.514   1.058   4.625
  490SOL     OW 2278   1.122   0.665   4.203
  490SOL    HW2 2279   1.148   0.689   4.114
  490SOL    HW3 2280   1.104   0.572   4.199
  490SOL    MW4 2281   1.124   0.657   4.190
  491SOL     OW 2282   1.787   1.285   4.054
  491SOL    HW2 2283   1.743   1.326   4.129
  491SOL    HW3 2284   1.844   1.353   4.019
  491SOL    MW4 2285   1.789   1.299   4.059
  492SOL     OW 2286   0.707   0.334   5.457
  492SOL    HW2 2287   0.717   0.260   5.397
  492SOL    HW3 2288   0.743   0.303   5.540
  492SOL    MW4 2289   0.713   0.320   5.459
  493SOL     OW 2290   0.443   1.701   4.372
  493SOL    HW2 2291   0.475   1.789   4.350
  493SOL    HW3 2292   0.396   1.673   4.294
  493SOL    MW4 2293   0.442   1.709   4.359
  494SOL     OW 2294   1.827   0.063   4.421
  494SOL    HW2 2295   1.881   0.014   4.483
  494SOL    HW3 2296   1.770  -0.003   4.382
  494SOL    MW4 2297   1.827   0.047   4.423
  495SOL     OW 2298   0.159   1.761   3.949
  495SOL    HW2 2299   0.188   1.851   3.941
  495SOL    HW3 2300   0.109   1.744   3.870
  495SOL    MW4 2301   0.157   1.769   3.938
  496SOL     OW 2302   0.946   0.016   4.834
  496SOL    HW2 2303   0.905   0.094   4.796
  496SOL    HW3 2304   1.040   0.034   4.829
  496SOL    MW4 2305   0.952   0.028   4.829
  497SOL     OW 2306   1.563   1.569   3.920
  497SOL    HW2 2307   1.611   1.638   3.966
  497SOL    HW3 2308   1.484   1.613   3.889
  497SOL    MW4 2309   1.558   1.583   3.923
  498SOL     OW 2310   0.961   0.694   3.864
  498SOL    HW2 2311   0.963   0.641   3.785
  498SOL    HW3 2312   1.049   0.731   3.870
  498SOL    MW4 2313   0.973   0.693   3.853
  499SOL     OW 2314   1.575   0.620   4.200
  499SOL    HW2 2315   1.614   0.620   4.287
  499SOL    HW3 2316   1.516   0.696   4.200
  499SOL    MW4 2317   1.572   0.631   4.211
  500SOL     OW 2318   0.892   0.987   5.329
  500SOL    HW2 2319   0.869   0.967   5.419
  500SOL    HW3 2320   0.977   1.031   5.334
  500SOL    MW4 2321   0.899   0.990   5.341
  501SOL     OW 2322   0.972   0.124   5.089
  501SOL    HW2 2323   0.978   0.086   5.002
  501SOL    HW3 2324   0.961   0.218   5.074
  501SOL    MW4 2325   0.973   0.132   5.077
  502SOL     OW 2326   1.061   0.613   4.923
  502SOL    HW2 2327   1.136   0.642   4.870
  502SOL    HW3 2328   0.993   0.678   4.907
  502SOL    MW4 2329   1.062   0.625   4.913
  503SOL     OW 2330   1.611   0.581   5.200
  503SOL    HW2 2331   1.592   0.490   5.179
  503SOL    HW3 2332   1.589   0.630   5.121
  503SOL    MW4 2333   1.606   0.574   5.187
  504SOL     OW 2334   1.753   1.675   5.104
  504SOL    HW2 2335   1.681   1.637   5.155
  504SOL    HW3 2336   1.770   1.760   5.145
  504SOL    MW4 2337   1.747   1.680   5.116
  505SOL     OW 2338   1.058   0.319   5.306
  505SOL    HW2 2339   1.024   0.358   5.225
  505SOL    HW3 2340   1.036   0.227   5.299
  505SOL    MW4 2341   1.051   0.312   5.296
  506SOL     OW 2342   1.467   1.133   5.382
  506SOL    HW2 2343   1.549   1.174   5.412
  506SOL    HW3 2344   1.430   1.095   5.462
  506SOL    MW4 2345   1.473   1.134   5.397
  507SOL     OW 2346   1.762   0.506   4.366
  507SOL    HW2 2347   1.851   0.475   4.383
  507SOL    HW3 2348   1.705   0.446   4.414
  507SOL    MW4 2349   1.765   0.494   4.375
  508SOL     OW 2350   0.188   0.220   4.395
  508SOL    HW2 2351   0.179   0.160   4.321
  508SOL    HW3 2352   0.121   0.191   4.458
  508SOL    MW4 2353   0.178   0.207   4.393
  509SOL     OW 2354   1.131   1.313   3.956
  509SOL    HW2 2355   1.081   1.315   4.038
  509SOL    HW3 2356   1.065   1.331   3.888
  509SOL    MW4 2357   1.117   1.315   3.958
  510SOL     OW 2358   0.135   0.393   4.758
  510SOL    HW2 2359   0.107   0.484   4.767
  510SOL    HW3 2360   0.072   0.354   4.697
  510SOL    MW4 2361   0.122   0.399   4.752
  511SOL     OW 2362   0.594   1.731   4.064
  511SOL    HW2 2363   0.515   1.689   4.097
  511SOL    HW3 2364   0.660   1.714   4.131
  511SOL    MW4 2365   0.593   1.723   4.077
  512SOL     OW 2366   1.722   1.251   5.461
  512SOL    HW2 2367   1.772   1.177   5.493
  512SOL    HW3 2368   1.668   1.278   5.536
  512SOL    MW4 2369   1.722   1.245   5.474
  513SOL     OW 2370   0.730   1.146   3.771
  513SOL    HW2 2371   0.652   1.092   3.758
  513SOL    HW3 2372   0.701   1.219   3.824
  513SOL    MW4 2373   0.716   1.148   3.776
  514SOL     OW 2374   1.856   0.886   4.963
  514SOL    HW2 2375   1.872   0.924   4.876
  514SOL    HW3 2376   1.890   0.952   5.024
  514SOL    MW4 2377   1.863   0.899   4.959
  515SOL     OW 2378   1.648   1.595   4.632
  515SOL    HW2 2379   1.677   1.662   4.693
  515SOL    HW3 2380   1.629   1.519   4.687
  515SOL    MW4 2381   1.650   1.595   4.647
  516SOL     OW 2382   1.311   1.662   3.839
  516SOL    HW2 2383   1.237   1.625   3.889
  516SOL    HW3 2384   1.319   1.752   3.872
  516SOL    MW4 2385   1.302   1.669   3.851
  517SOL     OW 2386   0.119   0.668   4.928
  517SOL    HW2 2387   0.181   0.698   4.994
  517SOL    HW3 2388   0.053   0.737   4.922
  517SOL    MW4 2389   0.118   0.681   4.935
  518SOL     OW 2390   1.535   1.336   3.781
  518SOL    HW2 2391   1.482   1.385   3.717
  518SOL    HW3 2392   1.566   1.402   3.842
  518SOL    MW4 2393   1.533   1.350   3.779
  519SOL     OW 2394   0.760   0.225   3.836
  519SOL    HW2 2395   0.708   0.145   3.824
  519SOL    HW3 2396   0.847   0.202   3.804
  519SOL    MW4 2397   0.763   0.211   3.830
  520SOL     OW 2398   0.214   1.777   5.380
  520SOL    HW2 2399   0.188   1.845   5.318
  520SOL    HW3 2400   0.262   1.714   5.328
  520SOL    MW4 2401   0.216   1.777   5.366
  521SOL     OW 2402   0.266   1.096   4.887
  521SOL    HW2 2403   0.319   1.171   4.912
  521SOL    HW3 2404   0.185   1.134   4.853
  521SOL    MW4 2405   0.262   1.111   4.887
  522SOL     OW 2406   0.806   1.000   4.875
  522SOL    HW2 2407   0.834   0.909   4.887
  522SOL    HW3 2408   0.735   0.994   4.811
  522SOL    MW4 2409   0.799   0.988   4.870
  523SOL     OW 2410   0.121   0.865   4.293
  523SOL    HW2 2411   0.212   0.880   4.320
  523SOL    HW3 2412   0.124   0.786   4.239
  523SOL    MW4 2413   0.133   0.857   4.291
  524SOL     OW 2414   0.357   0.573   5.547
  524SOL    HW2 2415   0.304   0.653   5.554
  524SOL    HW3 2416   0.427   0.585   5.612
  524SOL    MW4 2417   0.359   0.586   5.555
  525SOL     OW 2418   0.743   0.123   5.254
  525SOL    HW2 2419   0.720   0.031   5.256
  525SOL    HW3 2420   0.829   0.125   5.211
  525SOL    MW4 2421   0.750   0.113   5.250
  526SOL     OW 2422   0.427   0.647   5.293
  526SOL    HW2 2423   0.507   0.697   5.279
  526SOL    HW3 2424   0.418   0.641   5.388
  526SOL    MW4 2425   0.436   0.653   5.303
  527SOL     OW 2426   0.748   1.797   4.667
  527SOL    HW2 2427   0.837   1.812   4.697
  527SOL    HW3 2428   0.743   1.844   4.583
  527SOL    MW4 2429   0.758   1.805   4.660
  528SOL     OW 2430   1.404   0.172   5.564
  528SOL    HW2 2431   1.460   0.099   5.590
  528SOL    HW3 2432   1.374   0.210   5.646
  528SOL    MW4 2433   1.408   0.167   5.577
  529SOL     OW 2434   0.129   1.477   4.332
  529SOL    HW2 2435   0.101   1.516   4.414
  529SOL    HW3 2436   0.149   1.386   4.354
  529SOL    MW4 2437   0.127   1.469   4.345
  530SOL     OW 2438   0.962   1.520   4.367
  530SOL    HW2 2439   1.045   1.474   4.351
  530SOL    HW3 2440   0.952   1.519   4.463
  530SOL    MW4 2441   0.972   1.513   4.377
  531SOL     OW 2442   1.794   0.665   4.681
  531SOL    HW2 2443   1.883   0.695   4.663
  531SOL    HW3 2444   1.774   0.605   4.610
  531SOL    MW4 2445   1.803   0.662   4.670
  532SOL     OW 2446   1.645   0.844   5.561
  532SOL    HW2 2447   1.700   0.768   5.542
  532SOL    HW3 2448   1.647   0.852   5.656
  532SOL    MW4 2449   1.653   0.835   5.569
  533SOL     OW 2450   0.695   1.577   3.772
  533SOL    HW2 2451   0.635   1.646   3.742
  533SOL    HW3 2452   0.640   1.519   3.825
  533SOL    MW4 2453   0.679   1.579   3.774
  534SOL     OW 2454   1.133   0.222   3.995
  534SOL    HW2 2455   1.066   0.198   3.932
  534SOL    HW3 2456   1.198   0.271   3.944
  534SOL    MW4 2457   1.133   0.224   3.980
  535SOL     OW 2458   0.940   0.406   5.080
  535SOL    HW2 2459   0.859   0.447   5.108
  535SOL    HW3 2460   0.987   0.474   5.032
  535SOL    MW4 2461   0.935   0.421   5.078
  536SOL     OW 2462   1.200   0.744   4.703
  536SOL    HW2 2463   1.213   0.838   4.713
  536SOL    HW3 2464   1.161   0.734   4.617
  536SOL    MW4 2465   1.196   0.755   4.693
  537SOL     OW 2466   0.652   0.939   4.507
  537SOL    HW2 2467   0.563   0.930   4.540
  537SOL    HW3 2468   0.656   1.029   4.475
  537SOL    MW4 2469   0.641   0.950   4.507
  538SOL     OW 2470   1.451   0.522   4.502
  538SOL    HW2 2471   1.396   0.443   4.501
  538SOL    HW3 2472   1.433   0.563   4.586
  538SOL    MW4 2473   1.441   0.517   4.511
  539SOL     OW 2474   0.422   0.209   5.319
  539SOL    HW2 2475   0.343   0.227   5.371
  539SOL    HW3 2476   0.417   0.271   5.246
  539SOL    MW4 2477   0.412   0.219   5.316
  540SOL     OW 2478   1.070   0.726   4.459
  540SOL    HW2 2479   1.007   0.658   4.483
  540SOL    HW3 2480   1.090   0.707   4.367
  540SOL    MW4 2481   1.064   0.713   4.451
  541SOL     OW 2482   0.326   1.621   4.161
  541SOL    HW2 2483   0.287   1.668   4.087
  541SOL    HW3 2484   0.260   1.556   4.186
  541SOL    MW4 2485   0.313   1.619   4.155
  542SOL     OW 2486   0.818   1.030   4.185
  542SOL    HW2 2487   0.820   1.004   4.092
  542SOL    HW3 2488   0.876   0.967   4.228
  542SOL    MW4 2489   0.826   1.019   4.179
  543SOL     OW 2490   1.371   1.590   4.957
  543SOL    HW2 2491   1.296   1.636   4.995
  543SOL    HW3 2492   1.353   1.497   4.974
  543SOL    MW4 2493   1.360   1.584   4.965
  544SOL     OW 2494   1.375   1.798   4.387
  544SOL    HW2 2495   1.318   1.751   4.326
  544SOL    HW3 2496   1.461   1.759   4.374
  544SOL    MW4 2497   1.378   1.789   4.377
  545SOL     OW 2498   1.328   0.274   4.518
  545SOL    HW2 2499   1.356   0.206   4.579
  545SOL    HW3 2500   1.242   0.245   4.488
  545SOL    MW4 2501   1.321   0.261   4.522
  546SOL     OW 2502   0.133   1.208   4.452
  546SOL    HW2 2503   0.197   1.240   4.515
  546SOL    HW3 2504   0.182   1.144   4.400
  546SOL    MW4 2505   0.148   1.204   4.453
  547SOL     OW 2506   0.633   1.284   5.434
  547SOL    HW2 2507   0.681   1.367   5.421
  547SOL    HW3 2508   0.690   1.232   5.490
  547SOL    MW4 2509   0.647   1.288   5.440
  548SOL     OW 2510   0.209   1.526   5.574
  548SOL    HW2 2511   0.265   1.450   5.589
  548SOL    HW3 2512   0.158   1.504   5.496
  548SOL    MW4 2513   0.209   1.513   5.565
  549SOL     OW 2514   1.308   0.378   3.853
  549SOL    HW2 2515   1.281   0.444   3.789
  549SOL    HW3 2516   1.378   0.421   3.903
  549SOL    MW4 2517   1.313   0.391   3.850
  550SOL     OW 2518   0.976   0.083   3.790
  550SOL    HW2 2519   1.032   0.075   3.712
  550SOL    HW3 2520   0.953  -0.007   3.812
  550SOL    MW4 2521   0.981   0.070   3.783
  551SOL     OW 2522   1.481   0.934   3.995
  551SOL    HW2 2523   1.448   1.023   3.985
  551SOL    HW3 2524   1.446   0.905   4.080
  551SOL    MW4 2525   1.471   0.943   4.006
  552SOL     OW 2526   1.094   1.363   5.183
  552SOL    HW2 2527   1.005   1.369   5.151
  552SOL    HW3 2528   1.138   1.442   5.151
  552SOL    MW4 2529   1.089   1.373   5.175
  553SOL     OW 2530   0.387   0.031   5.525
  553SOL    HW2 2531   0.315  -0.004   5.473
  553SOL    HW3 2532   0.445   0.072   5.460
  553SOL    MW4 2533   0.385   0.032   5.510
  554SOL     OW 2534   0.411   1.521   4.824
  554SOL    HW2 2535   0.456   1.583   4.881
  554SOL    HW3 2536   0.318   1.540   4.837
  554SOL    MW4 2537   0.404   1.531   4.831
  555SOL     OW 2538   1.851   1.050   5.178
  555SOL    HW2 2539   1.766   1.063   5.137
  555SOL    HW3 2540   1.831   1.014   5.265
  555SOL    MW4 2541   1.838   1.046   5.183
  556SOL     OW 2542   0.833   1.589   4.932
  556SOL    HW2 2543   0.857   1.578   4.841
  556SOL    HW3 2544   0.756   1.646   4.930
  556SOL    MW4 2545   0.825   1.594   4.921
  557SOL     OW 2546   0.475   0.972   3.787
  557SOL    HW2 2547   0.398   0.985   3.843
  557SOL    HW3 2548   0.439   0.936   3.706
  557SOL    MW4 2549   0.461   0.968   3.784
  558SOL     OW 2550   1.128   0.945   4.030
  558SOL    HW2 2551   1.038   0.966   4.005
  558SOL    HW3 2552   1.155   1.018   4.086
  558SOL    MW4 2553   1.120   0.957   4.033
  559SOL     OW 2554   0.628   1.294   4.722
  559SOL    HW2 2555   0.621   1.273   4.816
  559SOL    HW3 2556   0.546   1.262   4.685
  559SOL    MW4 2557   0.616   1.288   4.729
  560SOL     OW 2558   1.492   0.304   5.124
  560SOL    HW2 2559   1.439   0.306   5.204
  560SOL    HW3 2560   1.477   0.217   5.087
  560SOL    MW4 2561   1.484   0.294   5.129
  561SOL     OW 2562   1.828   0.228   4.997
  561SOL    HW2 2563   1.809   0.295   4.932
  561SOL    HW3 2564   1.885   0.166   4.952
  561SOL    MW4 2565   1.832   0.229   4.983
  562SOL     OW 2566   0.074   1.386   5.385
  562SOL    HW2 2567   0.118   1.319   5.331
  562SOL    HW3 2568  -0.011   1.348   5.405
  562SOL    MW4 2569   0.069   1.372   5.381
  563SOL     OW 2570   0.757   0.061   4.437
  563SOL    HW2 2571   0.686   0.122   4.419
  563SOL    HW3 2572   0.808   0.058   4.356
  563SOL    MW4 2573   0.753   0.067   4.424
  564SOL     OW 2574   0.515   1.301   4.186
  564SOL    HW2 2575   0.508   1.333   4.276
  564SOL    HW3 2576   0.425   1.285   4.158
  564SOL    MW4 2577   0.503   1.303   4.193
  565SOL     OW 2578   1.110   1.694   5.095
  565SOL    HW2 2579   1.030   1.679   5.045
  565SOL    HW3 2580   1.117   1.789   5.102
  565SOL    MW4 2581   1.101   1.705   5.089
  566SOL     OW 2582   1.224   1.659   4.585
  566SOL    HW2 2583   1.271   1.732   4.544
  566SOL    HW3 2584   1.145   1.698   4.621
  566SOL    MW4 2585   1.219   1.674   4.584
  567SOL     OW 2586   1.632   1.754   4.860
  567SOL    HW2 2587   1.675   1.724   4.940
  567SOL    HW3 2588   1.551   1.702   4.857
  567SOL    MW4 2589   1.627   1.743   4.870
  568SOL     OW 2590   0.717   0.718   5.567
  568SOL    HW2 2591   0.787   0.660   5.539
  568SOL    HW3 2592   0.660   0.663   5.622
  568SOL    MW4 2593   0.719   0.705   5.571
  569SOL     OW 2594   1.504   0.930   5.200
  569SOL    HW2 2595   1.509   0.983   5.280
  569SOL    HW3 2596   1.466   0.847   5.228
  569SOL    MW4 2597   1.500   0.925   5.215
  570SOL     OW 2598   1.144   0.065   5.446
  570SOL    HW2 2599   1.139  -0.028   5.427
  570SOL    HW3 2600   1.227   0.076   5.492
  570SOL    MW4 2601   1.152   0.054   5.450
  571SOL     OW 2602   0.518   0.585   3.900
  571SOL    HW2 2603   0.484   0.641   3.970
  571SOL    HW3 2604   0.589   0.535   3.940
  571SOL    MW4 2605   0.524   0.586   3.914
  572SOL     OW 2606   1.614   1.336   4.722
  572SOL    HW2 2607   1.649   1.318   4.635
  572SOL    HW3 2608   1.519   1.337   4.709
  572SOL    MW4 2609   1.606   1.333   4.709
  573SOL     OW 2610   1.043   0.984   5.091
  573SOL    HW2 2611   1.086   1.019   5.169
  573SOL    HW3 2612   1.026   1.061   5.037
  573SOL    MW4 2613   1.046   0.999   5.094
  574SOL     OW 2614   1.574   0.471   3.964
  574SOL    HW2 2615   1.566   0.542   3.901
  574SOL    HW3 2616   1.592   0.515   4.047
  574SOL    MW4 2617   1.575   0.485   3.966
  575SOL     OW 2618   0.434   0.126   4.393
  575SOL    HW2 2619   0.484   0.169   4.324
  575SOL    HW3 2620   0.349   0.170   4.393
  575SOL    MW4 2621   0.431   0.139   4.384
  576SOL     OW 2622   0.193   1.188   5.253
  576SOL    HW2 2623   0.221   1.141   5.331
  576SOL    HW3 2624   0.114   1.143   5.224
  576SOL    MW4 2625   0.186   1.177   5.259
  577SOL     OW 2626   0.701   0.515   5.220
  577SOL    HW2 2627   0.673   0.603   5.244
  577SOL    HW3 2628   0.670   0.459   5.291
  577SOL    MW4 2629   0.693   0.518   5.232
  578SOL     OW 2630   1.243   0.733   3.939
  578SOL    HW2 2631   1.290   0.751   3.858
  578SOL    HW3 2632   1.209   0.817   3.967
  578SOL    MW4 2633   1.245   0.747   3.932
  579SOL     OW 2634   0.356   0.911   4.433
  579SOL    HW2 2635   0.414   0.967   4.381
  579SOL    HW3 2636   0.400   0.826   4.435
  579SOL    MW4 2637   0.369   0.908   4.426
  580SOL     OW 2638   1.496   0.263   4.270
  580SOL    HW2 2639   1.418   0.213   4.295
  580SOL    HW3 2640   1.467   0.354   4.270
  580SOL    MW4 2641   1.482   0.267   4.273
  581SOL     OW 2642   1.082   0.225   4.429
  581SOL    HW2 2643   1.102   0.300   4.373
  581SOL    HW3 2644   1.062   0.264   4.514
  581SOL    MW4 2645   1.083   0.241   4.433
  582SOL     OW 2646   0.978   1.475   3.761
  582SOL    HW2 2647   1.005   1.553   3.713
  582SOL    HW3 2648   0.885   1.490   3.780
  582SOL    MW4 2649   0.969   1.488   3.757
  583SOL     OW 2650   1.842   0.998   5.448
  583SOL    HW2 2651   1.755   0.978   5.484
  583SOL    HW3 2652   1.896   0.924   5.473
  583SOL    MW4 2653   1.837   0.987   5.456
  584SOL     OW 2654   0.063   1.511   4.605
  584SOL    HW2 2655   0.095   1.515   4.696
  584SOL    HW3 2656  -0.032   1.519   4.613
  584SOL    MW4 2657   0.055   1.514   4.618
  585SOL     OW 2658   0.018   0.637   4.152
  585SOL    HW2 2659  -0.042   0.609   4.222
  585SOL    HW3 2660   0.092   0.577   4.158
  585SOL    MW4 2661   0.020   0.626   4.161
  586SOL     OW 2662   1.586   1.849   5.586
  586SOL    HW2 2663   1.631   1.773   5.551
  586SOL    HW3 2664   1.624   1.862   5.673
  586SOL    MW4 2665   1.596   1.842   5.592
  587SOL     OW 2666   1.186   1.368   4.312
  587SOL    HW2 2667   1.209   1.319   4.390
  587SOL    HW3 2668   1.267   1.410   4.284
  587SOL    MW4 2669   1.199   1.368   4.319
  588SOL     OW 2670   0.444   0.376   5.041
  588SOL    HW2 2671   0.477   0.457   5.081
  588SOL    HW3 2672   0.417   0.402   4.953
  588SOL    MW4 2673   0.443   0.390   5.035
  589SOL     OW 2674   0.398   0.343   4.777
  589SOL    HW2 2675   0.428   0.257   4.748
  589SOL    HW3 2676   0.303   0.336   4.780
  589SOL    MW4 2677   0.390   0.332   4.775
  590SOL     OW 2678   1.227   0.552   5.468
  590SOL    HW2 2679   1.279   0.487   5.421
  590SOL    HW3 2680   1.185   0.603   5.398
  590SOL    MW4 2681   1.228   0.549   5.451
  591SOL     OW 2682   1.326   0.347   5.329
  591SOL    HW2 2683   1.233   0.331   5.316
  591SOL    HW3 2684   1.352   0.285   5.397
  591SOL    MW4 2685   1.316   0.337   5.336
  592SOL     OW 2686   0.541   0.121   4.668
  592SOL    HW2 2687   0.551   0.030   4.694
  592SOL    HW3 2688   0.497   0.117   4.583
  592SOL    MW4 2689   0.537   0.109   4.660
  593SOL     OW 2690   0.635   1.736   5.214
  593SOL    HW2 2691   0.552   1.721   5.259
  593SOL    HW3 2692   0.694   1.669   5.249
  593SOL    MW4 2693   0.633   1.726   5.224
  594SOL     OW 2694   1.692   0.443   4.839
  594SOL    HW2 2695   1.625   0.476   4.899
  594SOL    HW3 2696   1.735   0.521   4.805
  594SOL    MW4 2697   1.690   0.458   4.843
  595SOL     OW 2698   1.870   1.163   4.809
  595SOL    HW2 2699   1.863   1.103   4.734
  595SOL    HW3 2700   1.796   1.223   4.798
  595SOL    MW4 2701   1.860   1.163   4.798
  596SOL     OW 2702   1.252   1.025   4.727
  596SOL    HW2 2703   1.266   0.997   4.818
  596SOL    HW3 2704   1.338   1.056   4.699
  596SOL    MW4 2705   1.265   1.026   4.736
  597SOL     OW 2706   1.335   0.520   5.006
  597SOL    HW2 2707   1.356   0.521   4.913
  597SOL    HW3 2708   1.380   0.442   5.039
  597SOL    MW4 2709   1.342   0.510   4.998
  598SOL     OW 2710   1.828   0.651   5.548
  598SOL    HW2 2711   1.865   0.596   5.617
  598SOL    HW3 2712   1.853   0.608   5.466
  598SOL    MW4 2713   1.835   0.639   5.547
  599SOL     OW 2714   1.375   0.949   5.600
  599SOL    HW2 2715   1.441   0.897   5.554
  599SOL    HW3 2716   1.395   0.936   5.693
  599SOL    MW4 2717   1.386   0.940   5.607
  600SOL     OW 2718   1.326   0.035   3.948
  600SOL    HW2 2719   1.400   0.079   3.991
  600SOL    HW3 2720   1.250   0.089   3.970
  600SOL    MW4 2721   1.326   0.047   3.956
  601SOL     OW 2722   1.386   0.810   4.226
  601SOL    HW2 2723   1.301   0.780   4.196
  601SOL    HW3 2724   1.378   0.817   4.321
  601SOL    MW4 2725   1.374   0.808   4.235
  602SOL     OW 2726   0.462   1.273   4.957
  602SOL    HW2 2727   0.474   1.300   5.048
  602SOL    HW3 2728   0.443   1.354   4.910
  602SOL    MW4 2729   0.461   1.288   4.962
  603SOL     OW 2730   0.746   0.253   4.780
  603SOL    HW2 2731   0.719   0.255   4.871
  603SOL    HW3 2732   0.676   0.205   4.735
  603SOL    MW4 2733   0.734   0.249   4.787
  604SOL     OW 2734   0.600   1.745   4.942
  604SOL    HW2 2735   0.652   1.822   4.919
  604SOL    HW3 2736   0.609   1.737   5.037
  604SOL    MW4 2737   0.609   1.752   4.953
  605SOL     OW 2738   1.502   1.330   5.174
  605SOL    HW2 2739   1.487   1.259   5.237
  605SOL    HW3 2740   1.548   1.288   5.102
  605SOL    MW4 2741   1.508   1.314   5.174
  606SOL     OW 2742   0.576   1.061   5.291
  606SOL    HW2 2743   0.613   1.066   5.203
  606SOL    HW3 2744   0.615   1.134   5.338
  606SOL    MW4 2745   0.586   1.071   5.286
  607SOL     OW 2746   0.756   1.104   5.103
  607SOL    HW2 2747   0.815   1.050   5.156
  607SOL    HW3 2748   0.771   1.076   5.013
  607SOL    MW4 2749   0.766   1.093   5.099
  608SOL     OW 2750   0.759   0.476   3.952
  608SOL    HW2 2751   0.832   0.525   3.915
  608SOL    HW3 2752   0.775   0.385   3.926
  608SOL    MW4 2753   0.771   0.471   3.945
  609SOL     OW 2754   1.567   1.593   5.275
  609SOL    HW2 2755   1.609   1.578   5.360
  609SOL    HW3 2756   1.558   1.506   5.237
  609SOL    MW4 2757   1.571   1.581   5.282
  610SOL     OW 2758   1.227   0.072   4.866
  610SOL    HW2 2759   1.282   0.081   4.788
  610SOL    HW3 2760   1.282   0.106   4.937
  610SOL    MW4 2761   1.241   0.077   4.865
  611SOL     OW 2762   0.234   0.985   4.050
  611SOL    HW2 2763   0.171   1.001   3.979
  611SOL    HW3 2764   0.181   0.948   4.121
  611SOL    MW4 2765   0.219   0.982   4.050
  612SOL     OW 2766   0.590   1.339   3.909
  612SOL    HW2 2767   0.605   1.315   4.001
  612SOL    HW3 2768   0.498   1.317   3.893
  612SOL    MW4 2769   0.580   1.332   3.919
  613SOL     OW 2770   1.129   1.570   4.061
  613SOL    HW2 2771   1.137   1.488   4.012
  613SOL    HW3 2772   1.048   1.609   4.028
  613SOL    MW4 2773   1.119   1.565   4.051
  614SOL     OW 2774   0.388   1.728   4.630
  614SOL    HW2 2775   0.392   1.639   4.665
  614SOL    HW3 2776   0.414   1.719   4.539
  614SOL    MW4 2777   0.391   1.716   4.622
  615SOL     OW 2778   1.005   1.206   4.873
  615SOL    HW2 2779   0.937   1.140   4.889
  615SOL    HW3 2780   1.023   1.200   4.780
  615SOL    MW4 2781   0.998   1.197   4.864
  616SOL     OW 2782   0.094   1.481   5.124
  616SOL    HW2 2783   0.084   1.439   5.210
  616SOL    HW3 2784   0.015   1.534   5.114
  616SOL    MW4 2785   0.083   1.482   5.135
  617SOL     OW 2786   0.998   0.345   4.694
  617SOL    HW2 2787   0.928   0.297   4.739
  617SOL    HW3 2788   1.030   0.408   4.758
  617SOL    MW4 2789   0.993   0.347   4.708
  618SOL     OW 2790   0.649   0.781   5.314
  618SOL    HW2 2791   0.642   0.876   5.302
  618SOL    HW3 2792   0.658   0.770   5.409
  618SOL    MW4 2793   0.650   0.793   5.324
  619SOL     OW 2794   0.370   1.296   5.572
  619SOL    HW2 2795   0.442   1.298   5.509
  619SOL    HW3 2796   0.340   1.205   5.571
  619SOL    MW4 2797   0.375   1.285   5.564
  620SOL     OW 2798   1.454   0.059   5.039
  620SOL    HW2 2799   1.525   0.005   5.003
  620SOL    HW3 2800   1.453   0.038   5.132
  620SOL    MW4 2801   1.463   0.050   5.047
  621SOL     OW 2802   1.654   1.589   5.523
  621SOL    HW2 2803   1.627   1.586   5.614
  621SOL    HW3 2804   1.750   1.593   5.526
  621SOL    MW4 2805   1.664   1.589   5.535
  622SOL     OW 2806   0.465   0.451   4.507
  622SOL    HW2 2807   0.536   0.399   4.470
  622SOL    HW3 2808   0.451   0.416   4.594
  622SOL    MW4 2809   0.473   0.440   4.514
  623SOL     OW 2810   0.020   1.786   5.579
  623SOL    HW2 2811   0.070   1.764   5.501
  623SOL    HW3 2812   0.028   1.881   5.587
  623SOL    MW4 2813   0.028   1.795   5.570
  624SOL     OW 2814   0.781   1.544   4.583
  624SOL    HW2 2815   0.709   1.481   4.596
  624SOL    HW3 2816   0.742   1.629   4.601
  624SOL    MW4 2817   0.765   1.547   4.586
  625SOL     OW 2818   1.101   0.392   4.231
  625SOL    HW2 2819   1.123   0.329   4.163
  625SOL    HW3 2820   1.006   0.384   4.242
  625SOL    MW4 2821   1.091   0.383   4.223
  626SOL     OW 2822   0.186   0.082   4.163
  626SOL    HW2 2823   0.257   0.103   4.102
  626SOL    HW3 2824   0.140   0.010   4.121
  626SOL    MW4 2825   0.190   0.076   4.149
  627SOL     OW 2826   0.017   0.549   5.306
  627SOL    HW2 2827   0.081   0.615   5.281
  627SOL    HW3 2828  -0.064   0.576   5.263
  627SOL    MW4 2829   0.015   0.561   5.298
  628SOL     OW 2830   1.755   1.456   4.263
  628SOL    HW2 2831   1.725   1.389   4.324
  628SOL    HW3 2832   1.849   1.462   4.277
  628SOL    MW4 2833   1.763   1.448   4.273
  629SOL     OW 2834   1.311   1.133   4.193
  629SOL    HW2 2835   1.283   1.219   4.226
  629SOL    HW3 2836   1.339   1.149   4.103
  629SOL    MW4 2837   1.311   1.147   4.185
  630SOL     OW 2838   0.973   0.053   4.246
  630SOL    HW2 2839   1.010   0.112   4.311
  630SOL    HW3 2840   0.950   0.109   4.172
  630SOL    MW4 2841   0.974   0.068   4.245
  631SOL     OW 2842   1.826   0.935   4.668
  631SOL    HW2 2843   1.817   0.967   4.579
  631SOL    HW3 2844   1.779   0.851   4.668
  631SOL    MW4 2845   1.819   0.928   4.658
  632SOL     OW 2846   0.202   0.775   5.247
  632SOL    HW2 2847   0.223   0.844   5.185
  632SOL    HW3 2848   0.282   0.722   5.252
  632SOL    MW4 2849   0.215   0.776   5.241
  633SOL     OW 2850   1.738   0.866   4.369
  633SOL    HW2 2851   1.832   0.855   4.357
  633SOL    HW3 2852   1.714   0.938   4.310
  633SOL    MW4 2853   1.748   0.874   4.360
  634SOL     OW 2854   0.187   0.790   5.514
  634SOL    HW2 2855   0.113   0.734   5.540
  634SOL    HW3 2856   0.182   0.793   5.419
  634SOL    MW4 2857   0.176   0.783   5.504
  635SOL     OW 2858   0.353   0.077   4.964
  635SOL    HW2 2859   0.396   0.161   4.984
  635SOL    HW3 2860   0.426   0.015   4.957
  635SOL    MW4 2861   0.368   0.080   4.965
  636SOL     OW 2862   0.394   0.744   4.142
  636SOL    HW2 2863   0.394   0.839   4.127
  636SOL    HW3 2864   0.471   0.728   4.196
  636SOL    MW4 2865   0.404   0.755   4.147
  637SOL     OW 2866   1.170   0.603   5.206
  637SOL    HW2 2867   1.206   0.576   5.122
  637SOL    HW3 2868   1.083   0.637   5.185
  637SOL    MW4 2869   1.164   0.604   5.193
  638SOL     OW 2870   0.153   0.475   4.431
  638SOL    HW2 2871   0.215   0.482   4.504
  638SOL    HW3 2872   0.153   0.382   4.408
  638SOL    MW4 2873   0.161   0.464   4.438
  639SOL     OW 2874   1.700   1.815   3.963
  639SOL    HW2 2875   1.767   1.848   3.903
  639SOL    HW3 2876   1.657   1.894   3.997
  639SOL    MW4 2877   1.702   1.830   3.959
  640SOL     OW 2878   0.835   0.736   4.915
  640SOL    HW2 2879   0.793   0.654   4.891
  640SOL    HW3 2880   0.836   0.735   5.011
  640SOL    MW4 2881   0.828   0.725   4.924
  641SOL     OW 2882   1.506   1.869   5.314
  641SOL    HW2 2883   1.509   1.775   5.297
  641SOL    HW3 2884   1.529   1.877   5.406
  641SOL    MW4 2885   1.509   1.857   5.324
  642SOL     OW 2886   0.639   0.206   5.020
  642SOL    HW2 2887   0.570   0.269   5.041
  642SOL    HW3 2888   0.666   0.170   5.105
  642SOL    MW4 2889   0.633   0.209   5.033
  643SOL     OW 2890   0.022   1.047   3.889
  643SOL    HW2 2891  -0.009   1.112   3.952
  643SOL    HW3 2892  -0.029   0.969   3.908
  643SOL    MW4 2893   0.012   1.044   3.899
  644SOL     OW 2894   1.434   0.059   4.637
  644SOL    HW2 2895   1.522   0.068   4.674
  644SOL    HW3 2896   1.444   0.000   4.563
  644SOL    MW4 2897   1.448   0.053   4.631
  645SOL     OW 2898   1.466   0.798   4.481
  645SOL    HW2 2899   1.546   0.813   4.430
  645SOL    HW3 2900   1.459   0.703   4.487
  645SOL    MW4 2901   1.475   0.787   4.476
  646SOL     OW 2902   0.606   1.847   3.831
  646SOL    HW2 2903   0.511   1.847   3.823
  646SOL    HW3 2904   0.622   1.793   3.909
  646SOL    MW4 2905   0.596   1.841   3.840
  647SOL     OW 2906   0.916   0.724   5.178
  647SOL    HW2 2907   0.985   0.791   5.175
  647SOL    HW3 2908   0.849   0.762   5.234
  647SOL    MW4 2909   0.917   0.737   5.185
  648SOL     OW 2910   0.334   1.024   5.426
  648SOL    HW2 2911   0.288   0.940   5.428
  648SOL    HW3 2912   0.391   1.018   5.350
  648SOL    MW4 2913   0.336   1.012   5.418
  649SOL     OW 2914   1.451   0.667   3.747
  649SOL    HW2 2915   1.379   0.643   3.689
  649SOL    HW3 2916   1.517   0.704   3.689
  649SOL    MW4 2917   1.450   0.669   3.732
  650SOL     OW 2918   0.585   1.399   4.427
  650SOL    HW2 2919   0.650   1.332   4.448
  650SOL    HW3 2920   0.637   1.476   4.404
  650SOL    MW4 2921   0.600   1.401   4.426
  651SOL     OW 2922   0.846   0.564   4.557
  651SOL    HW2 2923   0.786   0.582   4.629
  651SOL    HW3 2924   0.880   0.476   4.576
  651SOL    MW4 2925   0.842   0.554   4.570
  652SOL     OW 2926   1.787   0.063   5.226
  652SOL    HW2 2927   1.708   0.109   5.254
  652SOL    HW3 2928   1.822   0.117   5.155
  652SOL    MW4 2929   1.781   0.076   5.220
  653SOL     OW 2930   1.071   1.147   4.576
  653SOL    HW2 2931   1.163   1.128   4.594
  653SOL    HW3 2932   1.044   1.077   4.516
  653SOL    MW4 2933   1.079   1.135   4.570
  654SOL     OW 2934   0.864   0.967   3.931
  654SOL    HW2 2935   0.850   0.879   3.896
  654SOL    HW3 2936   0.815   1.024   3.872
  654SOL    MW4 2937   0.856   0.962   3.919
  655SOL     OW 2938   1.345   1.385   4.672
  655SOL    HW2 2939   1.318   1.469   4.637
  655SOL    HW3 2940   1.305   1.380   4.759
  655SOL    MW4 2941   1.338   1.394   4.678
  656SOL     OW 2942   1.264   1.333   4.940
  656SOL    HW2 2943   1.275   1.300   5.029
  656SOL    HW3 2944   1.183   1.292   4.909
  656SOL    MW4 2945   1.254   1.325   4.946
  657SOL     OW 2946   0.277   0.691   4.710
  657SOL    HW2 2947   0.227   0.690   4.791
  657SOL    HW3 2948   0.297   0.783   4.694
  657SOL    MW4 2949   0.273   0.703   4.718
  658SOL     OW 2950   1.344   1.455   5.472
  658SOL    HW2 2951   1.344   1.549   5.488
  658SOL    HW3 2952   1.389   1.445   5.388
  658SOL    MW4 2953   1.350   1.465   5.463
  659SOL     OW 2954   1.583   0.173   4.033
  659SOL    HW2 2955   1.576   0.177   4.128
  659SOL    HW3 2956   1.595   0.264   4.006
  659SOL    MW4 2957   1.584   0.186   4.041
  660SOL     OW 2958   0.872   0.736   4.147
  660SOL    HW2 2959   0.852   0.722   4.054
  660SOL    HW3 2960   0.965   0.715   4.154
  660SOL    MW4 2961   0.882   0.731   4.136
  661SOL     OW 2962   0.199   0.359   5.451
  661SOL    HW2 2963   0.156   0.418   5.388
  661SOL    HW3 2964   0.267   0.414   5.491
  661SOL    MW4 2965   0.203   0.374   5.448
  662SOL     OW 2966   1.311   0.979   4.996
  662SOL    HW2 2967   1.374   0.976   5.069
  662SOL    HW3 2968   1.227   0.997   5.038
  662SOL    MW4 2969   1.307   0.981   5.011
  663SOL     OW 2970   0.855   1.694   4.185
  663SOL    HW2 2971   0.913   1.765   4.212
  663SOL    HW3 2972   0.878   1.622   4.243
  663SOL    MW4 2973   0.866   1.694   4.196
  664SOL     OW 2974   1.650   0.156   4.775
  664SOL    HW2 2975   1.695   0.074   4.794
  664SOL    HW3 2976   1.670   0.212   4.851
  664SOL    MW4 2977   1.660   0.152   4.787
  665SOL     OW 2978   0.098  -0.001   4.874
  665SOL    HW2 2979   0.089   0.000   4.779
  665SOL    HW3 2980   0.192   0.011   4.889
  665SOL    MW4 2981   0.110   0.002   4.865
  666SOL     OW 2982   1.735   1.192   4.494
  666SOL    HW2 2983   1.714   1.138   4.417
  666SOL    HW3 2984   1.831   1.190   4.498
  666SOL    MW4 2985   1.744   1.185   4.483
  667SOL     OW 2986   0.427   1.337   5.237
  667SOL    HW2 2987   0.348   1.287   5.260
  667SOL    HW3 2988   0.497   1.296   5.287
  667SOL    MW4 2989   0.425   1.325   5.247
  668SOL     OW 2990   0.311   0.126   3.920
  668SOL    HW2 2991   0.240   0.181   3.888
  668SOL    HW3 2992   0.353   0.092   3.841
  668SOL    MW4 2993   0.307   0.128   3.906
  669SOL     OW 2994   1.435   0.623   4.756
  669SOL    HW2 2995   1.358   0.669   4.722
  669SOL    HW3 2996   1.492   0.692   4.790
  669SOL    MW4 2997   1.432   0.638   4.756
  670SOL     OW 2998   0.067   0.225   3.769
  670SOL    HW2 2999   0.034   0.304   3.813
  670SOL    HW3 3000   0.122   0.258   3.698
  670SOL    MW4 3001   0.070   0.239   3.766
  671SOL     OW 3002   0.101   1.482   3.958
  671SOL    HW2 3003   0.118   1.566   4.000
  671SOL    HW3 3004   0.136   1.491   3.870
  671SOL    MW4 3005   0.106   1.495   3.952
  672SOL     OW 3006   1.373   1.571   4.175
  672SOL    HW2 3007   1.436   1.561   4.104
  672SOL    HW3 3008   1.290   1.591   4.130
  672SOL    MW4 3009   1.370   1.572   4.160
  673SOL     OW 3010   1.736   0.839   5.862
  673SOL    HW2 3011   1.777   0.781   5.927
  673SOL    HW3 3012   1.643   0.831   5.879
  673SOL    MW4 3013   1.730   0.831   5.872
  674SOL     OW 3014   1.602   0.771   6.857
  674SOL    HW2 3015   1.557   0.838   6.908
  674SOL    HW3 3016   1.690   0.807   6.843
  674SOL    MW4 3017   1.608   0.784   6.861
  675SOL     OW 3018   0.530   1.022   6.091
  675SOL    HW2 3019   0.620   0.997   6.075
  675SOL    HW3 3020   0.526   1.115   6.068
  675SOL    MW4 3021   0.542   1.031   6.086
  676SOL     OW 3022   1.646   1.725   6.233
  676SOL    HW2 3023   1.658   1.671   6.311
  676SOL    HW3 3024   1.683   1.673   6.162
  676SOL    MW4 3025   1.652   1.710   6.234
  677SOL     OW 3026   1.025   1.610   7.234
  677SOL    HW2 3027   1.066   1.646   7.155
  677SOL    HW3 3028   1.060   1.521   7.241
  677SOL    MW4 3029   1.036   1.603   7.225
  678SOL     OW 3030   1.582   1.165   6.838
  678SOL    HW2 3031   1.503   1.130   6.796
  678SOL    HW3 3032   1.609   1.237   6.782
  678SOL    MW4 3033   1.575   1.170   6.825
  679SOL     OW 3034   0.814   0.478   6.104
  679SOL    HW2 3035   0.789   0.566   6.132
  679SOL    HW3 3036   0.811   0.481   6.008
  679SOL    MW4 3037   0.810   0.490   6.096
  680SOL     OW 3038   0.256   0.506   6.032
  680SOL    HW2 3039   0.288   0.594   6.014
  680SOL    HW3 3040   0.244   0.504   6.127
  680SOL    MW4 3041   0.259   0.518   6.044
  681SOL     OW 3042   0.334   0.919   6.933
  681SOL    HW2 3043   0.397   0.866   6.884
  681SOL    HW3 3044   0.315   0.993   6.876
  681SOL    MW4 3045   0.340   0.921   6.920
  682SOL     OW 3046   0.655   0.261   6.119
  682SOL    HW2 3047   0.713   0.337   6.121
  682SOL    HW3 3048   0.590   0.282   6.052
  682SOL    MW4 3049   0.654   0.273   6.110
  683SOL     OW 3050   0.742   1.188   6.294
  683SOL    HW2 3051   0.822   1.191   6.346
  683SOL    HW3 3052   0.770   1.155   6.208
  683SOL    MW4 3053   0.756   1.184   6.289
  684SOL     OW 3054   0.767   1.529   7.197
  684SOL    HW2 3055   0.851   1.555   7.236
  684SOL    HW3 3056   0.791   1.473   7.123
  684SOL    MW4 3057   0.781   1.525   7.192
  685SOL     OW 3058   0.519   0.692   6.285
  685SOL    HW2 3059   0.504   0.612   6.336
  685SOL    HW3 3060   0.601   0.727   6.319
  685SOL    MW4 3061   0.527   0.684   6.297
  686SOL     OW 3062   0.856   1.378   6.970
  686SOL    HW2 3063   0.820   1.444   6.910
  686SOL    HW3 3064   0.784   1.316   6.983
  686SOL    MW4 3065   0.842   1.378   6.964
  687SOL     OW 3066   0.661   0.518   6.662
  687SOL    HW2 3067   0.567   0.514   6.680
  687SOL    HW3 3068   0.691   0.427   6.671
  687SOL    MW4 3069   0.652   0.506   6.665
  688SOL     OW 3070   0.407   0.932   6.566
  688SOL    HW2 3071   0.362   0.939   6.482
  688SOL    HW3 3072   0.387   1.015   6.610
  688SOL    MW4 3073   0.399   0.944   6.560
  689SOL     OW 3074   0.104   1.778   6.441
  689SOL    HW2 3075   0.193   1.770   6.476
  689SOL    HW3 3076   0.068   1.690   6.446
  689SOL    MW4 3077   0.111   1.765   6.446
  690SOL     OW 3078   1.369   1.170   5.810
  690SOL    HW2 3079   1.287   1.206   5.776
  690SOL    HW3 3080   1.437   1.213   5.759
  690SOL    MW4 3081   1.367   1.180   5.798
  691SOL     OW 3082   0.368   1.305   6.476
  691SOL    HW2 3083   0.344   1.358   6.552
  691SOL    HW3 3084   0.424   1.363   6.424
  691SOL    MW4 3085   0.372   1.320   6.479
  692SOL     OW 3086   0.930   0.949   6.286
  692SOL    HW2 3087   0.844   0.936   6.326
  692SOL    HW3 3088   0.983   0.876   6.318
  692SOL    MW4 3089   0.926   0.938   6.295
  693SOL     OW 3090   0.338   1.601   7.071
  693SOL    HW2 3091   0.246   1.577   7.056
  693SOL    HW3 3092   0.382   1.518   7.088
  693SOL    MW4 3093   0.332   1.586   7.070
  694SOL     OW 3094   0.921   1.311   6.003
  694SOL    HW2 3095   0.898   1.373   6.071
  694SOL    HW3 3096   0.878   1.229   6.029
  694SOL    MW4 3097   0.913   1.307   6.014
  695SOL     OW 3098   1.794   0.312   6.459
  695SOL    HW2 3099   1.731   0.292   6.528
  695SOL    HW3 3100   1.784   0.241   6.396
  695SOL    MW4 3101   1.784   0.299   6.460
  696SOL     OW 3102   0.418   0.284   5.971
  696SOL    HW2 3103   0.392   0.246   5.887
  696SOL    HW3 3104   0.355   0.354   5.987
  696SOL    MW4 3105   0.407   0.287   5.962
  697SOL     OW 3106   0.253   1.245   6.008
  697SOL    HW2 3107   0.201   1.313   5.964
  697SOL    HW3 3108   0.250   1.171   5.948
  697SOL    MW4 3109   0.245   1.244   5.995
  698SOL     OW 3110   0.915   1.708   5.786
  698SOL    HW2 3111   0.870   1.724   5.869
  698SOL    HW3 3112   0.846   1.673   5.728
  698SOL    MW4 3113   0.901   1.705   5.788
  699SOL     OW 3114   1.850   0.481   5.761
  699SOL    HW2 3115   1.759   0.483   5.789
  699SOL    HW3 3116   1.895   0.543   5.819
  699SOL    MW4 3117   1.843   0.489   5.771
  700SOL     OW 3118   1.595   1.084   6.111
  700SOL    HW2 3119   1.505   1.084   6.146
  700SOL    HW3 3120   1.588   1.130   6.028
  700SOL    MW4 3121   1.582   1.090   6.105
  701SOL     OW 3122   1.395   0.719   7.183
  701SOL    HW2 3123   1.464   0.657   7.160
  701SOL    HW3 3124   1.320   0.693   7.130
  701SOL    MW4 3125   1.395   0.706   7.174
  702SOL     OW 3126   0.136   1.599   6.735
  702SOL    HW2 3127   0.119   1.545   6.812
  702SOL    HW3 3128   0.124   1.689   6.765
  702SOL    MW4 3129   0.133   1.603   6.749
  703SOL     OW 3130   1.131   1.106   7.175
  703SOL    HW2 3131   1.116   1.199   7.160
  703SOL    HW3 3132   1.226   1.096   7.175
  703SOL    MW4 3133   1.140   1.116   7.172
  704SOL     OW 3134   0.927   0.530   7.376
  704SOL    HW2 3135   1.017   0.531   7.343
  704SOL    HW3 3136   0.886   0.455   7.334
  704SOL    MW4 3137   0.933   0.520   7.367
  705SOL     OW 3138   1.502   1.062   6.503
  705SOL    HW2 3139   1.505   0.996   6.434
  705SOL    HW3 3140   1.587   1.105   6.499
  705SOL    MW4 3141   1.514   1.058   6.494
  706SOL     OW 3142   1.122   0.665   6.072
  706SOL    HW2 3143   1.148   0.689   5.983
  706SOL    HW3 3144   1.104   0.572   6.068
  706SOL    MW4 3145   1.124   0.657   6.059
  707SOL     OW 3146   1.787   1.285   5.923
  707SOL    HW2 3147   1.743   1.326   5.998
  707SOL    HW3 3148   1.844   1.353   5.888
  707SOL    MW4 3149   1.789   1.299   5.928
  708SOL     OW 3150   0.707   0.334   7.326
  708SOL    HW2 3151   0.717   0.260   7.266
  708SOL    HW3 3152   0.743   0.303   7.409
  708SOL    MW4 3153   0.713   0.320   7.328
  709SOL     OW 3154   0.443   1.701   6.241
  709SOL    HW2 3155   0.475   1.789   6.219
  709SOL    HW3 3156   0.396   1.673   6.163
  709SOL    MW4 3157   0.442   1.709   6.228
  710SOL     OW 3158   1.827   0.063   6.290
  710SOL    HW2 3159   1.881   0.014   6.352
  710SOL    HW3 3160   1.770  -0.003   6.251
  710SOL    MW4 3161   1.827   0.047   6.292
  711SOL     OW 3162   0.159   1.761   5.818
  711SOL    HW2 3163   0.188   1.851   5.810
  711SOL    HW3 3164   0.109   1.744   5.739
  711SOL    MW4 3165   0.157   1.769   5.807
  712SOL     OW 3166   0.946   0.016   6.703
  712SOL    HW2 3167   0.905   0.094   6.665
  712SOL    HW3 3168   1.040   0.034   6.698
  712SOL    MW4 3169   0.952   0.028   6.698
  713SOL     OW 3170   1.563   1.569   5.789
  713SOL    HW2 3171   1.611   1.638   5.835
  713SOL    HW3 3172   1.484   1.613   5.758
  713SOL    MW4 3173   1.558   1.583   5.792
  714SOL     OW 3174   0.961   0.694   5.733
  714SOL    HW2 3175   0.963   0.641   5.654
  714SOL    HW3 3176   1.049   0.731   5.739
  714SOL    MW4 3177   0.973   0.693   5.722
  715SOL     OW 3178   1.575   0.620   6.069
  715SOL    HW2 3179   1.614   0.620   6.156
  715SOL    HW3 3180   1.516   0.696   6.069
  715SOL    MW4 3181   1.572   0.631   6.080
  716SOL     OW 3182   0.892   0.987   7.198
  716SOL    HW2 3183   0.869   0.967   7.288
  716SOL    HW3 3184   0.977   1.031   7.203
  716SOL    MW4 3185   0.899   0.990   7.210
  717SOL     OW 3186   0.972   0.124   6.958
  717SOL    HW2 3187   0.978   0.086   6.871
  717SOL    HW3 3188   0.961   0.218   6.943
  717SOL    MW4 3189   0.973   0.132   6.946
  718SOL     OW 3190   1.061   0.613   6.792
  718SOL    HW2 3191   1.136   0.642   6.739
  718SOL    HW3 3192   0.993   0.678   6.776
  718SOL    MW4 3193   1.062   0.625   6.782
  719SOL     OW 3194   1.611   0.581   7.069
  719SOL    HW2 3195   1.592   0.490   7.048
  719SOL    HW3 3196   1.589   0.630   6.990
  719SOL    MW4 3197   1.606   0.574   7.056
  720SOL     OW 3198   1.753   1.675   6.973
  720SOL    HW2 3199   1.681   1.637   7.024
  720SOL    HW3 3200   1.770   1.760   7.014
  720SOL    MW4 3201   1.747   1.680   6.985
  721SOL     OW 3202   1.058   0.319   7.175
  721SOL    HW2 3203   1.024   0.358   7.094
  721SOL    HW3 3204   1.036   0.227   7.168
  721SOL    MW4 3205   1.051   0.312   7.165
  722SOL     OW 3206   1.467   1.133   7.251
  722SOL    HW2 3207   1.549   1.174   7.281
  722SOL    HW3 3208   1.430   1.095   7.331
  722SOL    MW4 3209   1.473   1.134   7.266
  723SOL     OW 3210   1.762   0.506   6.235
  723SOL    HW2 3211   1.851   0.475   6.252
  723SOL    HW3 3212   1.705   0.446   6.283
  723SOL    MW4 3213   1.765   0.494   6.244
  724SOL     OW 3214   0.188   0.220   6.264
  724SOL    HW2 3215   0.179   0.160   6.190
  724SOL    HW3 3216   0.121   0.191   6.327
  724SOL    MW4 3217   0.178   0.207   6.262
  725SOL     OW 3218   1.131   1.313   5.825
  725SOL    HW2 3219   1.081   1.315   5.907
  725SOL    HW3 3220   1.065   1.331   5.757
  725SOL    MW4 3221   1.117   1.315   5.827
  726SOL     OW 3222   0.135   0.393   6.627
  726SOL    HW2 3223   0.107   0.484   6.636
  726SOL    HW3 3224   0.072   0.354   6.566
  726SOL    MW4 3225   0.122   0.399   6.621
  727SOL     OW 3226   0.594   1.731   5.933
  727SOL    HW2 3227   0.515   1.689   5.966
  727SOL    HW3 3228   0.660   1.714   6.000
  727SOL    MW4 3229   0.593   1.723   5.946
  728SOL     OW 3230   1.722   1.251   7.330
  728SOL    HW2 3231   1.772   1.177   7.362
  728SOL    HW3 3232   1.668   1.278   7.405
  728SOL    MW4 3233   1.722   1.245   7.343
  729SOL     OW 3234   0.730   1.146   5.640
  729SOL    HW2 3235   0.652   1.092   5.627
  729SOL    HW3 3236   0.701   1.219   5.693
  729SOL    MW4 3237   0.716   1.148   5.645
  730SOL     OW 3238   1.856   0.886   6.832
  730SOL    HW2 3239   1.872   0.924   6.745
  730SOL    HW3 3240   1.890   0.952   6.893
  730SOL    MW4 3241   1.863   0.899   6.828
  731SOL     OW 3242   1.648   1.595   6.501
  731SOL    HW2 3243   1.677   1.662   6.562
  731SOL    HW3 3244   1.629   1.519   6.556
  731SOL    MW4 3245   1.650   1.595   6.516
  732SOL     OW 3246   1.311   1.662   5.708
  732SOL    HW2 3247   1.237   1.625   5.758
  732SOL    HW3 3248   1.319   1.752   5.741
  732SOL    MW4 3249   1.302   1.669   5.720
  733SOL     OW 3250   0.119   0.668   6.797
  733SOL    HW2 3251   0.181   0.698   6.863
  733SOL    HW3 3252   0.053   0.737   6.791
  733SOL    MW4 3253   0.118   0.681   6.804
  734SOL     OW 3254   1.535   1.336   5.650
  734SOL    HW2 3255   1.482   1.385   5.586
  734SOL    HW3 3256   1.566   1.402   5.711
  734SOL    MW4 3257   1.533   1.350   5.648
  735SOL     OW 3258   0.760   0.225   5.705
  735SOL    HW2 3259   0.708   0.145   5.693
  735SOL    HW3 3260   0.847   0.202   5.673
  735SOL    MW4 3261   0.763   0.211   5.699
  736SOL     OW 3262   0.214   1.777   7.249
  736SOL    HW2 3263   0.188   1.845   7.187
  736SOL    HW3 3264   0.262   1.714   7.197
  736SOL    MW4 3265   0.216   1.777   7.235
  737SOL     OW 3266   0.266   1.096   6.756
  737SOL    HW2 3267   0.319   1.171   6.781
  737SOL    HW3 3268   0.185   1.134   6.722
  737SOL    MW4 3269   0.262   1.111   6.756
  738SOL     OW 3270   0.806   1.000   6.744
  738SOL    HW2 3271   0.834   0.909   6.756
  738SOL    HW3 3272   0.735   0.994   6.680
  738SOL    MW4 3273   0.799   0.988   6.739
  739SOL     OW 3274   0.121   0.865   6.162
  739SOL    HW2 3275   0.212   0.880   6.189
  739SOL    HW3 3276   0.124   0.786   6.108
  739SOL    MW4 3277   0.133   0.857   6.160
  740SOL     OW 3278   0.357   0.573   7.416
  740SOL    HW2 3279   0.304   0.653   7.423
  740SOL    HW3 3280   0.427   0.585   7.481
  740SOL    MW4 3281   0.359   0.586   7.424
  741SOL     OW 3282   0.743   0.123   7.123
  741SOL    HW2 3283   0.720   0.031   7.125
  741SOL    HW3 3284   0.829   0.125   7.080
  741SOL    MW4 3285   0.750   0.113   7.119
  742SOL     OW 3286   0.427   0.647   7.162
  742SOL    HW2 3287   0.507   0.697   7.148
  742SOL    HW3 3288   0.418   0.641   7.257
  742SOL    MW4 3289   0.436   0.653   7.172
  743SOL     OW 3290   0.748   1.797   6.536
  743SOL    HW2 3291   0.837   1.812   6.566
  743SOL    HW3 3292   0.743   1.844   6.452
  743SOL    MW4 3293   0.758   1.805   6.529
  744SOL     OW 3294   1.404   0.172   7.433
  744SOL    HW2 3295   1.460   0.099   7.459
  744SOL    HW3 3296   1.374   0.210   7.515
  744SOL    MW4 3297   1.408   0.167   7.446
  745SOL     OW 3298   0.129   1.477   6.201
  745SOL    HW2 3299   0.101   1.516   6.283
  745SOL    HW3 3300   0.149   1.386   6.223
  745SOL    MW4 3301   0.127   1.469   6.214
  746SOL     OW 3302   0.962   1.520   6.236
  746SOL    HW2 3303   1.045   1.474   6.220
  746SOL    HW3 3304   0.952   1.519   6.332
  746SOL    MW4 3305   0.972   1.513   6.246
  747SOL     OW 3306   1.794   0.665   6.550
  747SOL    HW2 3307   1.883   0.695   6.532
  747SOL    HW3 3308   1.774   0.605   6.479
  747SOL    MW4 3309   1.803   0.662   6.539
  748SOL     OW 3310   1.645   0.844   7.430
  748SOL    HW2 3311   1.700   0.768   7.411
  748SOL    HW3 3312   1.647   0.852   7.525
  748SOL    MW4 3313   1.653   0.835   7.438
  749SOL     OW 3314   0.695   1.577   5.641
  749SOL    HW2 3315   0.635   1.646   5.611
  749SOL    HW3 3316   0.640   1.519   5.694
  749SOL    MW4 3317   0.679   1.579   5.643
  750SOL     OW 3318   1.133   0.222   5.864
  750SOL    HW2 3319   1.066   0.198   5.801
  750SOL    HW3 3320   1.198   0.271   5.813
  750SOL    MW4 3321   1.133   0.224   5.849
  751SOL     OW 3322   0.940   0.406   6.949
  751SOL    HW2 3323   0.859   0.447   6.977
  751SOL    HW3 3324   0.987   0.474   6.901
  751SOL    MW4 3325   0.935   0.421   6.947
  752SOL     OW 3326   1.200   0.744   6.572
  752SOL    HW2 3327   1.213   0.838   6.582
  752SOL    HW3 3328   1.161   0.734   6.486
  752SOL    MW4 3329   1.196   0.755   6.562
  753SOL     OW 3330   0.652   0.939   6.376
  753SOL    HW2 3331   0.563   0.930   6.409
  753SOL    HW3 3332   0.656   1.029   6.344
  753SOL    MW4 3333   0.641   0.950   6.376
  754SOL     OW 3334   1.451   0.522   6.371
  754SOL    HW2 3335   1.396   0.443   6.370
  754SOL    HW3 3336   1.433   0.563   6.455
  754SOL    MW4 3337   1.441   0.517   6.380
  755SOL     OW 3338   0.422   0.209   7.188
  755SOL    HW2 3339   0.343   0.227   7.240
  755SOL    HW3 3340   0.417   0.271   7.115
  755SOL    MW4 3341   0.412   0.219   7.185
  756SOL     OW 3342   1.070   0.726   6.328
  756SOL    HW2 3343   1.007   0.658   6.352
  756SOL    HW3 3344   1.090   0.707   6.236
  756SOL    MW4 3345   1.064   0.713   6.320
  757SOL     OW 3346   0.326   1.621   6.030
  757SOL    HW2 3347   0.287   1.668   5.956
  757SOL    HW3 3348   0.260   1.556   6.055
  757SOL    MW4 3349   0.313   1.619   6.024
  758SOL     OW 3350   0.818   1.030   6.054
  758SOL    HW2 3351   0.820   1.004   5.961
  758SOL    HW3 3352   0.876   0.967   6.097
  758SOL    MW4 3353   0.826   1.019   6.048
  759SOL     OW 3354   1.371   1.590   6.826
  759SOL    HW2 3355   1.296   1.636   6.864
  759SOL    HW3 3356   1.353   1.497   6.843
  759SOL    MW4 3357   1.360   1.584   6.834
  760SOL     OW 3358   1.375   1.798   6.256
  760SOL    HW2 3359   1.318   1.751   6.195
  760SOL    HW3 3360   1.461   1.759   6.243
  760SOL    MW4 3361   1.378   1.789   6.246
  761SOL     OW 3362   1.328   0.274   6.387
  761SOL    HW2 3363   1.356   0.206   6.448
  761SOL    HW3 3364   1.242   0.245   6.357
  761SOL    MW4 3365   1.321   0.261   6.391
  762SOL     OW 3366   0.133   1.208   6.321
  762SOL    HW2 3367   0.197   1.240   6.384
  762SOL    HW3 3368   0.182   1.144   6.269
  762SOL    MW4 3369   0.148   1.204   6.322
  763SOL     OW 3370   0.633   1.284   7.303
  763SOL    HW2 3371   0.681   1.367   7.290
  763SOL    HW3 3372   0.690   1.232   7.359
  763SOL    MW4 3373   0.647   1.288   7.309
  764SOL     OW 3374   0.209   1.526   7.443
  764SOL    HW2 3375   0.265   1.450   7.458
  764SOL    HW3 3376   0.158   1.504   7.365
  764SOL    MW4 3377   0.209   1.513   7.434
  765SOL     OW 3378   1.308   0.378   5.722
  765SOL    HW2 3379   1.281   0.444   5.658
  765SOL    HW3 3380   1.378   0.421   5.772
  765SOL    MW4 3381   1.313   0.391   5.719
  766SOL     OW 3382   0.976   0.083   5.659
  766SOL    HW2 3383   1.032   0.075   5.581
  766SOL    HW3 3384   0.953  -0.007   5.681
  766SOL    MW4 3385   0.981   0.070   5.652
  767SOL     OW 3386   1.481   0.934   5.864
  767SOL    HW2 3387   1.448   1.023   5.854
  767SOL    HW3 3388   1.446   0.905   5.949
  767SOL    MW4 3389   1.471   0.943   5.875
  768SOL     OW 3390   1.094   1.363   7.052
  768SOL    HW2 3391   1.005   1.369   7.020
  768SOL    HW3 3392   1.138   1.442   7.020
  768SOL    MW4 3393   1.089   1.373   7.044
  769SOL     OW 3394   0.387   0.031   7.394
  769SOL    HW2 3395   0.315  -0.004   7.342
  769SOL    HW3 3396   0.445   0.072   7.329
  769SOL    MW4 3397   0.385   0.032   7.379
  770SOL     OW 3398   0.411   1.521   6.693
  770SOL    HW2 3399   0.456   1.583   6.750
  770SOL    HW3 3400   0.318   1.540   6.706
  770SOL    MW4 3401   0.404   1.531   6.700
  771SOL     OW 3402   1.851   1.050   7.047
  771SOL    HW2 3403   1.766   1.063   7.006
  771SOL    HW3 3404   1.831   1.014   7.134
  771SOL    MW4 3405   1.838   1.046   7.052
  772SOL     OW 3406   0.833   1.589   6.801
  772SOL    HW2 3407   0.857   1.578   6.710
  772SOL    HW3 3408   0.756   1.646   6.799
  772SOL    MW4 3409   0.825   1.594   6.790
  773SOL     OW 3410   0.475   0.972   5.656
  773SOL    HW2 3411   0.398   0.985   5.712
  773SOL    HW3 3412   0.439   0.936   5.575
  773SOL    MW4 3413   0.461   0.968   5.653
  774SOL     OW 3414   1.128   0.945   5.899
  774SOL    HW2 3415   1.038   0.966   5.874
  774SOL    HW3 3416   1.155   1.018   5.955
  774SOL    MW4 3417   1.120   0.957   5.902
  775SOL     OW 3418   0.628   1.294   6.591
  775SOL    HW2 3419   0.621   1.273   6.685
  775SOL    HW3 3420   0.546   1.262   6.554
  775SOL    MW4 3421   0.616   1.288   6.598
  776SOL     OW 3422   1.492   0.304   6.993
  776SOL    HW2 3423   1.439   0.306   7.073
  776SOL    HW3 3424   1.477   0.217   6.956
  776SOL    MW4 3425   1.484   0.294   6.998
  777SOL     OW 3426   1.828   0.228   6.866
  777SOL    HW2 3427   1.809   0.295   6.801
  777SOL    HW3 3428   1.885   0.166   6.821
  777SOL    MW4 3429   1.832   0.229   6.852
  778SOL     OW 3430   0.074   1.386   7.254
  778SOL    HW2 3431   0.118   1.319   7.200
  778SOL    HW3 3432  -0.011   1.348   7.274
  778SOL    MW4 3433   0.069   1.372   7.250
  779SOL     OW 3434   0.757   0.061   6.306
  779SOL    HW2 3435   0.686   0.122   6.288
  779SOL    HW3 3436   0.808   0.058   6.225
  779SOL    MW4 3437   0.753   0.067   6.293
  780SOL     OW 3438   0.515   1.301   6.055
  780SOL    HW2 3439   0.508   1.333   6.145
  780SOL    HW3 3440   0.425   1.285   6.027
  780SOL    MW4 3441   0.503   1.303   6.062
  781SOL     OW 3442   1.110   1.694   6.964
  781SOL    HW2 3443   1.030   1.679   6.914
  781SOL    HW3 3444   1.117   1.789   6.971
  781SOL    MW4 3445   1.101   1.705   6.958
  782SOL     OW 3446   1.224   1.659   6.454
  782SOL    HW2 3447   1.271   1.732   6.413
  782SOL    HW3 3448   1.145   1.698   6.490
  782SOL    MW4 3449   1.219   1.674   6.453
  783SOL     OW 3450   1.632   1.754   6.729
  783SOL    HW2 3451   1.675   1.724   6.809
  783SOL    HW3 3452   1.551   1.702   6.726
  783SOL    MW4 3453   1.627   1.743   6.739
  784SOL     OW 3454   0.717   0.718   7.436
  784SOL    HW2 3455   0.787   0.660   7.408
  784SOL    HW3 3456   0.660   0.663   7.491
  784SOL    MW4 3457   0.719   0.705   7.440
  785SOL     OW 3458   1.504   0.930   7.069
  785SOL    HW2 3459   1.509   0.983   7.149
  785SOL    HW3 3460   1.466   0.847   7.097
  785SOL    MW4 3461   1.500   0.925   7.084
  786SOL     OW 3462   1.144   0.065   7.315
  786SOL    HW2 3463   1.139  -0.028   7.296
  786SOL    HW3 3464   1.227   0.076   7.361
  786SOL    MW4 3465   1.152   0.054   7.319
  787SOL     OW 3466   0.518   0.585   5.769
  787SOL    HW2 3467   0.484   0.641   5.839
  787SOL    HW3 3468   0.589   0.535   5.809
  787SOL    MW4 3469   0.524   0.586   5.783
  788SOL     OW 3470   1.614   1.336   6.591
  788SOL    HW2 3471   1.649   1.318   6.504
  788SOL    HW3 3472   1.519   1.337   6.578
  788SOL    MW4 3473   1.606   1.333   6.578
  789SOL     OW 3474   1.043   0.984   6.960
  789SOL    HW2 3475   1.086   1.019   7.038
  789SOL    HW3 3476   1.026   1.061   6.906
  789SOL    MW4 3477   1.046   0.999   6.963
  790SOL     OW 3478   1.574   0.471   5.833
  790SOL    HW2 3479   1.566   0.542   5.770
  790SOL    HW3 3480   1.592   0.515   5.916
  790SOL    MW4 3481   1.575   0.485   5.835
  791SOL     OW 3482   0.434   0.126   6.262
  791SOL    HW2 3483   0.484   0.169   6.193
  791SOL    HW3 3484   0.349   0.170   6.262
  791SOL    MW4 3485   0.431   0.139   6.253
  792SOL     OW 3486   0.193   1.188   7.122
  792SOL    HW2 3487   0.221   1.141   7.200
  792SOL    HW3 3488   0.114   1.143   7.093
  792SOL    MW4 3489   0.186   1.177   7.128
  793SOL     OW 3490   0.701   0.515   7.089
  793SOL    HW2 3491   0.673   0.603   7.113
  793SOL    HW3 3492   0.670   0.459   7.160
  793SOL    MW4 3493   0.693   0.518   7.101
  794SOL     OW 3494   1.243   0.733   5.808
  794SOL    HW2 3495   1.290   0.751   5.727
  794SOL    HW3 3496   1.209   0.817   5.836
  794SOL    MW4 3497   1.245   0.747   5.801
  795SOL     OW 3498   0.356   0.911   6.302
  795SOL    HW2 3499   0.414   0.967   6.250
  795SOL    HW3 3500   0.400   0.826   6.304
  795SOL    MW4 3501   0.369   0.908   6.295
  796SOL     OW 3502   1.496   0.263   6.139
  796SOL    HW2 3503   1.418   0.213   6.164
  796SOL    HW3 3504   1.467   0.354   6.139
  796SOL    MW4 3505   1.482   0.267   6.142
  797SOL     OW 3506   1.082   0.225   6.298
  797SOL    HW2 3507   1.102   0.300   6.242
  797SOL    HW3 3508   1.062   0.264   6.383
  797SOL    MW4 3509   1.083   0.241   6.302
  798SOL     OW 3510   0.978   1.475   5.630
  798SOL    HW2 3511   1.005   1.553   5.582
  798SOL    HW3 3512   0.885   1.490   5.649
  798SOL    MW4 3513   0.969   1.488   5.626
  799SOL     OW 3514   1.842   0.998   7.317
  799SOL    HW2 3515   1.755   0.978   7.353
  799SOL    HW3 3516   1.896   0.924   7.342
  799SOL    MW4 3517   1.837   0.987   7.325
  800SOL     OW 3518   0.063   1.511   6.474
  800SOL    HW2 3519   0.095   1.515   6.565
  800SOL    HW3 3520  -0.032   1.519   6.482
  800SOL    MW4 3521   0.055   1.514   6.487
  801SOL     OW 3522   0.018   0.637   6.021
  801SOL    HW2 3523  -0.042   0.609   6.091
  801SOL    HW3 3524   0.092   0.577   6.027
  801SOL    MW4 3525   0.020   0.626   6.030
  802SOL     OW 3526   1.586   1.849   7.455
  802SOL    HW2 3527   1.631   1.773   7.420
  802SOL    HW3 3528   1.624   1.862   7.542
  802SOL    MW4 3529   1.596   1.842   7.461
  803SOL     OW 3530   1.186   1.368   6.181
  803SOL    HW2 3531   1.209   1.319   6.259
  803SOL    HW3 3532   1.267   1.410   6.153
  803SOL    MW4 3533   1.199   1.368   6.188
  804SOL     OW 3534   0.444   0.376   6.910
  804SOL    HW2 3535   0.477   0.457   6.950
  804SOL    HW3 3536   0.417   0.402   6.822
  804SOL    MW4 3537   0.443   0.390   6.904
  805SOL     OW 3538   0.398   0.343   6.646
  805SOL    HW2 3539   0.428   0.257   6.617
  805SOL    HW3 3540   0.303   0.336   6.649
  805SOL    MW4 3541   0.390   0.332   6.644
  806SOL     OW 3542   1.227   0.552   7.337
  806SOL    HW2 3543   1.279   0.487   7.290
  806SOL    HW3 3544   1.185   0.603   7.267
  806SOL    MW4 3545   1.228   0.549   7.320
  807SOL     OW 3546   1.326   0.347   7.198
  807SOL    HW2 3547   1.233   0.331   7.185
  807SOL    HW3 3548   1.352   0.285   7.266
  807SOL    MW4 3549   1.316   0.337   7.205
  808SOL     OW 3550   0.541   0.121   6.537
  808SOL    HW2 3551   0.551   0.030   6.563
  808SOL    HW3 3552   0.497   0.117   6.452
  808SOL    MW4 3553   0.537   0.109   6.529
  809SOL     OW 3554   0.635   1.736   7.083
  809SOL    HW2 3555   0.552   1.721   7.128
  809SOL    HW3 3556   0.694   1.669   7.118
  809SOL    MW4 3557   0.633   1.726   7.093
  810SOL     OW 3558   1.692   0.443   6.708
  810SOL    HW2 3559   1.625   0.476   6.768
  810SOL    HW3 3560   1.735   0.521   6.674
  810SOL    MW4 3561   1.690   0.458   6.712
  811SOL     OW 3562   1.870   1.163   6.678
  811SOL    HW2 3563   1.863   1.103   6.603
  811SOL    HW3 3564   1.796   1.223   6.667
  811SOL    MW4 3565   1.860   1.163   6.667
  812SOL     OW 3566   1.252   1.025   6.596
  812SOL    HW2 3567   1.266   0.997   6.687
  812SOL    HW3 3568   1.338   1.056   6.568
  812SOL    MW4 3569   1.265   1.026   6.605
  813SOL     OW 3570   1.335   0.520   6.875
  813SOL    HW2 3571   1.356   0.521   6.782
  813SOL    HW3 3572   1.380   0.442   6.908
  813SOL    MW4 3573   1.342   0.510   6.867
  814SOL     OW 3574   1.828   0.651   7.417
  814SOL    HW2 3575   1.865   0.596   7.486
  814SOL    HW3 3576   1.853   0.608   7.335
  814SOL    MW4 3577   1.835   0.639   7.416
  815SOL     OW 3578   1.375   0.949   7.468
  815SOL    HW2 3579   1.441   0.897   7.422
  815SOL    HW3 3580   1.395   0.936   7.561
  815SOL    MW4 3581   1.386   0.940   7.475
  816SOL     OW 3582   1.326   0.035   5.817
  816SOL    HW2 3583   1.400   0.079   5.860
  816SOL    HW3 3584   1.250   0.089   5.839
  816SOL    MW4 3585   1.326   0.047   5.825
  817SOL     OW 3586   1.386   0.810   6.095
  817SOL    HW2 3587   1.301   0.780   6.065
  817SOL    HW3 3588   1.378   0.817   6.190
  817SOL    MW4 3589   1.374   0.808   6.104
  818SOL     OW 3590   0.462   1.273   6.826
  818SOL    HW2 3591   0.474   1.300   6.917
  818SOL    HW3 3592   0.443   1.354   6.779
  818SOL    MW4 3593   0.461   1.288   6.831
  819SOL     OW 3594   0.746   0.253   6.649
  819SOL    HW2 3595   0.719   0.255   6.740
  819SOL    HW3 3596   0.676   0.205   6.604
  819SOL    MW4 3597   0.734   0.249   6.656
  820SOL     OW 3598   0.600   1.745   6.811
  820SOL    HW2 3599   0.652   1.822   6.788
  820SOL    HW3 3600   0.609   1.737   6.906
  820SOL    MW4 3601   0.609   1.752   6.822
  821SOL     OW 3602   1.502   1.330   7.043
  821SOL    HW2 3603   1.487   1.259   7.106
  821SOL    HW3 3604   1.548   1.288   6.971
  821SOL    MW4 3605   1.508   1.314   7.043
  822SOL     OW 3606   0.576   1.061   7.160
  822SOL    HW2 3607   0.613   1.066   7.072
  822SOL    HW3 3608   0.615   1.134   7.207
  822SOL    MW4 3609   0.586   1.071   7.155
  823SOL     OW 3610   0.756   1.104   6.972
  823SOL    HW2 3611   0.815   1.050   7.025
  823SOL    HW3 3612   0.771   1.076   6.882
  823SOL    MW4 3613   0.766   1.093   6.968
  824SOL     OW 3614   0.759   0.476   5.821
  824SOL    HW2 3615   0.832   0.525   5.784
  824SOL    HW3 3616   0.775   0.385   5.795
  824SOL    MW4 3617   0.771   0.471   5.814
  825SOL     OW 3618   1.567   1.593   7.144
  825SOL    HW2 3619   1.609   1.578   7.229
  825SOL    HW3 3620   1.558   1.506   7.106
  825SOL    MW4 3621   1.571   1.581   7.151
  826SOL     OW 3622   1.227   0.072   6.735
  826SOL    HW2 3623   1.282   0.081   6.657
  826SOL    HW3 3624   1.282   0.106   6.806
  826SOL    MW4 3625   1.241   0.077   6.734
  827SOL     OW 3626   0.234   0.985   5.919
  827SOL    HW2 3627   0.171   1.001   5.848
  827SOL    HW3 3628   0.181   0.948   5.990
  827SOL    MW4 3629   0.219   0.982   5.919
  828SOL     OW 3630   0.590   1.339   5.778
  828SOL    HW2 3631   0.605   1.315   5.870
  828SOL    HW3 3632   0.498   1.317   5.762
  828SOL    MW4 3633   0.580   1.332   5.788
  829SOL     OW 3634   1.129   1.570   5.930
  829SOL    HW2 3635   1.137   1.488   5.881
  829SOL    HW3 3636   1.048   1.609   5.897
  829SOL    MW4 3637   1.119   1.565   5.920
  830SOL     OW 3638   0.388   1.728   6.499
  830SOL    HW2 3639   0.392   1.639   6.534
  830SOL    HW3 3640   0.414   1.719   6.408
  830SOL    MW4 3641   0.391   1.716   6.491
  831SOL     OW 3642   1.005   1.206   6.742
  831SOL    HW2 3643   0.937   1.140   6.758
  831SOL    HW3 3644   1.023   1.200   6.649
  831SOL    MW4 3645   0.998   1.197   6.733
  832SOL     OW 3646   0.094   1.481   6.993
  832SOL    HW2 3647   0.084   1.439   7.079
  832SOL    HW3 3648   0.015   1.534   6.983
  832SOL    MW4 3649   0.083   1.482   7.004
  833SOL     OW 3650   0.998   0.345   6.563
  833SOL    HW2 3651   0.928   0.297   6.608
  833SOL    HW3 3652   1.030   0.408   6.627
  833SOL    MW4 3653   0.993   0.347   6.577
  834SOL     OW 3654   0.649   0.781   7.183
  834SOL    HW2 3655   0.642   0.876   7.171
  834SOL    HW3 3656   0.658   0.770   7.278
  834SOL    MW4 3657   0.650   0.793   7.193
  835SOL     OW 3658   0.370   1.296   7.441
  835SOL    HW2 3659   0.442   1.298   7.378
  835SOL    HW3 3660   0.340   1.205   7.440
  835SOL    MW4 3661   0.375   1.285   7.433
  836SOL     OW 3662   1.454   0.059   6.908
  836SOL    HW2 3663   1.525   0.005   6.872
  836SOL    HW3 3664   1.453   0.038   7.001
  836SOL    MW4 3665   1.463   0.050   6.916
  837SOL     OW 3666   1.654   1.589   7.392
  837SOL    HW2 3667   1.627   1.586   7.483
  837SOL    HW3 3668   1.750   1.593   7.395
  837SOL    MW4 3669   1.664   1.589   7.404
  838SOL     OW 3670   0.465   0.451   6.376
  838SOL    HW2 3671   0.536   0.399   6.339
  838SOL    HW3 3672   0.451   0.416   6.463
  838SOL    MW4 3673   0.473   0.440   6.383
  839SOL     OW 3674   0.020   1.786   7.448
  839SOL    HW2 3675   0.070   1.764   7.370
  839SOL    HW3 3676   0.028   1.881   7.456
  839SOL    MW4 3677   0.028   1.795   7.439
  840SOL     OW 3678   0.781   1.544   6.452
  840SOL    HW2 3679   0.709   1.481   6.465
  840SOL    HW3 3680   0.742   1.629   6.470
  840SOL    MW4 3681   0.765   1.547   6.455
  841SOL     OW 3682   1.101   0.392   6.100
  841SOL    HW2 3683   1.123   0.329   6.032
  841SOL    HW3 3684   1.006   0.384   6.111
  841SOL    MW4 3685   1.091   0.383   6.092
  842SOL     OW 3686   0.186   0.082   6.032
  842SOL    HW2 3687   0.257   0.103   5.971
  842SOL    HW3 3688   0.140   0.010   5.990
  842SOL    MW4 3689   0.190   0.076   6.018
  843SOL     OW 3690   0.017   0.549   7.175
  843SOL    HW2 3691   0.081   0.615   7.150
  843SOL    HW3 3692  -0.064   0.576   7.132
  843SOL    MW4 3693   0.015   0.561   7.167
  844SOL     OW 3694   1.755   1.456   6.132
  844SOL    HW2 3695   1.725   1.389   6.193
  844SOL    HW3 3696   1.849   1.462   6.146
  844SOL    MW4 3697   1.763   1.448   6.142
  845SOL     OW 3698   1.311   1.133   6.062
  845SOL    HW2 3699   1.283   1.219   6.095
  845SOL    HW3 3700   1.339   1.149   5.972
  845SOL    MW4 3701   1.311   1.147   6.054
  846SOL     OW 3702   0.973   0.053   6.115
  846SOL    HW2 3703   1.010   0.112   6.180
  846SOL    HW3 3704   0.950   0.109   6.041
  846SOL    MW4 3705   0.974   0.068   6.114
  847SOL     OW 3706   1.826   0.935   6.537
  847SOL    HW2 3707   1.817   0.967   6.448
  847SOL    HW3 3708   1.779   0.851   6.537
  847SOL    MW4 3709   1.819   0.928   6.527
  848SOL     OW 3710   0.202   0.775   7.116
  848SOL    HW2 3711   0.223   0.844   7.054
  848SOL    HW3 3712   0.282   0.722   7.121
  848SOL    MW4 3713   0.215   0.776   7.110
  849SOL     OW 3714   1.738   0.866   6.238
  849SOL    HW2 3715   1.832   0.855   6.226
  849SOL    HW3 3716   1.714   0.938   6.179
  849SOL    MW4 3717   1.748   0.874   6.229
  850SOL     OW 3718   0.187   0.790   7.383
  850SOL    HW2 3719   0.113   0.734   7.409
  850SOL    HW3 3720   0.182   0.793   7.288
  850SOL    MW4 3721   0.176   0.783   7.373
  851SOL     OW 3722   0.353   0.077   6.833
  851SOL    HW2 3723   0.396   0.161   6.853
  851SOL    HW3 3724   0.426   0.015   6.826
  851SOL    MW4 3725   0.368   0.080   6.834
  852SOL     OW 3726   0.394   0.744   6.011
  852SOL    HW2 3727   0.394   0.839   5.996
  852SOL    HW3 3728   0.471   0.728   6.065
  852SOL    MW4 3729   0.404   0.755   6.016
  853SOL     OW 3730   1.170   0.603   7.075
  853SOL    HW2 3731   1.206   0.576   6.991
  853SOL    HW3 3732   1.083   0.637   7.054
  853SOL    MW4 3733   1.164   0.604   7.062
  854SOL     OW 3734   0.153   0.475   6.300
  854SOL    HW2 3735   0.215   0.482   6.373
  854SOL    HW3 3736   0.153   0.382   6.277
  854SOL    MW4 3737   0.161   0.464   6.307
  855SOL     OW 3738   1.700   1.815   5.832
  855SOL    HW2 3739   1.767   1.848   5.772
  855SOL    HW3 3740   1.657   1.894   5.866
  855SOL    MW4 3741   1.702   1.830   5.828
  856SOL     OW 3742   0.835   0.736   6.784
  856SOL    HW2 3743   0.793   0.654   6.760
  856SOL    HW3 3744   0.836   0.735   6.880
  856SOL    MW4 3745   0.828   0.725   6.793
  857SOL     OW 3746   1.506   1.869   7.183
  857SOL    HW2 3747   1.509   1.775   7.166
  857SOL    HW3 3748   1.529   1.877   7.275
  857SOL    MW4 3749   1.509   1.857   7.193
  858SOL     OW 3750   0.639   0.206   6.889
  858SOL    HW2 3751   0.570   0.269   6.910
  858SOL    HW3 3752   0.666   0.170   6.974
  858SOL    MW4 3753   0.633   0.209   6.902
  859SOL     OW 3754   0.022   1.047   5.758
  859SOL    HW2 3755  -0.009   1.112   5.821
  859SOL    HW3 3756  -0.029   0.969   5.777
  859SOL    MW4 3757   0.012   1.044   5.768
  860SOL     OW 3758   1.434   0.059   6.506
  860SOL    HW2 3759   1.522   0.068   6.543
  860SOL    HW3 3760   1.444   0.000   6.432
  860SOL    MW4 3761   1.448   0.053   6.500
  861SOL     OW 3762   1.466   0.798   6.350
  861SOL    HW2 3763   1.546   0.813   6.299
  861SOL    HW3 3764   1.459   0.703   6.356
  861SOL    MW4 3765   1.475   0.787   6.345
  862SOL     OW 3766   0.606   1.847   5.700
  862SOL    HW2 3767   0.511   1.847   5.692
  862SOL    HW3 3768   0.622   1.793   5.778
  862SOL    MW4 3769   0.596   1.841   5.709
  863SOL     OW 3770   0.916   0.724   7.047
  863SOL    HW2 3771   0.985   0.791   7.044
  863SOL    HW3 3772   0.849   0.762   7.103
  863SOL    MW4 3773   0.917   0.737   7.054
  864SOL     OW 3774   0.334   1.024   7.295
  864SOL    HW2 3775   0.288   0.940   7.297
  864SOL    HW3 3776   0.391   1.018   7.219
  864SOL    MW4 3777   0.336   1.012   7.287
  865SOL     OW 3778   1.451   0.667   5.615
  865SOL    HW2 3779   1.379   0.643   5.557
  865SOL    HW3 3780   1.517   0.704   5.557
  865SOL    MW4 3781   1.450   0.669   5.600
  866SOL     OW 3782   0.585   1.399   6.296
  866SOL    HW2 3783   0.650   1.332   6.317
  866SOL    HW3 3784   0.637   1.476   6.273
  866SOL    MW4 3785   0.600   1.401   6.295
  867SOL     OW 3786   0.846   0.564   6.426
  867SOL    HW2 3787   0.786   0.582   6.498
  867SOL    HW3 3788   0.880   0.476   6.445
  867SOL    MW4 3789   0.842   0.554   6.439
  868SOL     OW 3790   1.787   0.063   7.095
  868SOL    HW2 3791   1.708   0.109   7.123
  868SOL    HW3 3792   1.822   0.117   7.024
  868SOL    MW4 3793   1.781   0.076   7.089
  869SOL     OW 3794   1.071   1.147   6.445
  869SOL    HW2 3795   1.163   1.128   6.463
  869SOL    HW3 3796   1.044   1.077   6.385
  869SOL    MW4 3797   1.079   1.135   6.439
  870SOL     OW 3798   0.864   0.967   5.800
  870SOL    HW2 3799   0.850   0.879   5.765
  870SOL    HW3 3800   0.815   1.024   5.741
  870SOL    MW4 3801   0.856   0.962   5.788
  871SOL     OW 3802   1.345   1.385   6.541
  871SOL    HW2 3803   1.318   1.469   6.506
  871SOL    HW3 3804   1.305   1.380   6.628
  871SOL    MW4 3805   1.338   1.394   6.547
  872SOL     OW 3806   1.264   1.333   6.809
  872SOL    HW2 3807   1.275   1.300   6.898
  872SOL    HW3 3808   1.183   1.292   6.778
  872SOL    MW4 3809   1.254   1.325   6.815
  873SOL     OW 3810   0.277   0.691   6.579
  873SOL    HW2 3811   0.227   0.690   6.660
  873SOL    HW3 3812   0.297   0.783   6.563
  873SOL    MW4 3813   0.273   0.703   6.587
  874SOL     OW 3814   1.344   1.455   7.341
  874SOL    HW2 3815   1.344   1.549   7.357
  874SOL    HW3 3816   1.389   1.445   7.257
  874SOL    MW4 3817   1.350   1.465   7.332
  875SOL     OW 3818   1.583   0.173   5.902
  875SOL    HW2 3819   1.576   0.177   5.997
  875SOL    HW3 3820   1.595   0.264   5.875
  875SOL    MW4 3821   1.584   0.186   5.910
  876SOL     OW 3822   0.872   0.736   6.016
  876SOL    HW2 3823   0.852   0.722   5.923
  876SOL    HW3 3824   0.965   0.715   6.023
  876SOL    MW4 3825   0.882   0.731   6.005
  877SOL     OW 3826   0.199   0.359   7.320
  877SOL    HW2 3827   0.156   0.418   7.257
  877SOL    HW3 3828   0.267   0.414   7.360
  877SOL    MW4 3829   0.203   0.374   7.317
  878SOL     OW 3830   1.311   0.979   6.865
  878SOL    HW2 3831   1.374   0.976   6.938
  878SOL    HW3 3832   1.227   0.997   6.907
  878SOL    MW4 3833   1.307   0.981   6.880
  879SOL     OW 3834   0.855   1.694   6.054
  879SOL    HW2 3835   0.913   1.765   6.081
  879SOL    HW3 3836   0.878   1.622   6.112
  879SOL    MW4 3837   0.866   1.694   6.065
  880SOL     OW 3838   1.650   0.156   6.644
  880SOL    HW2 3839   1.695   0.074   6.663
  880SOL    HW3 3840   1.670   0.212   6.720
  880SOL    MW4 3841   1.660   0.152   6.656
  881SOL     OW 3842   0.098  -0.001   6.743
  881SOL    HW2 3843   0.089   0.000   6.648
  881SOL    HW3 3844   0.192   0.011   6.758
  881SOL    MW4 3845   0.110   0.002   6.734
  882SOL     OW 3846   1.735   1.192   6.363
  882SOL    HW2 3847   1.714   1.138   6.286
  882SOL    HW3 3848   1.831   1.190   6.367
  882SOL    MW4 3849   1.744   1.185   6.352
  883SOL     OW 3850   0.427   1.337   7.106
  883SOL    HW2 3851   0.348   1.287   7.129
  883SOL    HW3 3852   0.497   1.296   7.156
  883SOL    MW4 3853   0.425   1.325   7.116
  884SOL     OW 3854   0.311   0.126   5.789
  884SOL    HW2 3855   0.240   0.181   5.757
  884SOL    HW3 3856   0.353   0.092   5.710
  884SOL    MW4 3857   0.307   0.128   5.775
  885SOL     OW 3858   1.435   0.623   6.625
  885SOL    HW2 3859   1.358   0.669   6.591
  885SOL    HW3 3860   1.492   0.692   6.659
  885SOL    MW4 3861   1.432   0.638   6.625
  886SOL     OW 3862   0.067   0.225   5.638
  886SOL    HW2 3863   0.034   0.304   5.682
  886SOL    HW3 3864   0.122   0.258   5.567
  886SOL    MW4 3865   0.070   0.239   5.635
  887SOL     OW 3866   0.101   1.482   5.827
  887SOL    HW2 3867   0.118   1.566   5.869
  887SOL    HW3 3868   0.136   1.491   5.739
  887SOL    MW4 3869   0.106   1.495   5.821
  888SOL     OW 3870   1.373   1.571   6.044
  888SOL    HW2 3871   1.436   1.561   5.973
  888SOL    HW3 3872   1.290   1.591   5.999
  888SOL    MW4 3873   1.370   1.572   6.029
  889SOL     OW 3874   1.736   2.707   0.257
  889SOL    HW2 3875   1.777   2.649   0.322
  889SOL    HW3 3876   1.643   2.699   0.274
  889SOL    MW4 3877   1.730   2.699   0.267
  890SOL     OW 3878   1.602   2.639   1.252
  890SOL    HW2 3879   1.557   2.706   1.303
  890SOL    HW3 3880   1.690   2.675   1.238
  890SOL    MW4 3881   1.608   2.652   1.256
  891SOL     OW 3882   0.530   2.890   0.486
  891SOL    HW2 3883   0.620   2.865   0.470
  891SOL    HW3 3884   0.526   2.983   0.463
  891SOL    MW4 3885   0.542   2.899   0.481
  892SOL     OW 3886   1.646   3.593   0.628
  892SOL    HW2 3887   1.658   3.539   0.706
  892SOL    HW3 3888   1.683   3.541   0.557
  892SOL    MW4 3889   1.652   3.578   0.629
  893SOL     OW 3890   1.025   3.478   1.629
  893SOL    HW2 3891   1.066   3.514   1.550
  893SOL    HW3 3892   1.060   3.389   1.636
  893SOL    MW4 3893   1.036   3.471   1.620
  894SOL     OW 3894   1.582   3.033   1.233
  894SOL    HW2 3895   1.503   2.998   1.191
  894SOL    HW3 3896   1.609   3.105   1.177
  894SOL    MW4 3897   1.575   3.038   1.220
  895SOL     OW 3898   0.814   2.346   0.499
  895SOL    HW2 3899   0.789   2.434   0.527
  895SOL    HW3 3900   0.811   2.349   0.403
  895SOL    MW4 3901   0.810   2.358   0.491
  896SOL     OW 3902   0.256   2.374   0.427
  896SOL    HW2 3903   0.288   2.462   0.409
  896SOL    HW3 3904   0.244   2.372   0.522
  896SOL    MW4 3905   0.259   2.386   0.439
  897SOL     OW 3906   0.334   2.787   1.328
  897SOL    HW2 3907   0.397   2.734   1.279
  897SOL    HW3 3908   0.315   2.861   1.271
  897SOL    MW4 3909   0.340   2.789   1.315
  898SOL     OW 3910   0.655   2.129   0.514
  898SOL    HW2 3911   0.713   2.205   0.516
  898SOL    HW3 3912   0.590   2.150   0.447
  898SOL    MW4 3913   0.654   2.141   0.505
  899SOL     OW 3914   0.742   3.056   0.689
  899SOL    HW2 3915   0.822   3.059   0.741
  899SOL    HW3 3916   0.770   3.023   0.603
  899SOL    MW4 3917   0.756   3.052   0.684
  900SOL     OW 3918   0.767   3.397   1.592
  900SOL    HW2 3919   0.851   3.423   1.631
  900SOL    HW3 3920   0.791   3.341   1.518
  900SOL    MW4 3921   0.781   3.393   1.587
  901SOL     OW 3922   0.519   2.560   0.680
  901SOL    HW2 3923   0.504   2.480   0.731
  901SOL    HW3 3924   0.601   2.595   0.714
  901SOL    MW4 3925   0.527   2.552   0.692
  902SOL     OW 3926   0.856   3.246   1.365
  902SOL    HW2 3927   0.820   3.312   1.305
  902SOL    HW3 3928   0.784   3.184   1.378
  902SOL    MW4 3929   0.842   3.246   1.359
  903SOL     OW 3930   0.661   2.386   1.057
  903SOL    HW2 3931   0.567   2.382   1.075
  903SOL    HW3 3932   0.691   2.295   1.066
  903SOL    MW4 3933   0.652   2.374   1.060
  904SOL     OW 3934   0.407   2.800   0.961
  904SOL    HW2 3935   0.362   2.807   0.877
  904SOL    HW3 3936   0.387   2.883   1.005
  904SOL    MW4 3937   0.399   2.812   0.955
  905SOL     OW 3938   0.104   3.646   0.836
  905SOL    HW2 3939   0.193   3.638   0.871
  905SOL    HW3 3940   0.068   3.558   0.841
  905SOL    MW4 3941   0.111   3.633   0.841
  906SOL     OW 3942   1.369   3.038   0.205
  906SOL    HW2 3943   1.287   3.074   0.171
  906SOL    HW3 3944   1.437   3.081   0.154
  906SOL    MW4 3945   1.367   3.048   0.193
  907SOL     OW 3946   0.368   3.173   0.871
  907SOL    HW2 3947   0.344   3.226   0.947
  907SOL    HW3 3948   0.424   3.231   0.819
  907SOL    MW4 3949   0.372   3.188   0.874
  908SOL     OW 3950   0.930   2.817   0.681
  908SOL    HW2 3951   0.844   2.804   0.721
  908SOL    HW3 3952   0.983   2.744   0.713
  908SOL    MW4 3953   0.926   2.806   0.690
  909SOL     OW 3954   0.338   3.469   1.466
  909SOL    HW2 3955   0.246   3.445   1.451
  909SOL    HW3 3956   0.382   3.386   1.483
  909SOL    MW4 3957   0.332   3.454   1.465
  910SOL     OW 3958   0.921   3.179   0.398
  910SOL    HW2 3959   0.898   3.241   0.466
  910SOL    HW3 3960   0.878   3.097   0.424
  910SOL    MW4 3961   0.913   3.175   0.409
  911SOL     OW 3962   1.794   2.180   0.854
  911SOL    HW2 3963   1.731   2.160   0.923
  911SOL    HW3 3964   1.784   2.109   0.791
  911SOL    MW4 3965   1.784   2.167   0.855
  912SOL     OW 3966   0.418   2.152   0.366
  912SOL    HW2 3967   0.392   2.114   0.282
  912SOL    HW3 3968   0.355   2.222   0.382
  912SOL    MW4 3969   0.407   2.155   0.357
  913SOL     OW 3970   0.253   3.113   0.403
  913SOL    HW2 3971   0.201   3.181   0.359
  913SOL    HW3 3972   0.250   3.039   0.343
  913SOL    MW4 3973   0.245   3.112   0.390
  914SOL     OW 3974   0.915   3.576   0.181
  914SOL    HW2 3975   0.870   3.592   0.264
  914SOL    HW3 3976   0.846   3.541   0.123
  914SOL    MW4 3977   0.901   3.573   0.183
  915SOL     OW 3978   1.850   2.349   0.156
  915SOL    HW2 3979   1.759   2.351   0.184
  915SOL    HW3 3980   1.895   2.411   0.214
  915SOL    MW4 3981   1.843   2.357   0.166
  916SOL     OW 3982   1.595   2.952   0.506
  916SOL    HW2 3983   1.505   2.952   0.541
  916SOL    HW3 3984   1.588   2.998   0.423
  916SOL    MW4 3985   1.582   2.958   0.500
  917SOL     OW 3986   1.395   2.587   1.578
  917SOL    HW2 3987   1.464   2.525   1.555
  917SOL    HW3 3988   1.320   2.561   1.525
  917SOL    MW4 3989   1.395   2.574   1.569
  918SOL     OW 3990   0.136   3.467   1.130
  918SOL    HW2 3991   0.119   3.413   1.207
  918SOL    HW3 3992   0.124   3.557   1.160
  918SOL    MW4 3993   0.133   3.471   1.144
  919SOL     OW 3994   1.131   2.974   1.570
  919SOL    HW2 3995   1.116   3.067   1.555
  919SOL    HW3 3996   1.226   2.964   1.570
  919SOL    MW4 3997   1.140   2.984   1.567
  920SOL     OW 3998   0.927   2.398   1.771
  920SOL    HW2 3999   1.017   2.399   1.738
  920SOL    HW3 4000   0.886   2.323   1.729
  920SOL    MW4 4001   0.933   2.388   1.762
  921SOL     OW 4002   1.502   2.930   0.898
  921SOL    HW2 4003   1.505   2.864   0.829
  921SOL    HW3 4004   1.587   2.973   0.894
  921SOL    MW4 4005   1.514   2.926   0.889
  922SOL     OW 4006   1.122   2.533   0.467
  922SOL    HW2 4007   1.148   2.557   0.378
  922SOL    HW3 4008   1.104   2.440   0.463
  922SOL    MW4 4009   1.124   2.525   0.454
  923SOL     OW 4010   1.787   3.153   0.318
  923SOL    HW2 4011   1.743   3.194   0.393
  923SOL    HW3 4012   1.844   3.221   0.283
  923SOL    MW4 4013   1.789   3.167   0.323
  924SOL     OW 4014   0.707   2.202   1.721
  924SOL    HW2 4015   0.717   2.128   1.661
  924SOL    HW3 4016   0.743   2.171   1.804
  924SOL    MW4 4017   0.713   2.188   1.723
  925SOL     OW 4018   0.443   3.569   0.636
  925SOL    HW2 4019   0.475   3.657   0.614
  925SOL    HW3 4020   0.396   3.541   0.558
  925SOL    MW4 4021   0.442   3.577   0.623
  926SOL     OW 4022   1.827   1.931   0.685
  926SOL    HW2 4023   1.881   1.882   0.747
  926SOL    HW3 4024   1.770   1.865   0.646
  926SOL    MW4 4025   1.827   1.915   0.687
  927SOL     OW 4026   0.159   3.629   0.213
  927SOL    HW2 4027   0.188   3.719   0.205
  927SOL    HW3 4028   0.109   3.612   0.134
  927SOL    MW4 4029   0.157   3.637   0.202
  928SOL     OW 4030   0.946   1.884   1.098
  928SOL    HW2 4031   0.905   1.962   1.060
  928SOL    HW3 4032   1.040   1.902   1.093
  928SOL    MW4 4033   0.952   1.896   1.093
  929SOL     OW 4034   1.563   3.437   0.184
  929SOL    HW2 4035   1.611   3.506   0.230
  929SOL    HW3 4036   1.484   3.481   0.153
  929SOL    MW4 4037   1.558   3.451   0.187
  930SOL     OW 4038   0.961   2.562   0.128
  930SOL    HW2 4039   0.963   2.509   0.049
  930SOL    HW3 4040   1.049   2.599   0.134
  930SOL    MW4 4041   0.973   2.561   0.117
  931SOL     OW 4042   1.575   2.488   0.464
  931SOL    HW2 4043   1.614   2.488   0.551
  931SOL    HW3 4044   1.516   2.564   0.464
  931SOL    MW4 4045   1.572   2.499   0.475
  932SOL     OW 4046   0.892   2.855   1.593
  932SOL    HW2 4047   0.869   2.835   1.683
  932SOL    HW3 4048   0.977   2.899   1.598
  932SOL    MW4 4049   0.899   2.858   1.605
  933SOL     OW 4050   0.972   1.992   1.353
  933SOL    HW2 4051   0.978   1.954   1.266
  933SOL    HW3 4052   0.961   2.086   1.338
  933SOL    MW4 4053   0.973   2.000   1.341
  934SOL     OW 4054   1.061   2.481   1.187
  934SOL    HW2 4055   1.136   2.510   1.134
  934SOL    HW3 4056   0.993   2.546   1.171
  934SOL    MW4 4057   1.062   2.493   1.177
  935SOL     OW 4058   1.611   2.449   1.464
  935SOL    HW2 4059   1.592   2.358   1.443
  935SOL    HW3 4060   1.589   2.498   1.385
  935SOL    MW4 4061   1.606   2.442   1.451
  936SOL     OW 4062   1.753   3.543   1.368
  936SOL    HW2 4063   1.681   3.505   1.419
  936SOL    HW3 4064   1.770   3.628   1.409
  936SOL    MW4 4065   1.747   3.548   1.380
  937SOL     OW 4066   1.058   2.187   1.570
  937SOL    HW2 4067   1.024   2.226   1.489
  937SOL    HW3 4068   1.036   2.095   1.563
  937SOL    MW4 4069   1.051   2.180   1.560
  938SOL     OW 4070   1.467   3.001   1.646
  938SOL    HW2 4071   1.549   3.042   1.676
  938SOL    HW3 4072   1.430   2.963   1.726
  938SOL    MW4 4073   1.473   3.002   1.661
  939SOL     OW 4074   1.762   2.374   0.630
  939SOL    HW2 4075   1.851   2.343   0.647
  939SOL    HW3 4076   1.705   2.314   0.678
  939SOL    MW4 4077   1.765   2.362   0.639
  940SOL     OW 4078   0.188   2.088   0.659
  940SOL    HW2 4079   0.179   2.028   0.585
  940SOL    HW3 4080   0.121   2.059   0.722
  940SOL    MW4 4081   0.178   2.075   0.657
  941SOL     OW 4082   1.131   3.181   0.220
  941SOL    HW2 4083   1.081   3.183   0.302
  941SOL    HW3 4084   1.065   3.199   0.152
  941SOL    MW4 4085   1.117   3.183   0.222
  942SOL     OW 4086   0.135   2.261   1.022
  942SOL    HW2 4087   0.107   2.352   1.031
  942SOL    HW3 4088   0.072   2.222   0.961
  942SOL    MW4 4089   0.122   2.267   1.016
  943SOL     OW 4090   0.594   3.599   0.328
  943SOL    HW2 4091   0.515   3.557   0.361
  943SOL    HW3 4092   0.660   3.582   0.395
  943SOL    MW4 4093   0.593   3.591   0.341
  944SOL     OW 4094   1.722   3.119   1.725
  944SOL    HW2 4095   1.772   3.045   1.757
  944SOL    HW3 4096   1.668   3.146   1.800
  944SOL    MW4 4097   1.722   3.113   1.738
  945SOL     OW 4098   0.730   3.014   0.035
  945SOL    HW2 4099   0.652   2.960   0.022
  945SOL    HW3 4100   0.701   3.087   0.088
  945SOL    MW4 4101   0.716   3.016   0.040
  946SOL     OW 4102   1.856   2.754   1.227
  946SOL    HW2 4103   1.872   2.792   1.140
  946SOL    HW3 4104   1.890   2.820   1.288
  946SOL    MW4 4105   1.863   2.767   1.223
  947SOL     OW 4106   1.648   3.463   0.896
  947SOL    HW2 4107   1.677   3.530   0.957
  947SOL    HW3 4108   1.629   3.387   0.951
  947SOL    MW4 4109   1.650   3.463   0.911
  948SOL     OW 4110   1.311   3.530   0.103
  948SOL    HW2 4111   1.237   3.493   0.153
  948SOL    HW3 4112   1.319   3.620   0.136
  948SOL    MW4 4113   1.302   3.537   0.115
  949SOL     OW 4114   0.119   2.536   1.192
  949SOL    HW2 4115   0.181   2.566   1.258
  949SOL    HW3 4116   0.053   2.605   1.186
  949SOL    MW4 4117   0.118   2.549   1.199
  950SOL     OW 4118   1.535   3.204   0.045
  950SOL    HW2 4119   1.482   3.253  -0.019
  950SOL    HW3 4120   1.566   3.270   0.106
  950SOL    MW4 4121   1.533   3.218   0.043
  951SOL     OW 4122   0.760   2.093   0.100
  951SOL    HW2 4123   0.708   2.013   0.088
  951SOL    HW3 4124   0.847   2.070   0.068
  951SOL    MW4 4125   0.763   2.079   0.094
  952SOL     OW 4126   0.214   3.645   1.644
  952SOL    HW2 4127   0.188   3.713   1.582
  952SOL    HW3 4128   0.262   3.582   1.592
  952SOL    MW4 4129   0.216   3.645   1.630
  953SOL     OW 4130   0.266   2.964   1.151
  953SOL    HW2 4131   0.319   3.039   1.176
  953SOL    HW3 4132   0.185   3.002   1.117
  953SOL    MW4 4133   0.262   2.979   1.151
  954SOL     OW 4134   0.806   2.868   1.139
  954SOL    HW2 4135   0.834   2.777   1.151
  954SOL    HW3 4136   0.735   2.862   1.075
  954SOL    MW4 4137   0.799   2.856   1.134
  955SOL     OW 4138   0.121   2.733   0.557
  955SOL    HW2 4139   0.212   2.748   0.584
  955SOL    HW3 4140   0.124   2.654   0.503
  955SOL    MW4 4141   0.133   2.725   0.555
  956SOL     OW 4142   0.357   2.441   1.811
  956SOL    HW2 4143   0.304   2.521   1.818
  956SOL    HW3 4144   0.427   2.453   1.876
  956SOL    MW4 4145   0.359   2.454   1.819
  957SOL     OW 4146   0.743   1.991   1.518
  957SOL    HW2 4147   0.720   1.899   1.520
  957SOL    HW3 4148   0.829   1.993   1.475
  957SOL    MW4 4149   0.750   1.981   1.514
  958SOL     OW 4150   0.427   2.515   1.557
  958SOL    HW2 4151   0.507   2.565   1.543
  958SOL    HW3 4152   0.418   2.509   1.652
  958SOL    MW4 4153   0.436   2.521   1.567
  959SOL     OW 4154   0.748   3.665   0.931
  959SOL    HW2 4155   0.837   3.680   0.961
  959SOL    HW3 4156   0.743   3.712   0.847
  959SOL    MW4 4157   0.758   3.673   0.924
  960SOL     OW 4158   1.404   2.040   1.828
  960SOL    HW2 4159   1.460   1.967   1.854
  960SOL    HW3 4160   1.374   2.078   1.910
  960SOL    MW4 4161   1.408   2.035   1.841
  961SOL     OW 4162   0.129   3.345   0.596
  961SOL    HW2 4163   0.101   3.384   0.678
  961SOL    HW3 4164   0.149   3.254   0.618
  961SOL    MW4 4165   0.127   3.337   0.609
  962SOL     OW 4166   0.962   3.388   0.631
  962SOL    HW2 4167   1.045   3.342   0.615
  962SOL    HW3 4168   0.952   3.387   0.727
  962SOL    MW4 4169   0.972   3.381   0.641
  963SOL     OW 4170   1.794   2.533   0.945
  963SOL    HW2 4171   1.883   2.563   0.927
  963SOL    HW3 4172   1.774   2.473   0.874
  963SOL    MW4 4173   1.803   2.530   0.934
  964SOL     OW 4174   1.645   2.712   1.825
  964SOL    HW2 4175   1.700   2.636   1.806
  964SOL    HW3 4176   1.647   2.720   1.920
  964SOL    MW4 4177   1.653   2.703   1.833
  965SOL     OW 4178   0.695   3.445   0.036
  965SOL    HW2 4179   0.635   3.514   0.006
  965SOL    HW3 4180   0.640   3.387   0.089
  965SOL    MW4 4181   0.679   3.447   0.038
  966SOL     OW 4182   1.133   2.090   0.259
  966SOL    HW2 4183   1.066   2.066   0.196
  966SOL    HW3 4184   1.198   2.139   0.208
  966SOL    MW4 4185   1.133   2.092   0.244
  967SOL     OW 4186   0.940   2.274   1.344
  967SOL    HW2 4187   0.859   2.315   1.372
  967SOL    HW3 4188   0.987   2.342   1.296
  967SOL    MW4 4189   0.935   2.289   1.342
  968SOL     OW 4190   1.200   2.612   0.967
  968SOL    HW2 4191   1.213   2.706   0.977
  968SOL    HW3 4192   1.161   2.602   0.881
  968SOL    MW4 4193   1.196   2.623   0.957
  969SOL     OW 4194   0.652   2.807   0.771
  969SOL    HW2 4195   0.563   2.798   0.804
  969SOL    HW3 4196   0.656   2.897   0.739
  969SOL    MW4 4197   0.641   2.818   0.771
  970SOL     OW 4198   1.451   2.390   0.766
  970SOL    HW2 4199   1.396   2.311   0.765
  970SOL    HW3 4200   1.433   2.431   0.850
  970SOL    MW4 4201   1.441   2.385   0.775
  971SOL     OW 4202   0.422   2.077   1.583
  971SOL    HW2 4203   0.343   2.095   1.635
  971SOL    HW3 4204   0.417   2.139   1.510
  971SOL    MW4 4205   0.412   2.087   1.580
  972SOL     OW 4206   1.070   2.594   0.723
  972SOL    HW2 4207   1.007   2.526   0.747
  972SOL    HW3 4208   1.090   2.575   0.631
  972SOL    MW4 4209   1.064   2.581   0.715
  973SOL     OW 4210   0.326   3.489   0.425
  973SOL    HW2 4211   0.287   3.536   0.351
  973SOL    HW3 4212   0.260   3.424   0.450
  973SOL    MW4 4213   0.313   3.487   0.419
  974SOL     OW 4214   0.818   2.898   0.449
  974SOL    HW2 4215   0.820   2.872   0.356
  974SOL    HW3 4216   0.876   2.835   0.492
  974SOL    MW4 4217   0.826   2.887   0.443
  975SOL     OW 4218   1.371   3.458   1.221
  975SOL    HW2 4219   1.296   3.504   1.259
  975SOL    HW3 4220   1.353   3.365   1.238
  975SOL    MW4 4221   1.360   3.452   1.229
  976SOL     OW 4222   1.375   3.666   0.651
  976SOL    HW2 4223   1.318   3.619   0.590
  976SOL    HW3 4224   1.461   3.627   0.638
  976SOL    MW4 4225   1.378   3.657   0.641
  977SOL     OW 4226   1.328   2.142   0.782
  977SOL    HW2 4227   1.356   2.074   0.843
  977SOL    HW3 4228   1.242   2.113   0.752
  977SOL    MW4 4229   1.321   2.129   0.786
  978SOL     OW 4230   0.133   3.076   0.716
  978SOL    HW2 4231   0.197   3.108   0.779
  978SOL    HW3 4232   0.182   3.012   0.664
  978SOL    MW4 4233   0.148   3.072   0.717
  979SOL     OW 4234   0.633   3.152   1.698
  979SOL    HW2 4235   0.681   3.235   1.685
  979SOL    HW3 4236   0.690   3.100   1.754
  979SOL    MW4 4237   0.647   3.156   1.704
  980SOL     OW 4238   0.209   3.394   1.838
  980SOL    HW2 4239   0.265   3.318   1.853
  980SOL    HW3 4240   0.158   3.372   1.760
  980SOL    MW4 4241   0.209   3.381   1.829
  981SOL     OW 4242   1.308   2.246   0.117
  981SOL    HW2 4243   1.281   2.312   0.053
  981SOL    HW3 4244   1.378   2.289   0.167
  981SOL    MW4 4245   1.313   2.259   0.114
  982SOL     OW 4246   0.976   1.951   0.054
  982SOL    HW2 4247   1.032   1.943  -0.024
  982SOL    HW3 4248   0.953   1.861   0.076
  982SOL    MW4 4249   0.981   1.938   0.047
  983SOL     OW 4250   1.481   2.802   0.259
  983SOL    HW2 4251   1.448   2.891   0.249
  983SOL    HW3 4252   1.446   2.773   0.344
  983SOL    MW4 4253   1.471   2.811   0.270
  984SOL     OW 4254   1.094   3.231   1.447
  984SOL    HW2 4255   1.005   3.237   1.415
  984SOL    HW3 4256   1.138   3.310   1.415
  984SOL    MW4 4257   1.089   3.241   1.439
  985SOL     OW 4258   0.387   1.899   1.789
  985SOL    HW2 4259   0.315   1.864   1.737
  985SOL    HW3 4260   0.445   1.940   1.724
  985SOL    MW4 4261   0.385   1.900   1.774
  986SOL     OW 4262   0.411   3.389   1.088
  986SOL    HW2 4263   0.456   3.451   1.145
  986SOL    HW3 4264   0.318   3.408   1.101
  986SOL    MW4 4265   0.404   3.399   1.095
  987SOL     OW 4266   1.851   2.918   1.442
  987SOL    HW2 4267   1.766   2.931   1.401
  987SOL    HW3 4268   1.831   2.882   1.529
  987SOL    MW4 4269   1.838   2.914   1.447
  988SOL     OW 4270   0.833   3.457   1.196
  988SOL    HW2 4271   0.857   3.446   1.105
  988SOL    HW3 4272   0.756   3.514   1.194
  988SOL    MW4 4273   0.825   3.462   1.185
  989SOL     OW 4274   0.475   2.840   0.051
  989SOL    HW2 4275   0.398   2.853   0.107
  989SOL    HW3 4276   0.439   2.804  -0.030
  989SOL    MW4 4277   0.461   2.836   0.048
  990SOL     OW 4278   1.128   2.813   0.294
  990SOL    HW2 4279   1.038   2.834   0.269
  990SOL    HW3 4280   1.155   2.886   0.350
  990SOL    MW4 4281   1.120   2.825   0.297
  991SOL     OW 4282   0.628   3.162   0.986
  991SOL    HW2 4283   0.621   3.141   1.080
  991SOL    HW3 4284   0.546   3.130   0.949
  991SOL    MW4 4285   0.616   3.156   0.993
  992SOL     OW 4286   1.492   2.172   1.388
  992SOL    HW2 4287   1.439   2.174   1.468
  992SOL    HW3 4288   1.477   2.085   1.351
  992SOL    MW4 4289   1.484   2.162   1.393
  993SOL     OW 4290   1.828   2.096   1.261
  993SOL    HW2 4291   1.809   2.163   1.196
  993SOL    HW3 4292   1.885   2.034   1.216
  993SOL    MW4 4293   1.832   2.097   1.247
  994SOL     OW 4294   0.074   3.254   1.649
  994SOL    HW2 4295   0.118   3.187   1.595
  994SOL    HW3 4296  -0.011   3.216   1.669
  994SOL    MW4 4297   0.069   3.240   1.645
  995SOL     OW 4298   0.757   1.929   0.701
  995SOL    HW2 4299   0.686   1.990   0.683
  995SOL    HW3 4300   0.808   1.926   0.620
  995SOL    MW4 4301   0.753   1.935   0.688
  996SOL     OW 4302   0.515   3.169   0.450
  996SOL    HW2 4303   0.508   3.201   0.540
  996SOL    HW3 4304   0.425   3.153   0.422
  996SOL    MW4 4305   0.503   3.171   0.457
  997SOL     OW 4306   1.110   3.562   1.359
  997SOL    HW2 4307   1.030   3.547   1.309
  997SOL    HW3 4308   1.117   3.657   1.366
  997SOL    MW4 4309   1.101   3.573   1.353
  998SOL     OW 4310   1.224   3.527   0.849
  998SOL    HW2 4311   1.271   3.600   0.808
  998SOL    HW3 4312   1.145   3.566   0.885
  998SOL    MW4 4313   1.219   3.542   0.848
  999SOL     OW 4314   1.632   3.622   1.124
  999SOL    HW2 4315   1.675   3.592   1.204
  999SOL    HW3 4316   1.551   3.570   1.121
  999SOL    MW4 4317   1.627   3.611   1.134
 1000SOL     OW 4318   0.717   2.586   1.831
 1000SOL    HW2 4319   0.787   2.528   1.803
 1000SOL    HW3 4320   0.660   2.531   1.886
 1000SOL    MW4 4321   0.719   2.573   1.835
 1001SOL     OW 4322   1.504   2.798   1.464
 1001SOL    HW2 4323   1.509   2.851   1.544
 1001SOL    HW3 4324   1.466   2.715   1.492
 1001SOL    MW4 4325   1.500   2.793   1.479
 1002SOL     OW 4326   1.144   1.933   1.710
 1002SOL    HW2 4327   1.139   1.840   1.691
 1002SOL    HW3 4328   1.227   1.944   1.756
 1002SOL    MW4 4329   1.152   1.922   1.714
 1003SOL     OW 4330   0.518   2.453   0.164
 1003SOL    HW2 4331   0.484   2.509   0.234
 1003SOL    HW3 4332   0.589   2.403   0.204
 1003SOL    MW4 4333   0.524   2.454   0.178
 1004SOL     OW 4334   1.614   3.204   0.986
 1004SOL    HW2 4335   1.649   3.186   0.899
 1004SOL    HW3 4336   1.519   3.205   0.973
 1004SOL    MW4 4337   1.606   3.201   0.973
 1005SOL     OW 4338   1.043   2.852   1.355
 1005SOL    HW2 4339   1.086   2.887   1.433
 1005SOL    HW3 4340   1.026   2.929   1.301
 1005SOL    MW4 4341   1.046   2.867   1.358
 1006SOL     OW 4342   1.574   2.339   0.228
 1006SOL    HW2 4343   1.566   2.410   0.165
 1006SOL    HW3 4344   1.592   2.383   0.311
 1006SOL    MW4 4345   1.575   2.353   0.230
 1007SOL     OW 4346   0.434   1.994   0.657
 1007SOL    HW2 4347   0.484   2.037   0.588
 1007SOL    HW3 4348   0.349   2.038   0.657
 1007SOL    MW4 4349   0.431   2.007   0.648
 1008SOL     OW 4350   0.193   3.056   1.517
 1008SOL    HW2 4351   0.221   3.009   1.595
 1008SOL    HW3 4352   0.114   3.011   1.488
 1008SOL    MW4 4353   0.186   3.045   1.523
 1009SOL     OW 4354   0.701   2.383   1.484
 1009SOL    HW2 4355   0.673   2.471   1.508
 1009SOL    HW3 4356   0.670   2.327   1.555
 1009SOL    MW4 4357   0.693   2.386   1.496
 1010SOL     OW 4358   1.243   2.601   0.203
 1010SOL    HW2 4359   1.290   2.619   0.122
 1010SOL    HW3 4360   1.209   2.685   0.231
 1010SOL    MW4 4361   1.245   2.615   0.196
 1011SOL     OW 4362   0.356   2.779   0.697
 1011SOL    HW2 4363   0.414   2.835   0.645
 1011SOL    HW3 4364   0.400   2.694   0.699
 1011SOL    MW4 4365   0.369   2.776   0.690
 1012SOL     OW 4366   1.496   2.131   0.534
 1012SOL    HW2 4367   1.418   2.081   0.559
 1012SOL    HW3 4368   1.467   2.222   0.534
 1012SOL    MW4 4369   1.482   2.135   0.537
 1013SOL     OW 4370   1.082   2.093   0.693
 1013SOL    HW2 4371   1.102   2.168   0.637
 1013SOL    HW3 4372   1.062   2.132   0.778
 1013SOL    MW4 4373   1.083   2.109   0.697
 1014SOL     OW 4374   0.978   3.343   0.025
 1014SOL    HW2 4375   1.005   3.421  -0.023
 1014SOL    HW3 4376   0.885   3.358   0.044
 1014SOL    MW4 4377   0.969   3.356   0.021
 1015SOL     OW 4378   1.842   2.866   1.712
 1015SOL    HW2 4379   1.755   2.846   1.748
 1015SOL    HW3 4380   1.896   2.792   1.737
 1015SOL    MW4 4381   1.837   2.855   1.720
 1016SOL     OW 4382   0.063   3.379   0.869
 1016SOL    HW2 4383   0.095   3.383   0.960
 1016SOL    HW3 4384  -0.032   3.387   0.877
 1016SOL    MW4 4385   0.055   3.382   0.882
 1017SOL     OW 4386   0.018   2.505   0.416
 1017SOL    HW2 4387  -0.042   2.477   0.486
 1017SOL    HW3 4388   0.092   2.445   0.422
 1017SOL    MW4 4389   0.020   2.494   0.425
 1018SOL     OW 4390   1.586   3.717   1.850
 1018SOL    HW2 4391   1.631   3.641   1.815
 1018SOL    HW3 4392   1.624   3.730   1.937
 1018SOL    MW4 4393   1.596   3.710   1.856
 1019SOL     OW 4394   1.186   3.236   0.576
 1019SOL    HW2 4395   1.209   3.187   0.654
 1019SOL    HW3 4396   1.267   3.278   0.548
 1019SOL    MW4 4397   1.199   3.236   0.583
 1020SOL     OW 4398   0.444   2.244   1.305
 1020SOL    HW2 4399   0.477   2.325   1.345
 1020SOL    HW3 4400   0.417   2.270   1.217
 1020SOL    MW4 4401   0.443   2.258   1.299
 1021SOL     OW 4402   0.398   2.211   1.041
 1021SOL    HW2 4403   0.428   2.125   1.012
 1021SOL    HW3 4404   0.303   2.204   1.044
 1021SOL    MW4 4405   0.390   2.200   1.039
 1022SOL     OW 4406   1.227   2.420   1.732
 1022SOL    HW2 4407   1.279   2.355   1.685
 1022SOL    HW3 4408   1.185   2.471   1.662
 1022SOL    MW4 4409   1.228   2.417   1.715
 1023SOL     OW 4410   1.326   2.215   1.593
 1023SOL    HW2 4411   1.233   2.199   1.580
 1023SOL    HW3 4412   1.352   2.153   1.661
 1023SOL    MW4 4413   1.316   2.205   1.600
 1024SOL     OW 4414   0.541   1.989   0.932
 1024SOL    HW2 4415   0.551   1.898   0.958
 1024SOL    HW3 4416   0.497   1.985   0.847
 1024SOL    MW4 4417   0.537   1.977   0.924
 1025SOL     OW 4418   0.635   3.604   1.478
 1025SOL    HW2 4419   0.552   3.589   1.523
 1025SOL    HW3 4420   0.694   3.537   1.513
 1025SOL    MW4 4421   0.633   3.594   1.488
 1026SOL     OW 4422   1.692   2.311   1.103
 1026SOL    HW2 4423   1.625   2.344   1.163
 1026SOL    HW3 4424   1.735   2.389   1.069
 1026SOL    MW4 4425   1.690   2.326   1.107
 1027SOL     OW 4426   1.870   3.031   1.073
 1027SOL    HW2 4427   1.863   2.971   0.998
 1027SOL    HW3 4428   1.796   3.091   1.062
 1027SOL    MW4 4429   1.860   3.031   1.062
 1028SOL     OW 4430   1.252   2.893   0.991
 1028SOL    HW2 4431   1.266   2.865   1.082
 1028SOL    HW3 4432   1.338   2.924   0.963
 1028SOL    MW4 4433   1.265   2.894   1.000
 1029SOL     OW 4434   1.335   2.388   1.270
 1029SOL    HW2 4435   1.356   2.389   1.177
 1029SOL    HW3 4436   1.380   2.310   1.303
 1029SOL    MW4 4437   1.342   2.378   1.262
 1030SOL     OW 4438   1.828   2.519   1.812
 1030SOL    HW2 4439   1.865   2.464   1.881
 1030SOL    HW3 4440   1.853   2.476   1.730
 1030SOL    MW4 4441   1.835   2.507   1.811
 1031SOL     OW 4442   1.375   2.817   1.863
 1031SOL    HW2 4443   1.441   2.765   1.817
 1031SOL    HW3 4444   1.395   2.804   1.956
 1031SOL    MW4 4445   1.386   2.808   1.870
 1032SOL     OW 4446   1.326   1.903   0.212
 1032SOL    HW2 4447   1.400   1.947   0.255
 1032SOL    HW3 4448   1.250   1.957   0.234
 1032SOL    MW4 4449   1.326   1.915   0.220
 1033SOL     OW 4450   1.386   2.678   0.490
 1033SOL    HW2 4451   1.301   2.648   0.460
 1033SOL    HW3 4452   1.378   2.685   0.585
 1033SOL    MW4 4453   1.374   2.676   0.499
 1034SOL     OW 4454   0.462   3.141   1.221
 1034SOL    HW2 4455   0.474   3.168   1.312
 1034SOL    HW3 4456   0.443   3.222   1.174
 1034SOL    MW4 4457   0.461   3.156   1.226
 1035SOL     OW 4458   0.746   2.121   1.044
 1035SOL    HW2 4459   0.719   2.123   1.135
 1035SOL    HW3 4460   0.676   2.073   0.999
 1035SOL    MW4 4461   0.734   2.117   1.051
 1036SOL     OW 4462   0.600   3.613   1.206
 1036SOL    HW2 4463   0.652   3.690   1.183
 1036SOL    HW3 4464   0.609   3.605   1.301
 1036SOL    MW4 4465   0.609   3.620   1.217
 1037SOL     OW 4466   1.502   3.198   1.438
 1037SOL    HW2 4467   1.487   3.127   1.501
 1037SOL    HW3 4468   1.548   3.156   1.366
 1037SOL    MW4 4469   1.508   3.182   1.438
 1038SOL     OW 4470   0.576   2.929   1.555
 1038SOL    HW2 4471   0.613   2.934   1.467
 1038SOL    HW3 4472   0.615   3.002   1.602
 1038SOL    MW4 4473   0.586   2.939   1.550
 1039SOL     OW 4474   0.756   2.972   1.367
 1039SOL    HW2 4475   0.815   2.918   1.420
 1039SOL    HW3 4476   0.771   2.944   1.277
 1039SOL    MW4 4477   0.766   2.961   1.363
 1040SOL     OW 4478   0.759   2.344   0.216
 1040SOL    HW2 4479   0.832   2.393   0.179
 1040SOL    HW3 4480   0.775   2.253   0.190
 1040SOL    MW4 4481   0.771   2.339   0.209
 1041SOL     OW 4482   1.567   3.461   1.539
 1041SOL    HW2 4483   1.609   3.446   1.624
 1041SOL    HW3 4484   1.558   3.374   1.501
 1041SOL    MW4 4485   1.571   3.449   1.546
 1042SOL     OW 4486   1.227   1.940   1.130
 1042SOL    HW2 4487   1.282   1.949   1.052
 1042SOL    HW3 4488   1.282   1.974   1.201
 1042SOL    MW4 4489   1.241   1.945   1.129
 1043SOL     OW 4490   0.234   2.853   0.314
 1043SOL    HW2 4491   0.171   2.869   0.243
 1043SOL    HW3 4492   0.181   2.816   0.385
 1043SOL    MW4 4493   0.219   2.850   0.314
 1044SOL     OW 4494   0.590   3.207   0.173
 1044SOL    HW2 4495   0.605   3.183   0.265
 1044SOL    HW3 4496   0.498   3.185   0.157
 1044SOL    MW4 4497   0.580   3.200   0.183
 1045SOL     OW 4498   1.129   3.438   0.325
 1045SOL    HW2 4499   1.137   3.356   0.276
 1045SOL    HW3 4500   1.048   3.477   0.292
 1045SOL    MW4 4501   1.119   3.433   0.315
 1046SOL     OW 4502   0.388   3.596   0.894
 1046SOL    HW2 4503   0.392   3.507   0.929
 1046SOL    HW3 4504   0.414   3.587   0.803
 1046SOL    MW4 4505   0.391   3.584   0.886
 1047SOL     OW 4506   1.005   3.074   1.137
 1047SOL    HW2 4507   0.937   3.008   1.153
 1047SOL    HW3 4508   1.023   3.068   1.044
 1047SOL    MW4 4509   0.998   3.065   1.128
 1048SOL     OW 4510   0.094   3.349   1.388
 1048SOL    HW2 4511   0.084   3.307   1.474
 1048SOL    HW3 4512   0.015   3.402   1.378
 1048SOL    MW4 4513   0.083   3.350   1.399
 1049SOL     OW 4514   0.998   2.213   0.958
 1049SOL    HW2 4515   0.928   2.165   1.003
 1049SOL    HW3 4516   1.030   2.276   1.022
 1049SOL    MW4 4517   0.993   2.215   0.972
 1050SOL     OW 4518   0.649   2.649   1.578
 1050SOL    HW2 4519   0.642   2.744   1.566
 1050SOL    HW3 4520   0.658   2.638   1.673
 1050SOL    MW4 4521   0.650   2.661   1.588
 1051SOL     OW 4522   0.370   3.164   1.836
 1051SOL    HW2 4523   0.442   3.166   1.773
 1051SOL    HW3 4524   0.340   3.073   1.835
 1051SOL    MW4 4525   0.375   3.153   1.828
 1052SOL     OW 4526   1.454   1.927   1.303
 1052SOL    HW2 4527   1.525   1.873   1.267
 1052SOL    HW3 4528   1.453   1.906   1.396
 1052SOL    MW4 4529   1.463   1.918   1.311
 1053SOL     OW 4530   1.654   3.457   1.787
 1053SOL    HW2 4531   1.627   3.454   1.878
 1053SOL    HW3 4532   1.750   3.461   1.790
 1053SOL    MW4 4533   1.664   3.457   1.799
 1054SOL     OW 4534   0.465   2.319   0.771
 1054SOL    HW2 4535   0.536   2.267   0.734
 1054SOL    HW3 4536   0.451   2.284   0.858
 1054SOL    MW4 4537   0.473   2.308   0.778
 1055SOL     OW 4538   0.020   3.654   1.843
 1055SOL    HW2 4539   0.070   3.632   1.765
 1055SOL    HW3 4540   0.028   3.749   1.851
 1055SOL    MW4 4541   0.028   3.663   1.834
 1056SOL     OW 4542   0.781   3.412   0.847
 1056SOL    HW2 4543   0.709   3.349   0.860
 1056SOL    HW3 4544   0.742   3.497   0.865
 1056SOL    MW4 4545   0.765   3.415   0.850
 1057SOL     OW 4546   1.101   2.260   0.495
 1057SOL    HW2 4547   1.123   2.197   0.427
 1057SOL    HW3 4548   1.006   2.252   0.506
 1057SOL    MW4 4549   1.091   2.251   0.487
 1058SOL     OW 4550   0.186   1.950   0.427
 1058SOL    HW2 4551   0.257   1.971   0.366
 1058SOL    HW3 4552   0.140   1.878   0.385
 1058SOL    MW4 4553   0.190   1.944   0.413
 1059SOL     OW 4554   0.017   2.417   1.570
 1059SOL    HW2 4555   0.081   2.483   1.545
 1059SOL    HW3 4556  -0.064   2.444   1.527
 1059SOL    MW4 4557   0.015   2.429   1.562
 1060SOL     OW 4558   1.755   3.324   0.527
 1060SOL    HW2 4559   1.725   3.257   0.588
 1060SOL    HW3 4560   1.849   3.330   0.541
 1060SOL    MW4 4561   1.763   3.316   0.537
 1061SOL     OW 4562   1.311   3.001   0.457
 1061SOL    HW2 4563   1.283   3.087   0.490
 1061SOL    HW3 4564   1.339   3.017   0.367
 1061SOL    MW4 4565   1.311   3.015   0.449
 1062SOL     OW 4566   0.973   1.921   0.510
 1062SOL    HW2 4567   1.010   1.980   0.575
 1062SOL    HW3 4568   0.950   1.977   0.436
 1062SOL    MW4 4569   0.974   1.936   0.509
 1063SOL     OW 4570   1.826   2.803   0.932
 1063SOL    HW2 4571   1.817   2.835   0.843
 1063SOL    HW3 4572   1.779   2.719   0.932
 1063SOL    MW4 4573   1.819   2.796   0.922
 1064SOL     OW 4574   0.202   2.643   1.511
 1064SOL    HW2 4575   0.223   2.712   1.449
 1064SOL    HW3 4576   0.282   2.590   1.516
 1064SOL    MW4 4577   0.215   2.644   1.505
 1065SOL     OW 4578   1.738   2.734   0.633
 1065SOL    HW2 4579   1.832   2.723   0.621
 1065SOL    HW3 4580   1.714   2.806   0.574
 1065SOL    MW4 4581   1.748   2.742   0.624
 1066SOL     OW 4582   0.187   2.658   1.778
 1066SOL    HW2 4583   0.113   2.602   1.804
 1066SOL    HW3 4584   0.182   2.661   1.683
 1066SOL    MW4 4585   0.176   2.651   1.768
 1067SOL     OW 4586   0.353   1.945   1.228
 1067SOL    HW2 4587   0.396   2.029   1.248
 1067SOL    HW3 4588   0.426   1.883   1.221
 1067SOL    MW4 4589   0.368   1.948   1.229
 1068SOL     OW 4590   0.394   2.612   0.406
 1068SOL    HW2 4591   0.394   2.707   0.391
 1068SOL    HW3 4592   0.471   2.596   0.460
 1068SOL    MW4 4593   0.404   2.623   0.411
 1069SOL     OW 4594   1.170   2.471   1.470
 1069SOL    HW2 4595   1.206   2.444   1.386
 1069SOL    HW3 4596   1.083   2.505   1.449
 1069SOL    MW4 4597   1.164   2.472   1.457
 1070SOL     OW 4598   0.153   2.343   0.695
 1070SOL    HW2 4599   0.215   2.350   0.768
 1070SOL    HW3 4600   0.153   2.250   0.672
 1070SOL    MW4 4601   0.161   2.332   0.702
 1071SOL     OW 4602   1.700   3.683   0.227
 1071SOL    HW2 4603   1.767   3.716   0.167
 1071SOL    HW3 4604   1.657   3.762   0.261
 1071SOL    MW4 4605   1.702   3.698   0.223
 1072SOL     OW 4606   0.835   2.604   1.179
 1072SOL    HW2 4607   0.793   2.522   1.155
 1072SOL    HW3 4608   0.836   2.603   1.275
 1072SOL    MW4 4609   0.828   2.593   1.188
 1073SOL     OW 4610   1.506   3.737   1.578
 1073SOL    HW2 4611   1.509   3.643   1.561
 1073SOL    HW3 4612   1.529   3.745   1.670
 1073SOL    MW4 4613   1.509   3.725   1.588
 1074SOL     OW 4614   0.639   2.074   1.284
 1074SOL    HW2 4615   0.570   2.137   1.305
 1074SOL    HW3 4616   0.666   2.038   1.369
 1074SOL    MW4 4617   0.633   2.077   1.297
 1075SOL     OW 4618   0.022   2.915   0.153
 1075SOL    HW2 4619  -0.009   2.980   0.216
 1075SOL    HW3 4620  -0.029   2.837   0.172
 1075SOL    MW4 4621   0.012   2.912   0.163
 1076SOL     OW 4622   1.434   1.927   0.901
 1076SOL    HW2 4623   1.522   1.936   0.938
 1076SOL    HW3 4624   1.444   1.868   0.827
 1076SOL    MW4 4625   1.448   1.921   0.895
 1077SOL     OW 4626   1.466   2.666   0.745
 1077SOL    HW2 4627   1.546   2.681   0.694
 1077SOL    HW3 4628   1.459   2.571   0.751
 1077SOL    MW4 4629   1.475   2.655   0.740
 1078SOL     OW 4630   0.606   3.715   0.095
 1078SOL    HW2 4631   0.511   3.715   0.087
 1078SOL    HW3 4632   0.622   3.661   0.173
 1078SOL    MW4 4633   0.596   3.709   0.104
 1079SOL     OW 4634   0.916   2.592   1.442
 1079SOL    HW2 4635   0.985   2.659   1.439
 1079SOL    HW3 4636   0.849   2.630   1.498
 1079SOL    MW4 4637   0.917   2.605   1.449
 1080SOL     OW 4638   0.334   2.892   1.690
 1080SOL    HW2 4639   0.288   2.808   1.692
 1080SOL    HW3 4640   0.391   2.886   1.614
 1080SOL    MW4 4641   0.336   2.880   1.682
 1081SOL     OW 4642   1.451   2.535   0.011
 1081SOL    HW2 4643   1.379   2.511  -0.047
 1081SOL    HW3 4644   1.517   2.572  -0.047
 1081SOL    MW4 4645   1.450   2.537  -0.004
 1082SOL     OW 4646   0.585   3.267   0.691
 1082SOL    HW2 4647   0.650   3.200   0.712
 1082SOL    HW3 4648   0.637   3.344   0.668
 1082SOL    MW4 4649   0.600   3.269   0.690
 1083SOL     OW 4650   0.846   2.432   0.821
 1083SOL    HW2 4651   0.786   2.450   0.893
 1083SOL    HW3 4652   0.880   2.344   0.840
 1083SOL    MW4 4653   0.842   2.422   0.834
 1084SOL     OW 4654   1.787   1.931   1.490
 1084SOL    HW2 4655   1.708   1.977   1.518
 1084SOL    HW3 4656   1.822   1.985   1.419
 1084SOL    MW4 4657   1.781   1.944   1.484
 1085SOL     OW 4658   1.071   3.015   0.840
 1085SOL    HW2 4659   1.163   2.996   0.858
 1085SOL    HW3 4660   1.044   2.945   0.780
 1085SOL    MW4 4661   1.079   3.003   0.834
 1086SOL     OW 4662   0.864   2.835   0.195
 1086SOL    HW2 4663   0.850   2.747   0.160
 1086SOL    HW3 4664   0.815   2.892   0.136
 1086SOL    MW4 4665   0.856   2.830   0.183
 1087SOL     OW 4666   1.345   3.253   0.936
 1087SOL    HW2 4667   1.318   3.337   0.901
 1087SOL    HW3 4668   1.305   3.248   1.023
 1087SOL    MW4 4669   1.338   3.262   0.942
 1088SOL     OW 4670   1.264   3.201   1.204
 1088SOL    HW2 4671   1.275   3.168   1.293
 1088SOL    HW3 4672   1.183   3.160   1.173
 1088SOL    MW4 4673   1.254   3.193   1.210
 1089SOL     OW 4674   0.277   2.559   0.974
 1089SOL    HW2 4675   0.227   2.558   1.055
 1089SOL    HW3 4676   0.297   2.651   0.958
 1089SOL    MW4 4677   0.273   2.571   0.982
 1090SOL     OW 4678   1.344   3.323   1.736
 1090SOL    HW2 4679   1.344   3.417   1.752
 1090SOL    HW3 4680   1.389   3.313   1.652
 1090SOL    MW4 4681   1.350   3.333   1.727
 1091SOL     OW 4682   1.583   2.041   0.297
 1091SOL    HW2 4683   1.576   2.045   0.392
 1091SOL    HW3 4684   1.595   2.132   0.270
 1091SOL    MW4 4685   1.584   2.054   0.305
 1092SOL     OW 4686   0.872   2.604   0.411
 1092SOL    HW2 4687   0.852   2.590   0.318
 1092SOL    HW3 4688   0.965   2.583   0.418
 1092SOL    MW4 4689   0.882   2.599   0.400
 1093SOL     OW 4690   0.199   2.227   1.715
 1093SOL    HW2 4691   0.156   2.286   1.652
 1093SOL    HW3 4692   0.267   2.282   1.755
 1093SOL    MW4 4693   0.203   2.242   1.712
 1094SOL     OW 4694   1.311   2.847   1.260
 1094SOL    HW2 4695   1.374   2.844   1.333
 1094SOL    HW3 4696   1.227   2.865   1.302
 1094SOL    MW4 4697   1.307   2.849   1.275
 1095SOL     OW 4698   0.855   3.562   0.449
 1095SOL    HW2 4699   0.913   3.633   0.476
 1095SOL    HW3 4700   0.878   3.490   0.507
 1095SOL    MW4 4701   0.866   3.562   0.460
 1096SOL     OW 4702   1.650   2.024   1.039
 1096SOL    HW2 4703   1.695   1.942   1.058
 1096SOL    HW3 4704   1.670   2.080   1.115
 1096SOL    MW4 4705   1.660   2.020   1.051
 1097SOL     OW 4706   0.098   1.867   1.138
 1097SOL    HW2 4707   0.089   1.868   1.043
 1097SOL    HW3 4708   0.192   1.879   1.153
 1097SOL    MW4 4709   0.110   1.870   1.129
 1098SOL     OW 4710   1.735   3.060   0.758
 1098SOL    HW2 4711   1.714   3.006   0.681
 1098SOL    HW3 4712   1.831   3.058   0.762
 1098SOL    MW4 4713   1.744   3.053   0.747
 1099SOL     OW 4714   0.427   3.205   1.501
 1099SOL    HW2 4715   0.348   3.155   1.524
 1099SOL    HW3 4716   0.497   3.164   1.551
 1099SOL    MW4 4717   0.425   3.193   1.511
 1100SOL     OW 4718   0.311   1.994   0.184
 1100SOL    HW2 4719   0.240   2.049   0.152
 1100SOL    HW3 4720   0.353   1.960   0.105
 1100SOL    MW4 4721   0.307   1.996   0.170
 1101SOL     OW 4722   1.435   2.491   1.020
 1101SOL    HW2 4723   1.358   2.537   0.986
 1101SOL    HW3 4724   1.492   2.560   1.054
 1101SOL    MW4 4725   1.432   2.506   1.020
 1102SOL     OW 4726   0.067   2.093   0.033
 1102SOL    HW2 4727   0.034   2.172   0.077
 1102SOL    HW3 4728   0.122   2.126  -0.038
 1102SOL    MW4 4729   0.070   2.107   0.030
 1103SOL     OW 4730   0.101   3.350   0.222
 1103SOL    HW2 4731   0.118   3.434   0.264
 1103SOL    HW3 4732   0.136   3.359   0.134
 1103SOL    MW4 4733   0.106   3.363   0.216
 1104SOL     OW 4734   1.373   3.439   0.439
 1104SOL    HW2 4735   1.436   3.429   0.368
 1104SOL    HW3 4736   1.290   3.459   0.394
 1104SOL    MW4 4737   1.370   3.440   0.424
 1105SOL     OW 4738   1.736   2.707   2.125
 1105SOL    HW2 4739   1.777   2.649   2.190
 1105SOL    HW3 4740   1.643   2.699   2.142
 1105SOL    MW4 4741   1.730   2.699   2.135
 1106SOL     OW 4742   1.602   2.639   3.120
 1106SOL    HW2 4743   1.557   2.706   3.171
 1106SOL    HW3 4744   1.690   2.675   3.106
 1106SOL    MW4 4745   1.608   2.652   3.124
 1107SOL     OW 4746   0.530   2.890   2.354
 1107SOL    HW2 4747   0.620   2.865   2.338
 1107SOL    HW3 4748   0.526   2.983   2.331
 1107SOL    MW4 4749   0.542   2.899   2.349
 1108SOL     OW 4750   1.646   3.593   2.496
 1108SOL    HW2 4751   1.658   3.539   2.574
 1108SOL    HW3 4752   1.683   3.541   2.425
 1108SOL    MW4 4753   1.652   3.578   2.497
 1109SOL     OW 4754   1.025   3.478   3.497
 1109SOL    HW2 4755   1.066   3.514   3.418
 1109SOL    HW3 4756   1.060   3.389   3.504
 1109SOL    MW4 4757   1.036   3.471   3.488
 1110SOL     OW 4758   1.582   3.033   3.101
 1110SOL    HW2 4759   1.503   2.998   3.059
 1110SOL    HW3 4760   1.609   3.105   3.045
 1110SOL    MW4 4761   1.575   3.038   3.088
 1111SOL     OW 4762   0.814   2.346   2.367
 1111SOL    HW2 4763   0.789   2.434   2.395
 1111SOL    HW3 4764   0.811   2.349   2.271
 1111SOL    MW4 4765   0.810   2.358   2.359
 1112SOL     OW 4766   0.256   2.374   2.295
 1112SOL    HW2 4767   0.288   2.462   2.277
 1112SOL    HW3 4768   0.244   2.372   2.390
 1112SOL    MW4 4769   0.259   2.386   2.307
 1113SOL     OW 4770   0.334   2.787   3.196
 1113SOL    HW2 4771   0.397   2.734   3.147
 1113SOL    HW3 4772   0.315   2.861   3.139
 1113SOL    MW4 4773   0.340   2.789   3.183
 1114SOL     OW 4774   0.655   2.129   2.382
 1114SOL    HW2 4775   0.713   2.205   2.384
 1114SOL    HW3 4776   0.590   2.150   2.315
 1114SOL    MW4 4777   0.654   2.141   2.373
 1115SOL     OW 4778   0.742   3.056   2.557
 1115SOL    HW2 4779   0.822   3.059   2.609
 1115SOL    HW3 4780   0.770   3.023   2.471
 1115SOL    MW4 4781   0.756   3.052   2.552
 1116SOL     OW 4782   0.767   3.397   3.460
 1116SOL    HW2 4783   0.851   3.423   3.499
 1116SOL    HW3 4784   0.791   3.341   3.386
 1116SOL    MW4 4785   0.781   3.393   3.455
 1117SOL     OW 4786   0.519   2.560   2.548
 1117SOL    HW2 4787   0.504   2.480   2.599
 1117SOL    HW3 4788   0.601   2.595   2.582
 1117SOL    MW4 4789   0.527   2.552   2.560
 1118SOL     OW 4790   0.856   3.246   3.233
 1118SOL    HW2 4791   0.820   3.312   3.173
 1118SOL    HW3 4792   0.784   3.184   3.246
 1118SOL    MW4 4793   0.842   3.246   3.227
 1119SOL     OW 4794   0.661   2.386   2.925
 1119SOL    HW2 4795   0.567   2.382   2.943
 1119SOL    HW3 4796   0.691   2.295   2.934
 1119SOL    MW4 4797   0.652   2.374   2.928
 1120SOL     OW 4798   0.407   2.800   2.829
 1120SOL    HW2 4799   0.362   2.807   2.745
 1120SOL    HW3 4800   0.387   2.883   2.873
 1120SOL    MW4 4801   0.399   2.812   2.823
 1121SOL     OW 4802   0.104   3.646   2.704
 1121SOL    HW2 4803   0.193   3.638   2.739
 1121SOL    HW3 4804   0.068   3.558   2.709
 1121SOL    MW4 4805   0.111   3.633   2.709
 1122SOL     OW 4806   1.369   3.038   2.073
 1122SOL    HW2 4807   1.287   3.074   2.039
 1122SOL    HW3 4808   1.437   3.081   2.022
 1122SOL    MW4 4809   1.367   3.048   2.061
 1123SOL     OW 4810   0.368   3.173   2.739
 1123SOL    HW2 4811   0.344   3.226   2.815
 1123SOL    HW3 4812   0.424   3.231   2.687
 1123SOL    MW4 4813   0.372   3.188   2.742
 1124SOL     OW 4814   0.930   2.817   2.549
 1124SOL    HW2 4815   0.844   2.804   2.589
 1124SOL    HW3 4816   0.983   2.744   2.581
 1124SOL    MW4 4817   0.926   2.806   2.558
 1125SOL     OW 4818   0.338   3.469   3.334
 1125SOL    HW2 4819   0.246   3.445   3.319
 1125SOL    HW3 4820   0.382   3.386   3.351
 1125SOL    MW4 4821   0.332   3.454   3.333
 1126SOL     OW 4822   0.921   3.179   2.266
 1126SOL    HW2 4823   0.898   3.241   2.334
 1126SOL    HW3 4824   0.878   3.097   2.292
 1126SOL    MW4 4825   0.913   3.175   2.277
 1127SOL     OW 4826   1.794   2.180   2.722
 1127SOL    HW2 4827   1.731   2.160   2.791
 1127SOL    HW3 4828   1.784   2.109   2.659
 1127SOL    MW4 4829   1.784   2.167   2.723
 1128SOL     OW 4830   0.418   2.152   2.234
 1128SOL    HW2 4831   0.392   2.114   2.150
 1128SOL    HW3 4832   0.355   2.222   2.250
 1128SOL    MW4 4833   0.407   2.155   2.225
 1129SOL     OW 4834   0.253   3.113   2.271
 1129SOL    HW2 4835   0.201   3.181   2.227
 1129SOL    HW3 4836   0.250   3.039   2.211
 1129SOL    MW4 4837   0.245   3.112   2.258
 1130SOL     OW 4838   0.915   3.576   2.049
 1130SOL    HW2 4839   0.870   3.592   2.132
 1130SOL    HW3 4840   0.846   3.541   1.991
 1130SOL    MW4 4841   0.901   3.573   2.051
 1131SOL     OW 4842   1.850   2.349   2.024
 1131SOL    HW2 4843   1.759   2.351   2.052
 1131SOL    HW3 4844   1.895   2.411   2.082
 1131SOL    MW4 4845   1.843   2.357   2.034
 1132SOL     OW 4846   1.595   2.952   2.374
 1132SOL    HW2 4847   1.505   2.952   2.409
 1132SOL    HW3 4848   1.588   2.998   2.291
 1132SOL    MW4 4849   1.582   2.958   2.368
 1133SOL     OW 4850   1.395   2.587   3.446
 1133SOL    HW2 4851   1.464   2.525   3.423
 1133SOL    HW3 4852   1.320   2.561   3.393
 1133SOL    MW4 4853   1.395   2.574   3.437
 1134SOL     OW 4854   0.136   3.467   2.998
 1134SOL    HW2 4855   0.119   3.413   3.075
 1134SOL    HW3 4856   0.124   3.557   3.028
 1134SOL    MW4 4857   0.133   3.471   3.012
 1135SOL     OW 4858   1.131   2.974   3.438
 1135SOL    HW2 4859   1.116   3.067   3.423
 1135SOL    HW3 4860   1.226   2.964   3.438
 1135SOL    MW4 4861   1.140   2.984   3.435
 1136SOL     OW 4862   0.927   2.398   3.639
 1136SOL    HW2 4863   1.017   2.399   3.606
 1136SOL    HW3 4864   0.886   2.323   3.597
 1136SOL    MW4 4865   0.933   2.388   3.630
 1137SOL     OW 4866   1.502   2.930   2.766
 1137SOL    HW2 4867   1.505   2.864   2.697
 1137SOL    HW3 4868   1.587   2.973   2.762
 1137SOL    MW4 4869   1.514   2.926   2.757
 1138SOL     OW 4870   1.122   2.533   2.335
 1138SOL    HW2 4871   1.148   2.557   2.246
 1138SOL    HW3 4872   1.104   2.440   2.331
 1138SOL    MW4 4873   1.124   2.525   2.322
 1139SOL     OW 4874   1.787   3.153   2.186
 1139SOL    HW2 4875   1.743   3.194   2.261
 1139SOL    HW3 4876   1.844   3.221   2.151
 1139SOL    MW4 4877   1.789   3.167   2.191
 1140SOL     OW 4878   0.707   2.202   3.589
 1140SOL    HW2 4879   0.717   2.128   3.529
 1140SOL    HW3 4880   0.743   2.171   3.672
 1140SOL    MW4 4881   0.713   2.188   3.591
 1141SOL     OW 4882   0.443   3.569   2.504
 1141SOL    HW2 4883   0.475   3.657   2.482
 1141SOL    HW3 4884   0.396   3.541   2.426
 1141SOL    MW4 4885   0.442   3.577   2.491
 1142SOL     OW 4886   1.827   1.931   2.553
 1142SOL    HW2 4887   1.881   1.882   2.615
 1142SOL    HW3 4888   1.770   1.865   2.514
 1142SOL    MW4 4889   1.827   1.915   2.555
 1143SOL     OW 4890   0.159   3.629   2.081
 1143SOL    HW2 4891   0.188   3.719   2.073
 1143SOL    HW3 4892   0.109   3.612   2.002
 1143SOL    MW4 4893   0.157   3.637   2.070
 1144SOL     OW 4894   0.946   1.884   2.966
 1144SOL    HW2 4895   0.905   1.962   2.928
 1144SOL    HW3 4896   1.040   1.902   2.961
 1144SOL    MW4 4897   0.952   1.896   2.961
 1145SOL     OW 4898   1.563   3.437   2.052
 1145SOL    HW2 4899   1.611   3.506   2.098
 1145SOL    HW3 4900   1.484   3.481   2.021
 1145SOL    MW4 4901   1.558   3.451   2.055
 1146SOL     OW 4902   0.961   2.562   1.996
 1146SOL    HW2 4903   0.963   2.509   1.917
 1146SOL    HW3 4904   1.049   2.599   2.002
 1146SOL    MW4 4905   0.973   2.561   1.985
 1147SOL     OW 4906   1.575   2.488   2.332
 1147SOL    HW2 4907   1.614   2.488   2.419
 1147SOL    HW3 4908   1.516   2.564   2.332
 1147SOL    MW4 4909   1.572   2.499   2.343
 1148SOL     OW 4910   0.892   2.855   3.461
 1148SOL    HW2 4911   0.869   2.835   3.551
 1148SOL    HW3 4912   0.977   2.899   3.466
 1148SOL    MW4 4913   0.899   2.858   3.473
 1149SOL     OW 4914   0.972   1.992   3.221
 1149SOL    HW2 4915   0.978   1.954   3.134
 1149SOL    HW3 4916   0.961   2.086   3.206
 1149SOL    MW4 4917   0.973   2.000   3.209
 1150SOL     OW 4918   1.061   2.481   3.055
 1150SOL    HW2 4919   1.136   2.510   3.002
 1150SOL    HW3 4920   0.993   2.546   3.039
 1150SOL    MW4 4921   1.062   2.493   3.045
 1151SOL     OW 4922   1.611   2.449   3.332
 1151SOL    HW2 4923   1.592   2.358   3.311
 1151SOL    HW3 4924   1.589   2.498   3.253
 1151SOL    MW4 4925   1.606   2.442   3.319
 1152SOL     OW 4926   1.753   3.543   3.236
 1152SOL    HW2 4927   1.681   3.505   3.287
 1152SOL    HW3 4928   1.770   3.628   3.277
 1152SOL    MW4 4929   1.747   3.548   3.248
 1153SOL     OW 4930   1.058   2.187   3.438
 1153SOL    HW2 4931   1.024   2.226   3.357
 1153SOL    HW3 4932   1.036   2.095   3.431
 1153SOL    MW4 4933   1.051   2.180   3.428
 1154SOL     OW 4934   1.467   3.001   3.514
 1154SOL    HW2 4935   1.549   3.042   3.544
 1154SOL    HW3 4936   1.430   2.963   3.594
 1154SOL    MW4 4937   1.473   3.002   3.529
 1155SOL     OW 4938   1.762   2.374   2.498
 1155SOL    HW2 4939   1.851   2.343   2.515
 1155SOL    HW3 4940   1.705   2.314   2.546
 1155SOL    MW4 4941   1.765   2.362   2.507
 1156SOL     OW 4942   0.188   2.088   2.527
 1156SOL    HW2 4943   0.179   2.028   2.453
 1156SOL    HW3 4944   0.121   2.059   2.590
 1156SOL    MW4 4945   0.178   2.075   2.525
 1157SOL     OW 4946   1.131   3.181   2.088
 1157SOL    HW2 4947   1.081   3.183   2.170
 1157SOL    HW3 4948   1.065   3.199   2.020
 1157SOL    MW4 4949   1.117   3.183   2.090
 1158SOL     OW 4950   0.135   2.261   2.890
 1158SOL    HW2 4951   0.107   2.352   2.899
 1158SOL    HW3 4952   0.072   2.222   2.829
 1158SOL    MW4 4953   0.122   2.267   2.884
 1159SOL     OW 4954   0.594   3.599   2.196
 1159SOL    HW2 4955   0.515   3.557   2.229
 1159SOL    HW3 4956   0.660   3.582   2.263
 1159SOL    MW4 4957   0.593   3.591   2.209
 1160SOL     OW 4958   1.722   3.119   3.593
 1160SOL    HW2 4959   1.772   3.045   3.625
 1160SOL    HW3 4960   1.668   3.146   3.668
 1160SOL    MW4 4961   1.722   3.113   3.606
 1161SOL     OW 4962   0.730   3.014   1.903
 1161SOL    HW2 4963   0.652   2.960   1.890
 1161SOL    HW3 4964   0.701   3.087   1.956
 1161SOL    MW4 4965   0.716   3.016   1.908
 1162SOL     OW 4966   1.856   2.754   3.095
 1162SOL    HW2 4967   1.872   2.792   3.008
 1162SOL    HW3 4968   1.890   2.820   3.156
 1162SOL    MW4 4969   1.863   2.767   3.091
 1163SOL     OW 4970   1.648   3.463   2.764
 1163SOL    HW2 4971   1.677   3.530   2.825
 1163SOL    HW3 4972   1.629   3.387   2.819
 1163SOL    MW4 4973   1.650   3.463   2.779
 1164SOL     OW 4974   1.311   3.530   1.971
 1164SOL    HW2 4975   1.237   3.493   2.021
 1164SOL    HW3 4976   1.319   3.620   2.004
 1164SOL    MW4 4977   1.302   3.537   1.983
 1165SOL     OW 4978   0.119   2.536   3.060
 1165SOL    HW2 4979   0.181   2.566   3.126
 1165SOL    HW3 4980   0.053   2.605   3.054
 1165SOL    MW4 4981   0.118   2.549   3.067
 1166SOL     OW 4982   1.535   3.204   1.913
 1166SOL    HW2 4983   1.482   3.253   1.849
 1166SOL    HW3 4984   1.566   3.270   1.974
 1166SOL    MW4 4985   1.533   3.218   1.911
 1167SOL     OW 4986   0.760   2.093   1.968
 1167SOL    HW2 4987   0.708   2.013   1.956
 1167SOL    HW3 4988   0.847   2.070   1.936
 1167SOL    MW4 4989   0.763   2.079   1.962
 1168SOL     OW 4990   0.214   3.645   3.512
 1168SOL    HW2 4991   0.188   3.713   3.450
 1168SOL    HW3 4992   0.262   3.582   3.460
 1168SOL    MW4 4993   0.216   3.645   3.498
 1169SOL     OW 4994   0.266   2.964   3.019
 1169SOL    HW2 4995   0.319   3.039   3.044
 1169SOL    HW3 4996   0.185   3.002   2.985
 1169SOL    MW4 4997   0.262   2.979   3.019
 1170SOL     OW 4998   0.806   2.868   3.007
 1170SOL    HW2 4999   0.834   2.777   3.019
 1170SOL    HW3 5000   0.735   2.862   2.943
 1170SOL    MW4 5001   0.799   2.856   3.002
 1171SOL     OW 5002   0.121   2.733   2.425
 1171SOL    HW2 5003   0.212   2.748   2.452
 1171SOL    HW3 5004   0.124   2.654   2.371
 1171SOL    MW4 5005   0.133   2.725   2.423
 1172SOL     OW 5006   0.357   2.441   3.679
 1172SOL    HW2 5007   0.304   2.521   3.686
 1172SOL    HW3 5008   0.427   2.453   3.744
 1172SOL    MW4 5009   0.359   2.454   3.687
 1173SOL     OW 5010   0.743   1.991   3.386
 1173SOL    HW2 5011   0.720   1.899   3.388
 1173SOL    HW3 5012   0.829   1.993   3.343
 1173SOL    MW4 5013   0.750   1.981   3.382
 1174SOL     OW 5014   0.427   2.515   3.425
 1174SOL    HW2 5015   0.507   2.565   3.411
 1174SOL    HW3 5016   0.418   2.509   3.520
 1174SOL    MW4 5017   0.436   2.521   3.435
 1175SOL     OW 5018   0.748   3.665   2.799
 1175SOL    HW2 5019   0.837   3.680   2.829
 1175SOL    HW3 5020   0.743   3.712   2.715
 1175SOL    MW4 5021   0.758   3.673   2.792
 1176SOL     OW 5022   1.404   2.040   3.696
 1176SOL    HW2 5023   1.460   1.967   3.722
 1176SOL    HW3 5024   1.374   2.078   3.778
 1176SOL    MW4 5025   1.408   2.035   3.709
 1177SOL     OW 5026   0.129   3.345   2.464
 1177SOL    HW2 5027   0.101   3.384   2.546
 1177SOL    HW3 5028   0.149   3.254   2.486
 1177SOL    MW4 5029   0.127   3.337   2.477
 1178SOL     OW 5030   0.962   3.388   2.499
 1178SOL    HW2 5031   1.045   3.342   2.483
 1178SOL    HW3 5032   0.952   3.387   2.595
 1178SOL    MW4 5033   0.972   3.381   2.509
 1179SOL     OW 5034   1.794   2.533   2.813
 1179SOL    HW2 5035   1.883   2.563   2.795
 1179SOL    HW3 5036   1.774   2.473   2.742
 1179SOL    MW4 5037   1.803   2.530   2.802
 1180SOL     OW 5038   1.645   2.712   3.693
 1180SOL    HW2 5039   1.700   2.636   3.674
 1180SOL    HW3 5040   1.647   2.720   3.788
 1180SOL    MW4 5041   1.653   2.703   3.701
 1181SOL     OW 5042   0.695   3.445   1.904
 1181SOL    HW2 5043   0.635   3.514   1.874
 1181SOL    HW3 5044   0.640   3.387   1.957
 1181SOL    MW4 5045   0.679   3.447   1.906
 1182SOL     OW 5046   1.133   2.090   2.127
 1182SOL    HW2 5047   1.066   2.066   2.064
 1182SOL    HW3 5048   1.198   2.139   2.076
 1182SOL    MW4 5049   1.133   2.092   2.112
 1183SOL     OW 5050   0.940   2.274   3.212
 1183SOL    HW2 5051   0.859   2.315   3.240
 1183SOL    HW3 5052   0.987   2.342   3.164
 1183SOL    MW4 5053   0.935   2.289   3.210
 1184SOL     OW 5054   1.200   2.612   2.835
 1184SOL    HW2 5055   1.213   2.706   2.845
 1184SOL    HW3 5056   1.161   2.602   2.749
 1184SOL    MW4 5057   1.196   2.623   2.825
 1185SOL     OW 5058   0.652   2.807   2.639
 1185SOL    HW2 5059   0.563   2.798   2.672
 1185SOL    HW3 5060   0.656   2.897   2.607
 1185SOL    MW4 5061   0.641   2.818   2.639
 1186SOL     OW 5062   1.451   2.390   2.634
 1186SOL    HW2 5063   1.396   2.311   2.633
 1186SOL    HW3 5064   1.433   2.431   2.718
 1186SOL    MW4 5065   1.441   2.385   2.643
 1187SOL     OW 5066   0.422   2.077   3.451
 1187SOL    HW2 5067   0.343   2.095   3.503
 1187SOL    HW3 5068   0.417   2.139   3.378
 1187SOL    MW4 5069   0.412   2.087   3.448
 1188SOL     OW 5070   1.070   2.594   2.591
 1188SOL    HW2 5071   1.007   2.526   2.615
 1188SOL    HW3 5072   1.090   2.575   2.499
 1188SOL    MW4 5073   1.064   2.581   2.583
 1189SOL     OW 5074   0.326   3.489   2.293
 1189SOL    HW2 5075   0.287   3.536   2.219
 1189SOL    HW3 5076   0.260   3.424   2.318
 1189SOL    MW4 5077   0.313   3.487   2.287
 1190SOL     OW 5078   0.818   2.898   2.317
 1190SOL    HW2 5079   0.820   2.872   2.224
 1190SOL    HW3 5080   0.876   2.835   2.360
 1190SOL    MW4 5081   0.826   2.887   2.311
 1191SOL     OW 5082   1.371   3.458   3.089
 1191SOL    HW2 5083   1.296   3.504   3.127
 1191SOL    HW3 5084   1.353   3.365   3.106
 1191SOL    MW4 5085   1.360   3.452   3.097
 1192SOL     OW 5086   1.375   3.666   2.519
 1192SOL    HW2 5087   1.318   3.619   2.458
 1192SOL    HW3 5088   1.461   3.627   2.506
 1192SOL    MW4 5089   1.378   3.657   2.509
 1193SOL     OW 5090   1.328   2.142   2.650
 1193SOL    HW2 5091   1.356   2.074   2.711
 1193SOL    HW3 5092   1.242   2.113   2.620
 1193SOL    MW4 5093   1.321   2.129   2.654
 1194SOL     OW 5094   0.133   3.076   2.584
 1194SOL    HW2 5095   0.197   3.108   2.647
 1194SOL    HW3 5096   0.182   3.012   2.532
 1194SOL    MW4 5097   0.148   3.072   2.585
 1195SOL     OW 5098   0.633   3.152   3.566
 1195SOL    HW2 5099   0.681   3.235   3.553
 1195SOL    HW3 5100   0.690   3.100   3.622
 1195SOL    MW4 5101   0.647   3.156   3.572
 1196SOL     OW 5102   0.209   3.394   3.706
 1196SOL    HW2 5103   0.265   3.318   3.721
 1196SOL    HW3 5104   0.158   3.372   3.628
 1196SOL    MW4 5105   0.209   3.381   3.697
 1197SOL     OW 5106   1.308   2.246   1.985
 1197SOL    HW2 5107   1.281   2.312   1.921
 1197SOL    HW3 5108   1.378   2.289   2.035
 1197SOL    MW4 5109   1.313   2.259   1.982
 1198SOL     OW 5110   0.976   1.951   1.922
 1198SOL    HW2 5111   1.032   1.943   1.844
 1198SOL    HW3 5112   0.953   1.861   1.944
 1198SOL    MW4 5113   0.981   1.938   1.915
 1199SOL     OW 5114   1.481   2.802   2.127
 1199SOL    HW2 5115   1.448   2.891   2.117
 1199SOL    HW3 5116   1.446   2.773   2.212
 1199SOL    MW4 5117   1.471   2.811   2.138
 1200SOL     OW 5118   1.094   3.231   3.315
 1200SOL    HW2 5119   1.005   3.237   3.283
 1200SOL    HW3 5120   1.138   3.310   3.283
 1200SOL    MW4 5121   1.089   3.241   3.307
 1201SOL     OW 5122   0.387   1.899   3.657
 1201SOL    HW2 5123   0.315   1.864   3.605
 1201SOL    HW3 5124   0.445   1.940   3.592
 1201SOL    MW4 5125   0.385   1.900   3.642
 1202SOL     OW 5126   0.411   3.389   2.956
 1202SOL    HW2 5127   0.456   3.451   3.013
 1202SOL    HW3 5128   0.318   3.408   2.969
 1202SOL    MW4 5129   0.404   3.399   2.963
 1203SOL     OW 5130   1.851   2.918   3.310
 1203SOL    HW2 5131   1.766   2.931   3.269
 1203SOL    HW3 5132   1.831   2.882   3.397
 1203SOL    MW4 5133   1.838   2.914   3.315
 1204SOL     OW 5134   0.833   3.457   3.064
 1204SOL    HW2 5135   0.857   3.446   2.973
 1204SOL    HW3 5136   0.756   3.514   3.062
 1204SOL    MW4 5137   0.825   3.462   3.053
 1205SOL     OW 5138   0.475   2.840   1.919
 1205SOL    HW2 5139   0.398   2.853   1.975
 1205SOL    HW3 5140   0.439   2.804   1.838
 1205SOL    MW4 5141   0.461   2.836   1.916
 1206SOL     OW 5142   1.128   2.813   2.162
 1206SOL    HW2 5143   1.038   2.834   2.137
 1206SOL    HW3 5144   1.155   2.886   2.218
 1206SOL    MW4 5145   1.120   2.825   2.165
 1207SOL     OW 5146   0.628   3.162   2.854
 1207SOL    HW2 5147   0.621   3.141   2.948
 1207SOL    HW3 5148   0.546   3.130   2.817
 1207SOL    MW4 5149   0.616   3.156   2.861
 1208SOL     OW 5150   1.492   2.172   3.256
 1208SOL    HW2 5151   1.439   2.174   3.336
 1208SOL    HW3 5152   1.477   2.085   3.219
 1208SOL    MW4 5153   1.484   2.162   3.261
 1209SOL     OW 5154   1.828   2.096   3.129
 1209SOL    HW2 5155   1.809   2.163   3.064
 1209SOL    HW3 5156   1.885   2.034   3.084
 1209SOL    MW4 5157   1.832   2.097   3.115
 1210SOL     OW 5158   0.074   3.254   3.517
 1210SOL    HW2 5159   0.118   3.187   3.463
 1210SOL    HW3 5160  -0.011   3.216   3.537
 1210SOL    MW4 5161   0.069   3.240   3.513
 1211SOL     OW 5162   0.757   1.929   2.569
 1211SOL    HW2 5163   0.686   1.990   2.551
 1211SOL    HW3 5164   0.808   1.926   2.488
 1211SOL    MW4 5165   0.753   1.935   2.556
 1212SOL     OW 5166   0.515   3.169   2.318
 1212SOL    HW2 5167   0.508   3.201   2.408
 1212SOL    HW3 5168   0.425   3.153   2.290
 1212SOL    MW4 5169   0.503   3.171   2.325
 1213SOL     OW 5170   1.110   3.562   3.227
 1213SOL    HW2 5171   1.030   3.547   3.177
 1213SOL    HW3 5172   1.117   3.657   3.234
 1213SOL    MW4 5173   1.101   3.573   3.221
 1214SOL     OW 5174   1.224   3.527   2.717
 1214SOL    HW2 5175   1.271   3.600   2.676
 1214SOL    HW3 5176   1.145   3.566   2.753
 1214SOL    MW4 5177   1.219   3.542   2.716
 1215SOL     OW 5178   1.632   3.622   2.992
 1215SOL    HW2 5179   1.675   3.592   3.072
 1215SOL    HW3 5180   1.551   3.570   2.989
 1215SOL    MW4 5181   1.627   3.611   3.002
 1216SOL     OW 5182   0.717   2.586   3.699
 1216SOL    HW2 5183   0.787   2.528   3.671
 1216SOL    HW3 5184   0.660   2.531   3.754
 1216SOL    MW4 5185   0.719   2.573   3.703
 1217SOL     OW 5186   1.504   2.798   3.332
 1217SOL    HW2 5187   1.509   2.851   3.412
 1217SOL    HW3 5188   1.466   2.715   3.360
 1217SOL    MW4 5189   1.500   2.793   3.347
 1218SOL     OW 5190   1.144   1.933   3.578
 1218SOL    HW2 5191   1.139   1.840   3.559
 1218SOL    HW3 5192   1.227   1.944   3.624
 1218SOL    MW4 5193   1.152   1.922   3.582
 1219SOL     OW 5194   0.518   2.453   2.032
 1219SOL    HW2 5195   0.484   2.509   2.102
 1219SOL    HW3 5196   0.589   2.403   2.072
 1219SOL    MW4 5197   0.524   2.454   2.046
 1220SOL     OW 5198   1.614   3.204   2.854
 1220SOL    HW2 5199   1.649   3.186   2.767
 1220SOL    HW3 5200   1.519   3.205   2.841
 1220SOL    MW4 5201   1.606   3.201   2.841
 1221SOL     OW 5202   1.043   2.852   3.223
 1221SOL    HW2 5203   1.086   2.887   3.301
 1221SOL    HW3 5204   1.026   2.929   3.169
 1221SOL    MW4 5205   1.046   2.867   3.226
 1222SOL     OW 5206   1.574   2.339   2.096
 1222SOL    HW2 5207   1.566   2.410   2.033
 1222SOL    HW3 5208   1.592   2.383   2.179
 1222SOL    MW4 5209   1.575   2.353   2.098
 1223SOL     OW 5210   0.434   1.994   2.525
 1223SOL    HW2 5211   0.484   2.037   2.456
 1223SOL    HW3 5212   0.349   2.038   2.525
 1223SOL    MW4 5213   0.431   2.007   2.516
 1224SOL     OW 5214   0.193   3.056   3.385
 1224SOL    HW2 5215   0.221   3.009   3.463
 1224SOL    HW3 5216   0.114   3.011   3.356
 1224SOL    MW4 5217   0.186   3.045   3.391
 1225SOL     OW 5218   0.701   2.383   3.352
 1225SOL    HW2 5219   0.673   2.471   3.376
 1225SOL    HW3 5220   0.670   2.327   3.423
 1225SOL    MW4 5221   0.693   2.386   3.364
 1226SOL     OW 5222   1.243   2.601   2.071
 1226SOL    HW2 5223   1.290   2.619   1.990
 1226SOL    HW3 5224   1.209   2.685   2.099
 1226SOL    MW4 5225   1.245   2.615   2.064
 1227SOL     OW 5226   0.356   2.779   2.565
 1227SOL    HW2 5227   0.414   2.835   2.513
 1227SOL    HW3 5228   0.400   2.694   2.567
 1227SOL    MW4 5229   0.369   2.776   2.558
 1228SOL     OW 5230   1.496   2.131   2.402
 1228SOL    HW2 5231   1.418   2.081   2.427
 1228SOL    HW3 5232   1.467   2.222   2.402
 1228SOL    MW4 5233   1.482   2.135   2.405
 1229SOL     OW 5234   1.082   2.093   2.561
 1229SOL    HW2 5235   1.102   2.168   2.505
 1229SOL    HW3 5236   1.062   2.132   2.646
 1229SOL    MW4 5237   1.083   2.109   2.565
 1230SOL     OW 5238   0.978   3.343   1.893
 1230SOL    HW2 5239   1.005   3.421   1.845
 1230SOL    HW3 5240   0.885   3.358   1.912
 1230SOL    MW4 5241   0.969   3.356   1.889
 1231SOL     OW 5242   1.842   2.866   3.580
 1231SOL    HW2 5243   1.755   2.846   3.616
 1231SOL    HW3 5244   1.896   2.792   3.605
 1231SOL    MW4 5245   1.837   2.855   3.588
 1232SOL     OW 5246   0.063   3.379   2.737
 1232SOL    HW2 5247   0.095   3.383   2.828
 1232SOL    HW3 5248  -0.032   3.387   2.745
 1232SOL    MW4 5249   0.055   3.382   2.750
 1233SOL     OW 5250   0.018   2.505   2.284
 1233SOL    HW2 5251  -0.042   2.477   2.354
 1233SOL    HW3 5252   0.092   2.445   2.290
 1233SOL    MW4 5253   0.020   2.494   2.293
 1234SOL     OW 5254   1.586   3.717   3.718
 1234SOL    HW2 5255   1.631   3.641   3.683
 1234SOL    HW3 5256   1.624   3.730   3.805
 1234SOL    MW4 5257   1.596   3.710   3.724
 1235SOL     OW 5258   1.186   3.236   2.444
 1235SOL    HW2 5259   1.209   3.187   2.522
 1235SOL    HW3 5260   1.267   3.278   2.416
 1235SOL    MW4 5261   1.199   3.236   2.451
 1236SOL     OW 5262   0.444   2.244   3.173
 1236SOL    HW2 5263   0.477   2.325   3.213
 1236SOL    HW3 5264   0.417   2.270   3.085
 1236SOL    MW4 5265   0.443   2.258   3.167
 1237SOL     OW 5266   0.398   2.211   2.909
 1237SOL    HW2 5267   0.428   2.125   2.880
 1237SOL    HW3 5268   0.303   2.204   2.912
 1237SOL    MW4 5269   0.390   2.200   2.907
 1238SOL     OW 5270   1.227   2.420   3.600
 1238SOL    HW2 5271   1.279   2.355   3.553
 1238SOL    HW3 5272   1.185   2.471   3.530
 1238SOL    MW4 5273   1.228   2.417   3.583
 1239SOL     OW 5274   1.326   2.215   3.461
 1239SOL    HW2 5275   1.233   2.199   3.448
 1239SOL    HW3 5276   1.352   2.153   3.529
 1239SOL    MW4 5277   1.316   2.205   3.468
 1240SOL     OW 5278   0.541   1.989   2.800
 1240SOL    HW2 5279   0.551   1.898   2.826
 1240SOL    HW3 5280   0.497   1.985   2.715
 1240SOL    MW4 5281   0.537   1.977   2.792
 1241SOL     OW 5282   0.635   3.604   3.346
 1241SOL    HW2 5283   0.552   3.589   3.391
 1241SOL    HW3 5284   0.694   3.537   3.381
 1241SOL    MW4 5285   0.633   3.594   3.356
 1242SOL     OW 5286   1.692   2.311   2.971
 1242SOL    HW2 5287   1.625   2.344   3.031
 1242SOL    HW3 5288   1.735   2.389   2.937
 1242SOL    MW4 5289   1.690   2.326   2.975
 1243SOL     OW 5290   1.870   3.031   2.941
 1243SOL    HW2 5291   1.863   2.971   2.866
 1243SOL    HW3 5292   1.796   3.091   2.930
 1243SOL    MW4 5293   1.860   3.031   2.930
 1244SOL     OW 5294   1.252   2.893   2.859
 1244SOL    HW2 5295   1.266   2.865   2.950
 1244SOL    HW3 5296   1.338   2.924   2.831
 1244SOL    MW4 5297   1.265   2.894   2.868
 1245SOL     OW 5298   1.335   2.388   3.138
 1245SOL    HW2 5299   1.356   2.389   3.045
 1245SOL    HW3 5300   1.380   2.310   3.171
 1245SOL    MW4 5301   1.342   2.378   3.130
 1246SOL     OW 5302   1.828   2.519   3.680
 1246SOL    HW2 5303   1.865   2.464   3.749
 1246SOL    HW3 5304   1.853   2.476   3.598
 1246SOL    MW4 5305   1.835   2.507   3.679
 1247SOL     OW 5306   1.375   2.817   3.731
 1247SOL    HW2 5307   1.441   2.765   3.685
 1247SOL    HW3 5308   1.395   2.804   3.824
 1247SOL    MW4 5309   1.386   2.808   3.738
 1248SOL     OW 5310   1.326   1.903   2.080
 1248SOL    HW2 5311   1.400   1.947   2.123
 1248SOL    HW3 5312   1.250   1.957   2.102
 1248SOL    MW4 5313   1.326   1.915   2.088
 1249SOL     OW 5314   1.386   2.678   2.358
 1249SOL    HW2 5315   1.301   2.648   2.328
 1249SOL    HW3 5316   1.378   2.685   2.453
 1249SOL    MW4 5317   1.374   2.676   2.367
 1250SOL     OW 5318   0.462   3.141   3.089
 1250SOL    HW2 5319   0.474   3.168   3.180
 1250SOL    HW3 5320   0.443   3.222   3.042
 1250SOL    MW4 5321   0.461   3.156   3.094
 1251SOL     OW 5322   0.746   2.121   2.912
 1251SOL    HW2 5323   0.719   2.123   3.003
 1251SOL    HW3 5324   0.676   2.073   2.867
 1251SOL    MW4 5325   0.734   2.117   2.919
 1252SOL     OW 5326   0.600   3.613   3.074
 1252SOL    HW2 5327   0.652   3.690   3.051
 1252SOL    HW3 5328   0.609   3.605   3.169
 1252SOL    MW4 5329   0.609   3.620   3.085
 1253SOL     OW 5330   1.502   3.198   3.306
 1253SOL    HW2 5331   1.487   3.127   3.369
 1253SOL    HW3 5332   1.548   3.156   3.234
 1253SOL    MW4 5333   1.508   3.182   3.306
 1254SOL     OW 5334   0.576   2.929   3.423
 1254SOL    HW2 5335   0.613   2.934   3.335
 1254SOL    HW3 5336   0.615   3.002   3.470
 1254SOL    MW4 5337   0.586   2.939   3.418
 1255SOL     OW 5338   0.756   2.972   3.235
 1255SOL    HW2 5339   0.815   2.918   3.288
 1255SOL    HW3 5340   0.771   2.944   3.145
 1255SOL    MW4 5341   0.766   2.961   3.231
 1256SOL     OW 5342   0.759   2.344   2.084
 1256SOL    HW2 5343   0.832   2.393   2.047
 1256SOL    HW3 5344   0.775   2.253   2.058
 1256SOL    MW4 5345   0.771   2.339   2.077
 1257SOL     OW 5346   1.567   3.461   3.407
 1257SOL    HW2 5347   1.609   3.446   3.492
 1257SOL    HW3 5348   1.558   3.374   3.369
 1257SOL    MW4 5349   1.571   3.449   3.414
 1258SOL     OW 5350   1.227   1.940   2.998
 1258SOL    HW2 5351   1.282   1.949   2.920
 1258SOL    HW3 5352   1.282   1.974   3.069
 1258SOL    MW4 5353   1.241   1.945   2.997
 1259SOL     OW 5354   0.234   2.853   2.182
 1259SOL    HW2 5355   0.171   2.869   2.111
 1259SOL    HW3 5356   0.181   2.816   2.253
 1259SOL    MW4 5357   0.219   2.850   2.182
 1260SOL     OW 5358   0.590   3.207   2.041
 1260SOL    HW2 5359   0.605   3.183   2.133
 1260SOL    HW3 5360   0.498   3.185   2.025
 1260SOL    MW4 5361   0.580   3.200   2.051
 1261SOL     OW 5362   1.129   3.438   2.193
 1261SOL    HW2 5363   1.137   3.356   2.144
 1261SOL    HW3 5364   1.048   3.477   2.160
 1261SOL    MW4 5365   1.119   3.433   2.183
 1262SOL     OW 5366   0.388   3.596   2.762
 1262SOL    HW2 5367   0.392   3.507   2.797
 1262SOL    HW3 5368   0.414   3.587   2.671
 1262SOL    MW4 5369   0.391   3.584   2.754
 1263SOL     OW 5370   1.005   3.074   3.005
 1263SOL    HW2 5371   0.937   3.008   3.021
 1263SOL    HW3 5372   1.023   3.068   2.912
 1263SOL    MW4 5373   0.998   3.065   2.996
 1264SOL     OW 5374   0.094   3.349   3.256
 1264SOL    HW2 5375   0.084   3.307   3.342
 1264SOL    HW3 5376   0.015   3.402   3.246
 1264SOL    MW4 5377   0.083   3.350   3.267
 1265SOL     OW 5378   0.998   2.213   2.826
 1265SOL    HW2 5379   0.928   2.165   2.871
 1265SOL    HW3 5380   1.030   2.276   2.890
 1265SOL    MW4 5381   0.993   2.215   2.840
 1266SOL     OW 5382   0.649   2.649   3.446
 1266SOL    HW2 5383   0.642   2.744   3.434
 1266SOL    HW3 5384   0.658   2.638   3.541
 1266SOL    MW4 5385   0.650   2.661   3.456
 1267SOL     OW 5386   0.370   3.164   3.704
 1267SOL    HW2 5387   0.442   3.166   3.641
 1267SOL    HW3 5388   0.340   3.073   3.703
 1267SOL    MW4 5389   0.375   3.153   3.696
 1268SOL     OW 5390   1.454   1.927   3.171
 1268SOL    HW2 5391   1.525   1.873   3.135
 1268SOL    HW3 5392   1.453   1.906   3.264
 1268SOL    MW4 5393   1.463   1.918   3.179
 1269SOL     OW 5394   1.654   3.457   3.655
 1269SOL    HW2 5395   1.627   3.454   3.746
 1269SOL    HW3 5396   1.750   3.461   3.658
 1269SOL    MW4 5397   1.664   3.457   3.667
 1270SOL     OW 5398   0.465   2.319   2.639
 1270SOL    HW2 5399   0.536   2.267   2.602
 1270SOL    HW3 5400   0.451   2.284   2.726
 1270SOL    MW4 5401   0.473   2.308   2.646
 1271SOL     OW 5402   0.020   3.654   3.711
 1271SOL    HW2 5403   0.070   3.632   3.633
 1271SOL    HW3 5404   0.028   3.749   3.719
 1271SOL    MW4 5405   0.028   3.663   3.702
 1272SOL     OW 5406   0.781   3.412   2.715
 1272SOL    HW2 5407   0.709   3.349   2.728
 1272SOL    HW3 5408   0.742   3.497   2.733
 1272SOL    MW4 5409   0.765   3.415   2.718
 1273SOL     OW 5410   1.101   2.260   2.363
 1273SOL    HW2 5411   1.123   2.197   2.295
 1273SOL    HW3 5412   1.006   2.252   2.374
 1273SOL    MW4 5413   1.091   2.251   2.355
 1274SOL     OW 5414   0.186   1.950   2.295
 1274SOL    HW2 5415   0.257   1.971   2.234
 1274SOL    HW3 5416   0.140   1.878   2.253
 1274SOL    MW4 5417   0.190   1.944   2.281
 1275SOL     OW 5418   0.017   2.417   3.438
 1275SOL    HW2 5419   0.081   2.483   3.413
 1275SOL    HW3 5420  -0.064   2.444   3.395
 1275SOL    MW4 5421   0.015   2.429   3.430
 1276SOL     OW 5422   1.755   3.324   2.395
 1276SOL    HW2 5423   1.725   3.257   2.456
 1276SOL    HW3 5424   1.849   3.330   2.409
 1276SOL    MW4 5425   1.763   3.316   2.405
 1277SOL     OW 5426   1.311   3.001   2.325
 1277SOL    HW2 5427   1.283   3.087   2.358
 1277SOL    HW3 5428   1.339   3.017   2.235
 1277SOL    MW4 5429   1.311   3.015   2.317
 1278SOL     OW 5430   0.973   1.921   2.378
 1278SOL    HW2 5431   1.010   1.980   2.443
 1278SOL    HW3 5432   0.950   1.977   2.304
 1278SOL    MW4 5433   0.974   1.936   2.377
 1279SOL     OW 5434   1.826   2.803   2.800
 1279SOL    HW2 5435   1.817   2.835   2.711
 1279SOL    HW3 5436   1.779   2.719   2.800
 1279SOL    MW4 5437   1.819   2.796   2.790
 1280SOL     OW 5438   0.202   2.643   3.379
 1280SOL    HW2 5439   0.223   2.712   3.317
 1280SOL    HW3 5440   0.282   2.590   3.384
 1280SOL    MW4 5441   0.215   2.644   3.373
 1281SOL     OW 5442   1.738   2.734   2.501
 1281SOL    HW2 5443   1.832   2.723   2.489
 1281SOL    HW3 5444   1.714   2.806   2.442
 1281SOL    MW4 5445   1.748   2.742   2.492
 1282SOL     OW 5446   0.187   2.658   3.646
 1282SOL    HW2 5447   0.113   2.602   3.672
 1282SOL    HW3 5448   0.182   2.661   3.551
 1282SOL    MW4 5449   0.176   2.651   3.636
 1283SOL     OW 5450   0.353   1.945   3.096
 1283SOL    HW2 5451   0.396   2.029   3.116
 1283SOL    HW3 5452   0.426   1.883   3.089
 1283SOL    MW4 5453   0.368   1.948   3.097
 1284SOL     OW 5454   0.394   2.612   2.274
 1284SOL    HW2 5455   0.394   2.707   2.259
 1284SOL    HW3 5456   0.471   2.596   2.328
 1284SOL    MW4 5457   0.404   2.623   2.279
 1285SOL     OW 5458   1.170   2.471   3.338
 1285SOL    HW2 5459   1.206   2.444   3.254
 1285SOL    HW3 5460   1.083   2.505   3.317
 1285SOL    MW4 5461   1.164   2.472   3.325
 1286SOL     OW 5462   0.153   2.343   2.563
 1286SOL    HW2 5463   0.215   2.350   2.636
 1286SOL    HW3 5464   0.153   2.250   2.540
 1286SOL    MW4 5465   0.161   2.332   2.570
 1287SOL     OW 5466   1.700   3.683   2.095
 1287SOL    HW2 5467   1.767   3.716   2.035
 1287SOL    HW3 5468   1.657   3.762   2.129
 1287SOL    MW4 5469   1.702   3.698   2.091
 1288SOL     OW 5470   0.835   2.604   3.047
 1288SOL    HW2 5471   0.793   2.522   3.023
 1288SOL    HW3 5472   0.836   2.603   3.143
 1288SOL    MW4 5473   0.828   2.593   3.056
 1289SOL     OW 5474   1.506   3.737   3.446
 1289SOL    HW2 5475   1.509   3.643   3.429
 1289SOL    HW3 5476   1.529   3.745   3.538
 1289SOL    MW4 5477   1.509   3.725   3.456
 1290SOL     OW 5478   0.639   2.074   3.152
 1290SOL    HW2 5479   0.570   2.137   3.173
 1290SOL    HW3 5480   0.666   2.038   3.237
 1290SOL    MW4 5481   0.633   2.077   3.165
 1291SOL     OW 5482   0.022   2.915   2.021
 1291SOL    HW2 5483  -0.009   2.980   2.084
 1291SOL    HW3 5484  -0.029   2.837   2.040
 1291SOL    MW4 5485   0.012   2.912   2.031
 1292SOL     OW 5486   1.434   1.927   2.769
 1292SOL    HW2 5487   1.522   1.936   2.806
 1292SOL    HW3 5488   1.444   1.868   2.695
 1292SOL    MW4 5489   1.448   1.921   2.763
 1293SOL     OW 5490   1.466   2.666   2.613
 1293SOL    HW2 5491   1.546   2.681   2.562
 1293SOL    HW3 5492   1.459   2.571   2.619
 1293SOL    MW4 5493   1.475   2.655   2.608
 1294SOL     OW 5494   0.606   3.715   1.963
 1294SOL    HW2 5495   0.511   3.715   1.955
 1294SOL    HW3 5496   0.622   3.661   2.041
 1294SOL    MW4 5497   0.596   3.709   1.972
 1295SOL     OW 5498   0.916   2.592   3.310
 1295SOL    HW2 5499   0.985   2.659   3.307
 1295SOL    HW3 5500   0.849   2.630   3.366
 1295SOL    MW4 5501   0.917   2.605   3.317
 1296SOL     OW 5502   0.334   2.892   3.558
 1296SOL    HW2 5503   0.288   2.808   3.560
 1296SOL    HW3 5504   0.391   2.886   3.482
 1296SOL    MW4 5505   0.336   2.880   3.550
 1297SOL     OW 5506   1.451   2.535   1.879
 1297SOL    HW2 5507   1.379   2.511   1.821
 1297SOL    HW3 5508   1.517   2.572   1.821
 1297SOL    MW4 5509   1.450   2.537   1.864
 1298SOL     OW 5510   0.585   3.267   2.559
 1298SOL    HW2 5511   0.650   3.200   2.580
 1298SOL    HW3 5512   0.637   3.344   2.536
 1298SOL    MW4 5513   0.600   3.269   2.558
 1299SOL     OW 5514   0.846   2.432   2.689
 1299SOL    HW2 5515   0.786   2.450   2.761
 1299SOL    HW3 5516   0.880   2.344   2.708
 1299SOL    MW4 5517   0.842   2.422   2.702
 1300SOL     OW 5518   1.787   1.931   3.358
 1300SOL    HW2 5519   1.708   1.977   3.386
 1300SOL    HW3 5520   1.822   1.985   3.287
 1300SOL    MW4 5521   1.781   1.944   3.352
 1301SOL     OW 5522   1.071   3.015   2.708
 1301SOL    HW2 5523   1.163   2.996   2.726
 1301SOL    HW3 5524   1.044   2.945   2.648
 1301SOL    MW4 5525   1.079   3.003   2.702
 1302SOL     OW 5526   0.864   2.835   2.063
 1302SOL    HW2 5527   0.850   2.747   2.028
 1302SOL    HW3 5528   0.815   2.892   2.004
 1302SOL    MW4 5529   0.856   2.830   2.051
 1303SOL     OW 5530   1.345   3.253   2.804
 1303SOL    HW2 5531   1.318   3.337   2.769
 1303SOL    HW3 5532   1.305   3.248   2.891
 1303SOL    MW4 5533   1.338   3.262   2.810
 1304SOL     OW 5534   1.264   3.201   3.072
 1304SOL    HW2 5535   1.275   3.168   3.161
 1304SOL    HW3 5536   1.183   3.160   3.041
 1304SOL    MW4 5537   1.254   3.193   3.078
 1305SOL     OW 5538   0.277   2.559   2.842
 1305SOL    HW2 5539   0.227   2.558   2.923
 1305SOL    HW3 5540   0.297   2.651   2.826
 1305SOL    MW4 5541   0.273   2.571   2.850
 1306SOL     OW 5542   1.344   3.323   3.604
 1306SOL    HW2 5543   1.344   3.417   3.620
 1306SOL    HW3 5544   1.389   3.313   3.520
 1306SOL    MW4 5545   1.350   3.333   3.595
 1307SOL     OW 5546   1.583   2.041   2.165
 1307SOL    HW2 5547   1.576   2.045   2.260
 1307SOL    HW3 5548   1.595   2.132   2.138
 1307SOL    MW4 5549   1.584   2.054   2.173
 1308SOL     OW 5550   0.872   2.604   2.279
 1308SOL    HW2 5551   0.852   2.590   2.186
 1308SOL    HW3 5552   0.965   2.583   2.286
 1308SOL    MW4 5553   0.882   2.599   2.268
 1309SOL     OW 5554   0.199   2.227   3.583
 1309SOL    HW2 5555   0.156   2.286   3.520
 1309SOL    HW3 5556   0.267   2.282   3.623
 1309SOL    MW4 5557   0.203   2.242   3.580
 1310SOL     OW 5558   1.311   2.847   3.128
 1310SOL    HW2 5559   1.374   2.844   3.201
 1310SOL    HW3 5560   1.227   2.865   3.170
 1310SOL    MW4 5561   1.307   2.849   3.143
 1311SOL     OW 5562   0.855   3.562   2.317
 1311SOL    HW2 5563   0.913   3.633   2.344
 1311SOL    HW3 5564   0.878   3.490   2.375
 1311SOL    MW4 5565   0.866   3.562   2.328
 1312SOL     OW 5566   1.650   2.024   2.907
 1312SOL    HW2 5567   1.695   1.942   2.926
 1312SOL    HW3 5568   1.670   2.080   2.983
 1312SOL    MW4 5569   1.660   2.020   2.919
 1313SOL     OW 5570   0.098   1.867   3.006
 1313SOL    HW2 5571   0.089   1.868   2.911
 1313SOL    HW3 5572   0.192   1.879   3.021
 1313SOL    MW4 5573   0.110   1.870   2.997
 1314SOL     OW 5574   1.735   3.060   2.626
 1314SOL    HW2 5575   1.714   3.006   2.549
 1314SOL    HW3 5576   1.831   3.058   2.630
 1314SOL    MW4 5577   1.744   3.053   2.615
 1315SOL     OW 5578   0.427   3.205   3.369
 1315SOL    HW2 5579   0.348   3.155   3.392
 1315SOL    HW3 5580   0.497   3.164   3.419
 1315SOL    MW4 5581   0.425   3.193   3.379
 1316SOL     OW 5582   0.311   1.994   2.052
 1316SOL    HW2 5583   0.240   2.049   2.020
 1316SOL    HW3 5584   0.353   1.960   1.973
 1316SOL    MW4 5585   0.307   1.996   2.038
 1317SOL     OW 5586   1.435   2.491   2.888
 1317SOL    HW2 5587   1.358   2.537   2.854
 1317SOL    HW3 5588   1.492   2.560   2.922
 1317SOL    MW4 5589   1.432   2.506   2.888
 1318SOL     OW 5590   0.067   2.093   1.901
 1318SOL    HW2 5591   0.034   2.172   1.945
 1318SOL    HW3 5592   0.122   2.126   1.830
 1318SOL    MW4 5593   0.070   2.107   1.898
 1319SOL     OW 5594   0.101   3.350   2.090
 1319SOL    HW2 5595   0.118   3.434   2.132
 1319SOL    HW3 5596   0.136   3.359   2.002
 1319SOL    MW4 5597   0.106   3.363   2.084
 1320SOL     OW 5598   1.373   3.439   2.307
 1320SOL    HW2 5599   1.436   3.429   2.236
 1320SOL    HW3 5600   1.290   3.459   2.262
 1320SOL    MW4 5601   1.370   3.440   2.292
 1321SOL     OW 5602   1.736   2.707   3.993
 1321SOL    HW2 5603   1.777   2.649   4.058
 1321SOL    HW3 5604   1.643   2.699   4.010
 1321SOL    MW4 5605   1.730   2.699   4.003
 1322SOL     OW 5606   1.602   2.639   4.988
 1322SOL    HW2 5607   1.557   2.706   5.039
 1322SOL    HW3 5608   1.690   2.675   4.974
 1322SOL    MW4 5609   1.608   2.652   4.992
 1323SOL     OW 5610   0.530   2.890   4.222
 1323SOL    HW2 5611   0.620   2.865   4.206
 1323SOL    HW3 5612   0.526   2.983   4.199
 1323SOL    MW4 5613   0.542   2.899   4.217
 1324SOL     OW 5614   1.646   3.593   4.364
 1324SOL    HW2 5615   1.658   3.539   4.442
 1324SOL    HW3 5616   1.683   3.541   4.293
 1324SOL    MW4 5617   1.652   3.578   4.365
 1325SOL     OW 5618   1.025   3.478   5.365
 1325SOL    HW2 5619   1.066   3.514   5.286
 1325SOL    HW3 5620   1.060   3.389   5.372
 1325SOL    MW4 5621   1.036   3.471   5.356
 1326SOL     OW 5622   1.582   3.033   4.969
 1326SOL    HW2 5623   1.503   2.998   4.927
 1326SOL    HW3 5624   1.609   3.105   4.913
 1326SOL    MW4 5625   1.575   3.038   4.956
 1327SOL     OW 5626   0.814   2.346   4.235
 1327SOL    HW2 5627   0.789   2.434   4.263
 1327SOL    HW3 5628   0.811   2.349   4.139
 1327SOL    MW4 5629   0.810   2.358   4.227
 1328SOL     OW 5630   0.256   2.374   4.163
 1328SOL    HW2 5631   0.288   2.462   4.145
 1328SOL    HW3 5632   0.244   2.372   4.258
 1328SOL    MW4 5633   0.259   2.386   4.175
 1329SOL     OW 5634   0.334   2.787   5.064
 1329SOL    HW2 5635   0.397   2.734   5.015
 1329SOL    HW3 5636   0.315   2.861   5.007
 1329SOL    MW4 5637   0.340   2.789   5.051
 1330SOL     OW 5638   0.655   2.129   4.250
 1330SOL    HW2 5639   0.713   2.205   4.252
 1330SOL    HW3 5640   0.590   2.150   4.183
 1330SOL    MW4 5641   0.654   2.141   4.241
 1331SOL     OW 5642   0.742   3.056   4.425
 1331SOL    HW2 5643   0.822   3.059   4.477
 1331SOL    HW3 5644   0.770   3.023   4.339
 1331SOL    MW4 5645   0.756   3.052   4.420
 1332SOL     OW 5646   0.767   3.397   5.328
 1332SOL    HW2 5647   0.851   3.423   5.367
 1332SOL    HW3 5648   0.791   3.341   5.254
 1332SOL    MW4 5649   0.781   3.393   5.323
 1333SOL     OW 5650   0.519   2.560   4.416
 1333SOL    HW2 5651   0.504   2.480   4.467
 1333SOL    HW3 5652   0.601   2.595   4.450
 1333SOL    MW4 5653   0.527   2.552   4.428
 1334SOL     OW 5654   0.856   3.246   5.101
 1334SOL    HW2 5655   0.820   3.312   5.041
 1334SOL    HW3 5656   0.784   3.184   5.114
 1334SOL    MW4 5657   0.842   3.246   5.095
 1335SOL     OW 5658   0.661   2.386   4.793
 1335SOL    HW2 5659   0.567   2.382   4.811
 1335SOL    HW3 5660   0.691   2.295   4.802
 1335SOL    MW4 5661   0.652   2.374   4.796
 1336SOL     OW 5662   0.407   2.800   4.697
 1336SOL    HW2 5663   0.362   2.807   4.613
 1336SOL    HW3 5664   0.387   2.883   4.741
 1336SOL    MW4 5665   0.399   2.812   4.691
 1337SOL     OW 5666   0.104   3.646   4.572
 1337SOL    HW2 5667   0.193   3.638   4.607
 1337SOL    HW3 5668   0.068   3.558   4.577
 1337SOL    MW4 5669   0.111   3.633   4.577
 1338SOL     OW 5670   1.369   3.038   3.941
 1338SOL    HW2 5671   1.287   3.074   3.907
 1338SOL    HW3 5672   1.437   3.081   3.890
 1338SOL    MW4 5673   1.367   3.048   3.929
 1339SOL     OW 5674   0.368   3.173   4.607
 1339SOL    HW2 5675   0.344   3.226   4.683
 1339SOL    HW3 5676   0.424   3.231   4.555
 1339SOL    MW4 5677   0.372   3.188   4.610
 1340SOL     OW 5678   0.930   2.817   4.417
 1340SOL    HW2 5679   0.844   2.804   4.457
 1340SOL    HW3 5680   0.983   2.744   4.449
 1340SOL    MW4 5681   0.926   2.806   4.426
 1341SOL     OW 5682   0.338   3.469   5.202
 1341SOL    HW2 5683   0.246   3.445   5.187
 1341SOL    HW3 5684   0.382   3.386   5.219
 1341SOL    MW4 5685   0.332   3.454   5.201
 1342SOL     OW 5686   0.921   3.179   4.134
 1342SOL    HW2 5687   0.898   3.241   4.202
 1342SOL    HW3 5688   0.878   3.097   4.160
 1342SOL    MW4 5689   0.913   3.175   4.145
 1343SOL     OW 5690   1.794   2.180   4.590
 1343SOL    HW2 5691   1.731   2.160   4.659
 1343SOL    HW3 5692   1.784   2.109   4.527
 1343SOL    MW4 5693   1.784   2.167   4.591
 1344SOL     OW 5694   0.418   2.152   4.102
 1344SOL    HW2 5695   0.392   2.114   4.018
 1344SOL    HW3 5696   0.355   2.222   4.118
 1344SOL    MW4 5697   0.407   2.155   4.093
 1345SOL     OW 5698   0.253   3.113   4.139
 1345SOL    HW2 5699   0.201   3.181   4.095
 1345SOL    HW3 5700   0.250   3.039   4.079
 1345SOL    MW4 5701   0.245   3.112   4.126
 1346SOL     OW 5702   0.915   3.576   3.917
 1346SOL    HW2 5703   0.870   3.592   4.000
 1346SOL    HW3 5704   0.846   3.541   3.859
 1346SOL    MW4 5705   0.901   3.573   3.919
 1347SOL     OW 5706   1.850   2.349   3.892
 1347SOL    HW2 5707   1.759   2.351   3.920
 1347SOL    HW3 5708   1.895   2.411   3.950
 1347SOL    MW4 5709   1.843   2.357   3.902
 1348SOL     OW 5710   1.595   2.952   4.242
 1348SOL    HW2 5711   1.505   2.952   4.277
 1348SOL    HW3 5712   1.588   2.998   4.159
 1348SOL    MW4 5713   1.582   2.958   4.236
 1349SOL     OW 5714   1.395   2.587   5.314
 1349SOL    HW2 5715   1.464   2.525   5.291
 1349SOL    HW3 5716   1.320   2.561   5.261
 1349SOL    MW4 5717   1.395   2.574   5.305
 1350SOL     OW 5718   0.136   3.467   4.866
 1350SOL    HW2 5719   0.119   3.413   4.943
 1350SOL    HW3 5720   0.124   3.557   4.896
 1350SOL    MW4 5721   0.133   3.471   4.880
 1351SOL     OW 5722   1.131   2.974   5.306
 1351SOL    HW2 5723   1.116   3.067   5.291
 1351SOL    HW3 5724   1.226   2.964   5.306
 1351SOL    MW4 5725   1.140   2.984   5.303
 1352SOL     OW 5726   0.927   2.398   5.507
 1352SOL    HW2 5727   1.017   2.399   5.474
 1352SOL    HW3 5728   0.886   2.323   5.465
 1352SOL    MW4 5729   0.933   2.388   5.498
 1353SOL     OW 5730   1.502   2.930   4.634
 1353SOL    HW2 5731   1.505   2.864   4.565
 1353SOL    HW3 5732   1.587   2.973   4.630
 1353SOL    MW4 5733   1.514   2.926   4.625
 1354SOL     OW 5734   1.122   2.533   4.203
 1354SOL    HW2 5735   1.148   2.557   4.114
 1354SOL    HW3 5736   1.104   2.440   4.199
 1354SOL    MW4 5737   1.124   2.525   4.190
 1355SOL     OW 5738   1.787   3.153   4.054
 1355SOL    HW2 5739   1.743   3.194   4.129
 1355SOL    HW3 5740   1.844   3.221   4.019
 1355SOL    MW4 5741   1.789   3.167   4.059
 1356SOL     OW 5742   0.707   2.202   5.457
 1356SOL    HW2 5743   0.717   2.128   5.397
 1356SOL    HW3 5744   0.743   2.171   5.540
 1356SOL    MW4 5745   0.713   2.188   5.459
 1357SOL     OW 5746   0.443   3.569   4.372
 1357SOL    HW2 5747   0.475   3.657   4.350
 1357SOL    HW3 5748   0.396   3.541   4.294
 1357SOL    MW4 5749   0.442   3.577   4.359
 1358SOL     OW 5750   1.827   1.931   4.421
 1358SOL    HW2 5751   1.881   1.882   4.483
 1358SOL    HW3 5752   1.770   1.865   4.382
 1358SOL    MW4 5753   1.827   1.915   4.423
 1359SOL     OW 5754   0.159   3.629   3.949
 1359SOL    HW2 5755   0.188   3.719   3.941
 1359SOL    HW3 5756   0.109   3.612   3.870
 1359SOL    MW4 5757   0.157   3.637   3.938
 1360SOL     OW 5758   0.946   1.884   4.834
 1360SOL    HW2 5759   0.905   1.962   4.796
 1360SOL    HW3 5760   1.040   1.902   4.829
 1360SOL    MW4 5761   0.952   1.896   4.829
 1361SOL     OW 5762   1.563   3.437   3.920
 1361SOL    HW2 5763   1.611   3.506   3.966
 1361SOL    HW3 5764   1.484   3.481   3.889
 1361SOL    MW4 5765   1.558   3.451   3.923
 1362SOL     OW 5766   0.961   2.562   3.864
 1362SOL    HW2 5767   0.963   2.509   3.785
 1362SOL    HW3 5768   1.049   2.599   3.870
 1362SOL    MW4 5769   0.973   2.561   3.853
 1363SOL     OW 5770   1.575   2.488   4.200
 1363SOL    HW2 5771   1.614   2.488   4.287
 1363SOL    HW3 5772   1.516   2.564   4.200
 1363SOL    MW4 5773   1.572   2.499   4.211
 1364SOL     OW 5774   0.892   2.855   5.329
 1364SOL    HW2 5775   0.869   2.835   5.419
 1364SOL    HW3 5776   0.977   2.899   5.334
 1364SOL    MW4 5777   0.899   2.858   5.341
 1365SOL     OW 5778   0.972   1.992   5.089
 1365SOL    HW2 5779   0.978   1.954   5.002
 1365SOL    HW3 5780   0.961   2.086   5.074
 1365SOL    MW4 5781   0.973   2.000   5.077
 1366SOL     OW 5782   1.061   2.481   4.923
 1366SOL    HW2 5783   1.136   2.510   4.870
 1366SOL    HW3 5784   0.993   2.546   4.907
 1366SOL    MW4 5785   1.062   2.493   4.913
 1367SOL     OW 5786   1.611   2.449   5.200
 1367SOL    HW2 5787   1.592   2.358   5.179
 1367SOL    HW3 5788   1.589   2.498   5.121
 1367SOL    MW4 5789   1.606   2.442   5.187
 1368SOL     OW 5790   1.753   3.543   5.104
 1368SOL    HW2 5791   1.681   3.505   5.155
 1368SOL    HW3 5792   1.770   3.628   5.145
 1368SOL    MW4 5793   1.747   3.548   5.116
 1369SOL     OW 5794   1.058   2.187   5.306
 1369SOL    HW2 5795   1.024   2.226   5.225
 1369SOL    HW3 5796   1.036   2.095   5.299
 1369SOL    MW4 5797   1.051   2.180   5.296
 1370SOL     OW 5798   1.467   3.001   5.382
 1370SOL    HW2 5799   1.549   3.042   5.412
 1370SOL    HW3 5800   1.430   2.963   5.462
 1370SOL    MW4 5801   1.473   3.002   5.397
 1371SOL     OW 5802   1.762   2.374   4.366
 1371SOL    HW2 5803   1.851   2.343   4.383
 1371SOL    HW3 5804   1.705   2.314   4.414
 1371SOL    MW4 5805   1.765   2.362   4.375
 1372SOL     OW 5806   0.188   2.088   4.395
 1372SOL    HW2 5807   0.179   2.028   4.321
 1372SOL    HW3 5808   0.121   2.059   4.458
 1372SOL    MW4 5809   0.178   2.075   4.393
 1373SOL     OW 5810   1.131   3.181   3.956
 1373SOL    HW2 5811   1.081   3.183   4.038
 1373SOL    HW3 5812   1.065   3.199   3.888
 1373SOL    MW4 5813   1.117   3.183   3.958
 1374SOL     OW 5814   0.135   2.261   4.758
 1374SOL    HW2 5815   0.107   2.352   4.767
 1374SOL    HW3 5816   0.072   2.222   4.697
 1374SOL    MW4 5817   0.122   2.267   4.752
 1375SOL     OW 5818   0.594   3.599   4.064
 1375SOL    HW2 5819   0.515   3.557   4.097
 1375SOL    HW3 5820   0.660   3.582   4.131
 1375SOL    MW4 5821   0.593   3.591   4.077
 1376SOL     OW 5822   1.722   3.119   5.461
 1376SOL    HW2 5823   1.772   3.045   5.493
 1376SOL    HW3 5824   1.668   3.146   5.536
 1376SOL    MW4 5825   1.722   3.113   5.474
 1377SOL     OW 5826   0.730   3.014   3.771
 1377SOL    HW2 5827   0.652   2.960   3.758
 1377SOL    HW3 5828   0.701   3.087   3.824
 1377SOL    MW4 5829   0.716   3.016   3.776
 1378SOL     OW 5830   1.856   2.754   4.963
 1378SOL    HW2 5831   1.872   2.792   4.876
 1378SOL    HW3 5832   1.890   2.820   5.024
 1378SOL    MW4 5833   1.863   2.767   4.959
 1379SOL     OW 5834   1.648   3.463   4.632
 1379SOL    HW2 5835   1.677   3.530   4.693
 1379SOL    HW3 5836   1.629   3.387   4.687
 1379SOL    MW4 5837   1.650   3.463   4.647
 1380SOL     OW 5838   1.311   3.530   3.839
 1380SOL    HW2 5839   1.237   3.493   3.889
 1380SOL    HW3 5840   1.319   3.620   3.872
 1380SOL    MW4 5841   1.302   3.537   3.851
 1381SOL     OW 5842   0.119   2.536   4.928
 1381SOL    HW2 5843   0.181   2.566   4.994
 1381SOL    HW3 5844   0.053   2.605   4.922
 1381SOL    MW4 5845   0.118   2.549   4.935
 1382SOL     OW 5846   1.535   3.204   3.781
 1382SOL    HW2 5847   1.482   3.253   3.717
 1382SOL    HW3 5848   1.566   3.270   3.842
 1382SOL    MW4 5849   1.533   3.218   3.779
 1383SOL     OW 5850   0.760   2.093   3.836
 1383SOL    HW2 5851   0.708   2.013   3.824
 1383SOL    HW3 5852   0.847   2.070   3.804
 1383SOL    MW4 5853   0.763   2.079   3.830
 1384SOL     OW 5854   0.214   3.645   5.380
 1384SOL    HW2 5855   0.188   3.713   5.318
 1384SOL    HW3 5856   0.262   3.582   5.328
 1384SOL    MW4 5857   0.216   3.645   5.366
 1385SOL     OW 5858   0.266   2.964   4.887
 1385SOL    HW2 5859   0.319   3.039   4.912
 1385SOL    HW3 5860   0.185   3.002   4.853
 1385SOL    MW4 5861   0.262   2.979   4.887
 1386SOL     OW 5862   0.806   2.868   4.875
 1386SOL    HW2 5863   0.834   2.777   4.887
 1386SOL    HW3 5864   0.735   2.862   4.811
 1386SOL    MW4 5865   0.799   2.856   4.870
 1387SOL     OW 5866   0.121   2.733   4.293
 1387SOL    HW2 5867   0.212   2.748   4.320
 1387SOL    HW3 5868   0.124   2.654   4.239
 1387SOL    MW4 5869   0.133   2.725   4.291
 1388SOL     OW 5870   0.357   2.441   5.547
 1388SOL    HW2 5871   0.304   2.521   5.554
 1388SOL    HW3 5872   0.427   2.453   5.612
 1388SOL    MW4 5873   0.359   2.454   5.555
 1389SOL     OW 5874   0.743   1.991   5.254
 1389SOL    HW2 5875   0.720   1.899   5.256
 1389SOL    HW3 5876   0.829   1.993   5.211
 1389SOL    MW4 5877   0.750   1.981   5.250
 1390SOL     OW 5878   0.427   2.515   5.293
 1390SOL    HW2 5879   0.507   2.565   5.279
 1390SOL    HW3 5880   0.418   2.509   5.388
 1390SOL    MW4 5881   0.436   2.521   5.303
 1391SOL     OW 5882   0.748   3.665   4.667
 1391SOL    HW2 5883   0.837   3.680   4.697
 1391SOL    HW3 5884   0.743   3.712   4.583
 1391SOL    MW4 5885   0.758   3.673   4.660
 1392SOL     OW 5886   1.404   2.040   5.564
 1392SOL    HW2 5887   1.460   1.967   5.590
 1392SOL    HW3 5888   1.374   2.078   5.646
 1392SOL    MW4 5889   1.408   2.035   5.577
 1393SOL     OW 5890   0.129   3.345   4.332
 1393SOL    HW2 5891   0.101   3.384   4.414
 1393SOL    HW3 5892   0.149   3.254   4.354
 1393SOL    MW4 5893   0.127   3.337   4.345
 1394SOL     OW 5894   0.962   3.388   4.367
 1394SOL    HW2 5895   1.045   3.342   4.351
 1394SOL    HW3 5896   0.952   3.387   4.463
 1394SOL    MW4 5897   0.972   3.381   4.377
 1395SOL     OW 5898   1.794   2.533   4.681
 1395SOL    HW2 5899   1.883   2.563   4.663
 1395SOL    HW3 5900   1.774   2.473   4.610
 1395SOL    MW4 5901   1.803   2.530   4.670
 1396SOL     OW 5902   1.645   2.712   5.561
 1396SOL    HW2 5903   1.700   2.636   5.542
 1396SOL    HW3 5904   1.647   2.720   5.656
 1396SOL    MW4 5905   1.653   2.703   5.569
 1397SOL     OW 5906   0.695   3.445   3.772
 1397SOL    HW2 5907   0.635   3.514   3.742
 1397SOL    HW3 5908   0.640   3.387   3.825
 1397SOL    MW4 5909   0.679   3.447   3.774
 1398SOL     OW 5910   1.133   2.090   3.995
 1398SOL    HW2 5911   1.066   2.066   3.932
 1398SOL    HW3 5912   1.198   2.139   3.944
 1398SOL    MW4 5913   1.133   2.092   3.980
 1399SOL     OW 5914   0.940   2.274   5.080
 1399SOL    HW2 5915   0.859   2.315   5.108
 1399SOL    HW3 5916   0.987   2.342   5.032
 1399SOL    MW4 5917   0.935   2.289   5.078
 1400SOL     OW 5918   1.200   2.612   4.703
 1400SOL    HW2 5919   1.213   2.706   4.713
 1400SOL    HW3 5920   1.161   2.602   4.617
 1400SOL    MW4 5921   1.196   2.623   4.693
 1401SOL     OW 5922   0.652   2.807   4.507
 1401SOL    HW2 5923   0.563   2.798   4.540
 1401SOL    HW3 5924   0.656   2.897   4.475
 1401SOL    MW4 5925   0.641   2.818   4.507
 1402SOL     OW 5926   1.451   2.390   4.502
 1402SOL    HW2 5927   1.396   2.311   4.501
 1402SOL    HW3 5928   1.433   2.431   4.586
 1402SOL    MW4 5929   1.441   2.385   4.511
 1403SOL     OW 5930   0.422   2.077   5.319
 1403SOL    HW2 5931   0.343   2.095   5.371
 1403SOL    HW3 5932   0.417   2.139   5.246
 1403SOL    MW4 5933   0.412   2.087   5.316
 1404SOL     OW 5934   1.070   2.594   4.459
 1404SOL    HW2 5935   1.007   2.526   4.483
 1404SOL    HW3 5936   1.090   2.575   4.367
 1404SOL    MW4 5937   1.064   2.581   4.451
 1405SOL     OW 5938   0.326   3.489   4.161
 1405SOL    HW2 5939   0.287   3.536   4.087
 1405SOL    HW3 5940   0.260   3.424   4.186
 1405SOL    MW4 5941   0.313   3.487   4.155
 1406SOL     OW 5942   0.818   2.898   4.185
 1406SOL    HW2 5943   0.820   2.872   4.092
 1406SOL    HW3 5944   0.876   2.835   4.228
 1406SOL    MW4 5945   0.826   2.887   4.179
 1407SOL     OW 5946   1.371   3.458   4.957
 1407SOL    HW2 5947   1.296   3.504   4.995
 1407SOL    HW3 5948   1.353   3.365   4.974
 1407SOL    MW4 5949   1.360   3.452   4.965
 1408SOL     OW 5950   1.375   3.666   4.387
 1408SOL    HW2 5951   1.318   3.619   4.326
 1408SOL    HW3 5952   1.461   3.627   4.374
 1408SOL    MW4 5953   1.378   3.657   4.377
 1409SOL     OW 5954   1.328   2.142   4.518
 1409SOL    HW2 5955   1.356   2.074   4.579
 1409SOL    HW3 5956   1.242   2.113   4.488
 1409SOL    MW4 5957   1.321   2.129   4.522
 1410SOL     OW 5958   0.133   3.076   4.452
 1410SOL    HW2 5959   0.197   3.108   4.515
 1410SOL    HW3 5960   0.182   3.012   4.400
 1410SOL    MW4 5961   0.148   3.072   4.453
 1411SOL     OW 5962   0.633   3.152   5.434
 1411SOL    HW2 5963   0.681   3.235   5.421
 1411SOL    HW3 5964   0.690   3.100   5.490
 1411SOL    MW4 5965   0.647   3.156   5.440
 1412SOL     OW 5966   0.209   3.394   5.574
 1412SOL    HW2 5967   0.265   3.318   5.589
 1412SOL    HW3 5968   0.158   3.372   5.496
 1412SOL    MW4 5969   0.209   3.381   5.565
 1413SOL     OW 5970   1.308   2.246   3.853
 1413SOL    HW2 5971   1.281   2.312   3.789
 1413SOL    HW3 5972   1.378   2.289   3.903
 1413SOL    MW4 5973   1.313   2.259   3.850
 1414SOL     OW 5974   0.976   1.951   3.790
 1414SOL    HW2 5975   1.032   1.943   3.712
 1414SOL    HW3 5976   0.953   1.861   3.812
 1414SOL    MW4 5977   0.981   1.938   3.783
 1415SOL     OW 5978   1.481   2.802   3.995
 1415SOL    HW2 5979   1.448   2.891   3.985
 1415SOL    HW3 5980   1.446   2.773   4.080
 1415SOL    MW4 5981   1.471   2.811   4.006
 1416SOL     OW 5982   1.094   3.231   5.183
 1416SOL    HW2 5983   1.005   3.237   5.151
 1416SOL    HW3 5984   1.138   3.310   5.151
 1416SOL    MW4 5985   1.089   3.241   5.175
 1417SOL     OW 5986   0.387   1.899   5.525
 1417SOL    HW2 5987   0.315   1.864   5.473
 1417SOL    HW3 5988   0.445   1.940   5.460
 1417SOL    MW4 5989   0.385   1.900   5.510
 1418SOL     OW 5990   0.411   3.389   4.824
 1418SOL    HW2 5991   0.456   3.451   4.881
 1418SOL    HW3 5992   0.318   3.408   4.837
 1418SOL    MW4 5993   0.404   3.399   4.831
 1419SOL     OW 5994   1.851   2.918   5.178
 1419SOL    HW2 5995   1.766   2.931   5.137
 1419SOL    HW3 5996   1.831   2.882   5.265
 1419SOL    MW4 5997   1.838   2.914   5.183
 1420SOL     OW 5998   0.833   3.457   4.932
 1420SOL    HW2 5999   0.857   3.446   4.841
 1420SOL    HW3 6000   0.756   3.514   4.930
 1420SOL    MW4 6001   0.825   3.462   4.921
 1421SOL     OW 6002   0.475   2.840   3.787
 1421SOL    HW2 6003   0.398   2.853   3.843
 1421SOL    HW3 6004   0.439   2.804   3.706
 1421SOL    MW4 6005   0.461   2.836   3.784
 1422SOL     OW 6006   1.128   2.813   4.030
 1422SOL    HW2 6007   1.038   2.834   4.005
 1422SOL    HW3 6008   1.155   2.886   4.086
 1422SOL    MW4 6009   1.120   2.825   4.033
 1423SOL     OW 6010   0.628   3.162   4.722
 1423SOL    HW2 6011   0.621   3.141   4.816
 1423SOL    HW3 6012   0.546   3.130   4.685
 1423SOL    MW4 6013   0.616   3.156   4.729
 1424SOL     OW 6014   1.492   2.172   5.124
 1424SOL    HW2 6015   1.439   2.174   5.204
 1424SOL    HW3 6016   1.477   2.085   5.087
 1424SOL    MW4 6017   1.484   2.162   5.129
 1425SOL     OW 6018   1.828   2.096   4.997
 1425SOL    HW2 6019   1.809   2.163   4.932
 1425SOL    HW3 6020   1.885   2.034   4.952
 1425SOL    MW4 6021   1.832   2.097   4.983
 1426SOL     OW 6022   0.074   3.254   5.385
 1426SOL    HW2 6023   0.118   3.187   5.331
 1426SOL    HW3 6024  -0.011   3.216   5.405
 1426SOL    MW4 6025   0.069   3.240   5.381
 1427SOL     OW 6026   0.757   1.929   4.437
 1427SOL    HW2 6027   0.686   1.990   4.419
 1427SOL    HW3 6028   0.808   1.926   4.356
 1427SOL    MW4 6029   0.753   1.935   4.424
 1428SOL     OW 6030   0.515   3.169   4.186
 1428SOL    HW2 6031   0.508   3.201   4.276
 1428SOL    HW3 6032   0.425   3.153   4.158
 1428SOL    MW4 6033   0.503   3.171   4.193
 1429SOL     OW 6034   1.110   3.562   5.095
 1429SOL    HW2 6035   1.030   3.547   5.045
 1429SOL    HW3 6036   1.117   3.657   5.102
 1429SOL    MW4 6037   1.101   3.573   5.089
 1430SOL     OW 6038   1.224   3.527   4.585
 1430SOL    HW2 6039   1.271   3.600   4.544
 1430SOL    HW3 6040   1.145   3.566   4.621
 1430SOL    MW4 6041   1.219   3.542   4.584
 1431SOL     OW 6042   1.632   3.622   4.860
 1431SOL    HW2 6043   1.675   3.592   4.940
 1431SOL    HW3 6044   1.551   3.570   4.857
 1431SOL    MW4 6045   1.627   3.611   4.870
 1432SOL     OW 6046   0.717   2.586   5.567
 1432SOL    HW2 6047   0.787   2.528   5.539
 1432SOL    HW3 6048   0.660   2.531   5.622
 1432SOL    MW4 6049   0.719   2.573   5.571
 1433SOL     OW 6050   1.504   2.798   5.200
 1433SOL    HW2 6051   1.509   2.851   5.280
 1433SOL    HW3 6052   1.466   2.715   5.228
 1433SOL    MW4 6053   1.500   2.793   5.215
 1434SOL     OW 6054   1.144   1.933   5.446
 1434SOL    HW2 6055   1.139   1.840   5.427
 1434SOL    HW3 6056   1.227   1.944   5.492
 1434SOL    MW4 6057   1.152   1.922   5.450
 1435SOL     OW 6058   0.518   2.453   3.900
 1435SOL    HW2 6059   0.484   2.509   3.970
 1435SOL    HW3 6060   0.589   2.403   3.940
 1435SOL    MW4 6061   0.524   2.454   3.914
 1436SOL     OW 6062   1.614   3.204   4.722
 1436SOL    HW2 6063   1.649   3.186   4.635
 1436SOL    HW3 6064   1.519   3.205   4.709
 1436SOL    MW4 6065   1.606   3.201   4.709
 1437SOL     OW 6066   1.043   2.852   5.091
 1437SOL    HW2 6067   1.086   2.887   5.169
 1437SOL    HW3 6068   1.026   2.929   5.037
 1437SOL    MW4 6069   1.046   2.867   5.094
 1438SOL     OW 6070   1.574   2.339   3.964
 1438SOL    HW2 6071   1.566   2.410   3.901
 1438SOL    HW3 6072   1.592   2.383   4.047
 1438SOL    MW4 6073   1.575   2.353   3.966
 1439SOL     OW 6074   0.434   1.994   4.393
 1439SOL    HW2 6075   0.484   2.037   4.324
 1439SOL    HW3 6076   0.349   2.038   4.393
 1439SOL    MW4 6077   0.431   2.007   4.384
 1440SOL     OW 6078   0.193   3.056   5.253
 1440SOL    HW2 6079   0.221   3.009   5.331
 1440SOL    HW3 6080   0.114   3.011   5.224
 1440SOL    MW4 6081   0.186   3.045   5.259
 1441SOL     OW 6082   0.701   2.383   5.220
 1441SOL    HW2 6083   0.673   2.471   5.244
 1441SOL    HW3 6084   0.670   2.327   5.291
 1441SOL    MW4 6085   0.693   2.386   5.232
 1442SOL     OW 6086   1.243   2.601   3.939
 1442SOL    HW2 6087   1.290   2.619   3.858
 1442SOL    HW3 6088   1.209   2.685   3.967
 1442SOL    MW4 6089   1.245   2.615   3.932
 1443SOL     OW 6090   0.356   2.779   4.433
 1443SOL    HW2 6091   0.414   2.835   4.381
 1443SOL    HW3 6092   0.400   2.694   4.435
 1443SOL    MW4 6093   0.369   2.776   4.426
 1444SOL     OW 6094   1.496   2.131   4.270
 1444SOL    HW2 6095   1.418   2.081   4.295
 1444SOL    HW3 6096   1.467   2.222   4.270
 1444SOL    MW4 6097   1.482   2.135   4.273
 1445SOL     OW 6098   1.082   2.093   4.429
 1445SOL    HW2 6099   1.102   2.168   4.373
 1445SOL    HW3 6100   1.062   2.132   4.514
 1445SOL    MW4 6101   1.083   2.109   4.433
 1446SOL     OW 6102   0.978   3.343   3.761
 1446SOL    HW2 6103   1.005   3.421   3.713
 1446SOL    HW3 6104   0.885   3.358   3.780
 1446SOL    MW4 6105   0.969   3.356   3.757
 1447SOL     OW 6106   1.842   2.866   5.448
 1447SOL    HW2 6107   1.755   2.846   5.484
 1447SOL    HW3 6108   1.896   2.792   5.473
 1447SOL    MW4 6109   1.837   2.855   5.456
 1448SOL     OW 6110   0.063   3.379   4.605
 1448SOL    HW2 6111   0.095   3.383   4.696
 1448SOL    HW3 6112  -0.032   3.387   4.613
 1448SOL    MW4 6113   0.055   3.382   4.618
 1449SOL     OW 6114   0.018   2.505   4.152
 1449SOL    HW2 6115  -0.042   2.477   4.222
 1449SOL    HW3 6116   0.092   2.445   4.158
 1449SOL    MW4 6117   0.020   2.494   4.161
 1450SOL     OW 6118   1.586   3.717   5.586
 1450SOL    HW2 6119   1.631   3.641   5.551
 1450SOL    HW3 6120   1.624   3.730   5.673
 1450SOL    MW4 6121   1.596   3.710   5.592
 1451SOL     OW 6122   1.186   3.236   4.312
 1451SOL    HW2 6123   1.209   3.187   4.390
 1451SOL    HW3 6124   1.267   3.278   4.284
 1451SOL    MW4 6125   1.199   3.236   4.319
 1452SOL     OW 6126   0.444   2.244   5.041
 1452SOL    HW2 6127   0.477   2.325   5.081
 1452SOL    HW3 6128   0.417   2.270   4.953
 1452SOL    MW4 6129   0.443   2.258   5.035
 1453SOL     OW 6130   0.398   2.211   4.777
 1453SOL    HW2 6131   0.428   2.125   4.748
 1453SOL    HW3 6132   0.303   2.204   4.780
 1453SOL    MW4 6133   0.390   2.200   4.775
 1454SOL     OW 6134   1.227   2.420   5.468
 1454SOL    HW2 6135   1.279   2.355   5.421
 1454SOL    HW3 6136   1.185   2.471   5.398
 1454SOL    MW4 6137   1.228   2.417   5.451
 1455SOL     OW 6138   1.326   2.215   5.329
 1455SOL    HW2 6139   1.233   2.199   5.316
 1455SOL    HW3 6140   1.352   2.153   5.397
 1455SOL    MW4 6141   1.316   2.205   5.336
 1456SOL     OW 6142   0.541   1.989   4.668
 1456SOL    HW2 6143   0.551   1.898   4.694
 1456SOL    HW3 6144   0.497   1.985   4.583
 1456SOL    MW4 6145   0.537   1.977   4.660
 1457SOL     OW 6146   0.635   3.604   5.214
 1457SOL    HW2 6147   0.552   3.589   5.259
 1457SOL    HW3 6148   0.694   3.537   5.249
 1457SOL    MW4 6149   0.633   3.594   5.224
 1458SOL     OW 6150   1.692   2.311   4.839
 1458SOL    HW2 6151   1.625   2.344   4.899
 1458SOL    HW3 6152   1.735   2.389   4.805
 1458SOL    MW4 6153   1.690   2.326   4.843
 1459SOL     OW 6154   1.870   3.031   4.809
 1459SOL    HW2 6155   1.863   2.971   4.734
 1459SOL    HW3 6156   1.796   3.091   4.798
 1459SOL    MW4 6157   1.860   3.031   4.798
 1460SOL     OW 6158   1.252   2.893   4.727
 1460SOL    HW2 6159   1.266   2.865   4.818
 1460SOL    HW3 6160   1.338   2.924   4.699
 1460SOL    MW4 6161   1.265   2.894   4.736
 1461SOL     OW 6162   1.335   2.388   5.006
 1461SOL    HW2 6163   1.356   2.389   4.913
 1461SOL    HW3 6164   1.380   2.310   5.039
 1461SOL    MW4 6165   1.342   2.378   4.998
 1462SOL     OW 6166   1.828   2.519   5.548
 1462SOL    HW2 6167   1.865   2.464   5.617
 1462SOL    HW3 6168   1.853   2.476   5.466
 1462SOL    MW4 6169   1.835   2.507   5.547
 1463SOL     OW 6170   1.375   2.817   5.600
 1463SOL    HW2 6171   1.441   2.765   5.554
 1463SOL    HW3 6172   1.395   2.804   5.693
 1463SOL    MW4 6173   1.386   2.808   5.607
 1464SOL     OW 6174   1.326   1.903   3.948
 1464SOL    HW2 6175   1.400   1.947   3.991
 1464SOL    HW3 6176   1.250   1.957   3.970
 1464SOL    MW4 6177   1.326   1.915   3.956
 1465SOL     OW 6178   1.386   2.678   4.226
 1465SOL    HW2 6179   1.301   2.648   4.196
 1465SOL    HW3 6180   1.378   2.685   4.321
 1465SOL    MW4 6181   1.374   2.676   4.235
 1466SOL     OW 6182   0.462   3.141   4.957
 1466SOL    HW2 6183   0.474   3.168   5.048
 1466SOL    HW3 6184   0.443   3.222   4.910
 1466SOL    MW4 6185   0.461   3.156   4.962
 1467SOL     OW 6186   0.746   2.121   4.780
 1467SOL    HW2 6187   0.719   2.123   4.871
 1467SOL    HW3 6188   0.676   2.073   4.735
 1467SOL    MW4 6189   0.734   2.117   4.787
 1468SOL     OW 6190   0.600   3.613   4.942
 1468SOL    HW2 6191   0.652   3.690   4.919
 1468SOL    HW3 6192   0.609   3.605   5.037
 1468SOL    MW4 6193   0.609   3.620   4.953
 1469SOL     OW 6194   1.502   3.198   5.174
 1469SOL    HW2 6195   1.487   3.127   5.237
 1469SOL    HW3 6196   1.548   3.156   5.102
 1469SOL    MW4 6197   1.508   3.182   5.174
 1470SOL     OW 6198   0.576   2.929   5.291
 1470SOL    HW2 6199   0.613   2.934   5.203
 1470SOL    HW3 6200   0.615   3.002   5.338
 1470SOL    MW4 6201   0.586   2.939   5.286
 1471SOL     OW 6202   0.756   2.972   5.103
 1471SOL    HW2 6203   0.815   2.918   5.156
 1471SOL    HW3 6204   0.771   2.944   5.013
 1471SOL    MW4 6205   0.766   2.961   5.099
 1472SOL     OW 6206   0.759   2.344   3.952
 1472SOL    HW2 6207   0.832   2.393   3.915
 1472SOL    HW3 6208   0.775   2.253   3.926
 1472SOL    MW4 6209   0.771   2.339   3.945
 1473SOL     OW 6210   1.567   3.461   5.275
 1473SOL    HW2 6211   1.609   3.446   5.360
 1473SOL    HW3 6212   1.558   3.374   5.237
 1473SOL    MW4 6213   1.571   3.449   5.282
 1474SOL     OW 6214   1.227   1.940   4.866
 1474SOL    HW2 6215   1.282   1.949   4.788
 1474SOL    HW3 6216   1.282   1.974   4.937
 1474SOL    MW4 6217   1.241   1.945   4.865
 1475SOL     OW 6218   0.234   2.853   4.050
 1475SOL    HW2 6219   0.171   2.869   3.979
 1475SOL    HW3 6220   0.181   2.816   4.121
 1475SOL    MW4 6221   0.219   2.850   4.050
 1476SOL     OW 6222   0.590   3.207   3.909
 1476SOL    HW2 6223   0.605   3.183   4.001
 1476SOL    HW3 6224   0.498   3.185   3.893
 1476SOL    MW4 6225   0.580   3.200   3.919
 1477SOL     OW 6226   1.129   3.438   4.061
 1477SOL    HW2 6227   1.137   3.356   4.012
 1477SOL    HW3 6228   1.048   3.477   4.028
 1477SOL    MW4 6229   1.119   3.433   4.051
 1478SOL     OW 6230   0.388   3.596   4.630
 1478SOL    HW2 6231   0.392   3.507   4.665
 1478SOL    HW3 6232   0.414   3.587   4.539
 1478SOL    MW4 6233   0.391   3.584   4.622
 1479SOL     OW 6234   1.005   3.074   4.873
 1479SOL    HW2 6235   0.937   3.008   4.889
 1479SOL    HW3 6236   1.023   3.068   4.780
 1479SOL    MW4 6237   0.998   3.065   4.864
 1480SOL     OW 6238   0.094   3.349   5.124
 1480SOL    HW2 6239   0.084   3.307   5.210
 1480SOL    HW3 6240   0.015   3.402   5.114
 1480SOL    MW4 6241   0.083   3.350   5.135
 1481SOL     OW 6242   0.998   2.213   4.694
 1481SOL    HW2 6243   0.928   2.165   4.739
 1481SOL    HW3 6244   1.030   2.276   4.758
 1481SOL    MW4 6245   0.993   2.215   4.708
 1482SOL     OW 6246   0.649   2.649   5.314
 1482SOL    HW2 6247   0.642   2.744   5.302
 1482SOL    HW3 6248   0.658   2.638   5.409
 1482SOL    MW4 6249   0.650   2.661   5.324
 1483SOL     OW 6250   0.370   3.164   5.572
 1483SOL    HW2 6251   0.442   3.166   5.509
 1483SOL    HW3 6252   0.340   3.073   5.571
 1483SOL    MW4 6253   0.375   3.153   5.564
 1484SOL     OW 6254   1.454   1.927   5.039
 1484SOL    HW2 6255   1.525   1.873   5.003
 1484SOL    HW3 6256   1.453   1.906   5.132
 1484SOL    MW4 6257   1.463   1.918   5.047
 1485SOL     OW 6258   1.654   3.457   5.523
 1485SOL    HW2 6259   1.627   3.454   5.614
 1485SOL    HW3 6260   1.750   3.461   5.526
 1485SOL    MW4 6261   1.664   3.457   5.535
 1486SOL     OW 6262   0.465   2.319   4.507
 1486SOL    HW2 6263   0.536   2.267   4.470
 1486SOL    HW3 6264   0.451   2.284   4.594
 1486SOL    MW4 6265   0.473   2.308   4.514
 1487SOL     OW 6266   0.020   3.654   5.579
 1487SOL    HW2 6267   0.070   3.632   5.501
 1487SOL    HW3 6268   0.028   3.749   5.587
 1487SOL    MW4 6269   0.028   3.663   5.570
 1488SOL     OW 6270   0.781   3.412   4.583
 1488SOL    HW2 6271   0.709   3.349   4.596
 1488SOL    HW3 6272   0.742   3.497   4.601
 1488SOL    MW4 6273   0.765   3.415   4.586
 1489SOL     OW 6274   1.101   2.260   4.231
 1489SOL    HW2 6275   1.123   2.197   4.163
 1489SOL    HW3 6276   1.006   2.252   4.242
 1489SOL    MW4 6277   1.091   2.251   4.223
 1490SOL     OW 6278   0.186   1.950   4.163
 1490SOL    HW2 6279   0.257   1.971   4.102
 1490SOL    HW3 6280   0.140   1.878   4.121
 1490SOL    MW4 6281   0.190   1.944   4.149
 1491SOL     OW 6282   0.017   2.417   5.306
 1491SOL    HW2 6283   0.081   2.483   5.281
 1491SOL    HW3 6284  -0.064   2.444   5.263
 1491SOL    MW4 6285   0.015   2.429   5.298
 1492SOL     OW 6286   1.755   3.324   4.263
 1492SOL    HW2 6287   1.725   3.257   4.324
 1492SOL    HW3 6288   1.849   3.330   4.277
 1492SOL    MW4 6289   1.763   3.316   4.273
 1493SOL     OW 6290   1.311   3.001   4.193
 1493SOL    HW2 6291   1.283   3.087   4.226
 1493SOL    HW3 6292   1.339   3.017   4.103
 1493SOL    MW4 6293   1.311   3.015   4.185
 1494SOL     OW 6294   0.973   1.921   4.246
 1494SOL    HW2 6295   1.010   1.980   4.311
 1494SOL    HW3 6296   0.950   1.977   4.172
 1494SOL    MW4 6297   0.974   1.936   4.245
 1495SOL     OW 6298   1.826   2.803   4.668
 1495SOL    HW2 6299   1.817   2.835   4.579
 1495SOL    HW3 6300   1.779   2.719   4.668
 1495SOL    MW4 6301   1.819   2.796   4.658
 1496SOL     OW 6302   0.202   2.643   5.247
 1496SOL    HW2 6303   0.223   2.712   5.185
 1496SOL    HW3 6304   0.282   2.590   5.252
 1496SOL    MW4 6305   0.215   2.644   5.241
 1497SOL     OW 6306   1.738   2.734   4.369
 1497SOL    HW2 6307   1.832   2.723   4.357
 1497SOL    HW3 6308   1.714   2.806   4.310
 1497SOL    MW4 6309   1.748   2.742   4.360
 1498SOL     OW 6310   0.187   2.658   5.514
 1498SOL    HW2 6311   0.113   2.602   5.540
 1498SOL    HW3 6312   0.182   2.661   5.419
 1498SOL    MW4 6313   0.176   2.651   5.504
 1499SOL     OW 6314   0.353   1.945   4.964
 1499SOL    HW2 6315   0.396   2.029   4.984
 1499SOL    HW3 6316   0.426   1.883   4.957
 1499SOL    MW4 6317   0.368   1.948   4.965
 1500SOL     OW 6318   0.394   2.612   4.142
 1500SOL    HW2 6319   0.394   2.707   4.127
 1500SOL    HW3 6320   0.471   2.596   4.196
 1500SOL    MW4 6321   0.404   2.623   4.147
 1501SOL     OW 6322   1.170   2.471   5.206
 1501SOL    HW2 6323   1.206   2.444   5.122
 1501SOL    HW3 6324   1.083   2.505   5.185
 1501SOL    MW4 6325   1.164   2.472   5.193
 1502SOL     OW 6326   0.153   2.343   4.431
 1502SOL    HW2 6327   0.215   2.350   4.504
 1502SOL    HW3 6328   0.153   2.250   4.408
 1502SOL    MW4 6329   0.161   2.332   4.438
 1503SOL     OW 6330   1.700   3.683   3.963
 1503SOL    HW2 6331   1.767   3.716   3.903
 1503SOL    HW3 6332   1.657   3.762   3.997
 1503SOL    MW4 6333   1.702   3.698   3.959
 1504SOL     OW 6334   0.835   2.604   4.915
 1504SOL    HW2 6335   0.793   2.522   4.891
 1504SOL    HW3 6336   0.836   2.603   5.011
 1504SOL    MW4 6337   0.828   2.593   4.924
 1505SOL     OW 6338   1.506   3.737   5.314
 1505SOL    HW2 6339   1.509   3.643   5.297
 1505SOL    HW3 6340   1.529   3.745   5.406
 1505SOL    MW4 6341   1.509   3.725   5.324
 1506SOL     OW 6342   0.639   2.074   5.020
 1506SOL    HW2 6343   0.570   2.137   5.041
 1506SOL    HW3 6344   0.666   2.038   5.105
 1506SOL    MW4 6345   0.633   2.077   5.033
 1507SOL     OW 6346   0.022   2.915   3.889
 1507SOL    HW2 6347  -0.009   2.980   3.952
 1507SOL    HW3 6348  -0.029   2.837   3.908
 1507SOL    MW4 6349   0.012   2.912   3.899
 1508SOL     OW 6350   1.434   1.927   4.637
 1508SOL    HW2 6351   1.522   1.936   4.674
 1508SOL    HW3 6352   1.444   1.868   4.563
 1508SOL    MW4 6353   1.448   1.921   4.631
 1509SOL     OW 6354   1.466   2.666   4.481
 1509SOL    HW2 6355   1.546   2.681   4.430
 1509SOL    HW3 6356   1.459   2.571   4.487
 1509SOL    MW4 6357   1.475   2.655   4.476
 1510SOL     OW 6358   0.606   3.715   3.831
 1510SOL    HW2 6359   0.511   3.715   3.823
 1510SOL    HW3 6360   0.622   3.661   3.909
 1510SOL    MW4 6361   0.596   3.709   3.840
 1511SOL     OW 6362   0.916   2.592   5.178
 1511SOL    HW2 6363   0.985   2.659   5.175
 1511SOL    HW3 6364   0.849   2.630   5.234
 1511SOL    MW4 6365   0.917   2.605   5.185
 1512SOL     OW 6366   0.334   2.892   5.426
 1512SOL    HW2 6367   0.288   2.808   5.428
 1512SOL    HW3 6368   0.391   2.886   5.350
 1512SOL    MW4 6369   0.336   2.880   5.418
 1513SOL     OW 6370   1.451   2.535   3.747
 1513SOL    HW2 6371   1.379   2.511   3.689
 1513SOL    HW3 6372   1.517   2.572   3.689
 1513SOL    MW4 6373   1.450   2.537   3.732
 1514SOL     OW 6374   0.585   3.267   4.427
 1514SOL    HW2 6375   0.650   3.200   4.448
 1514SOL    HW3 6376   0.637   3.344   4.404
 1514SOL    MW4 6377   0.600   3.269   4.426
 1515SOL     OW 6378   0.846   2.432   4.557
 1515SOL    HW2 6379   0.786   2.450   4.629
 1515SOL    HW3 6380   0.880   2.344   4.576
 1515SOL    MW4 6381   0.842   2.422   4.570
 1516SOL     OW 6382   1.787   1.931   5.226
 1516SOL    HW2 6383   1.708   1.977   5.254
 1516SOL    HW3 6384   1.822   1.985   5.155
 1516SOL    MW4 6385   1.781   1.944   5.220
 1517SOL     OW 6386   1.071   3.015   4.576
 1517SOL    HW2 6387   1.163   2.996   4.594
 1517SOL    HW3 6388   1.044   2.945   4.516
 1517SOL    MW4 6389   1.079   3.003   4.570
 1518SOL     OW 6390   0.864   2.835   3.931
 1518SOL    HW2 6391   0.850   2.747   3.896
 1518SOL    HW3 6392   0.815   2.892   3.872
 1518SOL    MW4 6393   0.856   2.830   3.919
 1519SOL     OW 6394   1.345   3.253   4.672
 1519SOL    HW2 6395   1.318   3.337   4.637
 1519SOL    HW3 6396   1.305   3.248   4.759
 1519SOL    MW4 6397   1.338   3.262   4.678
 1520SOL     OW 6398   1.264   3.201   4.940
 1520SOL    HW2 6399   1.275   3.168   5.029
 1520SOL    HW3 6400   1.183   3.160   4.909
 1520SOL    MW4 6401   1.254   3.193   4.946
 1521SOL     OW 6402   0.277   2.559   4.710
 1521SOL    HW2 6403   0.227   2.558   4.791
 1521SOL    HW3 6404   0.297   2.651   4.694
 1521SOL    MW4 6405   0.273   2.571   4.718
 1522SOL     OW 6406   1.344   3.323   5.472
 1522SOL    HW2 6407   1.344   3.417   5.488
 1522SOL    HW3 6408   1.389   3.313   5.388
 1522SOL    MW4 6409   1.350   3.333   5.463
 1523SOL     OW 6410   1.583   2.041   4.033
 1523SOL    HW2 6411   1.576   2.045   4.128
 1523SOL    HW3 6412   1.595   2.132   4.006
 1523SOL    MW4 6413   1.584   2.054   4.041
 1524SOL     OW 6414   0.872   2.604   4.147
 1524SOL    HW2 6415   0.852   2.590   4.054
 1524SOL    HW3 6416   0.965   2.583   4.154
 1524SOL    MW4 6417   0.882   2.599   4.136
 1525SOL     OW 6418   0.199   2.227   5.451
 1525SOL    HW2 6419   0.156   2.286   5.388
 1525SOL    HW3 6420   0.267   2.282   5.491
 1525SOL    MW4 6421   0.203   2.242   5.448
 1526SOL     OW 6422   1.311   2.847   4.996
 1526SOL    HW2 6423   1.374   2.844   5.069
 1526SOL    HW3 6424   1.227   2.865   5.038
 1526SOL    MW4 6425   1.307   2.849   5.011
 1527SOL     OW 6426   0.855   3.562   4.185
 1527SOL    HW2 6427   0.913   3.633   4.212
 1527SOL    HW3 6428   0.878   3.490   4.243
 1527SOL    MW4 6429   0.866   3.562   4.196
 1528SOL     OW 6430   1.650   2.024   4.775
 1528SOL    HW2 6431   1.695   1.942   4.794
 1528SOL    HW3 6432   1.670   2.080   4.851
 1528SOL    MW4 6433   1.660   2.020   4.787
 1529SOL     OW 6434   0.098   1.867   4.874
 1529SOL    HW2 6435   0.089   1.868   4.779
 1529SOL    HW3 6436   0.192   1.879   4.889
 1529SOL    MW4 6437   0.110   1.870   4.865
 1530SOL     OW 6438   1.735   3.060   4.494
 1530SOL    HW2 6439   1.714   3.006   4.417
 1530SOL    HW3 6440   1.831   3.058   4.498
 1530SOL    MW4 6441   1.744   3.053   4.483
 1531SOL     OW 6442   0.427   3.205   5.237
 1531SOL    HW2 6443   0.348   3.155   5.260
 1531SOL    HW3 6444   0.497   3.164   5.287
 1531SOL    MW4 6445   0.425   3.193   5.247
 1532SOL     OW 6446   0.311   1.994   3.920
 1532SOL    HW2 6447   0.240   2.049   3.888
 1532SOL    HW3 6448   0.353   1.960   3.841
 1532SOL    MW4 6449   0.307   1.996   3.906
 1533SOL     OW 6450   1.435   2.491   4.756
 1533SOL    HW2 6451   1.358   2.537   4.722
 1533SOL    HW3 6452   1.492   2.560   4.790
 1533SOL    MW4 6453   1.432   2.506   4.756
 1534SOL     OW 6454   0.067   2.093   3.769
 1534SOL    HW2 6455   0.034   2.172   3.813
 1534SOL    HW3 6456   0.122   2.126   3.698
 1534SOL    MW4 6457   0.070   2.107   3.766
 1535SOL     OW 6458   0.101   3.350   3.958
 1535SOL    HW2 6459   0.118   3.434   4.000
 1535SOL    HW3 6460   0.136   3.359   3.870
 1535SOL    MW4 6461   0.106   3.363   3.952
 1536SOL     OW 6462   1.373   3.439   4.175
 1536SOL    HW2 6463   1.436   3.429   4.104
 1536SOL    HW3 6464   1.290   3.459   4.130
 1536SOL    MW4 6465   1.370   3.440   4.160
 1537SOL     OW 6466   1.736   2.707   5.862
 1537SOL    HW2 6467   1.777   2.649   5.927
 1537SOL    HW3 6468   1.643   2.699   5.879
 1537SOL    MW4 6469   1.730   2.699   5.872
 1538SOL     OW 6470   1.602   2.639   6.857
 1538SOL    HW2 6471   1.557   2.706   6.908
 1538SOL    HW3 6472   1.690   2.675   6.843
 1538SOL    MW4 6473   1.608   2.652   6.861
 1539SOL     OW 6474   0.530   2.890   6.091
 1539SOL    HW2 6475   0.620   2.865   6.075
 1539SOL    HW3 6476   0.526   2.983   6.068
 1539SOL    MW4 6477   0.542   2.899   6.086
 1540SOL     OW 6478   1.646   3.593   6.233
 1540SOL    HW2 6479   1.658   3.539   6.311
 1540SOL    HW3 6480   1.683   3.541   6.162
 1540SOL    MW4 6481   1.652   3.578   6.234
 1541SOL     OW 6482   1.025   3.478   7.234
 1541SOL    HW2 6483   1.066   3.514   7.155
 1541SOL    HW3 6484   1.060   3.389   7.241
 1541SOL    MW4 6485   1.036   3.471   7.225
 1542SOL     OW 6486   1.582   3.033   6.838
 1542SOL    HW2 6487   1.503   2.998   6.796
 1542SOL    HW3 6488   1.609   3.105   6.782
 1542SOL    MW4 6489   1.575   3.038   6.825
 1543SOL     OW 6490   0.814   2.346   6.104
 1543SOL    HW2 6491   0.789   2.434   6.132
 1543SOL    HW3 6492   0.811   2.349   6.008
 1543SOL    MW4 6493   0.810   2.358   6.096
 1544SOL     OW 6494   0.256   2.374   6.032
 1544SOL    HW2 6495   0.288   2.462   6.014
 1544SOL    HW3 6496   0.244   2.372   6.127
 1544SOL    MW4 6497   0.259   2.386   6.044
 1545SOL     OW 6498   0.334   2.787   6.933
 1545SOL    HW2 6499   0.397   2.734   6.884
 1545SOL    HW3 6500   0.315   2.861   6.876
 1545SOL    MW4 6501   0.340   2.789   6.920
 1546SOL     OW 6502   0.655   2.129   6.119
 1546SOL    HW2 6503   0.713   2.205   6.121
 1546SOL    HW3 6504   0.590   2.150   6.052
 1546SOL    MW4 6505   0.654   2.141   6.110
 1547SOL     OW 6506   0.742   3.056   6.294
 1547SOL    HW2 6507   0.822   3.059   6.346
 1547SOL    HW3 6508   0.770   3.023   6.208
 1547SOL    MW4 6509   0.756   3.052   6.289
 1548SOL     OW 6510   0.767   3.397   7.197
 1548SOL    HW2 6511   0.851   3.423   7.236
 1548SOL    HW3 6512   0.791   3.341   7.123
 1548SOL    MW4 6513   0.781   3.393   7.192
 1549SOL     OW 6514   0.519   2.560   6.285
 1549SOL    HW2 6515   0.504   2.480   6.336
 1549SOL    HW3 6516   0.601   2.595   6.319
 1549SOL    MW4 6517   0.527   2.552   6.297
 1550SOL     OW 6518   0.856   3.246   6.970
 1550SOL    HW2 6519   0.820   3.312   6.910
 1550SOL    HW3 6520   0.784   3.184   6.983
 1550SOL    MW4 6521   0.842   3.246   6.964
 1551SOL     OW 6522   0.661   2.386   6.662
 1551SOL    HW2 6523   0.567   2.382   6.680
 1551SOL    HW3 6524   0.691   2.295   6.671
 1551SOL    MW4 6525   0.652   2.374   6.665
 1552SOL     OW 6526   0.407   2.800   6.566
 1552SOL    HW2 6527   0.362   2.807   6.482
 1552SOL    HW3 6528   0.387   2.883   6.610
 1552SOL    MW4 6529   0.399   2.812   6.560
 1553SOL     OW 6530   0.104   3.646   6.441
 1553SOL    HW2 6531   0.193   3.638   6.476
 1553SOL    HW3 6532   0.068   3.558   6.446
 1553SOL    MW4 6533   0.111   3.633   6.446
 1554SOL     OW 6534   1.369   3.038   5.810
 1554SOL    HW2 6535   1.287   3.074   5.776
 1554SOL    HW3 6536   1.437   3.081   5.759
 1554SOL    MW4 6537   1.367   3.048   5.798
 1555SOL     OW 6538   0.368   3.173   6.476
 1555SOL    HW2 6539   0.344   3.226   6.552
 1555SOL    HW3 6540   0.424   3.231   6.424
 1555SOL    MW4 6541   0.372   3.188   6.479
 1556SOL     OW 6542   0.930   2.817   6.286
 1556SOL    HW2 6543   0.844   2.804   6.326
 1556SOL    HW3 6544   0.983   2.744   6.318
 1556SOL    MW4 6545   0.926   2.806   6.295
 1557SOL     OW 6546   0.338   3.469   7.071
 1557SOL    HW2 6547   0.246   3.445   7.056
 1557SOL    HW3 6548   0.382   3.386   7.088
 1557SOL    MW4 6549   0.332   3.454   7.070
 1558SOL     OW 6550   0.921   3.179   6.003
 1558SOL    HW2 6551   0.898   3.241   6.071
 1558SOL    HW3 6552   0.878   3.097   6.029
 1558SOL    MW4 6553   0.913   3.175   6.014
 1559SOL     OW 6554   1.794   2.180   6.459
 1559SOL    HW2 6555   1.731   2.160   6.528
 1559SOL    HW3 6556   1.784   2.109   6.396
 1559SOL    MW4 6557   1.784   2.167   6.460
 1560SOL     OW 6558   0.418   2.152   5.971
 1560SOL    HW2 6559   0.392   2.114   5.887
 1560SOL    HW3 6560   0.355   2.222   5.987
 1560SOL    MW4 6561   0.407   2.155   5.962
 1561SOL     OW 6562   0.253   3.113   6.008
 1561SOL    HW2 6563   0.201   3.181   5.964
 1561SOL    HW3 6564   0.250   3.039   5.948
 1561SOL    MW4 6565   0.245   3.112   5.995
 1562SOL     OW 6566   0.915   3.576   5.786
 1562SOL    HW2 6567   0.870   3.592   5.869
 1562SOL    HW3 6568   0.846   3.541   5.728
 1562SOL    MW4 6569   0.901   3.573   5.788
 1563SOL     OW 6570   1.850   2.349   5.761
 1563SOL    HW2 6571   1.759   2.351   5.789
 1563SOL    HW3 6572   1.895   2.411   5.819
 1563SOL    MW4 6573   1.843   2.357   5.771
 1564SOL     OW 6574   1.595   2.952   6.111
 1564SOL    HW2 6575   1.505   2.952   6.146
 1564SOL    HW3 6576   1.588   2.998   6.028
 1564SOL    MW4 6577   1.582   2.958   6.105
 1565SOL     OW 6578   1.395   2.587   7.183
 1565SOL    HW2 6579   1.464   2.525   7.160
 1565SOL    HW3 6580   1.320   2.561   7.130
 1565SOL    MW4 6581   1.395   2.574   7.174
 1566SOL     OW 6582   0.136   3.467   6.735
 1566SOL    HW2 6583   0.119   3.413   6.812
 1566SOL    HW3 6584   0.124   3.557   6.765
 1566SOL    MW4 6585   0.133   3.471   6.749
 1567SOL     OW 6586   1.131   2.974   7.175
 1567SOL    HW2 6587   1.116   3.067   7.160
 1567SOL    HW3 6588   1.226   2.964   7.175
 1567SOL    MW4 6589   1.140   2.984   7.172
 1568SOL     OW 6590   0.927   2.398   7.376
 1568SOL    HW2 6591   1.017   2.399   7.343
 1568SOL    HW3 6592   0.886   2.323   7.334
 1568SOL    MW4 6593   0.933   2.388   7.367
 1569SOL     OW 6594   1.502   2.930   6.503
 1569SOL    HW2 6595   1.505   2.864   6.434
 1569SOL    HW3 6596   1.587   2.973   6.499
 1569SOL    MW4 6597   1.514   2.926   6.494
 1570SOL     OW 6598   1.122   2.533   6.072
 1570SOL    HW2 6599   1.148   2.557   5.983
 1570SOL    HW3 6600   1.104   2.440   6.068
 1570SOL    MW4 6601   1.124   2.525   6.059
 1571SOL     OW 6602   1.787   3.153   5.923
 1571SOL    HW2 6603   1.743   3.194   5.998
 1571SOL    HW3 6604   1.844   3.221   5.888
 1571SOL    MW4 6605   1.789   3.167   5.928
 1572SOL     OW 6606   0.707   2.202   7.326
 1572SOL    HW2 6607   0.717   2.128   7.266
 1572SOL    HW3 6608   0.743   2.171   7.409
 1572SOL    MW4 6609   0.713   2.188   7.328
 1573SOL     OW 6610   0.443   3.569   6.241
 1573SOL    HW2 6611   0.475   3.657   6.219
 1573SOL    HW3 6612   0.396   3.541   6.163
 1573SOL    MW4 6613   0.442   3.577   6.228
 1574SOL     OW 6614   1.827   1.931   6.290
 1574SOL    HW2 6615   1.881   1.882   6.352
 1574SOL    HW3 6616   1.770   1.865   6.251
 1574SOL    MW4 6617   1.827   1.915   6.292
 1575SOL     OW 6618   0.159   3.629   5.818
 1575SOL    HW2 6619   0.188   3.719   5.810
 1575SOL    HW3 6620   0.109   3.612   5.739
 1575SOL    MW4 6621   0.157   3.637   5.807
 1576SOL     OW 6622   0.946   1.884   6.703
 1576SOL    HW2 6623   0.905   1.962   6.665
 1576SOL    HW3 6624   1.040   1.902   6.698
 1576SOL    MW4 6625   0.952   1.896   6.698
 1577SOL     OW 6626   1.563   3.437   5.789
 1577SOL    HW2 6627   1.611   3.506   5.835
 1577SOL    HW3 6628   1.484   3.481   5.758
 1577SOL    MW4 6629   1.558   3.451   5.792
 1578SOL     OW 6630   0.961   2.562   5.733
 1578SOL    HW2 6631   0.963   2.509   5.654
 1578SOL    HW3 6632   1.049   2.599   5.739
 1578SOL    MW4 6633   0.973   2.561   5.722
 1579SOL     OW 6634   1.575   2.488   6.069
 1579SOL    HW2 6635   1.614   2.488   6.156
 1579SOL    HW3 6636   1.516   2.564   6.069
 1579SOL    MW4 6637   1.572   2.499   6.080
 1580SOL     OW 6638   0.892   2.855   7.198
 1580SOL    HW2 6639   0.869   2.835   7.288
 1580SOL    HW3 6640   0.977   2.899   7.203
 1580SOL    MW4 6641   0.899   2.858   7.210
 1581SOL     OW 6642   0.972   1.992   6.958
 1581SOL    HW2 6643   0.978   1.954   6.871
 1581SOL    HW3 6644   0.961   2.086   6.943
 1581SOL    MW4 6645   0.973   2.000   6.946
 1582SOL     OW 6646   1.061   2.481   6.792
 1582SOL    HW2 6647   1.136   2.510   6.739
 1582SOL    HW3 6648   0.993   2.546   6.776
 1582SOL    MW4 6649   1.062   2.493   6.782
 1583SOL     OW 6650   1.611   2.449   7.069
 1583SOL    HW2 6651   1.592   2.358   7.048
 1583SOL    HW3 6652   1.589   2.498   6.990
 1583SOL    MW4 6653   1.606   2.442   7.056
 1584SOL     OW 6654   1.753   3.543   6.973
 1584SOL    HW2 6655   1.681   3.505   7.024
 1584SOL    HW3 6656   1.770   3.628   7.014
 1584SOL    MW4 6657   1.747   3.548   6.985
 1585SOL     OW 6658   1.058   2.187   7.175
 1585SOL    HW2 6659   1.024   2.226   7.094
 1585SOL    HW3 6660   1.036   2.095   7.168
 1585SOL    MW4 6661   1.051   2.180   7.165
 1586SOL     OW 6662   1.467   3.001   7.251
 1586SOL    HW2 6663   1.549   3.042   7.281
 1586SOL    HW3 6664   1.430   2.963   7.331
 1586SOL    MW4 6665   1.473   3.002   7.266
 1587SOL     OW 6666   1.762   2.374   6.235
 1587SOL    HW2 6667   1.851   2.343   6.252
 1587SOL    HW3 6668   1.705   2.314   6.283
 1587SOL    MW4 6669   1.765   2.362   6.244
 1588SOL     OW 6670   0.188   2.088   6.264
 1588SOL    HW2 6671   0.179   2.028   6.190
 1588SOL    HW3 6672   0.121   2.059   6.327
 1588SOL    MW4 6673   0.178   2.075   6.262
 1589SOL     OW 6674   1.131   3.181   5.825
 1589SOL    HW2 6675   1.081   3.183   5.907
 1589SOL    HW3 6676   1.065   3.199   5.757
 1589SOL    MW4 6677   1.117   3.183   5.827
 1590SOL     OW 6678   0.135   2.261   6.627
 1590SOL    HW2 6679   0.107   2.352   6.636
 1590SOL    HW3 6680   0.072   2.222   6.566
 1590SOL    MW4 6681   0.122   2.267   6.621
 1591SOL     OW 6682   0.594   3.599   5.933
 1591SOL    HW2 6683   0.515   3.557   5.966
 1591SOL    HW3 6684   0.660   3.582   6.000
 1591SOL    MW4 6685   0.593   3.591   5.946
 1592SOL     OW 6686   1.722   3.119   7.330
 1592SOL    HW2 6687   1.772   3.045   7.362
 1592SOL    HW3 6688   1.668   3.146   7.405
 1592SOL    MW4 6689   1.722   3.113   7.343
 1593SOL     OW 6690   0.730   3.014   5.640
 1593SOL    HW2 6691   0.652   2.960   5.627
 1593SOL    HW3 6692   0.701   3.087   5.693
 1593SOL    MW4 6693   0.716   3.016   5.645
 1594SOL     OW 6694   1.856   2.754   6.832
 1594SOL    HW2 6695   1.872   2.792   6.745
 1594SOL    HW3 6696   1.890   2.820   6.893
 1594SOL    MW4 6697   1.863   2.767   6.828
 1595SOL     OW 6698   1.648   3.463   6.501
 1595SOL    HW2 6699   1.677   3.530   6.562
 1595SOL    HW3 6700   1.629   3.387   6.556
 1595SOL    MW4 6701   1.650   3.463   6.516
 1596SOL     OW 6702   1.311   3.530   5.708
 1596SOL    HW2 6703   1.237   3.493   5.758
 1596SOL    HW3 6704   1.319   3.620   5.741
 1596SOL    MW4 6705   1.302   3.537   5.720
 1597SOL     OW 6706   0.119   2.536   6.797
 1597SOL    HW2 6707   0.181   2.566   6.863
 1597SOL    HW3 6708   0.053   2.605   6.791
 1597SOL    MW4 6709   0.118   2.549   6.804
 1598SOL     OW 6710   1.535   3.204   5.650
 1598SOL    HW2 6711   1.482   3.253   5.586
 1598SOL    HW3 6712   1.566   3.270   5.711
 1598SOL    MW4 6713   1.533   3.218   5.648
 1599SOL     OW 6714   0.760   2.093   5.705
 1599SOL    HW2 6715   0.708   2.013   5.693
 1599SOL    HW3 6716   0.847   2.070   5.673
 1599SOL    MW4 6717   0.763   2.079   5.699
 1600SOL     OW 6718   0.214   3.645   7.249
 1600SOL    HW2 6719   0.188   3.713   7.187
 1600SOL    HW3 6720   0.262   3.582   7.197
 1600SOL    MW4 6721   0.216   3.645   7.235
 1601SOL     OW 6722   0.266   2.964   6.756
 1601SOL    HW2 6723   0.319   3.039   6.781
 1601SOL    HW3 6724   0.185   3.002   6.722
 1601SOL    MW4 6725   0.262   2.979   6.756
 1602SOL     OW 6726   0.806   2.868   6.744
 1602SOL    HW2 6727   0.834   2.777   6.756
 1602SOL    HW3 6728   0.735   2.862   6.680
 1602SOL    MW4 6729   0.799   2.856   6.739
 1603SOL     OW 6730   0.121   2.733   6.162
 1603SOL    HW2 6731   0.212   2.748   6.189
 1603SOL    HW3 6732   0.124   2.654   6.108
 1603SOL    MW4 6733   0.133   2.725   6.160
 1604SOL     OW 6734   0.357   2.441   7.416
 1604SOL    HW2 6735   0.304   2.521   7.423
 1604SOL    HW3 6736   0.427   2.453   7.481
 1604SOL    MW4 6737   0.359   2.454   7.424
 1605SOL     OW 6738   0.743   1.991   7.123
 1605SOL    HW2 6739   0.720   1.899   7.125
 1605SOL    HW3 6740   0.829   1.993   7.080
 1605SOL    MW4 6741   0.750   1.981   7.119
 1606SOL     OW 6742   0.427   2.515   7.162
 1606SOL    HW2 6743   0.507   2.565   7.148
 1606SOL    HW3 6744   0.418   2.509   7.257
 1606SOL    MW4 6745   0.436   2.521   7.172
 1607SOL     OW 6746   0.748   3.665   6.536
 1607SOL    HW2 6747   0.837   3.680   6.566
 1607SOL    HW3 6748   0.743   3.712   6.452
 1607SOL    MW4 6749   0.758   3.673   6.529
 1608SOL     OW 6750   1.404   2.040   7.433
 1608SOL    HW2 6751   1.460   1.967   7.459
 1608SOL    HW3 6752   1.374   2.078   7.515
 1608SOL    MW4 6753   1.408   2.035   7.446
 1609SOL     OW 6754   0.129   3.345   6.201
 1609SOL    HW2 6755   0.101   3.384   6.283
 1609SOL    HW3 6756   0.149   3.254   6.223
 1609SOL    MW4 6757   0.127   3.337   6.214
 1610SOL     OW 6758   0.962   3.388   6.236
 1610SOL    HW2 6759   1.045   3.342   6.220
 1610SOL    HW3 6760   0.952   3.387   6.332
 1610SOL    MW4 6761   0.972   3.381   6.246
 1611SOL     OW 6762   1.794   2.533   6.550
 1611SOL    HW2 6763   1.883   2.563   6.532
 1611SOL    HW3 6764   1.774   2.473   6.479
 1611SOL    MW4 6765   1.803   2.530   6.539
 1612SOL     OW 6766   1.645   2.712   7.430
 1612SOL    HW2 6767   1.700   2.636   7.411
 1612SOL    HW3 6768   1.647   2.720   7.525
 1612SOL    MW4 6769   1.653   2.703   7.438
 1613SOL     OW 6770   0.695   3.445   5.641
 1613SOL    HW2 6771   0.635   3.514   5.611
 1613SOL    HW3 6772   0.640   3.387   5.694
 1613SOL    MW4 6773   0.679   3.447   5.643
 1614SOL     OW 6774   1.133   2.090   5.864
 1614SOL    HW2 6775   1.066   2.066   5.801
 1614SOL    HW3 6776   1.198   2.139   5.813
 1614SOL    MW4 6777   1.133   2.092   5.849
 1615SOL     OW 6778   0.940   2.274   6.949
 1615SOL    HW2 6779   0.859   2.315   6.977
 1615SOL    HW3 6780   0.987   2.342   6.901
 1615SOL    MW4 6781   0.935   2.289   6.947
 1616SOL     OW 6782   1.200   2.612   6.572
 1616SOL    HW2 6783   1.213   2.706   6.582
 1616SOL    HW3 6784   1.161   2.602   6.486
 1616SOL    MW4 6785   1.196   2.623   6.562
 1617SOL     OW 6786   0.652   2.807   6.376
 1617SOL    HW2 6787   0.563   2.798   6.409
 1617SOL    HW3 6788   0.656   2.897   6.344
 1617SOL    MW4 6789   0.641   2.818   6.376
 1618SOL     OW 6790   1.451   2.390   6.371
 1618SOL    HW2 6791   1.396   2.311   6.370
 1618SOL    HW3 6792   1.433   2.431   6.455
 1618SOL    MW4 6793   1.441   2.385   6.380
 1619SOL     OW 6794   0.422   2.077   7.188
 1619SOL    HW2 6795   0.343   2.095   7.240
 1619SOL    HW3 6796   0.417   2.139   7.115
 1619SOL    MW4 6797   0.412   2.087   7.185
 1620SOL     OW 6798   1.070   2.594   6.328
 1620SOL    HW2 6799   1.007   2.526   6.352
 1620SOL    HW3 6800   1.090   2.575   6.236
 1620SOL    MW4 6801   1.064   2.581   6.320
 1621SOL     OW 6802   0.326   3.489   6.030
 1621SOL    HW2 6803   0.287   3.536   5.956
 1621SOL    HW3 6804   0.260   3.424   6.055
 1621SOL    MW4 6805   0.313   3.487   6.024
 1622SOL     OW 6806   0.818   2.898   6.054
 1622SOL    HW2 6807   0.820   2.872   5.961
 1622SOL    HW3 6808   0.876   2.835   6.097
 1622SOL    MW4 6809   0.826   2.887   6.048
 1623SOL     OW 6810   1.371   3.458   6.826
 1623SOL    HW2 6811   1.296   3.504   6.864
 1623SOL    HW3 6812   1.353   3.365   6.843
 1623SOL    MW4 6813   1.360   3.452   6.834
 1624SOL     OW 6814   1.375   3.666   6.256
 1624SOL    HW2 6815   1.318   3.619   6.195
 1624SOL    HW3 6816   1.461   3.627   6.243
 1624SOL    MW4 6817   1.378   3.657   6.246
 1625SOL     OW 6818   1.328   2.142   6.387
 1625SOL    HW2 6819   1.356   2.074   6.448
 1625SOL    HW3 6820   1.242   2.113   6.357
 1625SOL    MW4 6821   1.321   2.129   6.391
 1626SOL     OW 6822   0.133   3.076   6.321
 1626SOL    HW2 6823   0.197   3.108   6.384
 1626SOL    HW3 6824   0.182   3.012   6.269
 1626SOL    MW4 6825   0.148   3.072   6.322
 1627SOL     OW 6826   0.633   3.152   7.303
 1627SOL    HW2 6827   0.681   3.235   7.290
 1627SOL    HW3 6828   0.690   3.100   7.359
 1627SOL    MW4 6829   0.647   3.156   7.309
 1628SOL     OW 6830   0.209   3.394   7.443
 1628SOL    HW2 6831   0.265   3.318   7.458
 1628SOL    HW3 6832   0.158   3.372   7.365
 1628SOL    MW4 6833   0.209   3.381   7.434
 1629SOL     OW 6834   1.308   2.246   5.722
 1629SOL    HW2 6835   1.281   2.312   5.658
 1629SOL    HW3 6836   1.378   2.289   5.772
 1629SOL    MW4 6837   1.313   2.259   5.719
 1630SOL     OW 6838   0.976   1.951   5.659
 1630SOL    HW2 6839   1.032   1.943   5.581
 1630SOL    HW3 6840   0.953   1.861   5.681
 1630SOL    MW4 6841   0.981   1.938   5.652
 1631SOL     OW 6842   1.481   2.802   5.864
 1631SOL    HW2 6843   1.448   2.891   5.854
 1631SOL    HW3 6844   1.446   2.773   5.949
 1631SOL    MW4 6845   1.471   2.811   5.875
 1632SOL     OW 6846   1.094   3.231   7.052
 1632SOL    HW2 6847   1.005   3.237   7.020
 1632SOL    HW3 6848   1.138   3.310   7.020
 1632SOL    MW4 6849   1.089   3.241   7.044
 1633SOL     OW 6850   0.387   1.899   7.394
 1633SOL    HW2 6851   0.315   1.864   7.342
 1633SOL    HW3 6852   0.445   1.940   7.329
 1633SOL    MW4 6853   0.385   1.900   7.379
 1634SOL     OW 6854   0.411   3.389   6.693
 1634SOL    HW2 6855   0.456   3.451   6.750
 1634SOL    HW3 6856   0.318   3.408   6.706
 1634SOL    MW4 6857   0.404   3.399   6.700
 1635SOL     OW 6858   1.851   2.918   7.047
 1635SOL    HW2 6859   1.766   2.931   7.006
 1635SOL    HW3 6860   1.831   2.882   7.134
 1635SOL    MW4 6861   1.838   2.914   7.052
 1636SOL     OW 6862   0.833   3.457   6.801
 1636SOL    HW2 6863   0.857   3.446   6.710
 1636SOL    HW3 6864   0.756   3.514   6.799
 1636SOL    MW4 6865   0.825   3.462   6.790
 1637SOL     OW 6866   0.475   2.840   5.656
 1637SOL    HW2 6867   0.398   2.853   5.712
 1637SOL    HW3 6868   0.439   2.804   5.575
 1637SOL    MW4 6869   0.461   2.836   5.653
 1638SOL     OW 6870   1.128   2.813   5.899
 1638SOL    HW2 6871   1.038   2.834   5.874
 1638SOL    HW3 6872   1.155   2.886   5.955
 1638SOL    MW4 6873   1.120   2.825   5.902
 1639SOL     OW 6874   0.628   3.162   6.591
 1639SOL    HW2 6875   0.621   3.141   6.685
 1639SOL    HW3 6876   0.546   3.130   6.554
 1639SOL    MW4 6877   0.616   3.156   6.598
 1640SOL     OW 6878   1.492   2.172   6.993
 1640SOL    HW2 6879   1.439   2.174   7.073
 1640SOL    HW3 6880   1.477   2.085   6.956
 1640SOL    MW4 6881   1.484   2.162   6.998
 1641SOL     OW 6882   1.828   2.096   6.866
 1641SOL    HW2 6883   1.809   2.163   6.801
 1641SOL    HW3 6884   1.885   2.034   6.821
 1641SOL    MW4 6885   1.832   2.097   6.852
 1642SOL     OW 6886   0.074   3.254   7.254
 1642SOL    HW2 6887   0.118   3.187   7.200
 1642SOL    HW3 6888  -0.011   3.216   7.274
 1642SOL    MW4 6889   0.069   3.240   7.250
 1643SOL     OW 6890   0.757   1.929   6.306
 1643SOL    HW2 6891   0.686   1.990   6.288
 1643SOL    HW3 6892   0.808   1.926   6.225
 1643SOL    MW4 6893   0.753   1.935   6.293
 1644SOL     OW 6894   0.515   3.169   6.055
 1644SOL    HW2 6895   0.508   3.201   6.145
 1644SOL    HW3 6896   0.425   3.153   6.027
 1644SOL    MW4 6897   0.503   3.171   6.062
 1645SOL     OW 6898   1.110   3.562   6.964
 1645SOL    HW2 6899   1.030   3.547   6.914
 1645SOL    HW3 6900   1.117   3.657   6.971
 1645SOL    MW4 6901   1.101   3.573   6.958
 1646SOL     OW 6902   1.224   3.527   6.454
 1646SOL    HW2 6903   1.271   3.600   6.413
 1646SOL    HW3 6904   1.145   3.566   6.490
 1646SOL    MW4 6905   1.219   3.542   6.453
 1647SOL     OW 6906   1.632   3.622   6.729
 1647SOL    HW2 6907   1.675   3.592   6.809
 1647SOL    HW3 6908   1.551   3.570   6.726
 1647SOL    MW4 6909   1.627   3.611   6.739
 1648SOL     OW 6910   0.717   2.586   7.436
 1648SOL    HW2 6911   0.787   2.528   7.408
 1648SOL    HW3 6912   0.660   2.531   7.491
 1648SOL    MW4 6913   0.719   2.573   7.440
 1649SOL     OW 6914   1.504   2.798   7.069
 1649SOL    HW2 6915   1.509   2.851   7.149
 1649SOL    HW3 6916   1.466   2.715   7.097
 1649SOL    MW4 6917   1.500   2.793   7.084
 1650SOL     OW 6918   1.144   1.933   7.315
 1650SOL    HW2 6919   1.139   1.840   7.296
 1650SOL    HW3 6920   1.227   1.944   7.361
 1650SOL    MW4 6921   1.152   1.922   7.319
 1651SOL     OW 6922   0.518   2.453   5.769
 1651SOL    HW2 6923   0.484   2.509   5.839
 1651SOL    HW3 6924   0.589   2.403   5.809
 1651SOL    MW4 6925   0.524   2.454   5.783
 1652SOL     OW 6926   1.614   3.204   6.591
 1652SOL    HW2 6927   1.649   3.186   6.504
 1652SOL    HW3 6928   1.519   3.205   6.578
 1652SOL    MW4 6929   1.606   3.201   6.578
 1653SOL     OW 6930   1.043   2.852   6.960
 1653SOL    HW2 6931   1.086   2.887   7.038
 1653SOL    HW3 6932   1.026   2.929   6.906
 1653SOL    MW4 6933   1.046   2.867   6.963
 1654SOL     OW 6934   1.574   2.339   5.833
 1654SOL    HW2 6935   1.566   2.410   5.770
 1654SOL    HW3 6936   1.592   2.383   5.916
 1654SOL    MW4 6937   1.575   2.353   5.835
 1655SOL     OW 6938   0.434   1.994   6.262
 1655SOL    HW2 6939   0.484   2.037   6.193
 1655SOL    HW3 6940   0.349   2.038   6.262
 1655SOL    MW4 6941   0.431   2.007   6.253
 1656SOL     OW 6942   0.193   3.056   7.122
 1656SOL    HW2 6943   0.221   3.009   7.200
 1656SOL    HW3 6944   0.114   3.011   7.093
 1656SOL    MW4 6945   0.186   3.045   7.128
 1657SOL     OW 6946   0.701   2.383   7.089
 1657SOL    HW2 6947   0.673   2.471   7.113
 1657SOL    HW3 6948   0.670   2.327   7.160
 1657SOL    MW4 6949   0.693   2.386   7.101
 1658SOL     OW 6950   1.243   2.601   5.808
 1658SOL    HW2 6951   1.290   2.619   5.727
 1658SOL    HW3 6952   1.209   2.685   5.836
 1658SOL    MW4 6953   1.245   2.615   5.801
 1659SOL     OW 6954   0.356   2.779   6.302
 1659SOL    HW2 6955   0.414   2.835   6.250
 1659SOL    HW3 6956   0.400   2.694   6.304
 1659SOL    MW4 6957   0.369   2.776   6.295
 1660SOL     OW 6958   1.496   2.131   6.139
 1660SOL    HW2 6959   1.418   2.081   6.164
 1660SOL    HW3 6960   1.467   2.222   6.139
 1660SOL    MW4 6961   1.482   2.135   6.142
 1661SOL     OW 6962   1.082   2.093   6.298
 1661SOL    HW2 6963   1.102   2.168   6.242
 1661SOL    HW3 6964   1.062   2.132   6.383
 1661SOL    MW4 6965   1.083   2.109   6.302
 1662SOL     OW 6966   0.978   3.343   5.630
 1662SOL    HW2 6967   1.005   3.421   5.582
 1662SOL    HW3 6968   0.885   3.358   5.649
 1662SOL    MW4 6969   0.969   3.356   5.626
 1663SOL     OW 6970   1.842   2.866   7.317
 1663SOL    HW2 6971   1.755   2.846   7.353
 1663SOL    HW3 6972   1.896   2.792   7.342
 1663SOL    MW4 6973   1.837   2.855   7.325
 1664SOL     OW 6974   0.063   3.379   6.474
 1664SOL    HW2 6975   0.095   3.383   6.565
 1664SOL    HW3 6976  -0.032   3.387   6.482
 1664SOL    MW4 6977   0.055   3.382   6.487
 1665SOL     OW 6978   0.018   2.505   6.021
 1665SOL    HW2 6979  -0.042   2.477   6.091
 1665SOL    HW3 6980   0.092   2.445   6.027
 1665SOL    MW4 6981   0.020   2.494   6.030
 1666SOL     OW 6982   1.586   3.717   7.455
 1666SOL    HW2 6983   1.631   3.641   7.420
 1666SOL    HW3 6984   1.624   3.730   7.542
 1666SOL    MW4 6985   1.596   3.710   7.461
 1667SOL     OW 6986   1.186   3.236   6.181
 1667SOL    HW2 6987   1.209   3.187   6.259
 1667SOL    HW3 6988   1.267   3.278   6.153
 1667SOL    MW4 6989   1.199   3.236   6.188
 1668SOL     OW 6990   0.444   2.244   6.910
 1668SOL    HW2 6991   0.477   2.325   6.950
 1668SOL    HW3 6992   0.417   2.270   6.822
 1668SOL    MW4 6993   0.443   2.258   6.904
 1669SOL     OW 6994   0.398   2.211   6.646
 1669SOL    HW2 6995   0.428   2.125   6.617
 1669SOL    HW3 6996   0.303   2.204   6.649
 1669SOL    MW4 6997   0.390   2.200   6.644
 1670SOL     OW 6998   1.227   2.420   7.337
 1670SOL    HW2 6999   1.279   2.355   7.290
 1670SOL    HW3 7000   1.185   2.471   7.267
 1670SOL    MW4 7001   1.228   2.417   7.320
 1671SOL     OW 7002   1.326   2.215   7.198
 1671SOL    HW2 7003   1.233   2.199   7.185
 1671SOL    HW3 7004   1.352   2.153   7.266
 1671SOL    MW4 7005   1.316   2.205   7.205
 1672SOL     OW 7006   0.541   1.989   6.537
 1672SOL    HW2 7007   0.551   1.898   6.563
 1672SOL    HW3 7008   0.497   1.985   6.452
 1672SOL    MW4 7009   0.537   1.977   6.529
 1673SOL     OW 7010   0.635   3.604   7.083
 1673SOL    HW2 7011   0.552   3.589   7.128
 1673SOL    HW3 7012   0.694   3.537   7.118
 1673SOL    MW4 7013   0.633   3.594   7.093
 1674SOL     OW 7014   1.692   2.311   6.708
 1674SOL    HW2 7015   1.625   2.344   6.768
 1674SOL    HW3 7016   1.735   2.389   6.674
 1674SOL    MW4 7017   1.690   2.326   6.712
 1675SOL     OW 7018   1.870   3.031   6.678
 1675SOL    HW2 7019   1.863   2.971   6.603
 1675SOL    HW3 7020   1.796   3.091   6.667
 1675SOL    MW4 7021   1.860   3.031   6.667
 1676SOL     OW 7022   1.252   2.893   6.596
 1676SOL    HW2 7023   1.266   2.865   6.687
 1676SOL    HW3 7024   1.338   2.924   6.568
 1676SOL    MW4 7025   1.265   2.894   6.605
 1677SOL     OW 7026   1.335   2.388   6.875
 1677SOL    HW2 7027   1.356   2.389   6.782
 1677SOL    HW3 7028   1.380   2.310   6.908
 1677SOL    MW4 7029   1.342   2.378   6.867
 1678SOL     OW 7030   1.828   2.519   7.417
 1678SOL    HW2 7031   1.865   2.464   7.486
 1678SOL    HW3 7032   1.853   2.476   7.335
 1678SOL    MW4 7033   1.835   2.507   7.416
 1679SOL     OW 7034   1.375   2.817   7.468
 1679SOL    HW2 7035   1.441   2.765   7.422
 1679SOL    HW3 7036   1.395   2.804   7.561
 1679SOL    MW4 7037   1.386   2.808   7.475
 1680SOL     OW 7038   1.326   1.903   5.817
 1680SOL    HW2 7039   1.400   1.947   5.860
 1680SOL    HW3 7040   1.250   1.957   5.839
 1680SOL    MW4 7041   1.326   1.915   5.825
 1681SOL     OW 7042   1.386   2.678   6.095
 1681SOL    HW2 7043   1.301   2.648   6.065
 1681SOL    HW3 7044   1.378   2.685   6.190
 1681SOL    MW4 7045   1.374   2.676   6.104
 1682SOL     OW 7046   0.462   3.141   6.826
 1682SOL    HW2 7047   0.474   3.168   6.917
 1682SOL    HW3 7048   0.443   3.222   6.779
 1682SOL    MW4 7049   0.461   3.156   6.831
 1683SOL     OW 7050   0.746   2.121   6.649
 1683SOL    HW2 7051   0.719   2.123   6.740
 1683SOL    HW3 7052   0.676   2.073   6.604
 1683SOL    MW4 7053   0.734   2.117   6.656
 1684SOL     OW 7054   0.600   3.613   6.811
 1684SOL    HW2 7055   0.652   3.690   6.788
 1684SOL    HW3 7056   0.609   3.605   6.906
 1684SOL    MW4 7057   0.609   3.620   6.822
 1685SOL     OW 7058   1.502   3.198   7.043
 1685SOL    HW2 7059   1.487   3.127   7.106
 1685SOL    HW3 7060   1.548   3.156   6.971
 1685SOL    MW4 7061   1.508   3.182   7.043
 1686SOL     OW 7062   0.576   2.929   7.160
 1686SOL    HW2 7063   0.613   2.934   7.072
 1686SOL    HW3 7064   0.615   3.002   7.207
 1686SOL    MW4 7065   0.586   2.939   7.155
 1687SOL     OW 7066   0.756   2.972   6.972
 1687SOL    HW2 7067   0.815   2.918   7.025
 1687SOL    HW3 7068   0.771   2.944   6.882
 1687SOL    MW4 7069   0.766   2.961   6.968
 1688SOL     OW 7070   0.759   2.344   5.821
 1688SOL    HW2 7071   0.832   2.393   5.784
 1688SOL    HW3 7072   0.775   2.253   5.795
 1688SOL    MW4 7073   0.771   2.339   5.814
 1689SOL     OW 7074   1.567   3.461   7.144
 1689SOL    HW2 7075   1.609   3.446   7.229
 1689SOL    HW3 7076   1.558   3.374   7.106
 1689SOL    MW4 7077   1.571   3.449   7.151
 1690SOL     OW 7078   1.227   1.940   6.735
 1690SOL    HW2 7079   1.282   1.949   6.657
 1690SOL    HW3 7080   1.282   1.974   6.806
 1690SOL    MW4 7081   1.241   1.945   6.734
 1691SOL     OW 7082   0.234   2.853   5.919
 1691SOL    HW2 7083   0.171   2.869   5.848
 1691SOL    HW3 7084   0.181   2.816   5.990
 1691SOL    MW4 7085   0.219   2.850   5.919
 1692SOL     OW 7086   0.590   3.207   5.778
 1692SOL    HW2 7087   0.605   3.183   5.870
 1692SOL    HW3 7088   0.498   3.185   5.762
 1692SOL    MW4 7089   0.580   3.200   5.788
 1693SOL     OW 7090   1.129   3.438   5.930
 1693SOL    HW2 7091   1.137   3.356   5.881
 1693SOL    HW3 7092   1.048   3.477   5.897
 1693SOL    MW4 7093   1.119   3.433   5.920
 1694SOL     OW 7094   0.388   3.596   6.499
 1694SOL    HW2 7095   0.392   3.507   6.534
 1694SOL    HW3 7096   0.414   3.587   6.408
 1694SOL    MW4 7097   0.391   3.584   6.491
 1695SOL     OW 7098   1.005   3.074   6.742
 1695SOL    HW2 7099   0.937   3.008   6.758
 1695SOL    HW3 7100   1.023   3.068   6.649
 1695SOL    MW4 7101   0.998   3.065   6.733
 1696SOL     OW 7102   0.094   3.349   6.993
 1696SOL    HW2 7103   0.084   3.307   7.079
 1696SOL    HW3 7104   0.015   3.402   6.983
 1696SOL    MW4 7105   0.083   3.350   7.004
 1697SOL     OW 7106   0.998   2.213   6.563
 1697SOL    HW2 7107   0.928   2.165   6.608
 1697SOL    HW3 7108   1.030   2.276   6.627
 1697SOL    MW4 7109   0.993   2.215   6.577
 1698SOL     OW 7110   0.649   2.649   7.183
 1698SOL    HW2 7111   0.642   2.744   7.171
 1698SOL    HW3 7112   0.658   2.638   7.278
 1698SOL    MW4 7113   0.650   2.661   7.193
 1699SOL     OW 7114   0.370   3.164   7.441
 1699SOL    HW2 7115   0.442   3.166   7.378
 1699SOL    HW3 7116   0.340   3.073   7.440
 1699SOL    MW4 7117   0.375   3.153   7.433
 1700SOL     OW 7118   1.454   1.927   6.908
 1700SOL    HW2 7119   1.525   1.873   6.872
 1700SOL    HW3 7120   1.453   1.906   7.001
 1700SOL    MW4 7121   1.463   1.918   6.916
 1701SOL     OW 7122   1.654   3.457   7.392
 1701SOL    HW2 7123   1.627   3.454   7.483
 1701SOL    HW3 7124   1.750   3.461   7.395
 1701SOL    MW4 7125   1.664   3.457   7.404
 1702SOL     OW 7126   0.465   2.319   6.376
 1702SOL    HW2 7127   0.536   2.267   6.339
 1702SOL    HW3 7128   0.451   2.284   6.463
 1702SOL    MW4 7129   0.473   2.308   6.383
 1703SOL     OW 7130   0.020   3.654   7.448
 1703SOL    HW2 7131   0.070   3.632   7.370
 1703SOL    HW3 7132   0.028   3.749   7.456
 1703SOL    MW4 7133   0.028   3.663   7.439
 1704SOL     OW 7134   0.781   3.412   6.452
 1704SOL    HW2 7135   0.709   3.349   6.465
 1704SOL    HW3 7136   0.742   3.497   6.470
 1704SOL    MW4 7137   0.765   3.415   6.455
 1705SOL     OW 7138   1.101   2.260   6.100
 1705SOL    HW2 7139   1.123   2.197   6.032
 1705SOL    HW3 7140   1.006   2.252   6.111
 1705SOL    MW4 7141   1.091   2.251   6.092
 1706SOL     OW 7142   0.186   1.950   6.032
 1706SOL    HW2 7143   0.257   1.971   5.971
 1706SOL    HW3 7144   0.140   1.878   5.990
 1706SOL    MW4 7145   0.190   1.944   6.018
 1707SOL     OW 7146   0.017   2.417   7.175
 1707SOL    HW2 7147   0.081   2.483   7.150
 1707SOL    HW3 7148  -0.064   2.444   7.132
 1707SOL    MW4 7149   0.015   2.429   7.167
 1708SOL     OW 7150   1.755   3.324   6.132
 1708SOL    HW2 7151   1.725   3.257   6.193
 1708SOL    HW3 7152   1.849   3.330   6.146
 1708SOL    MW4 7153   1.763   3.316   6.142
 1709SOL     OW 7154   1.311   3.001   6.062
 1709SOL    HW2 7155   1.283   3.087   6.095
 1709SOL    HW3 7156   1.339   3.017   5.972
 1709SOL    MW4 7157   1.311   3.015   6.054
 1710SOL     OW 7158   0.973   1.921   6.115
 1710SOL    HW2 7159   1.010   1.980   6.180
 1710SOL    HW3 7160   0.950   1.977   6.041
 1710SOL    MW4 7161   0.974   1.936   6.114
 1711SOL     OW 7162   1.826   2.803   6.537
 1711SOL    HW2 7163   1.817   2.835   6.448
 1711SOL    HW3 7164   1.779   2.719   6.537
 1711SOL    MW4 7165   1.819   2.796   6.527
 1712SOL     OW 7166   0.202   2.643   7.116
 1712SOL    HW2 7167   0.223   2.712   7.054
 1712SOL    HW3 7168   0.282   2.590   7.121
 1712SOL    MW4 7169   0.215   2.644   7.110
 1713SOL     OW 7170   1.738   2.734   6.238
 1713SOL    HW2 7171   1.832   2.723   6.226
 1713SOL    HW3 7172   1.714   2.806   6.179
 1713SOL    MW4 7173   1.748   2.742   6.229
 1714SOL     OW 7174   0.187   2.658   7.383
 1714SOL    HW2 7175   0.113   2.602   7.409
 1714SOL    HW3 7176   0.182   2.661   7.288
 1714SOL    MW4 7177   0.176   2.651   7.373
 1715SOL     OW 7178   0.353   1.945   6.833
 1715SOL    HW2 7179   0.396   2.029   6.853
 1715SOL    HW3 7180   0.426   1.883   6.826
 1715SOL    MW4 7181   0.368   1.948   6.834
 1716SOL     OW 7182   0.394   2.612   6.011
 1716SOL    HW2 7183   0.394   2.707   5.996
 1716SOL    HW3 7184   0.471   2.596   6.065
 1716SOL    MW4 7185   0.404   2.623   6.016
 1717SOL     OW 7186   1.170   2.471   7.075
 1717SOL    HW2 7187   1.206   2.444   6.991
 1717SOL    HW3 7188   1.083   2.505   7.054
 1717SOL    MW4 7189   1.164   2.472   7.062
 1718SOL     OW 7190   0.153   2.343   6.300
 1718SOL    HW2 7191   0.215   2.350   6.373
 1718SOL    HW3 7192   0.153   2.250   6.277
 1718SOL    MW4 7193   0.161   2.332   6.307
 1719SOL     OW 7194   1.700   3.683   5.832
 1719SOL    HW2 7195   1.767   3.716   5.772
 1719SOL    HW3 7196   1.657   3.762   5.866
 1719SOL    MW4 7197   1.702   3.698   5.828
 1720SOL     OW 7198   0.835   2.604   6.784
 1720SOL    HW2 7199   0.793   2.522   6.760
 1720SOL    HW3 7200   0.836   2.603   6.880
 1720SOL    MW4 7201   0.828   2.593   6.793
 1721SOL     OW 7202   1.506   3.737   7.183
 1721SOL    HW2 7203   1.509   3.643   7.166
 1721SOL    HW3 7204   1.529   3.745   7.275
 1721SOL    MW4 7205   1.509   3.725   7.193
 1722SOL     OW 7206   0.639   2.074   6.889
 1722SOL    HW2 7207   0.570   2.137   6.910
 1722SOL    HW3 7208   0.666   2.038   6.974
 1722SOL    MW4 7209   0.633   2.077   6.902
 1723SOL     OW 7210   0.022   2.915   5.758
 1723SOL    HW2 7211  -0.009   2.980   5.821
 1723SOL    HW3 7212  -0.029   2.837   5.777
 1723SOL    MW4 7213   0.012   2.912   5.768
 1724SOL     OW 7214   1.434   1.927   6.506
 1724SOL    HW2 7215   1.522   1.936   6.543
 1724SOL    HW3 7216   1.444   1.868   6.432
 1724SOL    MW4 7217   1.448   1.921   6.500
 1725SOL     OW 7218   1.466   2.666   6.350
 1725SOL    HW2 7219   1.546   2.681   6.299
 1725SOL    HW3 7220   1.459   2.571   6.356
 1725SOL    MW4 7221   1.475   2.655   6.345
 1726SOL     OW 7222   0.606   3.715   5.700
 1726SOL    HW2 7223   0.511   3.715   5.692
 1726SOL    HW3 7224   0.622   3.661   5.778
 1726SOL    MW4 7225   0.596   3.709   5.709
 1727SOL     OW 7226   0.916   2.592   7.047
 1727SOL    HW2 7227   0.985   2.659   7.044
 1727SOL    HW3 7228   0.849   2.630   7.103
 1727SOL    MW4 7229   0.917   2.605   7.054
 1728SOL     OW 7230   0.334   2.892   7.295
 1728SOL    HW2 7231   0.288   2.808   7.297
 1728SOL    HW3 7232   0.391   2.886   7.219
 1728SOL    MW4 7233   0.336   2.880   7.287
 1729SOL     OW 7234   1.451   2.535   5.615
 1729SOL    HW2 7235   1.379   2.511   5.557
 1729SOL    HW3 7236   1.517   2.572   5.557
 1729SOL    MW4 7237   1.450   2.537   5.600
 1730SOL     OW 7238   0.585   3.267   6.296
 1730SOL    HW2 7239   0.650   3.200   6.317
 1730SOL    HW3 7240   0.637   3.344   6.273
 1730SOL    MW4 7241   0.600   3.269   6.295
 1731SOL     OW 7242   0.846   2.432   6.426
 1731SOL    HW2 7243   0.786   2.450   6.498
 1731SOL    HW3 7244   0.880   2.344   6.445
 1731SOL    MW4 7245   0.842   2.422   6.439
 1732SOL     OW 7246   1.787   1.931   7.095
 1732SOL    HW2 7247   1.708   1.977   7.123
 1732SOL    HW3 7248   1.822   1.985   7.024
 1732SOL    MW4 7249   1.781   1.944   7.089
 1733SOL     OW 7250   1.071   3.015   6.445
 1733SOL    HW2 7251   1.163   2.996   6.463
 1733SOL    HW3 7252   1.044   2.945   6.385
 1733SOL    MW4 7253   1.079   3.003   6.439
 1734SOL     OW 7254   0.864   2.835   5.800
 1734SOL    HW2 7255   0.850   2.747   5.765
 1734SOL    HW3 7256   0.815   2.892   5.741
 1734SOL    MW4 7257   0.856   2.830   5.788
 1735SOL     OW 7258   1.345   3.253   6.541
 1735SOL    HW2 7259   1.318   3.337   6.506
 1735SOL    HW3 7260   1.305   3.248   6.628
 1735SOL    MW4 7261   1.338   3.262   6.547
 1736SOL     OW 7262   1.264   3.201   6.809
 1736SOL    HW2 7263   1.275   3.168   6.898
 1736SOL    HW3 7264   1.183   3.160   6.778
 1736SOL    MW4 7265   1.254   3.193   6.815
 1737SOL     OW 7266   0.277   2.559   6.579
 1737SOL    HW2 7267   0.227   2.558   6.660
 1737SOL    HW3 7268   0.297   2.651   6.563
 1737SOL    MW4 7269   0.273   2.571   6.587
 1738SOL     OW 7270   1.344   3.323   7.341
 1738SOL    HW2 7271   1.344   3.417   7.357
 1738SOL    HW3 7272   1.389   3.313   7.257
 1738SOL    MW4 7273   1.350   3.333   7.332
 1739SOL     OW 7274   1.583   2.041   5.902
 1739SOL    HW2 7275   1.576   2.045   5.997
 1739SOL    HW3 7276   1.595   2.132   5.875
 1739SOL    MW4 7277   1.584   2.054   5.910
 1740SOL     OW 7278   0.872   2.604   6.016
 1740SOL    HW2 7279   0.852   2.590   5.923
 1740SOL    HW3 7280   0.965   2.583   6.023
 1740SOL    MW4 7281   0.882   2.599   6.005
 1741SOL     OW 7282   0.199   2.227   7.320
 1741SOL    HW2 7283   0.156   2.286   7.257
 1741SOL    HW3 7284   0.267   2.282   7.360
 1741SOL    MW4 7285   0.203   2.242   7.317
 1742SOL     OW 7286   1.311   2.847   6.865
 1742SOL    HW2 7287   1.374   2.844   6.938
 1742SOL    HW3 7288   1.227   2.865   6.907
 1742SOL    MW4 7289   1.307   2.849   6.880
 1743SOL     OW 7290   0.855   3.562   6.054
 1743SOL    HW2 7291   0.913   3.633   6.081
 1743SOL    HW3 7292   0.878   3.490   6.112
 1743SOL    MW4 7293   0.866   3.562   6.065
 1744SOL     OW 7294   1.650   2.024   6.644
 1744SOL    HW2 7295   1.695   1.942   6.663
 1744SOL    HW3 7296   1.670   2.080   6.720
 1744SOL    MW4 7297   1.660   2.020   6.656
 1745SOL     OW 7298   0.098   1.867   6.743
 1745SOL    HW2 7299   0.089   1.868   6.648
 1745SOL    HW3 7300   0.192   1.879   6.758
 1745SOL    MW4 7301   0.110   1.870   6.734
 1746SOL     OW 7302   1.735   3.060   6.363
 1746SOL    HW2 7303   1.714   3.006   6.286
 1746SOL    HW3 7304   1.831   3.058   6.367
 1746SOL    MW4 7305   1.744   3.053   6.352
 1747SOL     OW 7306   0.427   3.205   7.106
 1747SOL    HW2 7307   0.348   3.155   7.129
 1747SOL    HW3 7308   0.497   3.164   7.156
 1747SOL    MW4 7309   0.425   3.193   7.116
 1748SOL     OW 7310   0.311   1.994   5.789
 1748SOL    HW2 7311   0.240   2.049   5.757
 1748SOL    HW3 7312   0.353   1.960   5.710
 1748SOL    MW4 7313   0.307   1.996   5.775
 1749SOL     OW 7314   1.435   2.491   6.625
 1749SOL    HW2 7315   1.358   2.537   6.591
 1749SOL    HW3 7316   1.492   2.560   6.659
 1749SOL    MW4 7317   1.432   2.506   6.625
 1750SOL     OW 7318   0.067   2.093   5.638
 1750SOL    HW2 7319   0.034   2.172   5.682
 1750SOL    HW3 7320   0.122   2.126   5.567
 1750SOL    MW4 7321   0.070   2.107   5.635
 1751SOL     OW 7322   0.101   3.350   5.827
 1751SOL    HW2 7323   0.118   3.434   5.869
 1751SOL    HW3 7324   0.136   3.359   5.739
 1751SOL    MW4 7325   0.106   3.363   5.821
 1752SOL     OW 7326   1.373   3.439   6.044
 1752SOL    HW2 7327   1.436   3.429   5.973
 1752SOL    HW3 7328   1.290   3.459   5.999
 1752SOL    MW4 7329   1.370   3.440   6.029
 1753SOL     OW 7330   1.736   4.575   0.257
 1753SOL    HW2 7331   1.777   4.517   0.322
 1753SOL    HW3 7332   1.643   4.567   0.274
 1753SOL    MW4 7333   1.730   4.567   0.267
 1754SOL     OW 7334   1.602   4.507   1.252
 1754SOL    HW2 7335   1.557   4.574   1.303
 1754SOL    HW3 7336   1.690   4.543   1.238
 1754SOL    MW4 7337   1.608   4.520   1.256
 1755SOL     OW 7338   0.530   4.758   0.486
 1755SOL    HW2 7339   0.620   4.733   0.470
 1755SOL    HW3 7340   0.526   4.851   0.463
 1755SOL    MW4 7341   0.542   4.767   0.481
 1756SOL     OW 7342   1.646   5.461   0.628
 1756SOL    HW2 7343   1.658   5.407   0.706
 1756SOL    HW3 7344   1.683   5.409   0.557
 1756SOL    MW4 7345   1.652   5.446   0.629
 1757SOL     OW 7346   1.025   5.346   1.629
 1757SOL    HW2 7347   1.066   5.382   1.550
 1757SOL    HW3 7348   1.060   5.257   1.636
 1757SOL    MW4 7349   1.036   5.339   1.620
 1758SOL     OW 7350   1.582   4.901   1.233
 1758SOL    HW2 7351   1.503   4.866   1.191
 1758SOL    HW3 7352   1.609   4.973   1.177
 1758SOL    MW4 7353   1.575   4.906   1.220
 1759SOL     OW 7354   0.814   4.214   0.499
 1759SOL    HW2 7355   0.789   4.302   0.527
 1759SOL    HW3 7356   0.811   4.217   0.403
 1759SOL    MW4 7357   0.810   4.226   0.491
 1760SOL     OW 7358   0.256   4.242   0.427
 1760SOL    HW2 7359   0.288   4.330   0.409
 1760SOL    HW3 7360   0.244   4.240   0.522
 1760SOL    MW4 7361   0.259   4.254   0.439
 1761SOL     OW 7362   0.334   4.655   1.328
 1761SOL    HW2 7363   0.397   4.602   1.279
 1761SOL    HW3 7364   0.315   4.729   1.271
 1761SOL    MW4 7365   0.340   4.657   1.315
 1762SOL     OW 7366   0.655   3.997   0.514
 1762SOL    HW2 7367   0.713   4.073   0.516
 1762SOL    HW3 7368   0.590   4.018   0.447
 1762SOL    MW4 7369   0.654   4.009   0.505
 1763SOL     OW 7370   0.742   4.924   0.689
 1763SOL    HW2 7371   0.822   4.927   0.741
 1763SOL    HW3 7372   0.770   4.891   0.603
 1763SOL    MW4 7373   0.756   4.920   0.684
 1764SOL     OW 7374   0.767   5.265   1.592
 1764SOL    HW2 7375   0.851   5.291   1.631
 1764SOL    HW3 7376   0.791   5.209   1.518
 1764SOL    MW4 7377   0.781   5.261   1.587
 1765SOL     OW 7378   0.519   4.428   0.680
 1765SOL    HW2 7379   0.504   4.348   0.731
 1765SOL    HW3 7380   0.601   4.463   0.714
 1765SOL    MW4 7381   0.527   4.420   0.692
 1766SOL     OW 7382   0.856   5.114   1.365
 1766SOL    HW2 7383   0.820   5.180   1.305
 1766SOL    HW3 7384   0.784   5.052   1.378
 1766SOL    MW4 7385   0.842   5.114   1.359
 1767SOL     OW 7386   0.661   4.254   1.057
 1767SOL    HW2 7387   0.567   4.250   1.075
 1767SOL    HW3 7388   0.691   4.163   1.066
 1767SOL    MW4 7389   0.652   4.242   1.060
 1768SOL     OW 7390   0.407   4.668   0.961
 1768SOL    HW2 7391   0.362   4.675   0.877
 1768SOL    HW3 7392   0.387   4.751   1.005
 1768SOL    MW4 7393   0.399   4.680   0.955
 1769SOL     OW 7394   0.104   5.514   0.836
 1769SOL    HW2 7395   0.193   5.506   0.871
 1769SOL    HW3 7396   0.068   5.426   0.841
 1769SOL    MW4 7397   0.111   5.501   0.841
 1770SOL     OW 7398   1.369   4.906   0.205
 1770SOL    HW2 7399   1.287   4.942   0.171
 1770SOL    HW3 7400   1.437   4.949   0.154
 1770SOL    MW4 7401   1.367   4.916   0.193
 1771SOL     OW 7402   0.368   5.041   0.871
 1771SOL    HW2 7403   0.344   5.094   0.947
 1771SOL    HW3 7404   0.424   5.099   0.819
 1771SOL    MW4 7405   0.372   5.056   0.874
 1772SOL     OW 7406   0.930   4.685   0.681
 1772SOL    HW2 7407   0.844   4.672   0.721
 1772SOL    HW3 7408   0.983   4.612   0.713
 1772SOL    MW4 7409   0.926   4.674   0.690
 1773SOL     OW 7410   0.338   5.337   1.466
 1773SOL    HW2 7411   0.246   5.313   1.451
 1773SOL    HW3 7412   0.382   5.254   1.483
 1773SOL    MW4 7413   0.332   5.322   1.465
 1774SOL     OW 7414   0.921   5.047   0.398
 1774SOL    HW2 7415   0.898   5.109   0.466
 1774SOL    HW3 7416   0.878   4.965   0.424
 1774SOL    MW4 7417   0.913   5.043   0.409
 1775SOL     OW 7418   1.794   4.048   0.854
 1775SOL    HW2 7419   1.731   4.028   0.923
 1775SOL    HW3 7420   1.784   3.977   0.791
 1775SOL    MW4 7421   1.784   4.035   0.855
 1776SOL     OW 7422   0.418   4.020   0.366
 1776SOL    HW2 7423   0.392   3.982   0.282
 1776SOL    HW3 7424   0.355   4.090   0.382
 1776SOL    MW4 7425   0.407   4.023   0.357
 1777SOL     OW 7426   0.253   4.981   0.403
 1777SOL    HW2 7427   0.201   5.049   0.359
 1777SOL    HW3 7428   0.250   4.907   0.343
 1777SOL    MW4 7429   0.245   4.980   0.390
 1778SOL     OW 7430   0.915   5.444   0.181
 1778SOL    HW2 7431   0.870   5.460   0.264
 1778SOL    HW3 7432   0.846   5.409   0.123
 1778SOL    MW4 7433   0.901   5.441   0.183
 1779SOL     OW 7434   1.850   4.217   0.156
 1779SOL    HW2 7435   1.759   4.219   0.184
 1779SOL    HW3 7436   1.895   4.279   0.214
 1779SOL    MW4 7437   1.843   4.225   0.166
 1780SOL     OW 7438   1.595   4.820   0.506
 1780SOL    HW2 7439   1.505   4.820   0.541
 1780SOL    HW3 7440   1.588   4.866   0.423
 1780SOL    MW4 7441   1.582   4.826   0.500
 1781SOL     OW 7442   1.395   4.455   1.578
 1781SOL    HW2 7443   1.464   4.393   1.555
 1781SOL    HW3 7444   1.320   4.429   1.525
 1781SOL    MW4 7445   1.395   4.442   1.569
 1782SOL     OW 7446   0.136   5.335   1.130
 1782SOL    HW2 7447   0.119   5.281   1.207
 1782SOL    HW3 7448   0.124   5.425   1.160
 1782SOL    MW4 7449   0.133   5.339   1.144
 1783SOL     OW 7450   1.131   4.842   1.570
 1783SOL    HW2 7451   1.116   4.935   1.555
 1783SOL    HW3 7452   1.226   4.832   1.570
 1783SOL    MW4 7453   1.140   4.852   1.567
 1784SOL     OW 7454   0.927   4.266   1.771
 1784SOL    HW2 7455   1.017   4.267   1.738
 1784SOL    HW3 7456   0.886   4.191   1.729
 1784SOL    MW4 7457   0.933   4.256   1.762
 1785SOL     OW 7458   1.502   4.798   0.898
 1785SOL    HW2 7459   1.505   4.732   0.829
 1785SOL    HW3 7460   1.587   4.841   0.894
 1785SOL    MW4 7461   1.514   4.794   0.889
 1786SOL     OW 7462   1.122   4.401   0.467
 1786SOL    HW2 7463   1.148   4.425   0.378
 1786SOL    HW3 7464   1.104   4.308   0.463
 1786SOL    MW4 7465   1.124   4.393   0.454
 1787SOL     OW 7466   1.787   5.021   0.318
 1787SOL    HW2 7467   1.743   5.062   0.393
 1787SOL    HW3 7468   1.844   5.089   0.283
 1787SOL    MW4 7469   1.789   5.035   0.323
 1788SOL     OW 7470   0.707   4.070   1.721
 1788SOL    HW2 7471   0.717   3.996   1.661
 1788SOL    HW3 7472   0.743   4.039   1.804
 1788SOL    MW4 7473   0.713   4.056   1.723
 1789SOL     OW 7474   0.443   5.437   0.636
 1789SOL    HW2 7475   0.475   5.525   0.614
 1789SOL    HW3 7476   0.396   5.409   0.558
 1789SOL    MW4 7477   0.442   5.445   0.623
 1790SOL     OW 7478   1.827   3.799   0.685
 1790SOL    HW2 7479   1.881   3.750   0.747
 1790SOL    HW3 7480   1.770   3.733   0.646
 1790SOL    MW4 7481   1.827   3.783   0.687
 1791SOL     OW 7482   0.159   5.497   0.213
 1791SOL    HW2 7483   0.188   5.587   0.205
 1791SOL    HW3 7484   0.109   5.480   0.134
 1791SOL    MW4 7485   0.157   5.505   0.202
 1792SOL     OW 7486   0.946   3.752   1.098
 1792SOL    HW2 7487   0.905   3.830   1.060
 1792SOL    HW3 7488   1.040   3.770   1.093
 1792SOL    MW4 7489   0.952   3.764   1.093
 1793SOL     OW 7490   1.563   5.305   0.184
 1793SOL    HW2 7491   1.611   5.374   0.230
 1793SOL    HW3 7492   1.484   5.349   0.153
 1793SOL    MW4 7493   1.558   5.319   0.187
 1794SOL     OW 7494   0.961   4.430   0.128
 1794SOL    HW2 7495   0.963   4.377   0.049
 1794SOL    HW3 7496   1.049   4.467   0.134
 1794SOL    MW4 7497   0.973   4.429   0.117
 1795SOL     OW 7498   1.575   4.356   0.464
 1795SOL    HW2 7499   1.614   4.356   0.551
 1795SOL    HW3 7500   1.516   4.432   0.464
 1795SOL    MW4 7501   1.572   4.367   0.475
 1796SOL     OW 7502   0.892   4.723   1.593
 1796SOL    HW2 7503   0.869   4.703   1.683
 1796SOL    HW3 7504   0.977   4.767   1.598
 1796SOL    MW4 7505   0.899   4.726   1.605
 1797SOL     OW 7506   0.972   3.860   1.353
 1797SOL    HW2 7507   0.978   3.822   1.266
 1797SOL    HW3 7508   0.961   3.954   1.338
 1797SOL    MW4 7509   0.973   3.868   1.341
 1798SOL     OW 7510   1.061   4.349   1.187
 1798SOL    HW2 7511   1.136   4.378   1.134
 1798SOL    HW3 7512   0.993   4.414   1.171
 1798SOL    MW4 7513   1.062   4.361   1.177
 1799SOL     OW 7514   1.611   4.317   1.464
 1799SOL    HW2 7515   1.592   4.226   1.443
 1799SOL    HW3 7516   1.589   4.366   1.385
 1799SOL    MW4 7517   1.606   4.310   1.451
 1800SOL     OW 7518   1.753   5.411   1.368
 1800SOL    HW2 7519   1.681   5.373   1.419
 1800SOL    HW3 7520   1.770   5.496   1.409
 1800SOL    MW4 7521   1.747   5.416   1.380
 1801SOL     OW 7522   1.058   4.055   1.570
 1801SOL    HW2 7523   1.024   4.094   1.489
 1801SOL    HW3 7524   1.036   3.963   1.563
 1801SOL    MW4 7525   1.051   4.048   1.560
 1802SOL     OW 7526   1.467   4.869   1.646
 1802SOL    HW2 7527   1.549   4.910   1.676
 1802SOL    HW3 7528   1.430   4.831   1.726
 1802SOL    MW4 7529   1.473   4.870   1.661
 1803SOL     OW 7530   1.762   4.242   0.630
 1803SOL    HW2 7531   1.851   4.211   0.647
 1803SOL    HW3 7532   1.705   4.182   0.678
 1803SOL    MW4 7533   1.765   4.230   0.639
 1804SOL     OW 7534   0.188   3.956   0.659
 1804SOL    HW2 7535   0.179   3.896   0.585
 1804SOL    HW3 7536   0.121   3.927   0.722
 1804SOL    MW4 7537   0.178   3.943   0.657
 1805SOL     OW 7538   1.131   5.049   0.220
 1805SOL    HW2 7539   1.081   5.051   0.302
 1805SOL    HW3 7540   1.065   5.067   0.152
 1805SOL    MW4 7541   1.117   5.051   0.222
 1806SOL     OW 7542   0.135   4.129   1.022
 1806SOL    HW2 7543   0.107   4.220   1.031
 1806SOL    HW3 7544   0.072   4.090   0.961
 1806SOL    MW4 7545   0.122   4.135   1.016
 1807SOL     OW 7546   0.594   5.467   0.328
 1807SOL    HW2 7547   0.515   5.425   0.361
 1807SOL    HW3 7548   0.660   5.450   0.395
 1807SOL    MW4 7549   0.593   5.459   0.341
 1808SOL     OW 7550   1.722   4.987   1.725
 1808SOL    HW2 7551   1.772   4.913   1.757
 1808SOL    HW3 7552   1.668   5.014   1.800
 1808SOL    MW4 7553   1.722   4.981   1.738
 1809SOL     OW 7554   0.730   4.882   0.035
 1809SOL    HW2 7555   0.652   4.828   0.022
 1809SOL    HW3 7556   0.701   4.955   0.088
 1809SOL    MW4 7557   0.716   4.884   0.040
 1810SOL     OW 7558   1.856   4.622   1.227
 1810SOL    HW2 7559   1.872   4.660   1.140
 1810SOL    HW3 7560   1.890   4.688   1.288
 1810SOL    MW4 7561   1.863   4.635   1.223
 1811SOL     OW 7562   1.648   5.331   0.896
 1811SOL    HW2 7563   1.677   5.398   0.957
 1811SOL    HW3 7564   1.629   5.255   0.951
 1811SOL    MW4 7565   1.650   5.331   0.911
 1812SOL     OW 7566   1.311   5.398   0.103
 1812SOL    HW2 7567   1.237   5.361   0.153
 1812SOL    HW3 7568   1.319   5.488   0.136
 1812SOL    MW4 7569   1.302   5.405   0.115
 1813SOL     OW 7570   0.119   4.404   1.192
 1813SOL    HW2 7571   0.181   4.434   1.258
 1813SOL    HW3 7572   0.053   4.473   1.186
 1813SOL    MW4 7573   0.118   4.417   1.199
 1814SOL     OW 7574   1.535   5.072   0.045
 1814SOL    HW2 7575   1.482   5.121  -0.019
 1814SOL    HW3 7576   1.566   5.138   0.106
 1814SOL    MW4 7577   1.533   5.086   0.043
 1815SOL     OW 7578   0.760   3.961   0.100
 1815SOL    HW2 7579   0.708   3.881   0.088
 1815SOL    HW3 7580   0.847   3.938   0.068
 1815SOL    MW4 7581   0.763   3.947   0.094
 1816SOL     OW 7582   0.214   5.513   1.644
 1816SOL    HW2 7583   0.188   5.581   1.582
 1816SOL    HW3 7584   0.262   5.450   1.592
 1816SOL    MW4 7585   0.216   5.513   1.630
 1817SOL     OW 7586   0.266   4.832   1.151
 1817SOL    HW2 7587   0.319   4.907   1.176
 1817SOL    HW3 7588   0.185   4.870   1.117
 1817SOL    MW4 7589   0.262   4.847   1.151
 1818SOL     OW 7590   0.806   4.736   1.139
 1818SOL    HW2 7591   0.834   4.645   1.151
 1818SOL    HW3 7592   0.735   4.730   1.075
 1818SOL    MW4 7593   0.799   4.724   1.134
 1819SOL     OW 7594   0.121   4.601   0.557
 1819SOL    HW2 7595   0.212   4.616   0.584
 1819SOL    HW3 7596   0.124   4.522   0.503
 1819SOL    MW4 7597   0.133   4.593   0.555
 1820SOL     OW 7598   0.357   4.309   1.811
 1820SOL    HW2 7599   0.304   4.389   1.818
 1820SOL    HW3 7600   0.427   4.321   1.876
 1820SOL    MW4 7601   0.359   4.322   1.819
 1821SOL     OW 7602   0.743   3.859   1.518
 1821SOL    HW2 7603   0.720   3.767   1.520
 1821SOL    HW3 7604   0.829   3.861   1.475
 1821SOL    MW4 7605   0.750   3.849   1.514
 1822SOL     OW 7606   0.427   4.383   1.557
 1822SOL    HW2 7607   0.507   4.433   1.543
 1822SOL    HW3 7608   0.418   4.377   1.652
 1822SOL    MW4 7609   0.436   4.389   1.567
 1823SOL     OW 7610   0.748   5.533   0.931
 1823SOL    HW2 7611   0.837   5.548   0.961
 1823SOL    HW3 7612   0.743   5.580   0.847
 1823SOL    MW4 7613   0.758   5.541   0.924
 1824SOL     OW 7614   1.404   3.908   1.828
 1824SOL    HW2 7615   1.460   3.835   1.854
 1824SOL    HW3 7616   1.374   3.946   1.910
 1824SOL    MW4 7617   1.408   3.903   1.841
 1825SOL     OW 7618   0.129   5.213   0.596
 1825SOL    HW2 7619   0.101   5.252   0.678
 1825SOL    HW3 7620   0.149   5.122   0.618
 1825SOL    MW4 7621   0.127   5.205   0.609
 1826SOL     OW 7622   0.962   5.256   0.631
 1826SOL    HW2 7623   1.045   5.210   0.615
 1826SOL    HW3 7624   0.952   5.255   0.727
 1826SOL    MW4 7625   0.972   5.249   0.641
 1827SOL     OW 7626   1.794   4.401   0.945
 1827SOL    HW2 7627   1.883   4.431   0.927
 1827SOL    HW3 7628   1.774   4.341   0.874
 1827SOL    MW4 7629   1.803   4.398   0.934
 1828SOL     OW 7630   1.645   4.580   1.825
 1828SOL    HW2 7631   1.700   4.504   1.806
 1828SOL    HW3 7632   1.647   4.588   1.920
 1828SOL    MW4 7633   1.653   4.571   1.833
 1829SOL     OW 7634   0.695   5.313   0.036
 1829SOL    HW2 7635   0.635   5.382   0.006
 1829SOL    HW3 7636   0.640   5.255   0.089
 1829SOL    MW4 7637   0.679   5.315   0.038
 1830SOL     OW 7638   1.133   3.958   0.259
 1830SOL    HW2 7639   1.066   3.934   0.196
 1830SOL    HW3 7640   1.198   4.007   0.208
 1830SOL    MW4 7641   1.133   3.960   0.244
 1831SOL     OW 7642   0.940   4.142   1.344
 1831SOL    HW2 7643   0.859   4.183   1.372
 1831SOL    HW3 7644   0.987   4.210   1.296
 1831SOL    MW4 7645   0.935   4.157   1.342
 1832SOL     OW 7646   1.200   4.480   0.967
 1832SOL    HW2 7647   1.213   4.574   0.977
 1832SOL    HW3 7648   1.161   4.470   0.881
 1832SOL    MW4 7649   1.196   4.491   0.957
 1833SOL     OW 7650   0.652   4.675   0.771
 1833SOL    HW2 7651   0.563   4.666   0.804
 1833SOL    HW3 7652   0.656   4.765   0.739
 1833SOL    MW4 7653   0.641   4.686   0.771
 1834SOL     OW 7654   1.451   4.258   0.766
 1834SOL    HW2 7655   1.396   4.179   0.765
 1834SOL    HW3 7656   1.433   4.299   0.850
 1834SOL    MW4 7657   1.441   4.253   0.775
 1835SOL     OW 7658   0.422   3.945   1.583
 1835SOL    HW2 7659   0.343   3.963   1.635
 1835SOL    HW3 7660   0.417   4.007   1.510
 1835SOL    MW4 7661   0.412   3.955   1.580
 1836SOL     OW 7662   1.070   4.462   0.723
 1836SOL    HW2 7663   1.007   4.394   0.747
 1836SOL    HW3 7664   1.090   4.443   0.631
 1836SOL    MW4 7665   1.064   4.449   0.715
 1837SOL     OW 7666   0.326   5.357   0.425
 1837SOL    HW2 7667   0.287   5.404   0.351
 1837SOL    HW3 7668   0.260   5.292   0.450
 1837SOL    MW4 7669   0.313   5.355   0.419
 1838SOL     OW 7670   0.818   4.766   0.449
 1838SOL    HW2 7671   0.820   4.740   0.356
 1838SOL    HW3 7672   0.876   4.703   0.492
 1838SOL    MW4 7673   0.826   4.755   0.443
 1839SOL     OW 7674   1.371   5.326   1.221
 1839SOL    HW2 7675   1.296   5.372   1.259
 1839SOL    HW3 7676   1.353   5.233   1.238
 1839SOL    MW4 7677   1.360   5.320   1.229
 1840SOL     OW 7678   1.375   5.534   0.651
 1840SOL    HW2 7679   1.318   5.487   0.590
 1840SOL    HW3 7680   1.461   5.495   0.638
 1840SOL    MW4 7681   1.378   5.525   0.641
 1841SOL     OW 7682   1.328   4.010   0.782
 1841SOL    HW2 7683   1.356   3.942   0.843
 1841SOL    HW3 7684   1.242   3.981   0.752
 1841SOL    MW4 7685   1.321   3.997   0.786
 1842SOL     OW 7686   0.133   4.944   0.716
 1842SOL    HW2 7687   0.197   4.976   0.779
 1842SOL    HW3 7688   0.182   4.880   0.664
 1842SOL    MW4 7689   0.148   4.940   0.717
 1843SOL     OW 7690   0.633   5.020   1.698
 1843SOL    HW2 7691   0.681   5.103   1.685
 1843SOL    HW3 7692   0.690   4.968   1.754
 1843SOL    MW4 7693   0.647   5.024   1.704
 1844SOL     OW 7694   0.209   5.262   1.838
 1844SOL    HW2 7695   0.265   5.186   1.853
 1844SOL    HW3 7696   0.158   5.240   1.760
 1844SOL    MW4 7697   0.209   5.249   1.829
 1845SOL     OW 7698   1.308   4.114   0.117
 1845SOL    HW2 7699   1.281   4.180   0.053
 1845SOL    HW3 7700   1.378   4.157   0.167
 1845SOL    MW4 7701   1.313   4.127   0.114
 1846SOL     OW 7702   0.976   3.819   0.054
 1846SOL    HW2 7703   1.032   3.811  -0.024
 1846SOL    HW3 7704   0.953   3.729   0.076
 1846SOL    MW4 7705   0.981   3.806   0.047
 1847SOL     OW 7706   1.481   4.670   0.259
 1847SOL    HW2 7707   1.448   4.759   0.249
 1847SOL    HW3 7708   1.446   4.641   0.344
 1847SOL    MW4 7709   1.471   4.679   0.270
 1848SOL     OW 7710   1.094   5.099   1.447
 1848SOL    HW2 7711   1.005   5.105   1.415
 1848SOL    HW3 7712   1.138   5.178   1.415
 1848SOL    MW4 7713   1.089   5.109   1.439
 1849SOL     OW 7714   0.387   3.767   1.789
 1849SOL    HW2 7715   0.315   3.732   1.737
 1849SOL    HW3 7716   0.445   3.808   1.724
 1849SOL    MW4 7717   0.385   3.768   1.774
 1850SOL     OW 7718   0.411   5.257   1.088
 1850SOL    HW2 7719   0.456   5.319   1.145
 1850SOL    HW3 7720   0.318   5.276   1.101
 1850SOL    MW4 7721   0.404   5.267   1.095
 1851SOL     OW 7722   1.851   4.786   1.442
 1851SOL    HW2 7723   1.766   4.799   1.401
 1851SOL    HW3 7724   1.831   4.750   1.529
 1851SOL    MW4 7725   1.838   4.782   1.447
 1852SOL     OW 7726   0.833   5.325   1.196
 1852SOL    HW2 7727   0.857   5.314   1.105
 1852SOL    HW3 7728   0.756   5.382   1.194
 1852SOL    MW4 7729   0.825   5.330   1.185
 1853SOL     OW 7730   0.475   4.708   0.051
 1853SOL    HW2 7731   0.398   4.721   0.107
 1853SOL    HW3 7732   0.439   4.672  -0.030
 1853SOL    MW4 7733   0.461   4.704   0.048
 1854SOL     OW 7734   1.128   4.681   0.294
 1854SOL    HW2 7735   1.038   4.702   0.269
 1854SOL    HW3 7736   1.155   4.754   0.350
 1854SOL    MW4 7737   1.120   4.693   0.297
 1855SOL     OW 7738   0.628   5.030   0.986
 1855SOL    HW2 7739   0.621   5.009   1.080
 1855SOL    HW3 7740   0.546   4.998   0.949
 1855SOL    MW4 7741   0.616   5.024   0.993
 1856SOL     OW 7742   1.492   4.040   1.388
 1856SOL    HW2 7743   1.439   4.042   1.468
 1856SOL    HW3 7744   1.477   3.953   1.351
 1856SOL    MW4 7745   1.484   4.030   1.393
 1857SOL     OW 7746   1.828   3.964   1.261
 1857SOL    HW2 7747   1.809   4.031   1.196
 1857SOL    HW3 7748   1.885   3.902   1.216
 1857SOL    MW4 7749   1.832   3.965   1.247
 1858SOL     OW 7750   0.074   5.122   1.649
 1858SOL    HW2 7751   0.118   5.055   1.595
 1858SOL    HW3 7752  -0.011   5.084   1.669
 1858SOL    MW4 7753   0.069   5.108   1.645
 1859SOL     OW 7754   0.757   3.797   0.701
 1859SOL    HW2 7755   0.686   3.858   0.683
 1859SOL    HW3 7756   0.808   3.794   0.620
 1859SOL    MW4 7757   0.753   3.803   0.688
 1860SOL     OW 7758   0.515   5.037   0.450
 1860SOL    HW2 7759   0.508   5.069   0.540
 1860SOL    HW3 7760   0.425   5.021   0.422
 1860SOL    MW4 7761   0.503   5.039   0.457
 1861SOL     OW 7762   1.110   5.430   1.359
 1861SOL    HW2 7763   1.030   5.415   1.309
 1861SOL    HW3 7764   1.117   5.525   1.366
 1861SOL    MW4 7765   1.101   5.441   1.353
 1862SOL     OW 7766   1.224   5.395   0.849
 1862SOL    HW2 7767   1.271   5.468   0.808
 1862SOL    HW3 7768   1.145   5.434   0.885
 1862SOL    MW4 7769   1.219   5.410   0.848
 1863SOL     OW 7770   1.632   5.490   1.124
 1863SOL    HW2 7771   1.675   5.460   1.204
 1863SOL    HW3 7772   1.551   5.438   1.121
 1863SOL    MW4 7773   1.627   5.479   1.134
 1864SOL     OW 7774   0.717   4.454   1.831
 1864SOL    HW2 7775   0.787   4.396   1.803
 1864SOL    HW3 7776   0.660   4.399   1.886
 1864SOL    MW4 7777   0.719   4.441   1.835
 1865SOL     OW 7778   1.504   4.666   1.464
 1865SOL    HW2 7779   1.509   4.719   1.544
 1865SOL    HW3 7780   1.466   4.583   1.492
 1865SOL    MW4 7781   1.500   4.661   1.479
 1866SOL     OW 7782   1.144   3.801   1.710
 1866SOL    HW2 7783   1.139   3.708   1.691
 1866SOL    HW3 7784   1.227   3.812   1.756
 1866SOL    MW4 7785   1.152   3.790   1.714
 1867SOL     OW 7786   0.518   4.321   0.164
 1867SOL    HW2 7787   0.484   4.377   0.234
 1867SOL    HW3 7788   0.589   4.271   0.204
 1867SOL    MW4 7789   0.524   4.322   0.178
 1868SOL     OW 7790   1.614   5.072   0.986
 1868SOL    HW2 7791   1.649   5.054   0.899
 1868SOL    HW3 7792   1.519   5.073   0.973
 1868SOL    MW4 7793   1.606   5.069   0.973
 1869SOL     OW 7794   1.043   4.720   1.355
 1869SOL    HW2 7795   1.086   4.755   1.433
 1869SOL    HW3 7796   1.026   4.797   1.301
 1869SOL    MW4 7797   1.046   4.735   1.358
 1870SOL     OW 7798   1.574   4.207   0.228
 1870SOL    HW2 7799   1.566   4.278   0.165
 1870SOL    HW3 7800   1.592   4.251   0.311
 1870SOL    MW4 7801   1.575   4.221   0.230
 1871SOL     OW 7802   0.434   3.862   0.657
 1871SOL    HW2 7803   0.484   3.905   0.588
 1871SOL    HW3 7804   0.349   3.906   0.657
 1871SOL    MW4 7805   0.431   3.875   0.648
 1872SOL     OW 7806   0.193   4.924   1.517
 1872SOL    HW2 7807   0.221   4.877   1.595
 1872SOL    HW3 7808   0.114   4.879   1.488
 1872SOL    MW4 7809   0.186   4.913   1.523
 1873SOL     OW 7810   0.701   4.251   1.484
 1873SOL    HW2 7811   0.673   4.339   1.508
 1873SOL    HW3 7812   0.670   4.195   1.555
 1873SOL    MW4 7813   0.693   4.254   1.496
 1874SOL     OW 7814   1.243   4.469   0.203
 1874SOL    HW2 7815   1.290   4.487   0.122
 1874SOL    HW3 7816   1.209   4.553   0.231
 1874SOL    MW4 7817   1.245   4.483   0.196
 1875SOL     OW 7818   0.356   4.647   0.697
 1875SOL    HW2 7819   0.414   4.703   0.645
 1875SOL    HW3 7820   0.400   4.562   0.699
 1875SOL    MW4 7821   0.369   4.644   0.690
 1876SOL     OW 7822   1.496   3.999   0.534
 1876SOL    HW2 7823   1.418   3.949   0.559
 1876SOL    HW3 7824   1.467   4.090   0.534
 1876SOL    MW4 7825   1.482   4.003   0.537
 1877SOL     OW 7826   1.082   3.961   0.693
 1877SOL    HW2 7827   1.102   4.036   0.637
 1877SOL    HW3 7828   1.062   4.000   0.778
 1877SOL    MW4 7829   1.083   3.977   0.697
 1878SOL     OW 7830   0.978   5.211   0.025
 1878SOL    HW2 7831   1.005   5.289  -0.023
 1878SOL    HW3 7832   0.885   5.226   0.044
 1878SOL    MW4 7833   0.969   5.224   0.021
 1879SOL     OW 7834   1.842   4.734   1.712
 1879SOL    HW2 7835   1.755   4.714   1.748
 1879SOL    HW3 7836   1.896   4.660   1.737
 1879SOL    MW4 7837   1.837   4.723   1.720
 1880SOL     OW 7838   0.063   5.247   0.869
 1880SOL    HW2 7839   0.095   5.251   0.960
 1880SOL    HW3 7840  -0.032   5.255   0.877
 1880SOL    MW4 7841   0.055   5.250   0.882
 1881SOL     OW 7842   0.018   4.373   0.416
 1881SOL    HW2 7843  -0.042   4.345   0.486
 1881SOL    HW3 7844   0.092   4.313   0.422
 1881SOL    MW4 7845   0.020   4.362   0.425
 1882SOL     OW 7846   1.586   5.585   1.850
 1882SOL    HW2 7847   1.631   5.509   1.815
 1882SOL    HW3 7848   1.624   5.598   1.937
 1882SOL    MW4 7849   1.596   5.578   1.856
 1883SOL     OW 7850   1.186   5.104   0.576
 1883SOL    HW2 7851   1.209   5.055   0.654
 1883SOL    HW3 7852   1.267   5.146   0.548
 1883SOL    MW4 7853   1.199   5.104   0.583
 1884SOL     OW 7854   0.444   4.112   1.305
 1884SOL    HW2 7855   0.477   4.193   1.345
 1884SOL    HW3 7856   0.417   4.138   1.217
 1884SOL    MW4 7857   0.443   4.126   1.299
 1885SOL     OW 7858   0.398   4.079   1.041
 1885SOL    HW2 7859   0.428   3.993   1.012
 1885SOL    HW3 7860   0.303   4.072   1.044
 1885SOL    MW4 7861   0.390   4.068   1.039
 1886SOL     OW 7862   1.227   4.288   1.732
 1886SOL    HW2 7863   1.279   4.223   1.685
 1886SOL    HW3 7864   1.185   4.339   1.662
 1886SOL    MW4 7865   1.228   4.285   1.715
 1887SOL     OW 7866   1.326   4.083   1.593
 1887SOL    HW2 7867   1.233   4.067   1.580
 1887SOL    HW3 7868   1.352   4.021   1.661
 1887SOL    MW4 7869   1.316   4.073   1.600
 1888SOL     OW 7870   0.541   3.857   0.932
 1888SOL    HW2 7871   0.551   3.766   0.958
 1888SOL    HW3 7872   0.497   3.853   0.847
 1888SOL    MW4 7873   0.537   3.845   0.924
 1889SOL     OW 7874   0.635   5.472   1.478
 1889SOL    HW2 7875   0.552   5.457   1.523
 1889SOL    HW3 7876   0.694   5.405   1.513
 1889SOL    MW4 7877   0.633   5.462   1.488
 1890SOL     OW 7878   1.692   4.179   1.103
 1890SOL    HW2 7879   1.625   4.212   1.163
 1890SOL    HW3 7880   1.735   4.257   1.069
 1890SOL    MW4 7881   1.690   4.194   1.107
 1891SOL     OW 7882   1.870   4.899   1.073
 1891SOL    HW2 7883   1.863   4.839   0.998
 1891SOL    HW3 7884   1.796   4.959   1.062
 1891SOL    MW4 7885   1.860   4.899   1.062
 1892SOL     OW 7886   1.252   4.761   0.991
 1892SOL    HW2 7887   1.266   4.733   1.082
 1892SOL    HW3 7888   1.338   4.792   0.963
 1892SOL    MW4 7889   1.265   4.762   1.000
 1893SOL     OW 7890   1.335   4.256   1.270
 1893SOL    HW2 7891   1.356   4.257   1.177
 1893SOL    HW3 7892   1.380   4.178   1.303
 1893SOL    MW4 7893   1.342   4.246   1.262
 1894SOL     OW 7894   1.828   4.387   1.812
 1894SOL    HW2 7895   1.865   4.332   1.881
 1894SOL    HW3 7896   1.853   4.344   1.730
 1894SOL    MW4 7897   1.835   4.375   1.811
 1895SOL     OW 7898   1.375   4.685   1.863
 1895SOL    HW2 7899   1.441   4.633   1.817
 1895SOL    HW3 7900   1.395   4.672   1.956
 1895SOL    MW4 7901   1.386   4.676   1.870
 1896SOL     OW 7902   1.326   3.771   0.212
 1896SOL    HW2 7903   1.400   3.815   0.255
 1896SOL    HW3 7904   1.250   3.825   0.234
 1896SOL    MW4 7905   1.326   3.783   0.220
 1897SOL     OW 7906   1.386   4.546   0.490
 1897SOL    HW2 7907   1.301   4.516   0.460
 1897SOL    HW3 7908   1.378   4.553   0.585
 1897SOL    MW4 7909   1.374   4.544   0.499
 1898SOL     OW 7910   0.462   5.009   1.221
 1898SOL    HW2 7911   0.474   5.036   1.312
 1898SOL    HW3 7912   0.443   5.090   1.174
 1898SOL    MW4 7913   0.461   5.024   1.226
 1899SOL     OW 7914   0.746   3.989   1.044
 1899SOL    HW2 7915   0.719   3.991   1.135
 1899SOL    HW3 7916   0.676   3.941   0.999
 1899SOL    MW4 7917   0.734   3.985   1.051
 1900SOL     OW 7918   0.600   5.481   1.206
 1900SOL    HW2 7919   0.652   5.558   1.183
 1900SOL    HW3 7920   0.609   5.473   1.301
 1900SOL    MW4 7921   0.609   5.488   1.217
 1901SOL     OW 7922   1.502   5.066   1.438
 1901SOL    HW2 7923   1.487   4.995   1.501
 1901SOL    HW3 7924   1.548   5.024   1.366
 1901SOL    MW4 7925   1.508   5.050   1.438
 1902SOL     OW 7926   0.576   4.797   1.555
 1902SOL    HW2 7927   0.613   4.802   1.467
 1902SOL    HW3 7928   0.615   4.870   1.602
 1902SOL    MW4 7929   0.586   4.807   1.550
 1903SOL     OW 7930   0.756   4.840   1.367
 1903SOL    HW2 7931   0.815   4.786   1.420
 1903SOL    HW3 7932   0.771   4.812   1.277
 1903SOL    MW4 7933   0.766   4.829   1.363
 1904SOL     OW 7934   0.759   4.212   0.216
 1904SOL    HW2 7935   0.832   4.261   0.179
 1904SOL    HW3 7936   0.775   4.121   0.190
 1904SOL    MW4 7937   0.771   4.207   0.209
 1905SOL     OW 7938   1.567   5.329   1.539
 1905SOL    HW2 7939   1.609   5.314   1.624
 1905SOL    HW3 7940   1.558   5.242   1.501
 1905SOL    MW4 7941   1.571   5.317   1.546
 1906SOL     OW 7942   1.227   3.808   1.130
 1906SOL    HW2 7943   1.282   3.817   1.052
 1906SOL    HW3 7944   1.282   3.842   1.201
 1906SOL    MW4 7945   1.241   3.813   1.129
 1907SOL     OW 7946   0.234   4.721   0.314
 1907SOL    HW2 7947   0.171   4.737   0.243
 1907SOL    HW3 7948   0.181   4.684   0.385
 1907SOL    MW4 7949   0.219   4.718   0.314
 1908SOL     OW 7950   0.590   5.075   0.173
 1908SOL    HW2 7951   0.605   5.051   0.265
 1908SOL    HW3 7952   0.498   5.053   0.157
 1908SOL    MW4 7953   0.580   5.068   0.183
 1909SOL     OW 7954   1.129   5.306   0.325
 1909SOL    HW2 7955   1.137   5.224   0.276
 1909SOL    HW3 7956   1.048   5.345   0.292
 1909SOL    MW4 7957   1.119   5.301   0.315
 1910SOL     OW 7958   0.388   5.464   0.894
 1910SOL    HW2 7959   0.392   5.375   0.929
 1910SOL    HW3 7960   0.414   5.455   0.803
 1910SOL    MW4 7961   0.391   5.452   0.886
 1911SOL     OW 7962   1.005   4.942   1.137
 1911SOL    HW2 7963   0.937   4.876   1.153
 1911SOL    HW3 7964   1.023   4.936   1.044
 1911SOL    MW4 7965   0.998   4.933   1.128
 1912SOL     OW 7966   0.094   5.217   1.388
 1912SOL    HW2 7967   0.084   5.175   1.474
 1912SOL    HW3 7968   0.015   5.270   1.378
 1912SOL    MW4 7969   0.083   5.218   1.399
 1913SOL     OW 7970   0.998   4.081   0.958
 1913SOL    HW2 7971   0.928   4.033   1.003
 1913SOL    HW3 7972   1.030   4.144   1.022
 1913SOL    MW4 7973   0.993   4.083   0.972
 1914SOL     OW 7974   0.649   4.517   1.578
 1914SOL    HW2 7975   0.642   4.612   1.566
 1914SOL    HW3 7976   0.658   4.506   1.673
 1914SOL    MW4 7977   0.650   4.529   1.588
 1915SOL     OW 7978   0.370   5.032   1.836
 1915SOL    HW2 7979   0.442   5.034   1.773
 1915SOL    HW3 7980   0.340   4.941   1.835
 1915SOL    MW4 7981   0.375   5.021   1.828
 1916SOL     OW 7982   1.454   3.795   1.303
 1916SOL    HW2 7983   1.525   3.741   1.267
 1916SOL    HW3 7984   1.453   3.774   1.396
 1916SOL    MW4 7985   1.463   3.786   1.311
 1917SOL     OW 7986   1.654   5.325   1.787
 1917SOL    HW2 7987   1.627   5.322   1.878
 1917SOL    HW3 7988   1.750   5.329   1.790
 1917SOL    MW4 7989   1.664   5.325   1.799
 1918SOL     OW 7990   0.465   4.187   0.771
 1918SOL    HW2 7991   0.536   4.135   0.734
 1918SOL    HW3 7992   0.451   4.152   0.858
 1918SOL    MW4 7993   0.473   4.176   0.778
 1919SOL     OW 7994   0.020   5.522   1.843
 1919SOL    HW2 7995   0.070   5.500   1.765
 1919SOL    HW3 7996   0.028   5.617   1.851
 1919SOL    MW4 7997   0.028   5.531   1.834
 1920SOL     OW 7998   0.781   5.280   0.847
 1920SOL    HW2 7999   0.709   5.217   0.860
 1920SOL    HW3 8000   0.742   5.365   0.865
 1920SOL    MW4 8001   0.765   5.283   0.850
 1921SOL     OW 8002   1.101   4.128   0.495
 1921SOL    HW2 8003   1.123   4.065   0.427
 1921SOL    HW3 8004   1.006   4.120   0.506
 1921SOL    MW4 8005   1.091   4.119   0.487
 1922SOL     OW 8006   0.186   3.818   0.427
 1922SOL    HW2 8007   0.257   3.839   0.366
 1922SOL    HW3 8008   0.140   3.746   0.385
 1922SOL    MW4 8009   0.190   3.812   0.413
 1923SOL     OW 8010   0.017   4.285   1.570
 1923SOL    HW2 8011   0.081   4.351   1.545
 1923SOL    HW3 8012  -0.064   4.312   1.527
 1923SOL    MW4 8013   0.015   4.297   1.562
 1924SOL     OW 8014   1.755   5.192   0.527
 1924SOL    HW2 8015   1.725   5.125   0.588
 1924SOL    HW3 8016   1.849   5.198   0.541
 1924SOL    MW4 8017   1.763   5.184   0.537
 1925SOL     OW 8018   1.311   4.869   0.457
 1925SOL    HW2 8019   1.283   4.955   0.490
 1925SOL    HW3 8020   1.339   4.885   0.367
 1925SOL    MW4 8021   1.311   4.883   0.449
 1926SOL     OW 8022   0.973   3.789   0.510
 1926SOL    HW2 8023   1.010   3.848   0.575
 1926SOL    HW3 8024   0.950   3.845   0.436
 1926SOL    MW4 8025   0.974   3.804   0.509
 1927SOL     OW 8026   1.826   4.671   0.932
 1927SOL    HW2 8027   1.817   4.703   0.843
 1927SOL    HW3 8028   1.779   4.587   0.932
 1927SOL    MW4 8029   1.819   4.664   0.922
 1928SOL     OW 8030   0.202   4.511   1.511
 1928SOL    HW2 8031   0.223   4.580   1.449
 1928SOL    HW3 8032   0.282   4.458   1.516
 1928SOL    MW4 8033   0.215   4.512   1.505
 1929SOL     OW 8034   1.738   4.602   0.633
 1929SOL    HW2 8035   1.832   4.591   0.621
 1929SOL    HW3 8036   1.714   4.674   0.574
 1929SOL    MW4 8037   1.748   4.610   0.624
 1930SOL     OW 8038   0.187   4.526   1.778
 1930SOL    HW2 8039   0.113   4.470   1.804
 1930SOL    HW3 8040   0.182   4.529   1.683
 1930SOL    MW4 8041   0.176   4.519   1.768
 1931SOL     OW 8042   0.353   3.813   1.228
 1931SOL    HW2 8043   0.396   3.897   1.248
 1931SOL    HW3 8044   0.426   3.751   1.221
 1931SOL    MW4 8045   0.368   3.816   1.229
 1932SOL     OW 8046   0.394   4.480   0.406
 1932SOL    HW2 8047   0.394   4.575   0.391
 1932SOL    HW3 8048   0.471   4.464   0.460
 1932SOL    MW4 8049   0.404   4.491   0.411
 1933SOL     OW 8050   1.170   4.339   1.470
 1933SOL    HW2 8051   1.206   4.312   1.386
 1933SOL    HW3 8052   1.083   4.373   1.449
 1933SOL    MW4 8053   1.164   4.340   1.457
 1934SOL     OW 8054   0.153   4.211   0.695
 1934SOL    HW2 8055   0.215   4.218   0.768
 1934SOL    HW3 8056   0.153   4.118   0.672
 1934SOL    MW4 8057   0.161   4.200   0.702
 1935SOL     OW 8058   1.700   5.551   0.227
 1935SOL    HW2 8059   1.767   5.584   0.167
 1935SOL    HW3 8060   1.657   5.630   0.261
 1935SOL    MW4 8061   1.702   5.566   0.223
 1936SOL     OW 8062   0.835   4.472   1.179
 1936SOL    HW2 8063   0.793   4.390   1.155
 1936SOL    HW3 8064   0.836   4.471   1.275
 1936SOL    MW4 8065   0.828   4.461   1.188
 1937SOL     OW 8066   1.506   5.605   1.578
 1937SOL    HW2 8067   1.509   5.511   1.561
 1937SOL    HW3 8068   1.529   5.613   1.670
 1937SOL    MW4 8069   1.509   5.593   1.588
 1938SOL     OW 8070   0.639   3.942   1.284
 1938SOL    HW2 8071   0.570   4.005   1.305
 1938SOL    HW3 8072   0.666   3.906   1.369
 1938SOL    MW4 8073   0.633   3.945   1.297
 1939SOL     OW 8074   0.022   4.783   0.153
 1939SOL    HW2 8075  -0.009   4.848   0.216
 1939SOL    HW3 8076  -0.029   4.705   0.172
 1939SOL    MW4 8077   0.012   4.780   0.163
 1940SOL     OW 8078   1.434   3.795   0.901
 1940SOL    HW2 8079   1.522   3.804   0.938
 1940SOL    HW3 8080   1.444   3.736   0.827
 1940SOL    MW4 8081   1.448   3.789   0.895
 1941SOL     OW 8082   1.466   4.534   0.745
 1941SOL    HW2 8083   1.546   4.549   0.694
 1941SOL    HW3 8084   1.459   4.439   0.751
 1941SOL    MW4 8085   1.475   4.523   0.740
 1942SOL     OW 8086   0.606   5.583   0.095
 1942SOL    HW2 8087   0.511   5.583   0.087
 1942SOL    HW3 8088   0.622   5.529   0.173
 1942SOL    MW4 8089   0.596   5.577   0.104
 1943SOL     OW 8090   0.916   4.460   1.442
 1943SOL    HW2 8091   0.985   4.527   1.439
 1943SOL    HW3 8092   0.849   4.498   1.498
 1943SOL    MW4 8093   0.917   4.473   1.449
 1944SOL     OW 8094   0.334   4.760   1.690
 1944SOL    HW2 8095   0.288   4.676   1.692
 1944SOL    HW3 8096   0.391   4.754   1.614
 1944SOL    MW4 8097   0.336   4.748   1.682
 1945SOL     OW 8098   1.451   4.403   0.011
 1945SOL    HW2 8099   1.379   4.379  -0.047
 1945SOL    HW3 8100   1.517   4.440  -0.047
 1945SOL    MW4 8101   1.450   4.405  -0.004
 1946SOL     OW 8102   0.585   5.135   0.691
 1946SOL    HW2 8103   0.650   5.068   0.712
 1946SOL    HW3 8104   0.637   5.212   0.668
 1946SOL    MW4 8105   0.600   5.137   0.690
 1947SOL     OW 8106   0.846   4.300   0.821
 1947SOL    HW2 8107   0.786   4.318   0.893
 1947SOL    HW3 8108   0.880   4.212   0.840
 1947SOL    MW4 8109   0.842   4.290   0.834
 1948SOL     OW 8110   1.787   3.799   1.490
 1948SOL    HW2 8111   1.708   3.845   1.518
 1948SOL    HW3 8112   1.822   3.853   1.419
 1948SOL    MW4 8113   1.781   3.812   1.484
 1949SOL     OW 8114   1.071   4.883   0.840
 1949SOL    HW2 8115   1.163   4.864   0.858
 1949SOL    HW3 8116   1.044   4.813   0.780
 1949SOL    MW4 8117   1.079   4.871   0.834
 1950SOL     OW 8118   0.864   4.703   0.195
 1950SOL    HW2 8119   0.850   4.615   0.160
 1950SOL    HW3 8120   0.815   4.760   0.136
 1950SOL    MW4 8121   0.856   4.698   0.183
 1951SOL     OW 8122   1.345   5.121   0.936
 1951SOL    HW2 8123   1.318   5.205   0.901
 1951SOL    HW3 8124   1.305   5.116   1.023
 1951SOL    MW4 8125   1.338   5.130   0.942
 1952SOL     OW 8126   1.264   5.069   1.204
 1952SOL    HW2 8127   1.275   5.036   1.293
 1952SOL    HW3 8128   1.183   5.028   1.173
 1952SOL    MW4 8129   1.254   5.061   1.210
 1953SOL     OW 8130   0.277   4.427   0.974
 1953SOL    HW2 8131   0.227   4.426   1.055
 1953SOL    HW3 8132   0.297   4.519   0.958
 1953SOL    MW4 8133   0.273   4.439   0.982
 1954SOL     OW 8134   1.344   5.191   1.736
 1954SOL    HW2 8135   1.344   5.285   1.752
 1954SOL    HW3 8136   1.389   5.181   1.652
 1954SOL    MW4 8137   1.350   5.201   1.727
 1955SOL     OW 8138   1.583   3.909   0.297
 1955SOL    HW2 8139   1.576   3.913   0.392
 1955SOL    HW3 8140   1.595   4.000   0.270
 1955SOL    MW4 8141   1.584   3.922   0.305
 1956SOL     OW 8142   0.872   4.472   0.411
 1956SOL    HW2 8143   0.852   4.458   0.318
 1956SOL    HW3 8144   0.965   4.451   0.418
 1956SOL    MW4 8145   0.882   4.467   0.400
 1957SOL     OW 8146   0.199   4.095   1.715
 1957SOL    HW2 8147   0.156   4.154   1.652
 1957SOL    HW3 8148   0.267   4.150   1.755
 1957SOL    MW4 8149   0.203   4.110   1.712
 1958SOL     OW 8150   1.311   4.715   1.260
 1958SOL    HW2 8151   1.374   4.712   1.333
 1958SOL    HW3 8152   1.227   4.733   1.302
 1958SOL    MW4 8153   1.307   4.717   1.275
 1959SOL     OW 8154   0.855   5.430   0.449
 1959SOL    HW2 8155   0.913   5.501   0.476
 1959SOL    HW3 8156   0.878   5.358   0.507
 1959SOL    MW4 8157   0.866   5.430   0.460
 1960SOL     OW 8158   1.650   3.892   1.039
 1960SOL    HW2 8159   1.695   3.810   1.058
 1960SOL    HW3 8160   1.670   3.948   1.115
 1960SOL    MW4 8161   1.660   3.888   1.051
 1961SOL     OW 8162   0.098   3.735   1.138
 1961SOL    HW2 8163   0.089   3.736   1.043
 1961SOL    HW3 8164   0.192   3.747   1.153
 1961SOL    MW4 8165   0.110   3.738   1.129
 1962SOL     OW 8166   1.735   4.928   0.758
 1962SOL    HW2 8167   1.714   4.874   0.681
 1962SOL    HW3 8168   1.831   4.926   0.762
 1962SOL    MW4 8169   1.744   4.921   0.747
 1963SOL     OW 8170   0.427   5.073   1.501
 1963SOL    HW2 8171   0.348   5.023   1.524
 1963SOL    HW3 8172   0.497   5.032   1.551
 1963SOL    MW4 8173   0.425   5.061   1.511
 1964SOL     OW 8174   0.311   3.862   0.184
 1964SOL    HW2 8175   0.240   3.917   0.152
 1964SOL    HW3 8176   0.353   3.828   0.105
 1964SOL    MW4 8177   0.307   3.864   0.170
 1965SOL     OW 8178   1.435   4.359   1.020
 1965SOL    HW2 8179   1.358   4.405   0.986
 1965SOL    HW3 8180   1.492   4.428   1.054
 1965SOL    MW4 8181   1.432   4.374   1.020
 1966SOL     OW 8182   0.067   3.961   0.033
 1966SOL    HW2 8183   0.034   4.040   0.077
 1966SOL    HW3 8184   0.122   3.994  -0.038
 1966SOL    MW4 8185   0.070   3.975   0.030
 1967SOL     OW 8186   0.101   5.218   0.222
 1967SOL    HW2 8187   0.118   5.302   0.264
 1967SOL    HW3 8188   0.136   5.227   0.134
 1967SOL    MW4 8189   0.106   5.231   0.216
 1968SOL     OW 8190   1.373   5.307   0.439
 1968SOL    HW2 8191   1.436   5.297   0.368
 1968SOL    HW3 8192   1.290   5.327   0.394
 1968SOL    MW4 8193   1.370   5.308   0.424
 1969SOL     OW 8194   1.736   4.575   2.125
 1969SOL    HW2 8195   1.777   4.517   2.190
 1969SOL    HW3 8196   1.643   4.567   2.142
 1969SOL    MW4 8197   1.730   4.567   2.135
 1970SOL     OW 8198   1.602   4.507   3.120
 1970SOL    HW2 8199   1.557   4.574   3.171
 1970SOL    HW3 8200   1.690   4.543   3.106
 1970SOL    MW4 8201   1.608   4.520   3.124
 1971SOL     OW 8202   0.530   4.758   2.354
 1971SOL    HW2 8203   0.620   4.733   2.338
 1971SOL    HW3 8204   0.526   4.851   2.331
 1971SOL    MW4 8205   0.542   4.767   2.349
 1972SOL     OW 8206   1.646   5.461   2.496
 1972SOL    HW2 8207   1.658   5.407   2.574
 1972SOL    HW3 8208   1.683   5.409   2.425
 1972SOL    MW4 8209   1.652   5.446   2.497
 1973SOL     OW 8210   1.025   5.346   3.497
 1973SOL    HW2 8211   1.066   5.382   3.418
 1973SOL    HW3 8212   1.060   5.257   3.504
 1973SOL    MW4 8213   1.036   5.339   3.488
 1974SOL     OW 8214   1.582   4.901   3.101
 1974SOL    HW2 8215   1.503   4.866   3.059
 1974SOL    HW3 8216   1.609   4.973   3.045
 1974SOL    MW4 8217   1.575   4.906   3.088
 1975SOL     OW 8218   0.814   4.214   2.367
 1975SOL    HW2 8219   0.789   4.302   2.395
 1975SOL    HW3 8220   0.811   4.217   2.271
 1975SOL    MW4 8221   0.810   4.226   2.359
 1976SOL     OW 8222   0.256   4.242   2.295
 1976SOL    HW2 8223   0.288   4.330   2.277
 1976SOL    HW3 8224   0.244   4.240   2.390
 1976SOL    MW4 8225   0.259   4.254   2.307
 1977SOL     OW 8226   0.334   4.655   3.196
 1977SOL    HW2 8227   0.397   4.602   3.147
 1977SOL    HW3 8228   0.315   4.729   3.139
 1977SOL    MW4 8229   0.340   4.657   3.183
 1978SOL     OW 8230   0.655   3.997   2.382
 1978SOL    HW2 8231   0.713   4.073   2.384
 1978SOL    HW3 8232   0.590   4.018   2.315
 1978SOL    MW4 8233   0.654   4.009   2.373
 1979SOL     OW 8234   0.742   4.924   2.557
 1979SOL    HW2 8235   0.822   4.927   2.609
 1979SOL    HW3 8236   0.770   4.891   2.471
 1979SOL    MW4 8237   0.756   4.920   2.552
 1980SOL     OW 8238   0.767   5.265   3.460
 1980SOL    HW2 8239   0.851   5.291   3.499
 1980SOL    HW3 8240   0.791   5.209   3.386
 1980SOL    MW4 8241   0.781   5.261   3.455
 1981SOL     OW 8242   0.519   4.428   2.548
 1981SOL    HW2 8243   0.504   4.348   2.599
 1981SOL    HW3 8244   0.601   4.463   2.582
 1981SOL    MW4 8245   0.527   4.420   2.560
 1982SOL     OW 8246   0.856   5.114   3.233
 1982SOL    HW2 8247   0.820   5.180   3.173
 1982SOL    HW3 8248   0.784   5.052   3.246
 1982SOL    MW4 8249   0.842   5.114   3.227
 1983SOL     OW 8250   0.661   4.254   2.925
 1983SOL    HW2 8251   0.567   4.250   2.943
 1983SOL    HW3 8252   0.691   4.163   2.934
 1983SOL    MW4 8253   0.652   4.242   2.928
 1984SOL     OW 8254   0.407   4.668   2.829
 1984SOL    HW2 8255   0.362   4.675   2.745
 1984SOL    HW3 8256   0.387   4.751   2.873
 1984SOL    MW4 8257   0.399   4.680   2.823
 1985SOL     OW 8258   0.104   5.514   2.704
 1985SOL    HW2 8259   0.193   5.506   2.739
 1985SOL    HW3 8260   0.068   5.426   2.709
 1985SOL    MW4 8261   0.111   5.501   2.709
 1986SOL     OW 8262   1.369   4.906   2.073
 1986SOL    HW2 8263   1.287   4.942   2.039
 1986SOL    HW3 8264   1.437   4.949   2.022
 1986SOL    MW4 8265   1.367   4.916   2.061
 1987SOL     OW 8266   0.368   5.041   2.739
 1987SOL    HW2 8267   0.344   5.094   2.815
 1987SOL    HW3 8268   0.424   5.099   2.687
 1987SOL    MW4 8269   0.372   5.056   2.742
 1988SOL     OW 8270   0.930   4.685   2.549
 1988SOL    HW2 8271   0.844   4.672   2.589
 1988SOL    HW3 8272   0.983   4.612   2.581
 1988SOL    MW4 8273   0.926   4.674   2.558
 1989SOL     OW 8274   0.338   5.337   3.334
 1989SOL    HW2 8275   0.246   5.313   3.319
 1989SOL    HW3 8276   0.382   5.254   3.351
 1989SOL    MW4 8277   0.332   5.322   3.333
 1990SOL     OW 8278   0.921   5.047   2.266
 1990SOL    HW2 8279   0.898   5.109   2.334
 1990SOL    HW3 8280   0.878   4.965   2.292
 1990SOL    MW4 8281   0.913   5.043   2.277
 1991SOL     OW 8282   1.794   4.048   2.722
 1991SOL    HW2 8283   1.731   4.028   2.791
 1991SOL    HW3 8284   1.784   3.977   2.659
 1991SOL    MW4 8285   1.784   4.035   2.723
 1992SOL     OW 8286   0.418   4.020   2.234
 1992SOL    HW2 8287   0.392   3.982   2.150
 1992SOL    HW3 8288   0.355   4.090   2.250
 1992SOL    MW4 8289   0.407   4.023   2.225
 1993SOL     OW 8290   0.253   4.981   2.271
 1993SOL    HW2 8291   0.201   5.049   2.227
 1993SOL    HW3 8292   0.250   4.907   2.211
 1993SOL    MW4 8293   0.245   4.980   2.258
 1994SOL     OW 8294   0.915   5.444   2.049
 1994SOL    HW2 8295   0.870   5.460   2.132
 1994SOL    HW3 8296   0.846   5.409   1.991
 1994SOL    MW4 8297   0.901   5.441   2.051
 1995SOL     OW 8298   1.850   4.217   2.024
 1995SOL    HW2 8299   1.759   4.219   2.052
 1995SOL    HW3 8300   1.895   4.279   2.082
 1995SOL    MW4 8301   1.843   4.225   2.034
 1996SOL     OW 8302   1.595   4.820   2.374
 1996SOL    HW2 8303   1.505   4.820   2.409
 1996SOL    HW3 8304   1.588   4.866   2.291
 1996SOL    MW4 8305   1.582   4.826   2.368
 1997SOL     OW 8306   1.395   4.455   3.446
 1997SOL    HW2 8307   1.464   4.393   3.423
 1997SOL    HW3 8308   1.320   4.429   3.393
 1997SOL    MW4 8309   1.395   4.442   3.437
 1998SOL     OW 8310   0.136   5.335   2.998
 1998SOL    HW2 8311   0.119   5.281   3.075
 1998SOL    HW3 8312   0.124   5.425   3.028
 1998SOL    MW4 8313   0.133   5.339   3.012
 1999SOL     OW 8314   1.131   4.842   3.438
 1999SOL    HW2 8315   1.116   4.935   3.423
 1999SOL    HW3 8316   1.226   4.832   3.438
 1999SOL    MW4 8317   1.140   4.852   3.435
 2000SOL     OW 8318   0.927   4.266   3.639
 2000SOL    HW2 8319   1.017   4.267   3.606
 2000SOL    HW3 8320   0.886   4.191   3.597
 2000SOL    MW4 8321   0.933   4.256   3.630
 2001SOL     OW 8322   1.502   4.798   2.766
 2001SOL    HW2 8323   1.505   4.732   2.697
 2001SOL    HW3 8324   1.587   4.841   2.762
 2001SOL    MW4 8325   1.514   4.794   2.757
 2002SOL     OW 8326   1.122   4.401   2.335
 2002SOL    HW2 8327   1.148   4.425   2.246
 2002SOL    HW3 8328   1.104   4.308   2.331
 2002SOL    MW4 8329   1.124   4.393   2.322
 2003SOL     OW 8330   1.787   5.021   2.186
 2003SOL    HW2 8331   1.743   5.062   2.261
 2003SOL    HW3 8332   1.844   5.089   2.151
 2003SOL    MW4 8333   1.789   5.035   2.191
 2004SOL     OW 8334   0.707   4.070   3.589
 2004SOL    HW2 8335   0.717   3.996   3.529
 2004SOL    HW3 8336   0.743   4.039   3.672
 2004SOL    MW4 8337   0.713   4.056   3.591
 2005SOL     OW 8338   0.443   5.437   2.504
 2005SOL    HW2 8339   0.475   5.525   2.482
 2005SOL    HW3 8340   0.396   5.409   2.426
 2005SOL    MW4 8341   0.442   5.445   2.491
 2006SOL     OW 8342   1.827   3.799   2.553
 2006SOL    HW2 8343   1.881   3.750   2.615
 2006SOL    HW3 8344   1.770   3.733   2.514
 2006SOL    MW4 8345   1.827   3.783   2.555
 2007SOL     OW 8346   0.159   5.497   2.081
 2007SOL    HW2 8347   0.188   5.587   2.073
 2007SOL    HW3 8348   0.109   5.480   2.002
 2007SOL    MW4 8349   0.157   5.505   2.070
 2008SOL     OW 8350   0.946   3.752   2.966
 2008SOL    HW2 8351   0.905   3.830   2.928
 2008SOL    HW3 8352   1.040   3.770   2.961
 2008SOL    MW4 8353   0.952   3.764   2.961
 2009SOL     OW 8354   1.563   5.305   2.052
 2009SOL    HW2 8355   1.611   5.374   2.098
 2009SOL    HW3 8356   1.484   5.349   2.021
 2009SOL    MW4 8357   1.558   5.319   2.055
 2010SOL     OW 8358   0.961   4.430   1.996
 2010SOL    HW2 8359   0.963   4.377   1.917
 2010SOL    HW3 8360   1.049   4.467   2.002
 2010SOL    MW4 8361   0.973   4.429   1.985
 2011SOL     OW 8362   1.575   4.356   2.332
 2011SOL    HW2 8363   1.614   4.356   2.419
 2011SOL    HW3 8364   1.516   4.432   2.332
 2011SOL    MW4 8365   1.572   4.367   2.343
 2012SOL     OW 8366   0.892   4.723   3.461
 2012SOL    HW2 8367   0.869   4.703   3.551
 2012SOL    HW3 8368   0.977   4.767   3.466
 2012SOL    MW4 8369   0.899   4.726   3.473
 2013SOL     OW 8370   0.972   3.860   3.221
 2013SOL    HW2 8371   0.978   3.822   3.134
 2013SOL    HW3 8372   0.961   3.954   3.206
 2013SOL    MW4 8373   0.973   3.868   3.209
 2014SOL     OW 8374   1.061   4.349   3.055
 2014SOL    HW2 8375   1.136   4.378   3.002
 2014SOL    HW3 8376   0.993   4.414   3.039
 2014SOL    MW4 8377   1.062   4.361   3.045
 2015SOL     OW 8378   1.611   4.317   3.332
 2015SOL    HW2 8379   1.592   4.226   3.311
 2015SOL    HW3 8380   1.589   4.366   3.253
 2015SOL    MW4 8381   1.606   4.310   3.319
 2016SOL     OW 8382   1.753   5.411   3.236
 2016SOL    HW2 8383   1.681   5.373   3.287
 2016SOL    HW3 8384   1.770   5.496   3.277
 2016SOL    MW4 8385   1.747   5.416   3.248
 2017SOL     OW 8386   1.058   4.055   3.438
 2017SOL    HW2 8387   1.024   4.094   3.357
 2017SOL    HW3 8388   1.036   3.963   3.431
 2017SOL    MW4 8389   1.051   4.048   3.428
 2018SOL     OW 8390   1.467   4.869   3.514
 2018SOL    HW2 8391   1.549   4.910   3.544
 2018SOL    HW3 8392   1.430   4.831   3.594
 2018SOL    MW4 8393   1.473   4.870   3.529
 2019SOL     OW 8394   1.762   4.242   2.498
 2019SOL    HW2 8395   1.851   4.211   2.515
 2019SOL    HW3 8396   1.705   4.182   2.546
 2019SOL    MW4 8397   1.765   4.230   2.507
 2020SOL     OW 8398   0.188   3.956   2.527
 2020SOL    HW2 8399   0.179   3.896   2.453
 2020SOL    HW3 8400   0.121   3.927   2.590
 2020SOL    MW4 8401   0.178   3.943   2.525
 2021SOL     OW 8402   1.131   5.049   2.088
 2021SOL    HW2 8403   1.081   5.051   2.170
 2021SOL    HW3 8404   1.065   5.067   2.020
 2021SOL    MW4 8405   1.117   5.051   2.090
 2022SOL     OW 8406   0.135   4.129   2.890
 2022SOL    HW2 8407   0.107   4.220   2.899
 2022SOL    HW3 8408   0.072   4.090   2.829
 2022SOL    MW4 8409   0.122   4.135   2.884
 2023SOL     OW 8410   0.594   5.467   2.196
 2023SOL    HW2 8411   0.515   5.425   2.229
 2023SOL    HW3 8412   0.660   5.450   2.263
 2023SOL    MW4 8413   0.593   5.459   2.209
 2024SOL     OW 8414   1.722   4.987   3.593
 2024SOL    HW2 8415   1.772   4.913   3.625
 2024SOL    HW3 8416   1.668   5.014   3.668
 2024SOL    MW4 8417   1.722   4.981   3.606
 2025SOL     OW 8418   0.730   4.882   1.903
 2025SOL    HW2 8419   0.652   4.828   1.890
 2025SOL    HW3 8420   0.701   4.955   1.956
 2025SOL    MW4 8421   0.716   4.884   1.908
 2026SOL     OW 8422   1.856   4.622   3.095
 2026SOL    HW2 8423   1.872   4.660   3.008
 2026SOL    HW3 8424   1.890   4.688   3.156
 2026SOL    MW4 8425   1.863   4.635   3.091
 2027SOL     OW 8426   1.648   5.331   2.764
 2027SOL    HW2 8427   1.677   5.398   2.825
 2027SOL    HW3 8428   1.629   5.255   2.819
 2027SOL    MW4 8429   1.650   5.331   2.779
 2028SOL     OW 8430   1.311   5.398   1.971
 2028SOL    HW2 8431   1.237   5.361   2.021
 2028SOL    HW3 8432   1.319   5.488   2.004
 2028SOL    MW4 8433   1.302   5.405   1.983
 2029SOL     OW 8434   0.119   4.404   3.060
 2029SOL    HW2 8435   0.181   4.434   3.126
 2029SOL    HW3 8436   0.053   4.473   3.054
 2029SOL    MW4 8437   0.118   4.417   3.067
 2030SOL     OW 8438   1.535   5.072   1.913
 2030SOL    HW2 8439   1.482   5.121   1.849
 2030SOL    HW3 8440   1.566   5.138   1.974
 2030SOL    MW4 8441   1.533   5.086   1.911
 2031SOL     OW 8442   0.760   3.961   1.968
 2031SOL    HW2 8443   0.708   3.881   1.956
 2031SOL    HW3 8444   0.847   3.938   1.936
 2031SOL    MW4 8445   0.763   3.947   1.962
 2032SOL     OW 8446   0.214   5.513   3.512
 2032SOL    HW2 8447   0.188   5.581   3.450
 2032SOL    HW3 8448   0.262   5.450   3.460
 2032SOL    MW4 8449   0.216   5.513   3.498
 2033SOL     OW 8450   0.266   4.832   3.019
 2033SOL    HW2 8451   0.319   4.907   3.044
 2033SOL    HW3 8452   0.185   4.870   2.985
 2033SOL    MW4 8453   0.262   4.847   3.019
 2034SOL     OW 8454   0.806   4.736   3.007
 2034SOL    HW2 8455   0.834   4.645   3.019
 2034SOL    HW3 8456   0.735   4.730   2.943
 2034SOL    MW4 8457   0.799   4.724   3.002
 2035SOL     OW 8458   0.121   4.601   2.425
 2035SOL    HW2 8459   0.212   4.616   2.452
 2035SOL    HW3 8460   0.124   4.522   2.371
 2035SOL    MW4 8461   0.133   4.593   2.423
 2036SOL     OW 8462   0.357   4.309   3.679
 2036SOL    HW2 8463   0.304   4.389   3.686
 2036SOL    HW3 8464   0.427   4.321   3.744
 2036SOL    MW4 8465   0.359   4.322   3.687
 2037SOL     OW 8466   0.743   3.859   3.386
 2037SOL    HW2 8467   0.720   3.767   3.388
 2037SOL    HW3 8468   0.829   3.861   3.343
 2037SOL    MW4 8469   0.750   3.849   3.382
 2038SOL     OW 8470   0.427   4.383   3.425
 2038SOL    HW2 8471   0.507   4.433   3.411
 2038SOL    HW3 8472   0.418   4.377   3.520
 2038SOL    MW4 8473   0.436   4.389   3.435
 2039SOL     OW 8474   0.748   5.533   2.799
 2039SOL    HW2 8475   0.837   5.548   2.829
 2039SOL    HW3 8476   0.743   5.580   2.715
 2039SOL    MW4 8477   0.758   5.541   2.792
 2040SOL     OW 8478   1.404   3.908   3.696
 2040SOL    HW2 8479   1.460   3.835   3.722
 2040SOL    HW3 8480   1.374   3.946   3.778
 2040SOL    MW4 8481   1.408   3.903   3.709
 2041SOL     OW 8482   0.129   5.213   2.464
 2041SOL    HW2 8483   0.101   5.252   2.546
 2041SOL    HW3 8484   0.149   5.122   2.486
 2041SOL    MW4 8485   0.127   5.205   2.477
 2042SOL     OW 8486   0.962   5.256   2.499
 2042SOL    HW2 8487   1.045   5.210   2.483
 2042SOL    HW3 8488   0.952   5.255   2.595
 2042SOL    MW4 8489   0.972   5.249   2.509
 2043SOL     OW 8490   1.794   4.401   2.813
 2043SOL    HW2 8491   1.883   4.431   2.795
 2043SOL    HW3 8492   1.774   4.341   2.742
 2043SOL    MW4 8493   1.803   4.398   2.802
 2044SOL     OW 8494   1.645   4.580   3.693
 2044SOL    HW2 8495   1.700   4.504   3.674
 2044SOL    HW3 8496   1.647   4.588   3.788
 2044SOL    MW4 8497   1.653   4.571   3.701
 2045SOL     OW 8498   0.695   5.313   1.904
 2045SOL    HW2 8499   0.635   5.382   1.874
 2045SOL    HW3 8500   0.640   5.255   1.957
 2045SOL    MW4 8501   0.679   5.315   1.906
 2046SOL     OW 8502   1.133   3.958   2.127
 2046SOL    HW2 8503   1.066   3.934   2.064
 2046SOL    HW3 8504   1.198   4.007   2.076
 2046SOL    MW4 8505   1.133   3.960   2.112
 2047SOL     OW 8506   0.940   4.142   3.212
 2047SOL    HW2 8507   0.859   4.183   3.240
 2047SOL    HW3 8508   0.987   4.210   3.164
 2047SOL    MW4 8509   0.935   4.157   3.210
 2048SOL     OW 8510   1.200   4.480   2.835
 2048SOL    HW2 8511   1.213   4.574   2.845
 2048SOL    HW3 8512   1.161   4.470   2.749
 2048SOL    MW4 8513   1.196   4.491   2.825
 2049SOL     OW 8514   0.652   4.675   2.639
 2049SOL    HW2 8515   0.563   4.666   2.672
 2049SOL    HW3 8516   0.656   4.765   2.607
 2049SOL    MW4 8517   0.641   4.686   2.639
 2050SOL     OW 8518   1.451   4.258   2.634
 2050SOL    HW2 8519   1.396   4.179   2.633
 2050SOL    HW3 8520   1.433   4.299   2.718
 2050SOL    MW4 8521   1.441   4.253   2.643
 2051SOL     OW 8522   0.422   3.945   3.451
 2051SOL    HW2 8523   0.343   3.963   3.503
 2051SOL    HW3 8524   0.417   4.007   3.378
 2051SOL    MW4 8525   0.412   3.955   3.448
 2052SOL     OW 8526   1.070   4.462   2.591
 2052SOL    HW2 8527   1.007   4.394   2.615
 2052SOL    HW3 8528   1.090   4.443   2.499
 2052SOL    MW4 8529   1.064   4.449   2.583
 2053SOL     OW 8530   0.326   5.357   2.293
 2053SOL    HW2 8531   0.287   5.404   2.219
 2053SOL    HW3 8532   0.260   5.292   2.318
 2053SOL    MW4 8533   0.313   5.355   2.287
 2054SOL     OW 8534   0.818   4.766   2.317
 2054SOL    HW2 8535   0.820   4.740   2.224
 2054SOL    HW3 8536   0.876   4.703   2.360
 2054SOL    MW4 8537   0.826   4.755   2.311
 2055SOL     OW 8538   1.371   5.326   3.089
 2055SOL    HW2 8539   1.296   5.372   3.127
 2055SOL    HW3 8540   1.353   5.233   3.106
 2055SOL    MW4 8541   1.360   5.320   3.097
 2056SOL     OW 8542   1.375   5.534   2.519
 2056SOL    HW2 8543   1.318   5.487   2.458
 2056SOL    HW3 8544   1.461   5.495   2.506
 2056SOL    MW4 8545   1.378   5.525   2.509
 2057SOL     OW 8546   1.328   4.010   2.650
 2057SOL    HW2 8547   1.356   3.942   2.711
 2057SOL    HW3 8548   1.242   3.981   2.620
 2057SOL    MW4 8549   1.321   3.997   2.654
 2058SOL     OW 8550   0.133   4.944   2.584
 2058SOL    HW2 8551   0.197   4.976   2.647
 2058SOL    HW3 8552   0.182   4.880   2.532
 2058SOL    MW4 8553   0.148   4.940   2.585
 2059SOL     OW 8554   0.633   5.020   3.566
 2059SOL    HW2 8555   0.681   5.103   3.553
 2059SOL    HW3 8556   0.690   4.968   3.622
 2059SOL    MW4 8557   0.647   5.024   3.572
 2060SOL     OW 8558   0.209   5.262   3.706
 2060SOL    HW2 8559   0.265   5.186   3.721
 2060SOL    HW3 8560   0.158   5.240   3.628
 2060SOL    MW4 8561   0.209   5.249   3.697
 2061SOL     OW 8562   1.308   4.114   1.985
 2061SOL    HW2 8563   1.281   4.180   1.921
 2061SOL    HW3 8564   1.378   4.157   2.035
 2061SOL    MW4 8565   1.313   4.127   1.982
 2062SOL     OW 8566   0.976   3.819   1.922
 2062SOL    HW2 8567   1.032   3.811   1.844
 2062SOL    HW3 8568   0.953   3.729   1.944
 2062SOL    MW4 8569   0.981   3.806   1.915
 2063SOL     OW 8570   1.481   4.670   2.127
 2063SOL    HW2 8571   1.448   4.759   2.117
 2063SOL    HW3 8572   1.446   4.641   2.212
 2063SOL    MW4 8573   1.471   4.679   2.138
 2064SOL     OW 8574   1.094   5.099   3.315
 2064SOL    HW2 8575   1.005   5.105   3.283
 2064SOL    HW3 8576   1.138   5.178   3.283
 2064SOL    MW4 8577   1.089   5.109   3.307
 2065SOL     OW 8578   0.387   3.767   3.657
 2065SOL    HW2 8579   0.315   3.732   3.605
 2065SOL    HW3 8580   0.445   3.808   3.592
 2065SOL    MW4 8581   0.385   3.768   3.642
 2066SOL     OW 8582   0.411   5.257   2.956
 2066SOL    HW2 8583   0.456   5.319   3.013
 2066SOL    HW3 8584   0.318   5.276   2.969
 2066SOL    MW4 8585   0.404   5.267   2.963
 2067SOL     OW 8586   1.851   4.786   3.310
 2067SOL    HW2 8587   1.766   4.799   3.269
 2067SOL    HW3 8588   1.831   4.750   3.397
 2067SOL    MW4 8589   1.838   4.782   3.315
 2068SOL     OW 8590   0.833   5.325   3.064
 2068SOL    HW2 8591   0.857   5.314   2.973
 2068SOL    HW3 8592   0.756   5.382   3.062
 2068SOL    MW4 8593   0.825   5.330   3.053
 2069SOL     OW 8594   0.475   4.708   1.919
 2069SOL    HW2 8595   0.398   4.721   1.975
 2069SOL    HW3 8596   0.439   4.672   1.838
 2069SOL    MW4 8597   0.461   4.704   1.916
 2070SOL     OW 8598   1.128   4.681   2.162
 2070SOL    HW2 8599   1.038   4.702   2.137
 2070SOL    HW3 8600   1.155   4.754   2.218
 2070SOL    MW4 8601   1.120   4.693   2.165
 2071SOL     OW 8602   0.628   5.030   2.854
 2071SOL    HW2 8603   0.621   5.009   2.948
 2071SOL    HW3 8604   0.546   4.998   2.817
 2071SOL    MW4 8605   0.616   5.024   2.861
 2072SOL     OW 8606   1.492   4.040   3.256
 2072SOL    HW2 8607   1.439   4.042   3.336
 2072SOL    HW3 8608   1.477   3.953   3.219
 2072SOL    MW4 8609   1.484   4.030   3.261
 2073SOL     OW 8610   1.828   3.964   3.129
 2073SOL    HW2 8611   1.809   4.031   3.064
 2073SOL    HW3 8612   1.885   3.902   3.084
 2073SOL    MW4 8613   1.832   3.965   3.115
 2074SOL     OW 8614   0.074   5.122   3.517
 2074SOL    HW2 8615   0.118   5.055   3.463
 2074SOL    HW3 8616  -0.011   5.084   3.537
 2074SOL    MW4 8617   0.069   5.108   3.513
 2075SOL     OW 8618   0.757   3.797   2.569
 2075SOL    HW2 8619   0.686   3.858   2.551
 2075SOL    HW3 8620   0.808   3.794   2.488
 2075SOL    MW4 8621   0.753   3.803   2.556
 2076SOL     OW 8622   0.515   5.037   2.318
 2076SOL    HW2 8623   0.508   5.069   2.408
 2076SOL    HW3 8624   0.425   5.021   2.290
 2076SOL    MW4 8625   0.503   5.039   2.325
 2077SOL     OW 8626   1.110   5.430   3.227
 2077SOL    HW2 8627   1.030   5.415   3.177
 2077SOL    HW3 8628   1.117   5.525   3.234
 2077SOL    MW4 8629   1.101   5.441   3.221
 2078SOL     OW 8630   1.224   5.395   2.717
 2078SOL    HW2 8631   1.271   5.468   2.676
 2078SOL    HW3 8632   1.145   5.434   2.753
 2078SOL    MW4 8633   1.219   5.410   2.716
 2079SOL     OW 8634   1.632   5.490   2.992
 2079SOL    HW2 8635   1.675   5.460   3.072
 2079SOL    HW3 8636   1.551   5.438   2.989
 2079SOL    MW4 8637   1.627   5.479   3.002
 2080SOL     OW 8638   0.717   4.454   3.699
 2080SOL    HW2 8639   0.787   4.396   3.671
 2080SOL    HW3 8640   0.660   4.399   3.754
 2080SOL    MW4 8641   0.719   4.441   3.703
 2081SOL     OW 8642   1.504   4.666   3.332
 2081SOL    HW2 8643   1.509   4.719   3.412
 2081SOL    HW3 8644   1.466   4.583   3.360
 2081SOL    MW4 8645   1.500   4.661   3.347
 2082SOL     OW 8646   1.144   3.801   3.578
 2082SOL    HW2 8647   1.139   3.708   3.559
 2082SOL    HW3 8648   1.227   3.812   3.624
 2082SOL    MW4 8649   1.152   3.790   3.582
 2083SOL     OW 8650   0.518   4.321   2.032
 2083SOL    HW2 8651   0.484   4.377   2.102
 2083SOL    HW3 8652   0.589   4.271   2.072
 2083SOL    MW4 8653   0.524   4.322   2.046
 2084SOL     OW 8654   1.614   5.072   2.854
 2084SOL    HW2 8655   1.649   5.054   2.767
 2084SOL    HW3 8656   1.519   5.073   2.841
 2084SOL    MW4 8657   1.606   5.069   2.841
 2085SOL     OW 8658   1.043   4.720   3.223
 2085SOL    HW2 8659   1.086   4.755   3.301
 2085SOL    HW3 8660   1.026   4.797   3.169
 2085SOL    MW4 8661   1.046   4.735   3.226
 2086SOL     OW 8662   1.574   4.207   2.096
 2086SOL    HW2 8663   1.566   4.278   2.033
 2086SOL    HW3 8664   1.592   4.251   2.179
 2086SOL    MW4 8665   1.575   4.221   2.098
 2087SOL     OW 8666   0.434   3.862   2.525
 2087SOL    HW2 8667   0.484   3.905   2.456
 2087SOL    HW3 8668   0.349   3.906   2.525
 2087SOL    MW4 8669   0.431   3.875   2.516
 2088SOL     OW 8670   0.193   4.924   3.385
 2088SOL    HW2 8671   0.221   4.877   3.463
 2088SOL    HW3 8672   0.114   4.879   3.356
 2088SOL    MW4 8673   0.186   4.913   3.391
 2089SOL     OW 8674   0.701   4.251   3.352
 2089SOL    HW2 8675   0.673   4.339   3.376
 2089SOL    HW3 8676   0.670   4.195   3.423
 2089SOL    MW4 8677   0.693   4.254   3.364
 2090SOL     OW 8678   1.243   4.469   2.071
 2090SOL    HW2 8679   1.290   4.487   1.990
 2090SOL    HW3 8680   1.209   4.553   2.099
 2090SOL    MW4 8681   1.245   4.483   2.064
 2091SOL     OW 8682   0.356   4.647   2.565
 2091SOL    HW2 8683   0.414   4.703   2.513
 2091SOL    HW3 8684   0.400   4.562   2.567
 2091SOL    MW4 8685   0.369   4.644   2.558
 2092SOL     OW 8686   1.496   3.999   2.402
 2092SOL    HW2 8687   1.418   3.949   2.427
 2092SOL    HW3 8688   1.467   4.090   2.402
 2092SOL    MW4 8689   1.482   4.003   2.405
 2093SOL     OW 8690   1.082   3.961   2.561
 2093SOL    HW2 8691   1.102   4.036   2.505
 2093SOL    HW3 8692   1.062   4.000   2.646
 2093SOL    MW4 8693   1.083   3.977   2.565
 2094SOL     OW 8694   0.978   5.211   1.893
 2094SOL    HW2 8695   1.005   5.289   1.845
 2094SOL    HW3 8696   0.885   5.226   1.912
 2094SOL    MW4 8697   0.969   5.224   1.889
 2095SOL     OW 8698   1.842   4.734   3.580
 2095SOL    HW2 8699   1.755   4.714   3.616
 2095SOL    HW3 8700   1.896   4.660   3.605
 2095SOL    MW4 8701   1.837   4.723   3.588
 2096SOL     OW 8702   0.063   5.247   2.737
 2096SOL    HW2 8703   0.095   5.251   2.828
 2096SOL    HW3 8704  -0.032   5.255   2.745
 2096SOL    MW4 8705   0.055   5.250   2.750
 2097SOL     OW 8706   0.018   4.373   2.284
 2097SOL    HW2 8707  -0.042   4.345   2.354
 2097SOL    HW3 8708   0.092   4.313   2.290
 2097SOL    MW4 8709   0.020   4.362   2.293
 2098SOL     OW 8710   1.586   5.585   3.718
 2098SOL    HW2 8711   1.631   5.509   3.683
 2098SOL    HW3 8712   1.624   5.598   3.805
 2098SOL    MW4 8713   1.596   5.578   3.724
 2099SOL     OW 8714   1.186   5.104   2.444
 2099SOL    HW2 8715   1.209   5.055   2.522
 2099SOL    HW3 8716   1.267   5.146   2.416
 2099SOL    MW4 8717   1.199   5.104   2.451
 2100SOL     OW 8718   0.444   4.112   3.173
 2100SOL    HW2 8719   0.477   4.193   3.213
 2100SOL    HW3 8720   0.417   4.138   3.085
 2100SOL    MW4 8721   0.443   4.126   3.167
 2101SOL     OW 8722   0.398   4.079   2.909
 2101SOL    HW2 8723   0.428   3.993   2.880
 2101SOL    HW3 8724   0.303   4.072   2.912
 2101SOL    MW4 8725   0.390   4.068   2.907
 2102SOL     OW 8726   1.227   4.288   3.600
 2102SOL    HW2 8727   1.279   4.223   3.553
 2102SOL    HW3 8728   1.185   4.339   3.530
 2102SOL    MW4 8729   1.228   4.285   3.583
 2103SOL     OW 8730   1.326   4.083   3.461
 2103SOL    HW2 8731   1.233   4.067   3.448
 2103SOL    HW3 8732   1.352   4.021   3.529
 2103SOL    MW4 8733   1.316   4.073   3.468
 2104SOL     OW 8734   0.541   3.857   2.800
 2104SOL    HW2 8735   0.551   3.766   2.826
 2104SOL    HW3 8736   0.497   3.853   2.715
 2104SOL    MW4 8737   0.537   3.845   2.792
 2105SOL     OW 8738   0.635   5.472   3.346
 2105SOL    HW2 8739   0.552   5.457   3.391
 2105SOL    HW3 8740   0.694   5.405   3.381
 2105SOL    MW4 8741   0.633   5.462   3.356
 2106SOL     OW 8742   1.692   4.179   2.971
 2106SOL    HW2 8743   1.625   4.212   3.031
 2106SOL    HW3 8744   1.735   4.257   2.937
 2106SOL    MW4 8745   1.690   4.194   2.975
 2107SOL     OW 8746   1.870   4.899   2.941
 2107SOL    HW2 8747   1.863   4.839   2.866
 2107SOL    HW3 8748   1.796   4.959   2.930
 2107SOL    MW4 8749   1.860   4.899   2.930
 2108SOL     OW 8750   1.252   4.761   2.859
 2108SOL    HW2 8751   1.266   4.733   2.950
 2108SOL    HW3 8752   1.338   4.792   2.831
 2108SOL    MW4 8753   1.265   4.762   2.868
 2109SOL     OW 8754   1.335   4.256   3.138
 2109SOL    HW2 8755   1.356   4.257   3.045
 2109SOL    HW3 8756   1.380   4.178   3.171
 2109SOL    MW4 8757   1.342   4.246   3.130
 2110SOL     OW 8758   1.828   4.387   3.680
 2110SOL    HW2 8759   1.865   4.332   3.749
 2110SOL    HW3 8760   1.853   4.344   3.598
 2110SOL    MW4 8761   1.835   4.375   3.679
 2111SOL     OW 8762   1.375   4.685   3.731
 2111SOL    HW2 8763   1.441   4.633   3.685
 2111SOL    HW3 8764   1.395   4.672   3.824
 2111SOL    MW4 8765   1.386   4.676   3.738
 2112SOL     OW 8766   1.326   3.771   2.080
 2112SOL    HW2 8767   1.400   3.815   2.123
 2112SOL    HW3 8768   1.250   3.825   2.102
 2112SOL    MW4 8769   1.326   3.783   2.088
 2113SOL     OW 8770   1.386   4.546   2.358
 2113SOL    HW2 8771   1.301   4.516   2.328
 2113SOL    HW3 8772   1.378   4.553   2.453
 2113SOL    MW4 8773   1.374   4.544   2.367
 2114SOL     OW 8774   0.462   5.009   3.089
 2114SOL    HW2 8775   0.474   5.036   3.180
 2114SOL    HW3 8776   0.443   5.090   3.042
 2114SOL    MW4 8777   0.461   5.024   3.094
 2115SOL     OW 8778   0.746   3.989   2.912
 2115SOL    HW2 8779   0.719   3.991   3.003
 2115SOL    HW3 8780   0.676   3.941   2.867
 2115SOL    MW4 8781   0.734   3.985   2.919
 2116SOL     OW 8782   0.600   5.481   3.074
 2116SOL    HW2 8783   0.652   5.558   3.051
 2116SOL    HW3 8784   0.609   5.473   3.169
 2116SOL    MW4 8785   0.609   5.488   3.085
 2117SOL     OW 8786   1.502   5.066   3.306
 2117SOL    HW2 8787   1.487   4.995   3.369
 2117SOL    HW3 8788   1.548   5.024   3.234
 2117SOL    MW4 8789   1.508   5.050   3.306
 2118SOL     OW 8790   0.576   4.797   3.423
 2118SOL    HW2 8791   0.613   4.802   3.335
 2118SOL    HW3 8792   0.615   4.870   3.470
 2118SOL    MW4 8793   0.586   4.807   3.418
 2119SOL     OW 8794   0.756   4.840   3.235
 2119SOL    HW2 8795   0.815   4.786   3.288
 2119SOL    HW3 8796   0.771   4.812   3.145
 2119SOL    MW4 8797   0.766   4.829   3.231
 2120SOL     OW 8798   0.759   4.212   2.084
 2120SOL    HW2 8799   0.832   4.261   2.047
 2120SOL    HW3 8800   0.775   4.121   2.058
 2120SOL    MW4 8801   0.771   4.207   2.077
 2121SOL     OW 8802   1.567   5.329   3.407
 2121SOL    HW2 8803   1.609   5.314   3.492
 2121SOL    HW3 8804   1.558   5.242   3.369
 2121SOL    MW4 8805   1.571   5.317   3.414
 2122SOL     OW 8806   1.227   3.808   2.998
 2122SOL    HW2 8807   1.282   3.817   2.920
 2122SOL    HW3 8808   1.282   3.842   3.069
 2122SOL    MW4 8809   1.241   3.813   2.997
 2123SOL     OW 8810   0.234   4.721   2.182
 2123SOL    HW2 8811   0.171   4.737   2.111
 2123SOL    HW3 8812   0.181   4.684   2.253
 2123SOL    MW4 8813   0.219   4.718   2.182
 2124SOL     OW 8814   0.590   5.075   2.041
 2124SOL    HW2 8815   0.605   5.051   2.133
 2124SOL    HW3 8816   0.498   5.053   2.025
 2124SOL    MW4 8817   0.580   5.068   2.051
 2125SOL     OW 8818   1.129   5.306   2.193
 2125SOL    HW2 8819   1.137   5.224   2.144
 2125SOL    HW3 8820   1.048   5.345   2.160
 2125SOL    MW4 8821   1.119   5.301   2.183
 2126SOL     OW 8822   0.388   5.464   2.762
 2126SOL    HW2 8823   0.392   5.375   2.797
 2126SOL    HW3 8824   0.414   5.455   2.671
 2126SOL    MW4 8825   0.391   5.452   2.754
 2127SOL     OW 8826   1.005   4.942   3.005
 2127SOL    HW2 8827   0.937   4.876   3.021
 2127SOL    HW3 8828   1.023   4.936   2.912
 2127SOL    MW4 8829   0.998   4.933   2.996
 2128SOL     OW 8830   0.094   5.217   3.256
 2128SOL    HW2 8831   0.084   5.175   3.342
 2128SOL    HW3 8832   0.015   5.270   3.246
 2128SOL    MW4 8833   0.083   5.218   3.267
 2129SOL     OW 8834   0.998   4.081   2.826
 2129SOL    HW2 8835   0.928   4.033   2.871
 2129SOL    HW3 8836   1.030   4.144   2.890
 2129SOL    MW4 8837   0.993   4.083   2.840
 2130SOL     OW 8838   0.649   4.517   3.446
 2130SOL    HW2 8839   0.642   4.612   3.434
 2130SOL    HW3 8840   0.658   4.506   3.541
 2130SOL    MW4 8841   0.650   4.529   3.456
 2131SOL     OW 8842   0.370   5.032   3.704
 2131SOL    HW2 8843   0.442   5.034   3.641
 2131SOL    HW3 8844   0.340   4.941   3.703
 2131SOL    MW4 8845   0.375   5.021   3.696
 2132SOL     OW 8846   1.454   3.795   3.171
 2132SOL    HW2 8847   1.525   3.741   3.135
 2132SOL    HW3 8848   1.453   3.774   3.264
 2132SOL    MW4 8849   1.463   3.786   3.179
 2133SOL     OW 8850   1.654   5.325   3.655
 2133SOL    HW2 8851   1.627   5.322   3.746
 2133SOL    HW3 8852   1.750   5.329   3.658
 2133SOL    MW4 8853   1.664   5.325   3.667
 2134SOL     OW 8854   0.465   4.187   2.639
 2134SOL    HW2 8855   0.536   4.135   2.602
 2134SOL    HW3 8856   0.451   4.152   2.726
 2134SOL    MW4 8857   0.473   4.176   2.646
 2135SOL     OW 8858   0.020   5.522   3.711
 2135SOL    HW2 8859   0.070   5.500   3.633
 2135SOL    HW3 8860   0.028   5.617   3.719
 2135SOL    MW4 8861   0.028   5.531   3.702
 2136SOL     OW 8862   0.781   5.280   2.715
 2136SOL    HW2 8863   0.709   5.217   2.728
 2136SOL    HW3 8864   0.742   5.365   2.733
 2136SOL    MW4 8865   0.765   5.283   2.718
 2137SOL     OW 8866   1.101   4.128   2.363
 2137SOL    HW2 8867   1.123   4.065   2.295
 2137SOL    HW3 8868   1.006   4.120   2.374
 2137SOL    MW4 8869   1.091   4.119   2.355
 2138SOL     OW 8870   0.186   3.818   2.295
 2138SOL    HW2 8871   0.257   3.839   2.234
 2138SOL    HW3 8872   0.140   3.746   2.253
 2138SOL    MW4 8873   0.190   3.812   2.281
 2139SOL     OW 8874   0.017   4.285   3.438
 2139SOL    HW2 8875   0.081   4.351   3.413
 2139SOL    HW3 8876  -0.064   4.312   3.395
 2139SOL    MW4 8877   0.015   4.297   3.430
 2140SOL     OW 8878   1.755   5.192   2.395
 2140SOL    HW2 8879   1.725   5.125   2.456
 2140SOL    HW3 8880   1.849   5.198   2.409
 2140SOL    MW4 8881   1.763   5.184   2.405
 2141SOL     OW 8882   1.311   4.869   2.325
 2141SOL    HW2 8883   1.283   4.955   2.358
 2141SOL    HW3 8884   1.339   4.885   2.235
 2141SOL    MW4 8885   1.311   4.883   2.317
 2142SOL     OW 8886   0.973   3.789   2.378
 2142SOL    HW2 8887   1.010   3.848   2.443
 2142SOL    HW3 8888   0.950   3.845   2.304
 2142SOL    MW4 8889   0.974   3.804   2.377
 2143SOL     OW 8890   1.826   4.671   2.800
 2143SOL    HW2 8891   1.817   4.703   2.711
 2143SOL    HW3 8892   1.779   4.587   2.800
 2143SOL    MW4 8893   1.819   4.664   2.790
 2144SOL     OW 8894   0.202   4.511   3.379
 2144SOL    HW2 8895   0.223   4.580   3.317
 2144SOL    HW3 8896   0.282   4.458   3.384
 2144SOL    MW4 8897   0.215   4.512   3.373
 2145SOL     OW 8898   1.738   4.602   2.501
 2145SOL    HW2 8899   1.832   4.591   2.489
 2145SOL    HW3 8900   1.714   4.674   2.442
 2145SOL    MW4 8901   1.748   4.610   2.492
 2146SOL     OW 8902   0.187   4.526   3.646
 2146SOL    HW2 8903   0.113   4.470   3.672
 2146SOL    HW3 8904   0.182   4.529   3.551
 2146SOL    MW4 8905   0.176   4.519   3.636
 2147SOL     OW 8906   0.353   3.813   3.096
 2147SOL    HW2 8907   0.396   3.897   3.116
 2147SOL    HW3 8908   0.426   3.751   3.089
 2147SOL    MW4 8909   0.368   3.816   3.097
 2148SOL     OW 8910   0.394   4.480   2.274
 2148SOL    HW2 8911   0.394   4.575   2.259
 2148SOL    HW3 8912   0.471   4.464   2.328
 2148SOL    MW4 8913   0.404   4.491   2.279
 2149SOL     OW 8914   1.170   4.339   3.338
 2149SOL    HW2 8915   1.206   4.312   3.254
 2149SOL    HW3 8916   1.083   4.373   3.317
 2149SOL    MW4 8917   1.164   4.340   3.325
 2150SOL     OW 8918   0.153   4.211   2.563
 2150SOL    HW2 8919   0.215   4.218   2.636
 2150SOL    HW3 8920   0.153   4.118   2.540
 2150SOL    MW4 8921   0.161   4.200   2.570
 2151SOL     OW 8922   1.700   5.551   2.095
 2151SOL    HW2 8923   1.767   5.584   2.035
 2151SOL    HW3 8924   1.657   5.630   2.129
 2151SOL    MW4 8925   1.702   5.566   2.091
 2152SOL     OW 8926   0.835   4.472   3.047
 2152SOL    HW2 8927   0.793   4.390   3.023
 2152SOL    HW3 8928   0.836   4.471   3.143
 2152SOL    MW4 8929   0.828   4.461   3.056
 2153SOL     OW 8930   1.506   5.605   3.446
 2153SOL    HW2 8931   1.509   5.511   3.429
 2153SOL    HW3 8932   1.529   5.613   3.538
 2153SOL    MW4 8933   1.509   5.593   3.456
 2154SOL     OW 8934   0.639   3.942   3.152
 2154SOL    HW2 8935   0.570   4.005   3.173
 2154SOL    HW3 8936   0.666   3.906   3.237
 2154SOL    MW4 8937   0.633   3.945   3.165
 2155SOL     OW 8938   0.022   4.783   2.021
 2155SOL    HW2 8939  -0.009   4.848   2.084
 2155SOL    HW3 8940  -0.029   4.705   2.040
 2155SOL    MW4 8941   0.012   4.780   2.031
 2156SOL     OW 8942   1.434   3.795   2.769
 2156SOL    HW2 8943   1.522   3.804   2.806
 2156SOL    HW3 8944   1.444   3.736   2.695
 2156SOL    MW4 8945   1.448   3.789   2.763
 2157SOL     OW 8946   1.466   4.534   2.613
 2157SOL    HW2 8947   1.546   4.549   2.562
 2157SOL    HW3 8948   1.459   4.439   2.619
 2157SOL    MW4 8949   1.475   4.523   2.608
 2158SOL     OW 8950   0.606   5.583   1.963
 2158SOL    HW2 8951   0.511   5.583   1.955
 2158SOL    HW3 8952   0.622   5.529   2.041
 2158SOL    MW4 8953   0.596   5.577   1.972
 2159SOL     OW 8954   0.916   4.460   3.310
 2159SOL    HW2 8955   0.985   4.527   3.307
 2159SOL    HW3 8956   0.849   4.498   3.366
 2159SOL    MW4 8957   0.917   4.473   3.317
 2160SOL     OW 8958   0.334   4.760   3.558
 2160SOL    HW2 8959   0.288   4.676   3.560
 2160SOL    HW3 8960   0.391   4.754   3.482
 2160SOL    MW4 8961   0.336   4.748   3.550
 2161SOL     OW 8962   1.451   4.403   1.879
 2161SOL    HW2 8963   1.379   4.379   1.821
 2161SOL    HW3 8964   1.517   4.440   1.821
 2161SOL    MW4 8965   1.450   4.405   1.864
 2162SOL     OW 8966   0.585   5.135   2.559
 2162SOL    HW2 8967   0.650   5.068   2.580
 2162SOL    HW3 8968   0.637   5.212   2.536
 2162SOL    MW4 8969   0.600   5.137   2.558
 2163SOL     OW 8970   0.846   4.300   2.689
 2163SOL    HW2 8971   0.786   4.318   2.761
 2163SOL    HW3 8972   0.880   4.212   2.708
 2163SOL    MW4 8973   0.842   4.290   2.702
 2164SOL     OW 8974   1.787   3.799   3.358
 2164SOL    HW2 8975   1.708   3.845   3.386
 2164SOL    HW3 8976   1.822   3.853   3.287
 2164SOL    MW4 8977   1.781   3.812   3.352
 2165SOL     OW 8978   1.071   4.883   2.708
 2165SOL    HW2 8979   1.163   4.864   2.726
 2165SOL    HW3 8980   1.044   4.813   2.648
 2165SOL    MW4 8981   1.079   4.871   2.702
 2166SOL     OW 8982   0.864   4.703   2.063
 2166SOL    HW2 8983   0.850   4.615   2.028
 2166SOL    HW3 8984   0.815   4.760   2.004
 2166SOL    MW4 8985   0.856   4.698   2.051
 2167SOL     OW 8986   1.345   5.121   2.804
 2167SOL    HW2 8987   1.318   5.205   2.769
 2167SOL    HW3 8988   1.305   5.116   2.891
 2167SOL    MW4 8989   1.338   5.130   2.810
 2168SOL     OW 8990   1.264   5.069   3.072
 2168SOL    HW2 8991   1.275   5.036   3.161
 2168SOL    HW3 8992   1.183   5.028   3.041
 2168SOL    MW4 8993   1.254   5.061   3.078
 2169SOL     OW 8994   0.277   4.427   2.842
 2169SOL    HW2 8995   0.227   4.426   2.923
 2169SOL    HW3 8996   0.297   4.519   2.826
 2169SOL    MW4 8997   0.273   4.439   2.850
 2170SOL     OW 8998   1.344   5.191   3.604
 2170SOL    HW2 8999   1.344   5.285   3.620
 2170SOL    HW3 9000   1.389   5.181   3.520
 2170SOL    MW4 9001   1.350   5.201   3.595
 2171SOL     OW 9002   1.583   3.909   2.165
 2171SOL    HW2 9003   1.576   3.913   2.260
 2171SOL    HW3 9004   1.595   4.000   2.138
 2171SOL    MW4 9005   1.584   3.922   2.173
 2172SOL     OW 9006   0.872   4.472   2.279
 2172SOL    HW2 9007   0.852   4.458   2.186
 2172SOL    HW3 9008   0.965   4.451   2.286
 2172SOL    MW4 9009   0.882   4.467   2.268
 2173SOL     OW 9010   0.199   4.095   3.583
 2173SOL    HW2 9011   0.156   4.154   3.520
 2173SOL    HW3 9012   0.267   4.150   3.623
 2173SOL    MW4 9013   0.203   4.110   3.580
 2174SOL     OW 9014   1.311   4.715   3.128
 2174SOL    HW2 9015   1.374   4.712   3.201
 2174SOL    HW3 9016   1.227   4.733   3.170
 2174SOL    MW4 9017   1.307   4.717   3.143
 2175SOL     OW 9018   0.855   5.430   2.317
 2175SOL    HW2 9019   0.913   5.501   2.344
 2175SOL    HW3 9020   0.878   5.358   2.375
 2175SOL    MW4 9021   0.866   5.430   2.328
 2176SOL     OW 9022   1.650   3.892   2.907
 2176SOL    HW2 9023   1.695   3.810   2.926
 2176SOL    HW3 9024   1.670   3.948   2.983
 2176SOL    MW4 9025   1.660   3.888   2.919
 2177SOL     OW 9026   0.098   3.735   3.006
 2177SOL    HW2 9027   0.089   3.736   2.911
 2177SOL    HW3 9028   0.192   3.747   3.021
 2177SOL    MW4 9029   0.110   3.738   2.997
 2178SOL     OW 9030   1.735   4.928   2.626
 2178SOL    HW2 9031   1.714   4.874   2.549
 2178SOL    HW3 9032   1.831   4.926   2.630
 2178SOL    MW4 9033   1.744   4.921   2.615
 2179SOL     OW 9034   0.427   5.073   3.369
 2179SOL    HW2 9035   0.348   5.023   3.392
 2179SOL    HW3 9036   0.497   5.032   3.419
 2179SOL    MW4 9037   0.425   5.061   3.379
 2180SOL     OW 9038   0.311   3.862   2.052
 2180SOL    HW2 9039   0.240   3.917   2.020
 2180SOL    HW3 9040   0.353   3.828   1.973
 2180SOL    MW4 9041   0.307   3.864   2.038
 2181SOL     OW 9042   1.435   4.359   2.888
 2181SOL    HW2 9043   1.358   4.405   2.854
 2181SOL    HW3 9044   1.492   4.428   2.922
 2181SOL    MW4 9045   1.432   4.374   2.888
 2182SOL     OW 9046   0.067   3.961   1.901
 2182SOL    HW2 9047   0.034   4.040   1.945
 2182SOL    HW3 9048   0.122   3.994   1.830
 2182SOL    MW4 9049   0.070   3.975   1.898
 2183SOL     OW 9050   0.101   5.218   2.090
 2183SOL    HW2 9051   0.118   5.302   2.132
 2183SOL    HW3 9052   0.136   5.227   2.002
 2183SOL    MW4 9053   0.106   5.231   2.084
 2184SOL     OW 9054   1.373   5.307   2.307
 2184SOL    HW2 9055   1.436   5.297   2.236
 2184SOL    HW3 9056   1.290   5.327   2.262
 2184SOL    MW4 9057   1.370   5.308   2.292
 2185SOL     OW 9058   1.736   4.575   3.993
 2185SOL    HW2 9059   1.777   4.517   4.058
 2185SOL    HW3 9060   1.643   4.567   4.010
 2185SOL    MW4 9061   1.730   4.567   4.003
 2186SOL     OW 9062   1.602   4.507   4.988
 2186SOL    HW2 9063   1.557   4.574   5.039
 2186SOL    HW3 9064   1.690   4.543   4.974
 2186SOL    MW4 9065   1.608   4.520   4.992
 2187SOL     OW 9066   0.530   4.758   4.222
 2187SOL    HW2 9067   0.620   4.733   4.206
 2187SOL    HW3 9068   0.526   4.851   4.199
 2187SOL    MW4 9069   0.542   4.767   4.217
 2188SOL     OW 9070   1.646   5.461   4.364
 2188SOL    HW2 9071   1.658   5.407   4.442
 2188SOL    HW3 9072   1.683   5.409   4.293
 2188SOL    MW4 9073   1.652   5.446   4.365
 2189SOL     OW 9074   1.025   5.346   5.365
 2189SOL    HW2 9075   1.066   5.382   5.286
 2189SOL    HW3 9076   1.060   5.257   5.372
 2189SOL    MW4 9077   1.036   5.339   5.356
 2190SOL     OW 9078   1.582   4.901   4.969
 2190SOL    HW2 9079   1.503   4.866   4.927
 2190SOL    HW3 9080   1.609   4.973   4.913
 2190SOL    MW4 9081   1.575   4.906   4.956
 2191SOL     OW 9082   0.814   4.214   4.235
 2191SOL    HW2 9083   0.789   4.302   4.263
 2191SOL    HW3 9084   0.811   4.217   4.139
 2191SOL    MW4 9085   0.810   4.226   4.227
 2192SOL     OW 9086   0.256   4.242   4.163
 2192SOL    HW2 9087   0.288   4.330   4.145
 2192SOL    HW3 9088   0.244   4.240   4.258
 2192SOL    MW4 9089   0.259   4.254   4.175
 2193SOL     OW 9090   0.334   4.655   5.064
 2193SOL    HW2 9091   0.397   4.602   5.015
 2193SOL    HW3 9092   0.315   4.729   5.007
 2193SOL    MW4 9093   0.340   4.657   5.051
 2194SOL     OW 9094   0.655   3.997   4.250
 2194SOL    HW2 9095   0.713   4.073   4.252
 2194SOL    HW3 9096   0.590   4.018   4.183
 2194SOL    MW4 9097   0.654   4.009   4.241
 2195SOL     OW 9098   0.742   4.924   4.425
 2195SOL    HW2 9099   0.822   4.927   4.477
 2195SOL    HW3 9100   0.770   4.891   4.339
 2195SOL    MW4 9101   0.756   4.920   4.420
 2196SOL     OW 9102   0.767   5.265   5.328
 2196SOL    HW2 9103   0.851   5.291   5.367
 2196SOL    HW3 9104   0.791   5.209   5.254
 2196SOL    MW4 9105   0.781   5.261   5.323
 2197SOL     OW 9106   0.519   4.428   4.416
 2197SOL    HW2 9107   0.504   4.348   4.467
 2197SOL    HW3 9108   0.601   4.463   4.450
 2197SOL    MW4 9109   0.527   4.420   4.428
 2198SOL     OW 9110   0.856   5.114   5.101
 2198SOL    HW2 9111   0.820   5.180   5.041
 2198SOL    HW3 9112   0.784   5.052   5.114
 2198SOL    MW4 9113   0.842   5.114   5.095
 2199SOL     OW 9114   0.661   4.254   4.793
 2199SOL    HW2 9115   0.567   4.250   4.811
 2199SOL    HW3 9116   0.691   4.163   4.802
 2199SOL    MW4 9117   0.652   4.242   4.796
 2200SOL     OW 9118   0.407   4.668   4.697
 2200SOL    HW2 9119   0.362   4.675   4.613
 2200SOL    HW3 9120   0.387   4.751   4.741
 2200SOL    MW4 9121   0.399   4.680   4.691
 2201SOL     OW 9122   0.104   5.514   4.572
 2201SOL    HW2 9123   0.193   5.506   4.607
 2201SOL    HW3 9124   0.068   5.426   4.577
 2201SOL    MW4 9125   0.111   5.501   4.577
 2202SOL     OW 9126   1.369   4.906   3.941
 2202SOL    HW2 9127   1.287   4.942   3.907
 2202SOL    HW3 9128   1.437   4.949   3.890
 2202SOL    MW4 9129   1.367   4.916   3.929
 2203SOL     OW 9130   0.368   5.041   4.607
 2203SOL    HW2 9131   0.344   5.094   4.683
 2203SOL    HW3 9132   0.424   5.099   4.555
 2203SOL    MW4 9133   0.372   5.056   4.610
 2204SOL     OW 9134   0.930   4.685   4.417
 2204SOL    HW2 9135   0.844   4.672   4.457
 2204SOL    HW3 9136   0.983   4.612   4.449
 2204SOL    MW4 9137   0.926   4.674   4.426
 2205SOL     OW 9138   0.338   5.337   5.202
 2205SOL    HW2 9139   0.246   5.313   5.187
 2205SOL    HW3 9140   0.382   5.254   5.219
 2205SOL    MW4 9141   0.332   5.322   5.201
 2206SOL     OW 9142   0.921   5.047   4.134
 2206SOL    HW2 9143   0.898   5.109   4.202
 2206SOL    HW3 9144   0.878   4.965   4.160
 2206SOL    MW4 9145   0.913   5.043   4.145
 2207SOL     OW 9146   1.794   4.048   4.590
 2207SOL    HW2 9147   1.731   4.028   4.659
 2207SOL    HW3 9148   1.784   3.977   4.527
 2207SOL    MW4 9149   1.784   4.035   4.591
 2208SOL     OW 9150   0.418   4.020   4.102
 2208SOL    HW2 9151   0.392   3.982   4.018
 2208SOL    HW3 9152   0.355   4.090   4.118
 2208SOL    MW4 9153   0.407   4.023   4.093
 2209SOL     OW 9154   0.253   4.981   4.139
 2209SOL    HW2 9155   0.201   5.049   4.095
 2209SOL    HW3 9156   0.250   4.907   4.079
 2209SOL    MW4 9157   0.245   4.980   4.126
 2210SOL     OW 9158   0.915   5.444   3.917
 2210SOL    HW2 9159   0.870   5.460   4.000
 2210SOL    HW3 9160   0.846   5.409   3.859
 2210SOL    MW4 9161   0.901   5.441   3.919
 2211SOL     OW 9162   1.850   4.217   3.892
 2211SOL    HW2 9163   1.759   4.219   3.920
 2211SOL    HW3 9164   1.895   4.279   3.950
 2211SOL    MW4 9165   1.843   4.225   3.902
 2212SOL     OW 9166   1.595   4.820   4.242
 2212SOL    HW2 9167   1.505   4.820   4.277
 2212SOL    HW3 9168   1.588   4.866   4.159
 2212SOL    MW4 9169   1.582   4.826   4.236
 2213SOL     OW 9170   1.395   4.455   5.314
 2213SOL    HW2 9171   1.464   4.393   5.291
 2213SOL    HW3 9172   1.320   4.429   5.261
 2213SOL    MW4 9173   1.395   4.442   5.305
 2214SOL     OW 9174   0.136   5.335   4.866
 2214SOL    HW2 9175   0.119   5.281   4.943
 2214SOL    HW3 9176   0.124   5.425   4.896
 2214SOL    MW4 9177   0.133   5.339   4.880
 2215SOL     OW 9178   1.131   4.842   5.306
 2215SOL    HW2 9179   1.116   4.935   5.291
 2215SOL    HW3 9180   1.226   4.832   5.306
 2215SOL    MW4 9181   1.140   4.852   5.303
 2216SOL     OW 9182   0.927   4.266   5.507
 2216SOL    HW2 9183   1.017   4.267   5.474
 2216SOL    HW3 9184   0.886   4.191   5.465
 2216SOL    MW4 9185   0.933   4.256   5.498
 2217SOL     OW 9186   1.502   4.798   4.634
 2217SOL    HW2 9187   1.505   4.732   4.565
 2217SOL    HW3 9188   1.587   4.841   4.630
 2217SOL    MW4 9189   1.514   4.794   4.625
 2218SOL     OW 9190   1.122   4.401   4.203
 2218SOL    HW2 9191   1.148   4.425   4.114
 2218SOL    HW3 9192   1.104   4.308   4.199
 2218SOL    MW4 9193   1.124   4.393   4.190
 2219SOL     OW 9194   1.787   5.021   4.054
 2219SOL    HW2 9195   1.743   5.062   4.129
 2219SOL    HW3 9196   1.844   5.089   4.019
 2219SOL    MW4 9197   1.789   5.035   4.059
 2220SOL     OW 9198   0.707   4.070   5.457
 2220SOL    HW2 9199   0.717   3.996   5.397
 2220SOL    HW3 9200   0.743   4.039   5.540
 2220SOL    MW4 9201   0.713   4.056   5.459
 2221SOL     OW 9202   0.443   5.437   4.372
 2221SOL    HW2 9203   0.475   5.525   4.350
 2221SOL    HW3 9204   0.396   5.409   4.294
 2221SOL    MW4 9205   0.442   5.445   4.359
 2222SOL     OW 9206   1.827   3.799   4.421
 2222SOL    HW2 9207   1.881   3.750   4.483
 2222SOL    HW3 9208   1.770   3.733   4.382
 2222SOL    MW4 9209   1.827   3.783   4.423
 2223SOL     OW 9210   0.159   5.497   3.949
 2223SOL    HW2 9211   0.188   5.587   3.941
 2223SOL    HW3 9212   0.109   5.480   3.870
 2223SOL    MW4 9213   0.157   5.505   3.938
 2224SOL     OW 9214   0.946   3.752   4.834
 2224SOL    HW2 9215   0.905   3.830   4.796
 2224SOL    HW3 9216   1.040   3.770   4.829
 2224SOL    MW4 9217   0.952   3.764   4.829
 2225SOL     OW 9218   1.563   5.305   3.920
 2225SOL    HW2 9219   1.611   5.374   3.966
 2225SOL    HW3 9220   1.484   5.349   3.889
 2225SOL    MW4 9221   1.558   5.319   3.923
 2226SOL     OW 9222   0.961   4.430   3.864
 2226SOL    HW2 9223   0.963   4.377   3.785
 2226SOL    HW3 9224   1.049   4.467   3.870
 2226SOL    MW4 9225   0.973   4.429   3.853
 2227SOL     OW 9226   1.575   4.356   4.200
 2227SOL    HW2 9227   1.614   4.356   4.287
 2227SOL    HW3 9228   1.516   4.432   4.200
 2227SOL    MW4 9229   1.572   4.367   4.211
 2228SOL     OW 9230   0.892   4.723   5.329
 2228SOL    HW2 9231   0.869   4.703   5.419
 2228SOL    HW3 9232   0.977   4.767   5.334
 2228SOL    MW4 9233   0.899   4.726   5.341
 2229SOL     OW 9234   0.972   3.860   5.089
 2229SOL    HW2 9235   0.978   3.822   5.002
 2229SOL    HW3 9236   0.961   3.954   5.074
 2229SOL    MW4 9237   0.973   3.868   5.077
 2230SOL     OW 9238   1.061   4.349   4.923
 2230SOL    HW2 9239   1.136   4.378   4.870
 2230SOL    HW3 9240   0.993   4.414   4.907
 2230SOL    MW4 9241   1.062   4.361   4.913
 2231SOL     OW 9242   1.611   4.317   5.200
 2231SOL    HW2 9243   1.592   4.226   5.179
 2231SOL    HW3 9244   1.589   4.366   5.121
 2231SOL    MW4 9245   1.606   4.310   5.187
 2232SOL     OW 9246   1.753   5.411   5.104
 2232SOL    HW2 9247   1.681   5.373   5.155
 2232SOL    HW3 9248   1.770   5.496   5.145
 2232SOL    MW4 9249   1.747   5.416   5.116
 2233SOL     OW 9250   1.058   4.055   5.306
 2233SOL    HW2 9251   1.024   4.094   5.225
 2233SOL    HW3 9252   1.036   3.963   5.299
 2233SOL    MW4 9253   1.051   4.048   5.296
 2234SOL     OW 9254   1.467   4.869   5.382
 2234SOL    HW2 9255   1.549   4.910   5.412
 2234SOL    HW3 9256   1.430   4.831   5.462
 2234SOL    MW4 9257   1.473   4.870   5.397
 2235SOL     OW 9258   1.762   4.242   4.366
 2235SOL    HW2 9259   1.851   4.211   4.383
 2235SOL    HW3 9260   1.705   4.182   4.414
 2235SOL    MW4 9261   1.765   4.230   4.375
 2236SOL     OW 9262   0.188   3.956   4.395
 2236SOL    HW2 9263   0.179   3.896   4.321
 2236SOL    HW3 9264   0.121   3.927   4.458
 2236SOL    MW4 9265   0.178   3.943   4.393
 2237SOL     OW 9266   1.131   5.049   3.956
 2237SOL    HW2 9267   1.081   5.051   4.038
 2237SOL    HW3 9268   1.065   5.067   3.888
 2237SOL    MW4 9269   1.117   5.051   3.958
 2238SOL     OW 9270   0.135   4.129   4.758
 2238SOL    HW2 9271   0.107   4.220   4.767
 2238SOL    HW3 9272   0.072   4.090   4.697
 2238SOL    MW4 9273   0.122   4.135   4.752
 2239SOL     OW 9274   0.594   5.467   4.064
 2239SOL    HW2 9275   0.515   5.425   4.097
 2239SOL    HW3 9276   0.660   5.450   4.131
 2239SOL    MW4 9277   0.593   5.459   4.077
 2240SOL     OW 9278   1.722   4.987   5.461
 2240SOL    HW2 9279   1.772   4.913   5.493
 2240SOL    HW3 9280   1.668   5.014   5.536
 2240SOL    MW4 9281   1.722   4.981   5.474
 2241SOL     OW 9282   0.730   4.882   3.771
 2241SOL    HW2 9283   0.652   4.828   3.758
 2241SOL    HW3 9284   0.701   4.955   3.824
 2241SOL    MW4 9285   0.716   4.884   3.776
 2242SOL     OW 9286   1.856   4.622   4.963
 2242SOL    HW2 9287   1.872   4.660   4.876
 2242SOL    HW3 9288   1.890   4.688   5.024
 2242SOL    MW4 9289   1.863   4.635   4.959
 2243SOL     OW 9290   1.648   5.331   4.632
 2243SOL    HW2 9291   1.677   5.398   4.693
 2243SOL    HW3 9292   1.629   5.255   4.687
 2243SOL    MW4 9293   1.650   5.331   4.647
 2244SOL     OW 9294   1.311   5.398   3.839
 2244SOL    HW2 9295   1.237   5.361   3.889
 2244SOL    HW3 9296   1.319   5.488   3.872
 2244SOL    MW4 9297   1.302   5.405   3.851
 2245SOL     OW 9298   0.119   4.404   4.928
 2245SOL    HW2 9299   0.181   4.434   4.994
 2245SOL    HW3 9300   0.053   4.473   4.922
 2245SOL    MW4 9301   0.118   4.417   4.935
 2246SOL     OW 9302   1.535   5.072   3.781
 2246SOL    HW2 9303   1.482   5.121   3.717
 2246SOL    HW3 9304   1.566   5.138   3.842
 2246SOL    MW4 9305   1.533   5.086   3.779
 2247SOL     OW 9306   0.760   3.961   3.836
 2247SOL    HW2 9307   0.708   3.881   3.824
 2247SOL    HW3 9308   0.847   3.938   3.804
 2247SOL    MW4 9309   0.763   3.947   3.830
 2248SOL     OW 9310   0.214   5.513   5.380
 2248SOL    HW2 9311   0.188   5.581   5.318
 2248SOL    HW3 9312   0.262   5.450   5.328
 2248SOL    MW4 9313   0.216   5.513   5.366
 2249SOL     OW 9314   0.266   4.832   4.887
 2249SOL    HW2 9315   0.319   4.907   4.912
 2249SOL    HW3 9316   0.185   4.870   4.853
 2249SOL    MW4 9317   0.262   4.847   4.887
 2250SOL     OW 9318   0.806   4.736   4.875
 2250SOL    HW2 9319   0.834   4.645   4.887
 2250SOL    HW3 9320   0.735   4.730   4.811
 2250SOL    MW4 9321   0.799   4.724   4.870
 2251SOL     OW 9322   0.121   4.601   4.293
 2251SOL    HW2 9323   0.212   4.616   4.320
 2251SOL    HW3 9324   0.124   4.522   4.239
 2251SOL    MW4 9325   0.133   4.593   4.291
 2252SOL     OW 9326   0.357   4.309   5.547
 2252SOL    HW2 9327   0.304   4.389   5.554
 2252SOL    HW3 9328   0.427   4.321   5.612
 2252SOL    MW4 9329   0.359   4.322   5.555
 2253SOL     OW 9330   0.743   3.859   5.254
 2253SOL    HW2 9331   0.720   3.767   5.256
 2253SOL    HW3 9332   0.829   3.861   5.211
 2253SOL    MW4 9333   0.750   3.849   5.250
 2254SOL     OW 9334   0.427   4.383   5.293
 2254SOL    HW2 9335   0.507   4.433   5.279
 2254SOL    HW3 9336   0.418   4.377   5.388
 2254SOL    MW4 9337   0.436   4.389   5.303
 2255SOL     OW 9338   0.748   5.533   4.667
 2255SOL    HW2 9339   0.837   5.548   4.697
 2255SOL    HW3 9340   0.743   5.580   4.583
 2255SOL    MW4 9341   0.758   5.541   4.660
 2256SOL     OW 9342   1.404   3.908   5.564
 2256SOL    HW2 9343   1.460   3.835   5.590
 2256SOL    HW3 9344   1.374   3.946   5.646
 2256SOL    MW4 9345   1.408   3.903   5.577
 2257SOL     OW 9346   0.129   5.213   4.332
 2257SOL    HW2 9347   0.101   5.252   4.414
 2257SOL    HW3 9348   0.149   5.122   4.354
 2257SOL    MW4 9349   0.127   5.205   4.345
 2258SOL     OW 9350   0.962   5.256   4.367
 2258SOL    HW2 9351   1.045   5.210   4.351
 2258SOL    HW3 9352   0.952   5.255   4.463
 2258SOL    MW4 9353   0.972   5.249   4.377
 2259SOL     OW 9354   1.794   4.401   4.681
 2259SOL    HW2 9355   1.883   4.431   4.663
 2259SOL    HW3 9356   1.774   4.341   4.610
 2259SOL    MW4 9357   1.803   4.398   4.670
 2260SOL     OW 9358   1.645   4.580   5.561
 2260SOL    HW2 9359   1.700   4.504   5.542
 2260SOL    HW3 9360   1.647   4.588   5.656
 2260SOL    MW4 9361   1.653   4.571   5.569
 2261SOL     OW 9362   0.695   5.313   3.772
 2261SOL    HW2 9363   0.635   5.382   3.742
 2261SOL    HW3 9364   0.640   5.255   3.825
 2261SOL    MW4 9365   0.679   5.315   3.774
 2262SOL     OW 9366   1.133   3.958   3.995
 2262SOL    HW2 9367   1.066   3.934   3.932
 2262SOL    HW3 9368   1.198   4.007   3.944
 2262SOL    MW4 9369   1.133   3.960   3.980
 2263SOL     OW 9370   0.940   4.142   5.080
 2263SOL    HW2 9371   0.859   4.183   5.108
 2263SOL    HW3 9372   0.987   4.210   5.032
 2263SOL    MW4 9373   0.935   4.157   5.078
 2264SOL     OW 9374   1.200   4.480   4.703
 2264SOL    HW2 9375   1.213   4.574   4.713
 2264SOL    HW3 9376   1.161   4.470   4.617
 2264SOL    MW4 9377   1.196   4.491   4.693
 2265SOL     OW 9378   0.652   4.675   4.507
 2265SOL    HW2 9379   0.563   4.666   4.540
 2265SOL    HW3 9380   0.656   4.765   4.475
 2265SOL    MW4 9381   0.641   4.686   4.507
 2266SOL     OW 9382   1.451   4.258   4.502
 2266SOL    HW2 9383   1.396   4.179   4.501
 2266SOL    HW3 9384   1.433   4.299   4.586
 2266SOL    MW4 9385   1.441   4.253   4.511
 2267SOL     OW 9386   0.422   3.945   5.319
 2267SOL    HW2 9387   0.343   3.963   5.371
 2267SOL    HW3 9388   0.417   4.007   5.246
 2267SOL    MW4 9389   0.412   3.955   5.316
 2268SOL     OW 9390   1.070   4.462   4.459
 2268SOL    HW2 9391   1.007   4.394   4.483
 2268SOL    HW3 9392   1.090   4.443   4.367
 2268SOL    MW4 9393   1.064   4.449   4.451
 2269SOL     OW 9394   0.326   5.357   4.161
 2269SOL    HW2 9395   0.287   5.404   4.087
 2269SOL    HW3 9396   0.260   5.292   4.186
 2269SOL    MW4 9397   0.313   5.355   4.155
 2270SOL     OW 9398   0.818   4.766   4.185
 2270SOL    HW2 9399   0.820   4.740   4.092
 2270SOL    HW3 9400   0.876   4.703   4.228
 2270SOL    MW4 9401   0.826   4.755   4.179
 2271SOL     OW 9402   1.371   5.326   4.957
 2271SOL    HW2 9403   1.296   5.372   4.995
 2271SOL    HW3 9404   1.353   5.233   4.974
 2271SOL    MW4 9405   1.360   5.320   4.965
 2272SOL     OW 9406   1.375   5.534   4.387
 2272SOL    HW2 9407   1.318   5.487   4.326
 2272SOL    HW3 9408   1.461   5.495   4.374
 2272SOL    MW4 9409   1.378   5.525   4.377
 2273SOL     OW 9410   1.328   4.010   4.518
 2273SOL    HW2 9411   1.356   3.942   4.579
 2273SOL    HW3 9412   1.242   3.981   4.488
 2273SOL    MW4 9413   1.321   3.997   4.522
 2274SOL     OW 9414   0.133   4.944   4.452
 2274SOL    HW2 9415   0.197   4.976   4.515
 2274SOL    HW3 9416   0.182   4.880   4.400
 2274SOL    MW4 9417   0.148   4.940   4.453
 2275SOL     OW 9418   0.633   5.020   5.434
 2275SOL    HW2 9419   0.681   5.103   5.421
 2275SOL    HW3 9420   0.690   4.968   5.490
 2275SOL    MW4 9421   0.647   5.024   5.440
 2276SOL     OW 9422   0.209   5.262   5.574
 2276SOL    HW2 9423   0.265   5.186   5.589
 2276SOL    HW3 9424   0.158   5.240   5.496
 2276SOL    MW4 9425   0.209   5.249   5.565
 2277SOL     OW 9426   1.308   4.114   3.853
 2277SOL    HW2 9427   1.281   4.180   3.789
 2277SOL    HW3 9428   1.378   4.157   3.903
 2277SOL    MW4 9429   1.313   4.127   3.850
 2278SOL     OW 9430   0.976   3.819   3.790
 2278SOL    HW2 9431   1.032   3.811   3.712
 2278SOL    HW3 9432   0.953   3.729   3.812
 2278SOL    MW4 9433   0.981   3.806   3.783
 2279SOL     OW 9434   1.481   4.670   3.995
 2279SOL    HW2 9435   1.448   4.759   3.985
 2279SOL    HW3 9436   1.446   4.641   4.080
 2279SOL    MW4 9437   1.471   4.679   4.006
 2280SOL     OW 9438   1.094   5.099   5.183
 2280SOL    HW2 9439   1.005   5.105   5.151
 2280SOL    HW3 9440   1.138   5.178   5.151
 2280SOL    MW4 9441   1.089   5.109   5.175
 2281SOL     OW 9442   0.387   3.767   5.525
 2281SOL    HW2 9443   0.315   3.732   5.473
 2281SOL    HW3 9444   0.445   3.808   5.460
 2281SOL    MW4 9445   0.385   3.768   5.510
 2282SOL     OW 9446   0.411   5.257   4.824
 2282SOL    HW2 9447   0.456   5.319   4.881
 2282SOL    HW3 9448   0.318   5.276   4.837
 2282SOL    MW4 9449   0.404   5.267   4.831
 2283SOL     OW 9450   1.851   4.786   5.178
 2283SOL    HW2 9451   1.766   4.799   5.137
 2283SOL    HW3 9452   1.831   4.750   5.265
 2283SOL    MW4 9453   1.838   4.782   5.183
 2284SOL     OW 9454   0.833   5.325   4.932
 2284SOL    HW2 9455   0.857   5.314   4.841
 2284SOL    HW3 9456   0.756   5.382   4.930
 2284SOL    MW4 9457   0.825   5.330   4.921
 2285SOL     OW 9458   0.475   4.708   3.787
 2285SOL    HW2 9459   0.398   4.721   3.843
 2285SOL    HW3 9460   0.439   4.672   3.706
 2285SOL    MW4 9461   0.461   4.704   3.784
 2286SOL     OW 9462   1.128   4.681   4.030
 2286SOL    HW2 9463   1.038   4.702   4.005
 2286SOL    HW3 9464   1.155   4.754   4.086
 2286SOL    MW4 9465   1.120   4.693   4.033
 2287SOL     OW 9466   0.628   5.030   4.722
 2287SOL    HW2 9467   0.621   5.009   4.816
 2287SOL    HW3 9468   0.546   4.998   4.685
 2287SOL    MW4 9469   0.616   5.024   4.729
 2288SOL     OW 9470   1.492   4.040   5.124
 2288SOL    HW2 9471   1.439   4.042   5.204
 2288SOL    HW3 9472   1.477   3.953   5.087
 2288SOL    MW4 9473   1.484   4.030   5.129
 2289SOL     OW 9474   1.828   3.964   4.997
 2289SOL    HW2 9475   1.809   4.031   4.932
 2289SOL    HW3 9476   1.885   3.902   4.952
 2289SOL    MW4 9477   1.832   3.965   4.983
 2290SOL     OW 9478   0.074   5.122   5.385
 2290SOL    HW2 9479   0.118   5.055   5.331
 2290SOL    HW3 9480  -0.011   5.084   5.405
 2290SOL    MW4 9481   0.069   5.108   5.381
 2291SOL     OW 9482   0.757   3.797   4.437
 2291SOL    HW2 9483   0.686   3.858   4.419
 2291SOL    HW3 9484   0.808   3.794   4.356
 2291SOL    MW4 9485   0.753   3.803   4.424
 2292SOL     OW 9486   0.515   5.037   4.186
 2292SOL    HW2 9487   0.508   5.069   4.276
 2292SOL    HW3 9488   0.425   5.021   4.158
 2292SOL    MW4 9489   0.503   5.039   4.193
 2293SOL     OW 9490   1.110   5.430   5.095
 2293SOL    HW2 9491   1.030   5.415   5.045
 2293SOL    HW3 9492   1.117   5.525   5.102
 2293SOL    MW4 9493   1.101   5.441   5.089
 2294SOL     OW 9494   1.224   5.395   4.585
 2294SOL    HW2 9495   1.271   5.468   4.544
 2294SOL    HW3 9496   1.145   5.434   4.621
 2294SOL    MW4 9497   1.219   5.410   4.584
 2295SOL     OW 9498   1.632   5.490   4.860
 2295SOL    HW2 9499   1.675   5.460   4.940
 2295SOL    HW3 9500   1.551   5.438   4.857
 2295SOL    MW4 9501   1.627   5.479   4.870
 2296SOL     OW 9502   0.717   4.454   5.567
 2296SOL    HW2 9503   0.787   4.396   5.539
 2296SOL    HW3 9504   0.660   4.399   5.622
 2296SOL    MW4 9505   0.719   4.441   5.571
 2297SOL     OW 9506   1.504   4.666   5.200
 2297SOL    HW2 9507   1.509   4.719   5.280
 2297SOL    HW3 9508   1.466   4.583   5.228
 2297SOL    MW4 9509   1.500   4.661   5.215
 2298SOL     OW 9510   1.144   3.801   5.446
 2298SOL    HW2 9511   1.139   3.708   5.427
 2298SOL    HW3 9512   1.227   3.812   5.492
 2298SOL    MW4 9513   1.152   3.790   5.450
 2299SOL     OW 9514   0.518   4.321   3.900
 2299SOL    HW2 9515   0.484   4.377   3.970
 2299SOL    HW3 9516   0.589   4.271   3.940
 2299SOL    MW4 9517   0.524   4.322   3.914
 2300SOL     OW 9518   1.614   5.072   4.722
 2300SOL    HW2 9519   1.649   5.054   4.635
 2300SOL    HW3 9520   1.519   5.073   4.709
 2300SOL    MW4 9521   1.606   5.069   4.709
 2301SOL     OW 9522   1.043   4.720   5.091
 2301SOL    HW2 9523   1.086   4.755   5.169
 2301SOL    HW3 9524   1.026   4.797   5.037
 2301SOL    MW4 9525   1.046   4.735   5.094
 2302SOL     OW 9526   1.574   4.207   3.964
 2302SOL    HW2 9527   1.566   4.278   3.901
 2302SOL    HW3 9528   1.592   4.251   4.047
 2302SOL    MW4 9529   1.575   4.221   3.966
 2303SOL     OW 9530   0.434   3.862   4.393
 2303SOL    HW2 9531   0.484   3.905   4.324
 2303SOL    HW3 9532   0.349   3.906   4.393
 2303SOL    MW4 9533   0.431   3.875   4.384
 2304SOL     OW 9534   0.193   4.924   5.253
 2304SOL    HW2 9535   0.221   4.877   5.331
 2304SOL    HW3 9536   0.114   4.879   5.224
 2304SOL    MW4 9537   0.186   4.913   5.259
 2305SOL     OW 9538   0.701   4.251   5.220
 2305SOL    HW2 9539   0.673   4.339   5.244
 2305SOL    HW3 9540   0.670   4.195   5.291
 2305SOL    MW4 9541   0.693   4.254   5.232
 2306SOL     OW 9542   1.243   4.469   3.939
 2306SOL    HW2 9543   1.290   4.487   3.858
 2306SOL    HW3 9544   1.209   4.553   3.967
 2306SOL    MW4 9545   1.245   4.483   3.932
 2307SOL     OW 9546   0.356   4.647   4.433
 2307SOL    HW2 9547   0.414   4.703   4.381
 2307SOL    HW3 9548   0.400   4.562   4.435
 2307SOL    MW4 9549   0.369   4.644   4.426
 2308SOL     OW 9550   1.496   3.999   4.270
 2308SOL    HW2 9551   1.418   3.949   4.295
 2308SOL    HW3 9552   1.467   4.090   4.270
 2308SOL    MW4 9553   1.482   4.003   4.273
 2309SOL     OW 9554   1.082   3.961   4.429
 2309SOL    HW2 9555   1.102   4.036   4.373
 2309SOL    HW3 9556   1.062   4.000   4.514
 2309SOL    MW4 9557   1.083   3.977   4.433
 2310SOL     OW 9558   0.978   5.211   3.761
 2310SOL    HW2 9559   1.005   5.289   3.713
 2310SOL    HW3 9560   0.885   5.226   3.780
 2310SOL    MW4 9561   0.969   5.224   3.757
 2311SOL     OW 9562   1.842   4.734   5.448
 2311SOL    HW2 9563   1.755   4.714   5.484
 2311SOL    HW3 9564   1.896   4.660   5.473
 2311SOL    MW4 9565   1.837   4.723   5.456
 2312SOL     OW 9566   0.063   5.247   4.605
 2312SOL    HW2 9567   0.095   5.251   4.696
 2312SOL    HW3 9568  -0.032   5.255   4.613
 2312SOL    MW4 9569   0.055   5.250   4.618
 2313SOL     OW 9570   0.018   4.373   4.152
 2313SOL    HW2 9571  -0.042   4.345   4.222
 2313SOL    HW3 9572   0.092   4.313   4.158
 2313SOL    MW4 9573   0.020   4.362   4.161
 2314SOL     OW 9574   1.586   5.585   5.586
 2314SOL    HW2 9575   1.631   5.509   5.551
 2314SOL    HW3 9576   1.624   5.598   5.673
 2314SOL    MW4 9577   1.596   5.578   5.592
 2315SOL     OW 9578   1.186   5.104   4.312
 2315SOL    HW2 9579   1.209   5.055   4.390
 2315SOL    HW3 9580   1.267   5.146   4.284
 2315SOL    MW4 9581   1.199   5.104   4.319
 2316SOL     OW 9582   0.444   4.112   5.041
 2316SOL    HW2 9583   0.477   4.193   5.081
 2316SOL    HW3 9584   0.417   4.138   4.953
 2316SOL    MW4 9585   0.443   4.126   5.035
 2317SOL     OW 9586   0.398   4.079   4.777
 2317SOL    HW2 9587   0.428   3.993   4.748
 2317SOL    HW3 9588   0.303   4.072   4.780
 2317SOL    MW4 9589   0.390   4.068   4.775
 2318SOL     OW 9590   1.227   4.288   5.468
 2318SOL    HW2 9591   1.279   4.223   5.421
 2318SOL    HW3 9592   1.185   4.339   5.398
 2318SOL    MW4 9593   1.228   4.285   5.451
 2319SOL     OW 9594   1.326   4.083   5.329
 2319SOL    HW2 9595   1.233   4.067   5.316
 2319SOL    HW3 9596   1.352   4.021   5.397
 2319SOL    MW4 9597   1.316   4.073   5.336
 2320SOL     OW 9598   0.541   3.857   4.668
 2320SOL    HW2 9599   0.551   3.766   4.694
 2320SOL    HW3 9600   0.497   3.853   4.583
 2320SOL    MW4 9601   0.537   3.845   4.660
 2321SOL     OW 9602   0.635   5.472   5.214
 2321SOL    HW2 9603   0.552   5.457   5.259
 2321SOL    HW3 9604   0.694   5.405   5.249
 2321SOL    MW4 9605   0.633   5.462   5.224
 2322SOL     OW 9606   1.692   4.179   4.839
 2322SOL    HW2 9607   1.625   4.212   4.899
 2322SOL    HW3 9608   1.735   4.257   4.805
 2322SOL    MW4 9609   1.690   4.194   4.843
 2323SOL     OW 9610   1.870   4.899   4.809
 2323SOL    HW2 9611   1.863   4.839   4.734
 2323SOL    HW3 9612   1.796   4.959   4.798
 2323SOL    MW4 9613   1.860   4.899   4.798
 2324SOL     OW 9614   1.252   4.761   4.727
 2324SOL    HW2 9615   1.266   4.733   4.818
 2324SOL    HW3 9616   1.338   4.792   4.699
 2324SOL    MW4 9617   1.265   4.762   4.736
 2325SOL     OW 9618   1.335   4.256   5.006
 2325SOL    HW2 9619   1.356   4.257   4.913
 2325SOL    HW3 9620   1.380   4.178   5.039
 2325SOL    MW4 9621   1.342   4.246   4.998
 2326SOL     OW 9622   1.828   4.387   5.548
 2326SOL    HW2 9623   1.865   4.332   5.617
 2326SOL    HW3 9624   1.853   4.344   5.466
 2326SOL    MW4 9625   1.835   4.375   5.547
 2327SOL     OW 9626   1.375   4.685   5.600
 2327SOL    HW2 9627   1.441   4.633   5.554
 2327SOL    HW3 9628   1.395   4.672   5.693
 2327SOL    MW4 9629   1.386   4.676   5.607
 2328SOL     OW 9630   1.326   3.771   3.948
 2328SOL    HW2 9631   1.400   3.815   3.991
 2328SOL    HW3 9632   1.250   3.825   3.970
 2328SOL    MW4 9633   1.326   3.783   3.956
 2329SOL     OW 9634   1.386   4.546   4.226
 2329SOL    HW2 9635   1.301   4.516   4.196
 2329SOL    HW3 9636   1.378   4.553   4.321
 2329SOL    MW4 9637   1.374   4.544   4.235
 2330SOL     OW 9638   0.462   5.009   4.957
 2330SOL    HW2 9639   0.474   5.036   5.048
 2330SOL    HW3 9640   0.443   5.090   4.910
 2330SOL    MW4 9641   0.461   5.024   4.962
 2331SOL     OW 9642   0.746   3.989   4.780
 2331SOL    HW2 9643   0.719   3.991   4.871
 2331SOL    HW3 9644   0.676   3.941   4.735
 2331SOL    MW4 9645   0.734   3.985   4.787
 2332SOL     OW 9646   0.600   5.481   4.942
 2332SOL    HW2 9647   0.652   5.558   4.919
 2332SOL    HW3 9648   0.609   5.473   5.037
 2332SOL    MW4 9649   0.609   5.488   4.953
 2333SOL     OW 9650   1.502   5.066   5.174
 2333SOL    HW2 9651   1.487   4.995   5.237
 2333SOL    HW3 9652   1.548   5.024   5.102
 2333SOL    MW4 9653   1.508   5.050   5.174
 2334SOL     OW 9654   0.576   4.797   5.291
 2334SOL    HW2 9655   0.613   4.802   5.203
 2334SOL    HW3 9656   0.615   4.870   5.338
 2334SOL    MW4 9657   0.586   4.807   5.286
 2335SOL     OW 9658   0.756   4.840   5.103
 2335SOL    HW2 9659   0.815   4.786   5.156
 2335SOL    HW3 9660   0.771   4.812   5.013
 2335SOL    MW4 9661   0.766   4.829   5.099
 2336SOL     OW 9662   0.759   4.212   3.952
 2336SOL    HW2 9663   0.832   4.261   3.915
 2336SOL    HW3 9664   0.775   4.121   3.926
 2336SOL    MW4 9665   0.771   4.207   3.945
 2337SOL     OW 9666   1.567   5.329   5.275
 2337SOL    HW2 9667   1.609   5.314   5.360
 2337SOL    HW3 9668   1.558   5.242   5.237
 2337SOL    MW4 9669   1.571   5.317   5.282
 2338SOL     OW 9670   1.227   3.808   4.866
 2338SOL    HW2 9671   1.282   3.817   4.788
 2338SOL    HW3 9672   1.282   3.842   4.937
 2338SOL    MW4 9673   1.241   3.813   4.865
 2339SOL     OW 9674   0.234   4.721   4.050
 2339SOL    HW2 9675   0.171   4.737   3.979
 2339SOL    HW3 9676   0.181   4.684   4.121
 2339SOL    MW4 9677   0.219   4.718   4.050
 2340SOL     OW 9678   0.590   5.075   3.909
 2340SOL    HW2 9679   0.605   5.051   4.001
 2340SOL    HW3 9680   0.498   5.053   3.893
 2340SOL    MW4 9681   0.580   5.068   3.919
 2341SOL     OW 9682   1.129   5.306   4.061
 2341SOL    HW2 9683   1.137   5.224   4.012
 2341SOL    HW3 9684   1.048   5.345   4.028
 2341SOL    MW4 9685   1.119   5.301   4.051
 2342SOL     OW 9686   0.388   5.464   4.630
 2342SOL    HW2 9687   0.392   5.375   4.665
 2342SOL    HW3 9688   0.414   5.455   4.539
 2342SOL    MW4 9689   0.391   5.452   4.622
 2343SOL     OW 9690   1.005   4.942   4.873
 2343SOL    HW2 9691   0.937   4.876   4.889
 2343SOL    HW3 9692   1.023   4.936   4.780
 2343SOL    MW4 9693   0.998   4.933   4.864
 2344SOL     OW 9694   0.094   5.217   5.124
 2344SOL    HW2 9695   0.084   5.175   5.210
 2344SOL    HW3 9696   0.015   5.270   5.114
 2344SOL    MW4 9697   0.083   5.218   5.135
 2345SOL     OW 9698   0.998   4.081   4.694
 2345SOL    HW2 9699   0.928   4.033   4.739
 2345SOL    HW3 9700   1.030   4.144   4.758
 2345SOL    MW4 9701   0.993   4.083   4.708
 2346SOL     OW 9702   0.649   4.517   5.314
 2346SOL    HW2 9703   0.642   4.612   5.302
 2346SOL    HW3 9704   0.658   4.506   5.409
 2346SOL    MW4 9705   0.650   4.529   5.324
 2347SOL     OW 9706   0.370   5.032   5.572
 2347SOL    HW2 9707   0.442   5.034   5.509
 2347SOL    HW3 9708   0.340   4.941   5.571
 2347SOL    MW4 9709   0.375   5.021   5.564
 2348SOL     OW 9710   1.454   3.795   5.039
 2348SOL    HW2 9711   1.525   3.741   5.003
 2348SOL    HW3 9712   1.453   3.774   5.132
 2348SOL    MW4 9713   1.463   3.786   5.047
 2349SOL     OW 9714   1.654   5.325   5.523
 2349SOL    HW2 9715   1.627   5.322   5.614
 2349SOL    HW3 9716   1.750   5.329   5.526
 2349SOL    MW4 9717   1.664   5.325   5.535
 2350SOL     OW 9718   0.465   4.187   4.507
 2350SOL    HW2 9719   0.536   4.135   4.470
 2350SOL    HW3 9720   0.451   4.152   4.594
 2350SOL    MW4 9721   0.473   4.176   4.514
 2351SOL     OW 9722   0.020   5.522   5.579
 2351SOL    HW2 9723   0.070   5.500   5.501
 2351SOL    HW3 9724   0.028   5.617   5.587
 2351SOL    MW4 9725   0.028   5.531   5.570
 2352SOL     OW 9726   0.781   5.280   4.583
 2352SOL    HW2 9727   0.709   5.217   4.596
 2352SOL    HW3 9728   0.742   5.365   4.601
 2352SOL    MW4 9729   0.765   5.283   4.586
 2353SOL     OW 9730   1.101   4.128   4.231
 2353SOL    HW2 9731   1.123   4.065   4.163
 2353SOL    HW3 9732   1.006   4.120   4.242
 2353SOL    MW4 9733   1.091   4.119   4.223
 2354SOL     OW 9734   0.186   3.818   4.163
 2354SOL    HW2 9735   0.257   3.839   4.102
 2354SOL    HW3 9736   0.140   3.746   4.121
 2354SOL    MW4 9737   0.190   3.812   4.149
 2355SOL     OW 9738   0.017   4.285   5.306
 2355SOL    HW2 9739   0.081   4.351   5.281
 2355SOL    HW3 9740  -0.064   4.312   5.263
 2355SOL    MW4 9741   0.015   4.297   5.298
 2356SOL     OW 9742   1.755   5.192   4.263
 2356SOL    HW2 9743   1.725   5.125   4.324
 2356SOL    HW3 9744   1.849   5.198   4.277
 2356SOL    MW4 9745   1.763   5.184   4.273
 2357SOL     OW 9746   1.311   4.869   4.193
 2357SOL    HW2 9747   1.283   4.955   4.226
 2357SOL    HW3 9748   1.339   4.885   4.103
 2357SOL    MW4 9749   1.311   4.883   4.185
 2358SOL     OW 9750   0.973   3.789   4.246
 2358SOL    HW2 9751   1.010   3.848   4.311
 2358SOL    HW3 9752   0.950   3.845   4.172
 2358SOL    MW4 9753   0.974   3.804   4.245
 2359SOL     OW 9754   1.826   4.671   4.668
 2359SOL    HW2 9755   1.817   4.703   4.579
 2359SOL    HW3 9756   1.779   4.587   4.668
 2359SOL    MW4 9757   1.819   4.664   4.658
 2360SOL     OW 9758   0.202   4.511   5.247
 2360SOL    HW2 9759   0.223   4.580   5.185
 2360SOL    HW3 9760   0.282   4.458   5.252
 2360SOL    MW4 9761   0.215   4.512   5.241
 2361SOL     OW 9762   1.738   4.602   4.369
 2361SOL    HW2 9763   1.832   4.591   4.357
 2361SOL    HW3 9764   1.714   4.674   4.310
 2361SOL    MW4 9765   1.748   4.610   4.360
 2362SOL     OW 9766   0.187   4.526   5.514
 2362SOL    HW2 9767   0.113   4.470   5.540
 2362SOL    HW3 9768   0.182   4.529   5.419
 2362SOL    MW4 9769   0.176   4.519   5.504
 2363SOL     OW 9770   0.353   3.813   4.964
 2363SOL    HW2 9771   0.396   3.897   4.984
 2363SOL    HW3 9772   0.426   3.751   4.957
 2363SOL    MW4 9773   0.368   3.816   4.965
 2364SOL     OW 9774   0.394   4.480   4.142
 2364SOL    HW2 9775   0.394   4.575   4.127
 2364SOL    HW3 9776   0.471   4.464   4.196
 2364SOL    MW4 9777   0.404   4.491   4.147
 2365SOL     OW 9778   1.170   4.339   5.206
 2365SOL    HW2 9779   1.206   4.312   5.122
 2365SOL    HW3 9780   1.083   4.373   5.185
 2365SOL    MW4 9781   1.164   4.340   5.193
 2366SOL     OW 9782   0.153   4.211   4.431
 2366SOL    HW2 9783   0.215   4.218   4.504
 2366SOL    HW3 9784   0.153   4.118   4.408
 2366SOL    MW4 9785   0.161   4.200   4.438
 2367SOL     OW 9786   1.700   5.551   3.963
 2367SOL    HW2 9787   1.767   5.584   3.903
 2367SOL    HW3 9788   1.657   5.630   3.997
 2367SOL    MW4 9789   1.702   5.566   3.959
 2368SOL     OW 9790   0.835   4.472   4.915
 2368SOL    HW2 9791   0.793   4.390   4.891
 2368SOL    HW3 9792   0.836   4.471   5.011
 2368SOL    MW4 9793   0.828   4.461   4.924
 2369SOL     OW 9794   1.506   5.605   5.314
 2369SOL    HW2 9795   1.509   5.511   5.297
 2369SOL    HW3 9796   1.529   5.613   5.406
 2369SOL    MW4 9797   1.509   5.593   5.324
 2370SOL     OW 9798   0.639   3.942   5.020
 2370SOL    HW2 9799   0.570   4.005   5.041
 2370SOL    HW3 9800   0.666   3.906   5.105
 2370SOL    MW4 9801   0.633   3.945   5.033
 2371SOL     OW 9802   0.022   4.783   3.889
 2371SOL    HW2 9803  -0.009   4.848   3.952
 2371SOL    HW3 9804  -0.029   4.705   3.908
 2371SOL    MW4 9805   0.012   4.780   3.899
 2372SOL     OW 9806   1.434   3.795   4.637
 2372SOL    HW2 9807   1.522   3.804   4.674
 2372SOL    HW3 9808   1.444   3.736   4.563
 2372SOL    MW4 9809   1.448   3.789   4.631
 2373SOL     OW 9810   1.466   4.534   4.481
 2373SOL    HW2 9811   1.546   4.549   4.430
 2373SOL    HW3 9812   1.459   4.439   4.487
 2373SOL    MW4 9813   1.475   4.523   4.476
 2374SOL     OW 9814   0.606   5.583   3.831
 2374SOL    HW2 9815   0.511   5.583   3.823
 2374SOL    HW3 9816   0.622   5.529   3.909
 2374SOL    MW4 9817   0.596   5.577   3.840
 2375SOL     OW 9818   0.916   4.460   5.178
 2375SOL    HW2 9819   0.985   4.527   5.175
 2375SOL    HW3 9820   0.849   4.498   5.234
 2375SOL    MW4 9821   0.917   4.473   5.185
 2376SOL     OW 9822   0.334   4.760   5.426
 2376SOL    HW2 9823   0.288   4.676   5.428
 2376SOL    HW3 9824   0.391   4.754   5.350
 2376SOL    MW4 9825   0.336   4.748   5.418
 2377SOL     OW 9826   1.451   4.403   3.747
 2377SOL    HW2 9827   1.379   4.379   3.689
 2377SOL    HW3 9828   1.517   4.440   3.689
 2377SOL    MW4 9829   1.450   4.405   3.732
 2378SOL     OW 9830   0.585   5.135   4.427
 2378SOL    HW2 9831   0.650   5.068   4.448
 2378SOL    HW3 9832   0.637   5.212   4.404
 2378SOL    MW4 9833   0.600   5.137   4.426
 2379SOL     OW 9834   0.846   4.300   4.557
 2379SOL    HW2 9835   0.786   4.318   4.629
 2379SOL    HW3 9836   0.880   4.212   4.576
 2379SOL    MW4 9837   0.842   4.290   4.570
 2380SOL     OW 9838   1.787   3.799   5.226
 2380SOL    HW2 9839   1.708   3.845   5.254
 2380SOL    HW3 9840   1.822   3.853   5.155
 2380SOL    MW4 9841   1.781   3.812   5.220
 2381SOL     OW 9842   1.071   4.883   4.576
 2381SOL    HW2 9843   1.163   4.864   4.594
 2381SOL    HW3 9844   1.044   4.813   4.516
 2381SOL    MW4 9845   1.079   4.871   4.570
 2382SOL     OW 9846   0.864   4.703   3.931
 2382SOL    HW2 9847   0.850   4.615   3.896
 2382SOL    HW3 9848   0.815   4.760   3.872
 2382SOL    MW4 9849   0.856   4.698   3.919
 2383SOL     OW 9850   1.345   5.121   4.672
 2383SOL    HW2 9851   1.318   5.205   4.637
 2383SOL    HW3 9852   1.305   5.116   4.759
 2383SOL    MW4 9853   1.338   5.130   4.678
 2384SOL     OW 9854   1.264   5.069   4.940
 2384SOL    HW2 9855   1.275   5.036   5.029
 2384SOL    HW3 9856   1.183   5.028   4.909
 2384SOL    MW4 9857   1.254   5.061   4.946
 2385SOL     OW 9858   0.277   4.427   4.710
 2385SOL    HW2 9859   0.227   4.426   4.791
 2385SOL    HW3 9860   0.297   4.519   4.694
 2385SOL    MW4 9861   0.273   4.439   4.718
 2386SOL     OW 9862   1.344   5.191   5.472
 2386SOL    HW2 9863   1.344   5.285   5.488
 2386SOL    HW3 9864   1.389   5.181   5.388
 2386SOL    MW4 9865   1.350   5.201   5.463
 2387SOL     OW 9866   1.583   3.909   4.033
 2387SOL    HW2 9867   1.576   3.913   4.128
 2387SOL    HW3 9868   1.595   4.000   4.006
 2387SOL    MW4 9869   1.584   3.922   4.041
 2388SOL     OW 9870   0.872   4.472   4.147
 2388SOL    HW2 9871   0.852   4.458   4.054
 2388SOL    HW3 9872   0.965   4.451   4.154
 2388SOL    MW4 9873   0.882   4.467   4.136
 2389SOL     OW 9874   0.199   4.095   5.451
 2389SOL    HW2 9875   0.156   4.154   5.388
 2389SOL    HW3 9876   0.267   4.150   5.491
 2389SOL    MW4 9877   0.203   4.110   5.448
 2390SOL     OW 9878   1.311   4.715   4.996
 2390SOL    HW2 9879   1.374   4.712   5.069
 2390SOL    HW3 9880   1.227   4.733   5.038
 2390SOL    MW4 9881   1.307   4.717   5.011
 2391SOL     OW 9882   0.855   5.430   4.185
 2391SOL    HW2 9883   0.913   5.501   4.212
 2391SOL    HW3 9884   0.878   5.358   4.243
 2391SOL    MW4 9885   0.866   5.430   4.196
 2392SOL     OW 9886   1.650   3.892   4.775
 2392SOL    HW2 9887   1.695   3.810   4.794
 2392SOL    HW3 9888   1.670   3.948   4.851
 2392SOL    MW4 9889   1.660   3.888   4.787
 2393SOL     OW 9890   0.098   3.735   4.874
 2393SOL    HW2 9891   0.089   3.736   4.779
 2393SOL    HW3 9892   0.192   3.747   4.889
 2393SOL    MW4 9893   0.110   3.738   4.865
 2394SOL     OW 9894   1.735   4.928   4.494
 2394SOL    HW2 9895   1.714   4.874   4.417
 2394SOL    HW3 9896   1.831   4.926   4.498
 2394SOL    MW4 9897   1.744   4.921   4.483
 2395SOL     OW 9898   0.427   5.073   5.237
 2395SOL    HW2 9899   0.348   5.023   5.260
 2395SOL    HW3 9900   0.497   5.032   5.287
 2395SOL    MW4 9901   0.425   5.061   5.247
 2396SOL     OW 9902   0.311   3.862   3.920
 2396SOL    HW2 9903   0.240   3.917   3.888
 2396SOL    HW3 9904   0.353   3.828   3.841
 2396SOL    MW4 9905   0.307   3.864   3.906
 2397SOL     OW 9906   1.435   4.359   4.756
 2397SOL    HW2 9907   1.358   4.405   4.722
 2397SOL    HW3 9908   1.492   4.428   4.790
 2397SOL    MW4 9909   1.432   4.374   4.756
 2398SOL     OW 9910   0.067   3.961   3.769
 2398SOL    HW2 9911   0.034   4.040   3.813
 2398SOL    HW3 9912   0.122   3.994   3.698
 2398SOL    MW4 9913   0.070   3.975   3.766
 2399SOL     OW 9914   0.101   5.218   3.958
 2399SOL    HW2 9915   0.118   5.302   4.000
 2399SOL    HW3 9916   0.136   5.227   3.870
 2399SOL    MW4 9917   0.106   5.231   3.952
 2400SOL     OW 9918   1.373   5.307   4.175
 2400SOL    HW2 9919   1.436   5.297   4.104
 2400SOL    HW3 9920   1.290   5.327   4.130
 2400SOL    MW4 9921   1.370   5.308   4.160
 2401SOL     OW 9922   1.736   4.575   5.862
 2401SOL    HW2 9923   1.777   4.517   5.927
 2401SOL    HW3 9924   1.643   4.567   5.879
 2401SOL    MW4 9925   1.730   4.567   5.872
 2402SOL     OW 9926   1.602   4.507   6.857
 2402SOL    HW2 9927   1.557   4.574   6.908
 2402SOL    HW3 9928   1.690   4.543   6.843
 2402SOL    MW4 9929   1.608   4.520   6.861
 2403SOL     OW 9930   0.530   4.758   6.091
 2403SOL    HW2 9931   0.620   4.733   6.075
 2403SOL    HW3 9932   0.526   4.851   6.068
 2403SOL    MW4 9933   0.542   4.767   6.086
 2404SOL     OW 9934   1.646   5.461   6.233
 2404SOL    HW2 9935   1.658   5.407   6.311
 2404SOL    HW3 9936   1.683   5.409   6.162
 2404SOL    MW4 9937   1.652   5.446   6.234
 2405SOL     OW 9938   1.025   5.346   7.234
 2405SOL    HW2 9939   1.066   5.382   7.155
 2405SOL    HW3 9940   1.060   5.257   7.241
 2405SOL    MW4 9941   1.036   5.339   7.225
 2406SOL     OW 9942   1.582   4.901   6.838
 2406SOL    HW2 9943   1.503   4.866   6.796
 2406SOL    HW3 9944   1.609   4.973   6.782
 2406SOL    MW4 9945   1.575   4.906   6.825
 2407SOL     OW 9946   0.814   4.214   6.104
 2407SOL    HW2 9947   0.789   4.302   6.132
 2407SOL    HW3 9948   0.811   4.217   6.008
 2407SOL    MW4 9949   0.810   4.226   6.096
 2408SOL     OW 9950   0.256   4.242   6.032
 2408SOL    HW2 9951   0.288   4.330   6.014
 2408SOL    HW3 9952   0.244   4.240   6.127
 2408SOL    MW4 9953   0.259   4.254   6.044
 2409SOL     OW 9954   0.334   4.655   6.933
 2409SOL    HW2 9955   0.397   4.602   6.884
 2409SOL    HW3 9956   0.315   4.729   6.876
 2409SOL    MW4 9957   0.340   4.657   6.920
 2410SOL     OW 9958   0.655   3.997   6.119
 2410SOL    HW2 9959   0.713   4.073   6.121
 2410SOL    HW3 9960   0.590   4.018   6.052
 2410SOL    MW4 9961   0.654   4.009   6.110
 2411SOL     OW 9962   0.742   4.924   6.294
 2411SOL    HW2 9963   0.822   4.927   6.346
 2411SOL    HW3 9964   0.770   4.891   6.208
 2411SOL    MW4 9965   0.756   4.920   6.289
 2412SOL     OW 9966   0.767   5.265   7.197
 2412SOL    HW2 9967   0.851   5.291   7.236
 2412SOL    HW3 9968   0.791   5.209   7.123
 2412SOL    MW4 9969   0.781   5.261   7.192
 2413SOL     OW 9970   0.519   4.428   6.285
 2413SOL    HW2 9971   0.504   4.348   6.336
 2413SOL    HW3 9972   0.601   4.463   6.319
 2413SOL    MW4 9973   0.527   4.420   6.297
 2414SOL     OW 9974   0.856   5.114   6.970
 2414SOL    HW2 9975   0.820   5.180   6.910
 2414SOL    HW3 9976   0.784   5.052   6.983
 2414SOL    MW4 9977   0.842   5.114   6.964
 2415SOL     OW 9978   0.661   4.254   6.662
 2415SOL    HW2 9979   0.567   4.250   6.680
 2415SOL    HW3 9980   0.691   4.163   6.671
 2415SOL    MW4 9981   0.652   4.242   6.665
 2416SOL     OW 9982   0.407   4.668   6.566
 2416SOL    HW2 9983   0.362   4.675   6.482
 2416SOL    HW3 9984   0.387   4.751   6.610
 2416SOL    MW4 9985   0.399   4.680   6.560
 2417SOL     OW 9986   0.104   5.514   6.441
 2417SOL    HW2 9987   0.193   5.506   6.476
 2417SOL    HW3 9988   0.068   5.426   6.446
 2417SOL    MW4 9989   0.111   5.501   6.446
 2418SOL     OW 9990   1.369   4.906   5.810
 2418SOL    HW2 9991   1.287   4.942   5.776
 2418SOL    HW3 9992   1.437   4.949   5.759
 2418SOL    MW4 9993   1.367   4.916   5.798
 2419SOL     OW 9994   0.368   5.041   6.476
 2419SOL    HW2 9995   0.344   5.094   6.552
 2419SOL    HW3 9996   0.424   5.099   6.424
 2419SOL    MW4 9997   0.372   5.056   6.479
 2420SOL     OW 9998   0.930   4.685   6.286
 2420SOL    HW2 9999   0.844   4.672   6.326
 2420SOL    HW310000   0.983   4.612   6.318
 2420SOL    MW410001   0.926   4.674   6.295
 2421SOL     OW10002   0.338   5.337   7.071
 2421SOL    HW210003   0.246   5.313   7.056
 2421SOL    HW310004   0.382   5.254   7.088
 2421SOL    MW410005   0.332   5.322   7.070
 2422SOL     OW10006   0.921   5.047   6.003
 2422SOL    HW210007   0.898   5.109   6.071
 2422SOL    HW310008   0.878   4.965   6.029
 2422SOL    MW410009   0.913   5.043   6.014
 2423SOL     OW10010   1.794   4.048   6.459
 2423SOL    HW210011   1.731   4.028   6.528
 2423SOL    HW310012   1.784   3.977   6.396
 2423SOL    MW410013   1.784   4.035   6.460
 2424SOL     OW10014   0.418   4.020   5.971
 2424SOL    HW210015   0.392   3.982   5.887
 2424SOL    HW310016   0.355   4.090   5.987
 2424SOL    MW410017   0.407   4.023   5.962
 2425SOL     OW10018   0.253   4.981   6.008
 2425SOL    HW210019   0.201   5.049   5.964
 2425SOL    HW310020   0.250   4.907   5.948
 2425SOL    MW410021   0.245   4.980   5.995
 2426SOL     OW10022   0.915   5.444   5.786
 2426SOL    HW210023   0.870   5.460   5.869
 2426SOL    HW310024   0.846   5.409   5.728
 2426SOL    MW410025   0.901   5.441   5.788
 2427SOL     OW10026   1.850   4.217   5.761
 2427SOL    HW210027   1.759   4.219   5.789
 2427SOL    HW310028   1.895   4.279   5.819
 2427SOL    MW410029   1.843   4.225   5.771
 2428SOL     OW10030   1.595   4.820   6.111
 2428SOL    HW210031   1.505   4.820   6.146
 2428SOL    HW310032   1.588   4.866   6.028
 2428SOL    MW410033   1.582   4.826   6.105
 2429SOL     OW10034   1.395   4.455   7.183
 2429SOL    HW210035   1.464   4.393   7.160
 2429SOL    HW310036   1.320   4.429   7.130
 2429SOL    MW410037   1.395   4.442   7.174
 2430SOL     OW10038   0.136   5.335   6.735
 2430SOL    HW210039   0.119   5.281   6.812
 2430SOL    HW310040   0.124   5.425   6.765
 2430SOL    MW410041   0.133   5.339   6.749
 2431SOL     OW10042   1.131   4.842   7.175
 2431SOL    HW210043   1.116   4.935   7.160
 2431SOL    HW310044   1.226   4.832   7.175
 2431SOL    MW410045   1.140   4.852   7.172
 2432SOL     OW10046   0.927   4.266   7.376
 2432SOL    HW210047   1.017   4.267   7.343
 2432SOL    HW310048   0.886   4.191   7.334
 2432SOL    MW410049   0.933   4.256   7.367
 2433SOL     OW10050   1.502   4.798   6.503
 2433SOL    HW210051   1.505   4.732   6.434
 2433SOL    HW310052   1.587   4.841   6.499
 2433SOL    MW410053   1.514   4.794   6.494
 2434SOL     OW10054   1.122   4.401   6.072
 2434SOL    HW210055   1.148   4.425   5.983
 2434SOL    HW310056   1.104   4.308   6.068
 2434SOL    MW410057   1.124   4.393   6.059
 2435SOL     OW10058   1.787   5.021   5.923
 2435SOL    HW210059   1.743   5.062   5.998
 2435SOL    HW310060   1.844   5.089   5.888
 2435SOL    MW410061   1.789   5.035   5.928
 2436SOL     OW10062   0.707   4.070   7.326
 2436SOL    HW210063   0.717   3.996   7.266
 2436SOL    HW310064   0.743   4.039   7.409
 2436SOL    MW410065   0.713   4.056   7.328
 2437SOL     OW10066   0.443   5.437   6.241
 2437SOL    HW210067   0.475   5.525   6.219
 2437SOL    HW310068   0.396   5.409   6.163
 2437SOL    MW410069   0.442   5.445   6.228
 2438SOL     OW10070   1.827   3.799   6.290
 2438SOL    HW210071   1.881   3.750   6.352
 2438SOL    HW310072   1.770   3.733   6.251
 2438SOL    MW410073   1.827   3.783   6.292
 2439SOL     OW10074   0.159   5.497   5.818
 2439SOL    HW210075   0.188   5.587   5.810
 2439SOL    HW310076   0.109   5.480   5.739
 2439SOL    MW410077   0.157   5.505   5.807
 2440SOL     OW10078   0.946   3.752   6.703
 2440SOL    HW210079   0.905   3.830   6.665
 2440SOL    HW310080   1.040   3.770   6.698
 2440SOL    MW410081   0.952   3.764   6.698
 2441SOL     OW10082   1.563   5.305   5.789
 2441SOL    HW210083   1.611   5.374   5.835
 2441SOL    HW310084   1.484   5.349   5.758
 2441SOL    MW410085   1.558   5.319   5.792
 2442SOL     OW10086   0.961   4.430   5.733
 2442SOL    HW210087   0.963   4.377   5.654
 2442SOL    HW310088   1.049   4.467   5.739
 2442SOL    MW410089   0.973   4.429   5.722
 2443SOL     OW10090   1.575   4.356   6.069
 2443SOL    HW210091   1.614   4.356   6.156
 2443SOL    HW310092   1.516   4.432   6.069
 2443SOL    MW410093   1.572   4.367   6.080
 2444SOL     OW10094   0.892   4.723   7.198
 2444SOL    HW210095   0.869   4.703   7.288
 2444SOL    HW310096   0.977   4.767   7.203
 2444SOL    MW410097   0.899   4.726   7.210
 2445SOL     OW10098   0.972   3.860   6.958
 2445SOL    HW210099   0.978   3.822   6.871
 2445SOL    HW310100   0.961   3.954   6.943
 2445SOL    MW410101   0.973   3.868   6.946
 2446SOL     OW10102   1.061   4.349   6.792
 2446SOL    HW210103   1.136   4.378   6.739
 2446SOL    HW310104   0.993   4.414   6.776
 2446SOL    MW410105   1.062   4.361   6.782
 2447SOL     OW10106   1.611   4.317   7.069
 2447SOL    HW210107   1.592   4.226   7.048
 2447SOL    HW310108   1.589   4.366   6.990
 2447SOL    MW410109   1.606   4.310   7.056
 2448SOL     OW10110   1.753   5.411   6.973
 2448SOL    HW210111   1.681   5.373   7.024
 2448SOL    HW310112   1.770   5.496   7.014
 2448SOL    MW410113   1.747   5.416   6.985
 2449SOL     OW10114   1.058   4.055   7.175
 2449SOL    HW210115   1.024   4.094   7.094
 2449SOL    HW310116   1.036   3.963   7.168
 2449SOL    MW410117   1.051   4.048   7.165
 2450SOL     OW10118   1.467   4.869   7.251
 2450SOL    HW210119   1.549   4.910   7.281
 2450SOL    HW310120   1.430   4.831   7.331
 2450SOL    MW410121   1.473   4.870   7.266
 2451SOL     OW10122   1.762   4.242   6.235
 2451SOL    HW210123   1.851   4.211   6.252
 2451SOL    HW310124   1.705   4.182   6.283
 2451SOL    MW410125   1.765   4.230   6.244
 2452SOL     OW10126   0.188   3.956   6.264
 2452SOL    HW210127   0.179   3.896   6.190
 2452SOL    HW310128   0.121   3.927   6.327
 2452SOL    MW410129   0.178   3.943   6.262
 2453SOL     OW10130   1.131   5.049   5.825
 2453SOL    HW210131   1.081   5.051   5.907
 2453SOL    HW310132   1.065   5.067   5.757
 2453SOL    MW410133   1.117   5.051   5.827
 2454SOL     OW10134   0.135   4.129   6.627
 2454SOL    HW210135   0.107   4.220   6.636
 2454SOL    HW310136   0.072   4.090   6.566
 2454SOL    MW410137   0.122   4.135   6.621
 2455SOL     OW10138   0.594   5.467   5.933
 2455SOL    HW210139   0.515   5.425   5.966
 2455SOL    HW310140   0.660   5.450   6.000
 2455SOL    MW410141   0.593   5.459   5.946
 2456SOL     OW10142   1.722   4.987   7.330
 2456SOL    HW210143   1.772   4.913   7.362
 2456SOL    HW310144   1.668   5.014   7.405
 2456SOL    MW410145   1.722   4.981   7.343
 2457SOL     OW10146   0.730   4.882   5.640
 2457SOL    HW210147   0.652   4.828   5.627
 2457SOL    HW310148   0.701   4.955   5.693
 2457SOL    MW410149   0.716   4.884   5.645
 2458SOL     OW10150   1.856   4.622   6.832
 2458SOL    HW210151   1.872   4.660   6.745
 2458SOL    HW310152   1.890   4.688   6.893
 2458SOL    MW410153   1.863   4.635   6.828
 2459SOL     OW10154   1.648   5.331   6.501
 2459SOL    HW210155   1.677   5.398   6.562
 2459SOL    HW310156   1.629   5.255   6.556
 2459SOL    MW410157   1.650   5.331   6.516
 2460SOL     OW10158   1.311   5.398   5.708
 2460SOL    HW210159   1.237   5.361   5.758
 2460SOL    HW310160   1.319   5.488   5.741
 2460SOL    MW410161   1.302   5.405   5.720
 2461SOL     OW10162   0.119   4.404   6.797
 2461SOL    HW210163   0.181   4.434   6.863
 2461SOL    HW310164   0.053   4.473   6.791
 2461SOL    MW410165   0.118   4.417   6.804
 2462SOL     OW10166   1.535   5.072   5.650
 2462SOL    HW210167   1.482   5.121   5.586
 2462SOL    HW310168   1.566   5.138   5.711
 2462SOL    MW410169   1.533   5.086   5.648
 2463SOL     OW10170   0.760   3.961   5.705
 2463SOL    HW210171   0.708   3.881   5.693
 2463SOL    HW310172   0.847   3.938   5.673
 2463SOL    MW410173   0.763   3.947   5.699
 2464SOL     OW10174   0.214   5.513   7.249
 2464SOL    HW210175   0.188   5.581   7.187
 2464SOL    HW310176   0.262   5.450   7.197
 2464SOL    MW410177   0.216   5.513   7.235
 2465SOL     OW10178   0.266   4.832   6.756
 2465SOL    HW210179   0.319   4.907   6.781
 2465SOL    HW310180   0.185   4.870   6.722
 2465SOL    MW410181   0.262   4.847   6.756
 2466SOL     OW10182   0.806   4.736   6.744
 2466SOL    HW210183   0.834   4.645   6.756
 2466SOL    HW310184   0.735   4.730   6.680
 2466SOL    MW410185   0.799   4.724   6.739
 2467SOL     OW10186   0.121   4.601   6.162
 2467SOL    HW210187   0.212   4.616   6.189
 2467SOL    HW310188   0.124   4.522   6.108
 2467SOL    MW410189   0.133   4.593   6.160
 2468SOL     OW10190   0.357   4.309   7.416
 2468SOL    HW210191   0.304   4.389   7.423
 2468SOL    HW310192   0.427   4.321   7.481
 2468SOL    MW410193   0.359   4.322   7.424
 2469SOL     OW10194   0.743   3.859   7.123
 2469SOL    HW210195   0.720   3.767   7.125
 2469SOL    HW310196   0.829   3.861   7.080
 2469SOL    MW410197   0.750   3.849   7.119
 2470SOL     OW10198   0.427   4.383   7.162
 2470SOL    HW210199   0.507   4.433   7.148
 2470SOL    HW310200   0.418   4.377   7.257
 2470SOL    MW410201   0.436   4.389   7.172
 2471SOL     OW10202   0.748   5.533   6.536
 2471SOL    HW210203   0.837   5.548   6.566
 2471SOL    HW310204   0.743   5.580   6.452
 2471SOL    MW410205   0.758   5.541   6.529
 2472SOL     OW10206   1.404   3.908   7.433
 2472SOL    HW210207   1.460   3.835   7.459
 2472SOL    HW310208   1.374   3.946   7.515
 2472SOL    MW410209   1.408   3.903   7.446
 2473SOL     OW10210   0.129   5.213   6.201
 2473SOL    HW210211   0.101   5.252   6.283
 2473SOL    HW310212   0.149   5.122   6.223
 2473SOL    MW410213   0.127   5.205   6.214
 2474SOL     OW10214   0.962   5.256   6.236
 2474SOL    HW210215   1.045   5.210   6.220
 2474SOL    HW310216   0.952   5.255   6.332
 2474SOL    MW410217   0.972   5.249   6.246
 2475SOL     OW10218   1.794   4.401   6.550
 2475SOL    HW210219   1.883   4.431   6.532
 2475SOL    HW310220   1.774   4.341   6.479
 2475SOL    MW410221   1.803   4.398   6.539
 2476SOL     OW10222   1.645   4.580   7.430
 2476SOL    HW210223   1.700   4.504   7.411
 2476SOL    HW310224   1.647   4.588   7.525
 2476SOL    MW410225   1.653   4.571   7.438
 2477SOL     OW10226   0.695   5.313   5.641
 2477SOL    HW210227   0.635   5.382   5.611
 2477SOL    HW310228   0.640   5.255   5.694
 2477SOL    MW410229   0.679   5.315   5.643
 2478SOL     OW10230   1.133   3.958   5.864
 2478SOL    HW210231   1.066   3.934   5.801
 2478SOL    HW310232   1.198   4.007   5.813
 2478SOL    MW410233   1.133   3.960   5.849
 2479SOL     OW10234   0.940   4.142   6.949
 2479SOL    HW210235   0.859   4.183   6.977
 2479SOL    HW310236   0.987   4.210   6.901
 2479SOL    MW410237   0.935   4.157   6.947
 2480SOL     OW10238   1.200   4.480   6.572
 2480SOL    HW210239   1.213   4.574   6.582
 2480SOL    HW310240   1.161   4.470   6.486
 2480SOL    MW410241   1.196   4.491   6.562
 2481SOL     OW10242   0.652   4.675   6.376
 2481SOL    HW210243   0.563   4.666   6.409
 2481SOL    HW310244   0.656   4.765   6.344
 2481SOL    MW410245   0.641   4.686   6.376
 2482SOL     OW10246   1.451   4.258   6.371
 2482SOL    HW210247   1.396   4.179   6.370
 2482SOL    HW310248   1.433   4.299   6.455
 2482SOL    MW410249   1.441   4.253   6.380
 2483SOL     OW10250   0.422   3.945   7.188
 2483SOL    HW210251   0.343   3.963   7.240
 2483SOL    HW310252   0.417   4.007   7.115
 2483SOL    MW410253   0.412   3.955   7.185
 2484SOL     OW10254   1.070   4.462   6.328
 2484SOL    HW210255   1.007   4.394   6.352
 2484SOL    HW310256   1.090   4.443   6.236
 2484SOL    MW410257   1.064   4.449   6.320
 2485SOL     OW10258   0.326   5.357   6.030
 2485SOL    HW210259   0.287   5.404   5.956
 2485SOL    HW310260   0.260   5.292   6.055
 2485SOL    MW410261   0.313   5.355   6.024
 2486SOL     OW10262   0.818   4.766   6.054
 2486SOL    HW210263   0.820   4.740   5.961
 2486SOL    HW310264   0.876   4.703   6.097
 2486SOL    MW410265   0.826   4.755   6.048
 2487SOL     OW10266   1.371   5.326   6.826
 2487SOL    HW210267   1.296   5.372   6.864
 2487SOL    HW310268   1.353   5.233   6.843
 2487SOL    MW410269   1.360   5.320   6.834
 2488SOL     OW10270   1.375   5.534   6.256
 2488SOL    HW210271   1.318   5.487   6.195
 2488SOL    HW310272   1.461   5.495   6.243
 2488SOL    MW410273   1.378   5.525   6.246
 2489SOL     OW10274   1.328   4.010   6.387
 2489SOL    HW210275   1.356   3.942   6.448
 2489SOL    HW310276   1.242   3.981   6.357
 2489SOL    MW410277   1.321   3.997   6.391
 2490SOL     OW10278   0.133   4.944   6.321
 2490SOL    HW210279   0.197   4.976   6.384
 2490SOL    HW310280   0.182   4.880   6.269
 2490SOL    MW410281   0.148   4.940   6.322
 2491SOL     OW10282   0.633   5.020   7.303
 2491SOL    HW210283   0.681   5.103   7.290
 2491SOL    HW310284   0.690   4.968   7.359
 2491SOL    MW410285   0.647   5.024   7.309
 2492SOL     OW10286   0.209   5.262   7.443
 2492SOL    HW210287   0.265   5.186   7.458
 2492SOL    HW310288   0.158   5.240   7.365
 2492SOL    MW410289   0.209   5.249   7.434
 2493SOL     OW10290   1.308   4.114   5.722
 2493SOL    HW210291   1.281   4.180   5.658
 2493SOL    HW310292   1.378   4.157   5.772
 2493SOL    MW410293   1.313   4.127   5.719
 2494SOL     OW10294   0.976   3.819   5.659
 2494SOL    HW210295   1.032   3.811   5.581
 2494SOL    HW310296   0.953   3.729   5.681
 2494SOL    MW410297   0.981   3.806   5.652
 2495SOL     OW10298   1.481   4.670   5.864
 2495SOL    HW210299   1.448   4.759   5.854
 2495SOL    HW310300   1.446   4.641   5.949
 2495SOL    MW410301   1.471   4.679   5.875
 2496SOL     OW10302   1.094   5.099   7.052
 2496SOL    HW210303   1.005   5.105   7.020
 2496SOL    HW310304   1.138   5.178   7.020
 2496SOL    MW410305   1.089   5.109   7.044
 2497SOL     OW10306   0.387   3.767   7.394
 2497SOL    HW210307   0.315   3.732   7.342
 2497SOL    HW310308   0.445   3.808   7.329
 2497SOL    MW410309   0.385   3.768   7.379
 2498SOL     OW10310   0.411   5.257   6.693
 2498SOL    HW210311   0.456   5.319   6.750
 2498SOL    HW310312   0.318   5.276   6.706
 2498SOL    MW410313   0.404   5.267   6.700
 2499SOL     OW10314   1.851   4.786   7.047
 2499SOL    HW210315   1.766   4.799   7.006
 2499SOL    HW310316   1.831   4.750   7.134
 2499SOL    MW410317   1.838   4.782   7.052
 2500SOL     OW10318   0.833   5.325   6.801
 2500SOL    HW210319   0.857   5.314   6.710
 2500SOL    HW310320   0.756   5.382   6.799
 2500SOL    MW410321   0.825   5.330   6.790
 2501SOL     OW10322   0.475   4.708   5.656
 2501SOL    HW210323   0.398   4.721   5.712
 2501SOL    HW310324   0.439   4.672   5.575
 2501SOL    MW410325   0.461   4.704   5.653
 2502SOL     OW10326   1.128   4.681   5.899
 2502SOL    HW210327   1.038   4.702   5.874
 2502SOL    HW310328   1.155   4.754   5.955
 2502SOL    MW410329   1.120   4.693   5.902
 2503SOL     OW10330   0.628   5.030   6.591
 2503SOL    HW210331   0.621   5.009   6.685
 2503SOL    HW310332   0.546   4.998   6.554
 2503SOL    MW410333   0.616   5.024   6.598
 2504SOL     OW10334   1.492   4.040   6.993
 2504SOL    HW210335   1.439   4.042   7.073
 2504SOL    HW310336   1.477   3.953   6.956
 2504SOL    MW410337   1.484   4.030   6.998
 2505SOL     OW10338   1.828   3.964   6.866
 2505SOL    HW210339   1.809   4.031   6.801
 2505SOL    HW310340   1.885   3.902   6.821
 2505SOL    MW410341   1.832   3.965   6.852
 2506SOL     OW10342   0.074   5.122   7.254
 2506SOL    HW210343   0.118   5.055   7.200
 2506SOL    HW310344  -0.011   5.084   7.274
 2506SOL    MW410345   0.069   5.108   7.250
 2507SOL     OW10346   0.757   3.797   6.306
 2507SOL    HW210347   0.686   3.858   6.288
 2507SOL    HW310348   0.808   3.794   6.225
 2507SOL    MW410349   0.753   3.803   6.293
 2508SOL     OW10350   0.515   5.037   6.055
 2508SOL    HW210351   0.508   5.069   6.145
 2508SOL    HW310352   0.425   5.021   6.027
 2508SOL    MW410353   0.503   5.039   6.062
 2509SOL     OW10354   1.110   5.430   6.964
 2509SOL    HW210355   1.030   5.415   6.914
 2509SOL    HW310356   1.117   5.525   6.971
 2509SOL    MW410357   1.101   5.441   6.958
 2510SOL     OW10358   1.224   5.395   6.454
 2510SOL    HW210359   1.271   5.468   6.413
 2510SOL    HW310360   1.145   5.434   6.490
 2510SOL    MW410361   1.219   5.410   6.453
 2511SOL     OW10362   1.632   5.490   6.729
 2511SOL    HW210363   1.675   5.460   6.809
 2511SOL    HW310364   1.551   5.438   6.726
 2511SOL    MW410365   1.627   5.479   6.739
 2512SOL     OW10366   0.717   4.454   7.436
 2512SOL    HW210367   0.787   4.396   7.408
 2512SOL    HW310368   0.660   4.399   7.491
 2512SOL    MW410369   0.719   4.441   7.440
 2513SOL     OW10370   1.504   4.666   7.069
 2513SOL    HW210371   1.509   4.719   7.149
 2513SOL    HW310372   1.466   4.583   7.097
 2513SOL    MW410373   1.500   4.661   7.084
 2514SOL     OW10374   1.144   3.801   7.315
 2514SOL    HW210375   1.139   3.708   7.296
 2514SOL    HW310376   1.227   3.812   7.361
 2514SOL    MW410377   1.152   3.790   7.319
 2515SOL     OW10378   0.518   4.321   5.769
 2515SOL    HW210379   0.484   4.377   5.839
 2515SOL    HW310380   0.589   4.271   5.809
 2515SOL    MW410381   0.524   4.322   5.783
 2516SOL     OW10382   1.614   5.072   6.591
 2516SOL    HW210383   1.649   5.054   6.504
 2516SOL    HW310384   1.519   5.073   6.578
 2516SOL    MW410385   1.606   5.069   6.578
 2517SOL     OW10386   1.043   4.720   6.960
 2517SOL    HW210387   1.086   4.755   7.038
 2517SOL    HW310388   1.026   4.797   6.906
 2517SOL    MW410389   1.046   4.735   6.963
 2518SOL     OW10390   1.574   4.207   5.833
 2518SOL    HW210391   1.566   4.278   5.770
 2518SOL    HW310392   1.592   4.251   5.916
 2518SOL    MW410393   1.575   4.221   5.835
 2519SOL     OW10394   0.434   3.862   6.262
 2519SOL    HW210395   0.484   3.905   6.193
 2519SOL    HW310396   0.349   3.906   6.262
 2519SOL    MW410397   0.431   3.875   6.253
 2520SOL     OW10398   0.193   4.924   7.122
 2520SOL    HW210399   0.221   4.877   7.200
 2520SOL    HW310400   0.114   4.879   7.093
 2520SOL    MW410401   0.186   4.913   7.128
 2521SOL     OW10402   0.701   4.251   7.089
 2521SOL    HW210403   0.673   4.339   7.113
 2521SOL    HW310404   0.670   4.195   7.160
 2521SOL    MW410405   0.693   4.254   7.101
 2522SOL     OW10406   1.243   4.469   5.808
 2522SOL    HW210407   1.290   4.487   5.727
 2522SOL    HW310408   1.209   4.553   5.836
 2522SOL    MW410409   1.245   4.483   5.801
 2523SOL     OW10410   0.356   4.647   6.302
 2523SOL    HW210411   0.414   4.703   6.250
 2523SOL    HW310412   0.400   4.562   6.304
 2523SOL    MW410413   0.369   4.644   6.295
 2524SOL     OW10414   1.496   3.999   6.139
 2524SOL    HW210415   1.418   3.949   6.164
 2524SOL    HW310416   1.467   4.090   6.139
 2524SOL    MW410417   1.482   4.003   6.142
 2525SOL     OW10418   1.082   3.961   6.298
 2525SOL    HW210419   1.102   4.036   6.242
 2525SOL    HW310420   1.062   4.000   6.383
 2525SOL    MW410421   1.083   3.977   6.302
 2526SOL     OW10422   0.978   5.211   5.630
 2526SOL    HW210423   1.005   5.289   5.582
 2526SOL    HW310424   0.885   5.226   5.649
 2526SOL    MW410425   0.969   5.224   5.626
 2527SOL     OW10426   1.842   4.734   7.317
 2527SOL    HW210427   1.755   4.714   7.353
 2527SOL    HW310428   1.896   4.660   7.342
 2527SOL    MW410429   1.837   4.723   7.325
 2528SOL     OW10430   0.063   5.247   6.474
 2528SOL    HW210431   0.095   5.251   6.565
 2528SOL    HW310432  -0.032   5.255   6.482
 2528SOL    MW410433   0.055   5.250   6.487
 2529SOL     OW10434   0.018   4.373   6.021
 2529SOL    HW210435  -0.042   4.345   6.091
 2529SOL    HW310436   0.092   4.313   6.027
 2529SOL    MW410437   0.020   4.362   6.030
 2530SOL     OW10438   1.586   5.585   7.455
 2530SOL    HW210439   1.631   5.509   7.420
 2530SOL    HW310440   1.624   5.598   7.542
 2530SOL    MW410441   1.596   5.578   7.461
 2531SOL     OW10442   1.186   5.104   6.181
 2531SOL    HW210443   1.209   5.055   6.259
 2531SOL    HW310444   1.267   5.146   6.153
 2531SOL    MW410445   1.199   5.104   6.188
 2532SOL     OW10446   0.444   4.112   6.910
 2532SOL    HW210447   0.477   4.193   6.950
 2532SOL    HW310448   0.417   4.138   6.822
 2532SOL    MW410449   0.443   4.126   6.904
 2533SOL     OW10450   0.398   4.079   6.646
 2533SOL    HW210451   0.428   3.993   6.617
 2533SOL    HW310452   0.303   4.072   6.649
 2533SOL    MW410453   0.390   4.068   6.644
 2534SOL     OW10454   1.227   4.288   7.337
 2534SOL    HW210455   1.279   4.223   7.290
 2534SOL    HW310456   1.185   4.339   7.267
 2534SOL    MW410457   1.228   4.285   7.320
 2535SOL     OW10458   1.326   4.083   7.198
 2535SOL    HW210459   1.233   4.067   7.185
 2535SOL    HW310460   1.352   4.021   7.266
 2535SOL    MW410461   1.316   4.073   7.205
 2536SOL     OW10462   0.541   3.857   6.537
 2536SOL    HW210463   0.551   3.766   6.563
 2536SOL    HW310464   0.497   3.853   6.452
 2536SOL    MW410465   0.537   3.845   6.529
 2537SOL     OW10466   0.635   5.472   7.083
 2537SOL    HW210467   0.552   5.457   7.128
 2537SOL    HW310468   0.694   5.405   7.118
 2537SOL    MW410469   0.633   5.462   7.093
 2538SOL     OW10470   1.692   4.179   6.708
 2538SOL    HW210471   1.625   4.212   6.768
 2538SOL    HW310472   1.735   4.257   6.674
 2538SOL    MW410473   1.690   4.194   6.712
 2539SOL     OW10474   1.870   4.899   6.678
 2539SOL    HW210475   1.863   4.839   6.603
 2539SOL    HW310476   1.796   4.959   6.667
 2539SOL    MW410477   1.860   4.899   6.667
 2540SOL     OW10478   1.252   4.761   6.596
 2540SOL    HW210479   1.266   4.733   6.687
 2540SOL    HW310480   1.338   4.792   6.568
 2540SOL    MW410481   1.265   4.762   6.605
 2541SOL     OW10482   1.335   4.256   6.875
 2541SOL    HW210483   1.356   4.257   6.782
 2541SOL    HW310484   1.380   4.178   6.908
 2541SOL    MW410485   1.342   4.246   6.867
 2542SOL     OW10486   1.828   4.387   7.417
 2542SOL    HW210487   1.865   4.332   7.486
 2542SOL    HW310488   1.853   4.344   7.335
 2542SOL    MW410489   1.835   4.375   7.416
 2543SOL     OW10490   1.375   4.685   7.468
 2543SOL    HW210491   1.441   4.633   7.422
 2543SOL    HW310492   1.395   4.672   7.561
 2543SOL    MW410493   1.386   4.676   7.475
 2544SOL     OW10494   1.326   3.771   5.817
 2544SOL    HW210495   1.400   3.815   5.860
 2544SOL    HW310496   1.250   3.825   5.839
 2544SOL    MW410497   1.326   3.783   5.825
 2545SOL     OW10498   1.386   4.546   6.095
 2545SOL    HW210499   1.301   4.516   6.065
 2545SOL    HW310500   1.378   4.553   6.190
 2545SOL    MW410501   1.374   4.544   6.104
 2546SOL     OW10502   0.462   5.009   6.826
 2546SOL    HW210503   0.474   5.036   6.917
 2546SOL    HW310504   0.443   5.090   6.779
 2546SOL    MW410505   0.461   5.024   6.831
 2547SOL     OW10506   0.746   3.989   6.649
 2547SOL    HW210507   0.719   3.991   6.740
 2547SOL    HW310508   0.676   3.941   6.604
 2547SOL    MW410509   0.734   3.985   6.656
 2548SOL     OW10510   0.600   5.481   6.811
 2548SOL    HW210511   0.652   5.558   6.788
 2548SOL    HW310512   0.609   5.473   6.906
 2548SOL    MW410513   0.609   5.488   6.822
 2549SOL     OW10514   1.502   5.066   7.043
 2549SOL    HW210515   1.487   4.995   7.106
 2549SOL    HW310516   1.548   5.024   6.971
 2549SOL    MW410517   1.508   5.050   7.043
 2550SOL     OW10518   0.576   4.797   7.160
 2550SOL    HW210519   0.613   4.802   7.072
 2550SOL    HW310520   0.615   4.870   7.207
 2550SOL    MW410521   0.586   4.807   7.155
 2551SOL     OW10522   0.756   4.840   6.972
 2551SOL    HW210523   0.815   4.786   7.025
 2551SOL    HW310524   0.771   4.812   6.882
 2551SOL    MW410525   0.766   4.829   6.968
 2552SOL     OW10526   0.759   4.212   5.821
 2552SOL    HW210527   0.832   4.261   5.784
 2552SOL    HW310528   0.775   4.121   5.795
 2552SOL    MW410529   0.771   4.207   5.814
 2553SOL     OW10530   1.567   5.329   7.144
 2553SOL    HW210531   1.609   5.314   7.229
 2553SOL    HW310532   1.558   5.242   7.106
 2553SOL    MW410533   1.571   5.317   7.151
 2554SOL     OW10534   1.227   3.808   6.735
 2554SOL    HW210535   1.282   3.817   6.657
 2554SOL    HW310536   1.282   3.842   6.806
 2554SOL    MW410537   1.241   3.813   6.734
 2555SOL     OW10538   0.234   4.721   5.919
 2555SOL    HW210539   0.171   4.737   5.848
 2555SOL    HW310540   0.181   4.684   5.990
 2555SOL    MW410541   0.219   4.718   5.919
 2556SOL     OW10542   0.590   5.075   5.778
 2556SOL    HW210543   0.605   5.051   5.870
 2556SOL    HW310544   0.498   5.053   5.762
 2556SOL    MW410545   0.580   5.068   5.788
 2557SOL     OW10546   1.129   5.306   5.930
 2557SOL    HW210547   1.137   5.224   5.881
 2557SOL    HW310548   1.048   5.345   5.897
 2557SOL    MW410549   1.119   5.301   5.920
 2558SOL     OW10550   0.388   5.464   6.499
 2558SOL    HW210551   0.392   5.375   6.534
 2558SOL    HW310552   0.414   5.455   6.408
 2558SOL    MW410553   0.391   5.452   6.491
 2559SOL     OW10554   1.005   4.942   6.742
 2559SOL    HW210555   0.937   4.876   6.758
 2559SOL    HW310556   1.023   4.936   6.649
 2559SOL    MW410557   0.998   4.933   6.733
 2560SOL     OW10558   0.094   5.217   6.993
 2560SOL    HW210559   0.084   5.175   7.079
 2560SOL    HW310560   0.015   5.270   6.983
 2560SOL    MW410561   0.083   5.218   7.004
 2561SOL     OW10562   0.998   4.081   6.563
 2561SOL    HW210563   0.928   4.033   6.608
 2561SOL    HW310564   1.030   4.144   6.627
 2561SOL    MW410565   0.993   4.083   6.577
 2562SOL     OW10566   0.649   4.517   7.183
 2562SOL    HW210567   0.642   4.612   7.171
 2562SOL    HW310568   0.658   4.506   7.278
 2562SOL    MW410569   0.650   4.529   7.193
 2563SOL     OW10570   0.370   5.032   7.441
 2563SOL    HW210571   0.442   5.034   7.378
 2563SOL    HW310572   0.340   4.941   7.440
 2563SOL    MW410573   0.375   5.021   7.433
 2564SOL     OW10574   1.454   3.795   6.908
 2564SOL    HW210575   1.525   3.741   6.872
 2564SOL    HW310576   1.453   3.774   7.001
 2564SOL    MW410577   1.463   3.786   6.916
 2565SOL     OW10578   1.654   5.325   7.392
 2565SOL    HW210579   1.627   5.322   7.483
 2565SOL    HW310580   1.750   5.329   7.395
 2565SOL    MW410581   1.664   5.325   7.404
 2566SOL     OW10582   0.465   4.187   6.376
 2566SOL    HW210583   0.536   4.135   6.339
 2566SOL    HW310584   0.451   4.152   6.463
 2566SOL    MW410585   0.473   4.176   6.383
 2567SOL     OW10586   0.020   5.522   7.448
 2567SOL    HW210587   0.070   5.500   7.370
 2567SOL    HW310588   0.028   5.617   7.456
 2567SOL    MW410589   0.028   5.531   7.439
 2568SOL     OW10590   0.781   5.280   6.452
 2568SOL    HW210591   0.709   5.217   6.465
 2568SOL    HW310592   0.742   5.365   6.470
 2568SOL    MW410593   0.765   5.283   6.455
 2569SOL     OW10594   1.101   4.128   6.100
 2569SOL    HW210595   1.123   4.065   6.032
 2569SOL    HW310596   1.006   4.120   6.111
 2569SOL    MW410597   1.091   4.119   6.092
 2570SOL     OW10598   0.186   3.818   6.032
 2570SOL    HW210599   0.257   3.839   5.971
 2570SOL    HW310600   0.140   3.746   5.990
 2570SOL    MW410601   0.190   3.812   6.018
 2571SOL     OW10602   0.017   4.285   7.175
 2571SOL    HW210603   0.081   4.351   7.150
 2571SOL    HW310604  -0.064   4.312   7.132
 2571SOL    MW410605   0.015   4.297   7.167
 2572SOL     OW10606   1.755   5.192   6.132
 2572SOL    HW210607   1.725   5.125   6.193
 2572SOL    HW310608   1.849   5.198   6.146
 2572SOL    MW410609   1.763   5.184   6.142
 2573SOL     OW10610   1.311   4.869   6.062
 2573SOL    HW210611   1.283   4.955   6.095
 2573SOL    HW310612   1.339   4.885   5.972
 2573SOL    MW410613   1.311   4.883   6.054
 2574SOL     OW10614   0.973   3.789   6.115
 2574SOL    HW210615   1.010   3.848   6.180
 2574SOL    HW310616   0.950   3.845   6.041
 2574SOL    MW410617   0.974   3.804   6.114
 2575SOL     OW10618   1.826   4.671   6.537
 2575SOL    HW210619   1.817   4.703   6.448
 2575SOL    HW310620   1.779   4.587   6.537
 2575SOL    MW410621   1.819   4.664   6.527
 2576SOL     OW10622   0.202   4.511   7.116
 2576SOL    HW210623   0.223   4.580   7.054
 2576SOL    HW310624   0.282   4.458   7.121
 2576SOL    MW410625   0.215   4.512   7.110
 2577SOL     OW10626   1.738   4.602   6.238
 2577SOL    HW210627   1.832   4.591   6.226
 2577SOL    HW310628   1.714   4.674   6.179
 2577SOL    MW410629   1.748   4.610   6.229
 2578SOL     OW10630   0.187   4.526   7.383
 2578SOL    HW210631   0.113   4.470   7.409
 2578SOL    HW310632   0.182   4.529   7.288
 2578SOL    MW410633   0.176   4.519   7.373
 2579SOL     OW10634   0.353   3.813   6.833
 2579SOL    HW210635   0.396   3.897   6.853
 2579SOL    HW310636   0.426   3.751   6.826
 2579SOL    MW410637   0.368   3.816   6.834
 2580SOL     OW10638   0.394   4.480   6.011
 2580SOL    HW210639   0.394   4.575   5.996
 2580SOL    HW310640   0.471   4.464   6.065
 2580SOL    MW410641   0.404   4.491   6.016
 2581SOL     OW10642   1.170   4.339   7.075
 2581SOL    HW210643   1.206   4.312   6.991
 2581SOL    HW310644   1.083   4.373   7.054
 2581SOL    MW410645   1.164   4.340   7.062
 2582SOL     OW10646   0.153   4.211   6.300
 2582SOL    HW210647   0.215   4.218   6.373
 2582SOL    HW310648   0.153   4.118   6.277
 2582SOL    MW410649   0.161   4.200   6.307
 2583SOL     OW10650   1.700   5.551   5.832
 2583SOL    HW210651   1.767   5.584   5.772
 2583SOL    HW310652   1.657   5.630   5.866
 2583SOL    MW410653   1.702   5.566   5.828
 2584SOL     OW10654   0.835   4.472   6.784
 2584SOL    HW210655   0.793   4.390   6.760
 2584SOL    HW310656   0.836   4.471   6.880
 2584SOL    MW410657   0.828   4.461   6.793
 2585SOL     OW10658   1.506   5.605   7.183
 2585SOL    HW210659   1.509   5.511   7.166
 2585SOL    HW310660   1.529   5.613   7.275
 2585SOL    MW410661   1.509   5.593   7.193
 2586SOL     OW10662   0.639   3.942   6.889
 2586SOL    HW210663   0.570   4.005   6.910
 2586SOL    HW310664   0.666   3.906   6.974
 2586SOL    MW410665   0.633   3.945   6.902
 2587SOL     OW10666   0.022   4.783   5.758
 2587SOL    HW210667  -0.009   4.848   5.821
 2587SOL    HW310668  -0.029   4.705   5.777
 2587SOL    MW410669   0.012   4.780   5.768
 2588SOL     OW10670   1.434   3.795   6.506
 2588SOL    HW210671   1.522   3.804   6.543
 2588SOL    HW310672   1.444   3.736   6.432
 2588SOL    MW410673   1.448   3.789   6.500
 2589SOL     OW10674   1.466   4.534   6.350
 2589SOL    HW210675   1.546   4.549   6.299
 2589SOL    HW310676   1.459   4.439   6.356
 2589SOL    MW410677   1.475   4.523   6.345
 2590SOL     OW10678   0.606   5.583   5.700
 2590SOL    HW210679   0.511   5.583   5.692
 2590SOL    HW310680   0.622   5.529   5.778
 2590SOL    MW410681   0.596   5.577   5.709
 2591SOL     OW10682   0.916   4.460   7.047
 2591SOL    HW210683   0.985   4.527   7.044
 2591SOL    HW310684   0.849   4.498   7.103
 2591SOL    MW410685   0.917   4.473   7.054
 2592SOL     OW10686   0.334   4.760   7.295
 2592SOL    HW210687   0.288   4.676   7.297
 2592SOL    HW310688   0.391   4.754   7.219
 2592SOL    MW410689   0.336   4.748   7.287
 2593SOL     OW10690   1.451   4.403   5.615
 2593SOL    HW210691   1.379   4.379   5.557
 2593SOL    HW310692   1.517   4.440   5.557
 2593SOL    MW410693   1.450   4.405   5.600
 2594SOL     OW10694   0.585   5.135   6.296
 2594SOL    HW210695   0.650   5.068   6.317
 2594SOL    HW310696   0.637   5.212   6.273
 2594SOL    MW410697   0.600   5.137   6.295
 2595SOL     OW10698   0.846   4.300   6.426
 2595SOL    HW210699   0.786   4.318   6.498
 2595SOL    HW310700   0.880   4.212   6.445
 2595SOL    MW410701   0.842   4.290   6.439
 2596SOL     OW10702   1.787   3.799   7.095
 2596SOL    HW210703   1.708   3.845   7.123
 2596SOL    HW310704   1.822   3.853   7.024
 2596SOL    MW410705   1.781   3.812   7.089
 2597SOL     OW10706   1.071   4.883   6.445
 2597SOL    HW210707   1.163   4.864   6.463
 2597SOL    HW310708   1.044   4.813   6.385
 2597SOL    MW410709   1.079   4.871   6.439
 2598SOL     OW10710   0.864   4.703   5.800
 2598SOL    HW210711   0.850   4.615   5.765
 2598SOL    HW310712   0.815   4.760   5.741
 2598SOL    MW410713   0.856   4.698   5.788
 2599SOL     OW10714   1.345   5.121   6.541
 2599SOL    HW210715   1.318   5.205   6.506
 2599SOL    HW310716   1.305   5.116   6.628
 2599SOL    MW410717   1.338   5.130   6.547
 2600SOL     OW10718   1.264   5.069   6.809
 2600SOL    HW210719   1.275   5.036   6.898
 2600SOL    HW310720   1.183   5.028   6.778
 2600SOL    MW410721   1.254   5.061   6.815
 2601SOL     OW10722   0.277   4.427   6.579
 2601SOL    HW210723   0.227   4.426   6.660
 2601SOL    HW310724   0.297   4.519   6.563
 2601SOL    MW410725   0.273   4.439   6.587
 2602SOL     OW10726   1.344   5.191   7.341
 2602SOL    HW210727   1.344   5.285   7.357
 2602SOL    HW310728   1.389   5.181   7.257
 2602SOL    MW410729   1.350   5.201   7.332
 2603SOL     OW10730   1.583   3.909   5.902
 2603SOL    HW210731   1.576   3.913   5.997
 2603SOL    HW310732   1.595   4.000   5.875
 2603SOL    MW410733   1.584   3.922   5.910
 2604SOL     OW10734   0.872   4.472   6.016
 2604SOL    HW210735   0.852   4.458   5.923
 2604SOL    HW310736   0.965   4.451   6.023
 2604SOL    MW410737   0.882   4.467   6.005
 2605SOL     OW10738   0.199   4.095   7.320
 2605SOL    HW210739   0.156   4.154   7.257
 2605SOL    HW310740   0.267   4.150   7.360
 2605SOL    MW410741   0.203   4.110   7.317
 2606SOL     OW10742   1.311   4.715   6.865
 2606SOL    HW210743   1.374   4.712   6.938
 2606SOL    HW310744   1.227   4.733   6.907
 2606SOL    MW410745   1.307   4.717   6.880
 2607SOL     OW10746   0.855   5.430   6.054
 2607SOL    HW210747   0.913   5.501   6.081
 2607SOL    HW310748   0.878   5.358   6.112
 2607SOL    MW410749   0.866   5.430   6.065
 2608SOL     OW10750   1.650   3.892   6.644
 2608SOL    HW210751   1.695   3.810   6.663
 2608SOL    HW310752   1.670   3.948   6.720
 2608SOL    MW410753   1.660   3.888   6.656
 2609SOL     OW10754   0.098   3.735   6.743
 2609SOL    HW210755   0.089   3.736   6.648
 2609SOL    HW310756   0.192   3.747   6.758
 2609SOL    MW410757   0.110   3.738   6.734
 2610SOL     OW10758   1.735   4.928   6.363
 2610SOL    HW210759   1.714   4.874   6.286
 2610SOL    HW310760   1.831   4.926   6.367
 2610SOL    MW410761   1.744   4.921   6.352
 2611SOL     OW10762   0.427   5.073   7.106
 2611SOL    HW210763   0.348   5.023   7.129
 2611SOL    HW310764   0.497   5.032   7.156
 2611SOL    MW410765   0.425   5.061   7.116
 2612SOL     OW10766   0.311   3.862   5.789
 2612SOL    HW210767   0.240   3.917   5.757
 2612SOL    HW310768   0.353   3.828   5.710
 2612SOL    MW410769   0.307   3.864   5.775
 2613SOL     OW10770   1.435   4.359   6.625
 2613SOL    HW210771   1.358   4.405   6.591
 2613SOL    HW310772   1.492   4.428   6.659
 2613SOL    MW410773   1.432   4.374   6.625
 2614SOL     OW10774   0.067   3.961   5.638
 2614SOL    HW210775   0.034   4.040   5.682
 2614SOL    HW310776   0.122   3.994   5.567
 2614SOL    MW410777   0.070   3.975   5.635
 2615SOL     OW10778   0.101   5.218   5.827
 2615SOL    HW210779   0.118   5.302   5.869
 2615SOL    HW310780   0.136   5.227   5.739
 2615SOL    MW410781   0.106   5.231   5.821
 2616SOL     OW10782   1.373   5.307   6.044
 2616SOL    HW210783   1.436   5.297   5.973
 2616SOL    HW310784   1.290   5.327   5.999
 2616SOL    MW410785   1.370   5.308   6.029
 2617SOL     OW10786   1.736   6.444   0.257
 2617SOL    HW210787   1.777   6.386   0.322
 2617SOL    HW310788   1.643   6.436   0.274
 2617SOL    MW410789   1.730   6.436   0.267
 2618SOL     OW10790   1.602   6.376   1.252
 2618SOL    HW210791   1.557   6.443   1.303
 2618SOL    HW310792   1.690   6.412   1.238
 2618SOL    MW410793   1.608   6.389   1.256
 2619SOL     OW10794   0.530   6.627   0.486
 2619SOL    HW210795   0.620   6.602   0.470
 2619SOL    HW310796   0.526   6.720   0.463
 2619SOL    MW410797   0.542   6.636   0.481
 2620SOL     OW10798   1.646   7.330   0.628
 2620SOL    HW210799   1.658   7.276   0.706
 2620SOL    HW310800   1.683   7.278   0.557
 2620SOL    MW410801   1.652   7.315   0.629
 2621SOL     OW10802   1.025   7.215   1.629
 2621SOL    HW210803   1.066   7.251   1.550
 2621SOL    HW310804   1.060   7.126   1.636
 2621SOL    MW410805   1.036   7.208   1.620
 2622SOL     OW10806   1.582   6.770   1.233
 2622SOL    HW210807   1.503   6.735   1.191
 2622SOL    HW310808   1.609   6.842   1.177
 2622SOL    MW410809   1.575   6.775   1.220
 2623SOL     OW10810   0.814   6.083   0.499
 2623SOL    HW210811   0.789   6.171   0.527
 2623SOL    HW310812   0.811   6.086   0.403
 2623SOL    MW410813   0.810   6.095   0.491
 2624SOL     OW10814   0.256   6.111   0.427
 2624SOL    HW210815   0.288   6.199   0.409
 2624SOL    HW310816   0.244   6.109   0.522
 2624SOL    MW410817   0.259   6.123   0.439
 2625SOL     OW10818   0.334   6.524   1.328
 2625SOL    HW210819   0.397   6.471   1.279
 2625SOL    HW310820   0.315   6.598   1.271
 2625SOL    MW410821   0.340   6.526   1.315
 2626SOL     OW10822   0.655   5.866   0.514
 2626SOL    HW210823   0.713   5.942   0.516
 2626SOL    HW310824   0.590   5.887   0.447
 2626SOL    MW410825   0.654   5.878   0.505
 2627SOL     OW10826   0.742   6.793   0.689
 2627SOL    HW210827   0.822   6.796   0.741
 2627SOL    HW310828   0.770   6.760   0.603
 2627SOL    MW410829   0.756   6.789   0.684
 2628SOL     OW10830   0.767   7.134   1.592
 2628SOL    HW210831   0.851   7.160   1.631
 2628SOL    HW310832   0.791   7.078   1.518
 2628SOL    MW410833   0.781   7.130   1.587
 2629SOL     OW10834   0.519   6.297   0.680
 2629SOL    HW210835   0.504   6.217   0.731
 2629SOL    HW310836   0.601   6.332   0.714
 2629SOL    MW410837   0.527   6.289   0.692
 2630SOL     OW10838   0.856   6.983   1.365
 2630SOL    HW210839   0.820   7.049   1.305
 2630SOL    HW310840   0.784   6.921   1.378
 2630SOL    MW410841   0.842   6.983   1.359
 2631SOL     OW10842   0.661   6.123   1.057
 2631SOL    HW210843   0.567   6.119   1.075
 2631SOL    HW310844   0.691   6.032   1.066
 2631SOL    MW410845   0.652   6.111   1.060
 2632SOL     OW10846   0.407   6.537   0.961
 2632SOL    HW210847   0.362   6.544   0.877
 2632SOL    HW310848   0.387   6.620   1.005
 2632SOL    MW410849   0.399   6.549   0.955
 2633SOL     OW10850   0.104   7.383   0.836
 2633SOL    HW210851   0.193   7.375   0.871
 2633SOL    HW310852   0.068   7.295   0.841
 2633SOL    MW410853   0.111   7.370   0.841
 2634SOL     OW10854   1.369   6.775   0.205
 2634SOL    HW210855   1.287   6.811   0.171
 2634SOL    HW310856   1.437   6.818   0.154
 2634SOL    MW410857   1.367   6.785   0.193
 2635SOL     OW10858   0.368   6.910   0.871
 2635SOL    HW210859   0.344   6.963   0.947
 2635SOL    HW310860   0.424   6.968   0.819
 2635SOL    MW410861   0.372   6.925   0.874
 2636SOL     OW10862   0.930   6.554   0.681
 2636SOL    HW210863   0.844   6.541   0.721
 2636SOL    HW310864   0.983   6.481   0.713
 2636SOL    MW410865   0.926   6.543   0.690
 2637SOL     OW10866   0.338   7.206   1.466
 2637SOL    HW210867   0.246   7.182   1.451
 2637SOL    HW310868   0.382   7.123   1.483
 2637SOL    MW410869   0.332   7.191   1.465
 2638SOL     OW10870   0.921   6.916   0.398
 2638SOL    HW210871   0.898   6.978   0.466
 2638SOL    HW310872   0.878   6.834   0.424
 2638SOL    MW410873   0.913   6.912   0.409
 2639SOL     OW10874   1.794   5.917   0.854
 2639SOL    HW210875   1.731   5.897   0.923
 2639SOL    HW310876   1.784   5.846   0.791
 2639SOL    MW410877   1.784   5.904   0.855
 2640SOL     OW10878   0.418   5.889   0.366
 2640SOL    HW210879   0.392   5.851   0.282
 2640SOL    HW310880   0.355   5.959   0.382
 2640SOL    MW410881   0.407   5.892   0.357
 2641SOL     OW10882   0.253   6.850   0.403
 2641SOL    HW210883   0.201   6.918   0.359
 2641SOL    HW310884   0.250   6.776   0.343
 2641SOL    MW410885   0.245   6.849   0.390
 2642SOL     OW10886   0.915   7.313   0.181
 2642SOL    HW210887   0.870   7.329   0.264
 2642SOL    HW310888   0.846   7.278   0.123
 2642SOL    MW410889   0.901   7.310   0.183
 2643SOL     OW10890   1.850   6.086   0.156
 2643SOL    HW210891   1.759   6.088   0.184
 2643SOL    HW310892   1.895   6.148   0.214
 2643SOL    MW410893   1.843   6.094   0.166
 2644SOL     OW10894   1.595   6.689   0.506
 2644SOL    HW210895   1.505   6.689   0.541
 2644SOL    HW310896   1.588   6.735   0.423
 2644SOL    MW410897   1.582   6.695   0.500
 2645SOL     OW10898   1.395   6.324   1.578
 2645SOL    HW210899   1.464   6.262   1.555
 2645SOL    HW310900   1.320   6.298   1.525
 2645SOL    MW410901   1.395   6.311   1.569
 2646SOL     OW10902   0.136   7.204   1.130
 2646SOL    HW210903   0.119   7.150   1.207
 2646SOL    HW310904   0.124   7.294   1.160
 2646SOL    MW410905   0.133   7.208   1.144
 2647SOL     OW10906   1.131   6.711   1.570
 2647SOL    HW210907   1.116   6.804   1.555
 2647SOL    HW310908   1.226   6.701   1.570
 2647SOL    MW410909   1.140   6.721   1.567
 2648SOL     OW10910   0.927   6.135   1.771
 2648SOL    HW210911   1.017   6.136   1.738
 2648SOL    HW310912   0.886   6.060   1.729
 2648SOL    MW410913   0.933   6.125   1.762
 2649SOL     OW10914   1.502   6.667   0.898
 2649SOL    HW210915   1.505   6.601   0.829
 2649SOL    HW310916   1.587   6.710   0.894
 2649SOL    MW410917   1.514   6.663   0.889
 2650SOL     OW10918   1.122   6.270   0.467
 2650SOL    HW210919   1.148   6.294   0.378
 2650SOL    HW310920   1.104   6.177   0.463
 2650SOL    MW410921   1.124   6.262   0.454
 2651SOL     OW10922   1.787   6.890   0.318
 2651SOL    HW210923   1.743   6.931   0.393
 2651SOL    HW310924   1.844   6.958   0.283
 2651SOL    MW410925   1.789   6.904   0.323
 2652SOL     OW10926   0.707   5.939   1.721
 2652SOL    HW210927   0.717   5.865   1.661
 2652SOL    HW310928   0.743   5.908   1.804
 2652SOL    MW410929   0.713   5.925   1.723
 2653SOL     OW10930   0.443   7.306   0.636
 2653SOL    HW210931   0.475   7.394   0.614
 2653SOL    HW310932   0.396   7.278   0.558
 2653SOL    MW410933   0.442   7.314   0.623
 2654SOL     OW10934   1.827   5.668   0.685
 2654SOL    HW210935   1.881   5.619   0.747
 2654SOL    HW310936   1.770   5.602   0.646
 2654SOL    MW410937   1.827   5.652   0.687
 2655SOL     OW10938   0.159   7.366   0.213
 2655SOL    HW210939   0.188   7.456   0.205
 2655SOL    HW310940   0.109   7.349   0.134
 2655SOL    MW410941   0.157   7.374   0.202
 2656SOL     OW10942   0.946   5.621   1.098
 2656SOL    HW210943   0.905   5.699   1.060
 2656SOL    HW310944   1.040   5.639   1.093
 2656SOL    MW410945   0.952   5.633   1.093
 2657SOL     OW10946   1.563   7.174   0.184
 2657SOL    HW210947   1.611   7.243   0.230
 2657SOL    HW310948   1.484   7.218   0.153
 2657SOL    MW410949   1.558   7.188   0.187
 2658SOL     OW10950   0.961   6.299   0.128
 2658SOL    HW210951   0.963   6.246   0.049
 2658SOL    HW310952   1.049   6.336   0.134
 2658SOL    MW410953   0.973   6.298   0.117
 2659SOL     OW10954   1.575   6.225   0.464
 2659SOL    HW210955   1.614   6.225   0.551
 2659SOL    HW310956   1.516   6.301   0.464
 2659SOL    MW410957   1.572   6.236   0.475
 2660SOL     OW10958   0.892   6.592   1.593
 2660SOL    HW210959   0.869   6.572   1.683
 2660SOL    HW310960   0.977   6.636   1.598
 2660SOL    MW410961   0.899   6.595   1.605
 2661SOL     OW10962   0.972   5.729   1.353
 2661SOL    HW210963   0.978   5.691   1.266
 2661SOL    HW310964   0.961   5.823   1.338
 2661SOL    MW410965   0.973   5.737   1.341
 2662SOL     OW10966   1.061   6.218   1.187
 2662SOL    HW210967   1.136   6.247   1.134
 2662SOL    HW310968   0.993   6.283   1.171
 2662SOL    MW410969   1.062   6.230   1.177
 2663SOL     OW10970   1.611   6.186   1.464
 2663SOL    HW210971   1.592   6.095   1.443
 2663SOL    HW310972   1.589   6.235   1.385
 2663SOL    MW410973   1.606   6.179   1.451
 2664SOL     OW10974   1.753   7.280   1.368
 2664SOL    HW210975   1.681   7.242   1.419
 2664SOL    HW310976   1.770   7.365   1.409
 2664SOL    MW410977   1.747   7.285   1.380
 2665SOL     OW10978   1.058   5.924   1.570
 2665SOL    HW210979   1.024   5.963   1.489
 2665SOL    HW310980   1.036   5.832   1.563
 2665SOL    MW410981   1.051   5.917   1.560
 2666SOL     OW10982   1.467   6.738   1.646
 2666SOL    HW210983   1.549   6.779   1.676
 2666SOL    HW310984   1.430   6.700   1.726
 2666SOL    MW410985   1.473   6.739   1.661
 2667SOL     OW10986   1.762   6.111   0.630
 2667SOL    HW210987   1.851   6.080   0.647
 2667SOL    HW310988   1.705   6.051   0.678
 2667SOL    MW410989   1.765   6.099   0.639
 2668SOL     OW10990   0.188   5.825   0.659
 2668SOL    HW210991   0.179   5.765   0.585
 2668SOL    HW310992   0.121   5.796   0.722
 2668SOL    MW410993   0.178   5.812   0.657
 2669SOL     OW10994   1.131   6.918   0.220
 2669SOL    HW210995   1.081   6.920   0.302
 2669SOL    HW310996   1.065   6.936   0.152
 2669SOL    MW410997   1.117   6.920   0.222
 2670SOL     OW10998   0.135   5.998   1.022
 2670SOL    HW210999   0.107   6.089   1.031
 2670SOL    HW311000   0.072   5.959   0.961
 2670SOL    MW411001   0.122   6.004   1.016
 2671SOL     OW11002   0.594   7.336   0.328
 2671SOL    HW211003   0.515   7.294   0.361
 2671SOL    HW311004   0.660   7.319   0.395
 2671SOL    MW411005   0.593   7.328   0.341
 2672SOL     OW11006   1.722   6.856   1.725
 2672SOL    HW211007   1.772   6.782   1.757
 2672SOL    HW311008   1.668   6.883   1.800
 2672SOL    MW411009   1.722   6.850   1.738
 2673SOL     OW11010   0.730   6.751   0.035
 2673SOL    HW211011   0.652   6.697   0.022
 2673SOL    HW311012   0.701   6.824   0.088
 2673SOL    MW411013   0.716   6.753   0.040
 2674SOL     OW11014   1.856   6.491   1.227
 2674SOL    HW211015   1.872   6.529   1.140
 2674SOL    HW311016   1.890   6.557   1.288
 2674SOL    MW411017   1.863   6.504   1.223
 2675SOL     OW11018   1.648   7.200   0.896
 2675SOL    HW211019   1.677   7.267   0.957
 2675SOL    HW311020   1.629   7.124   0.951
 2675SOL    MW411021   1.650   7.200   0.911
 2676SOL     OW11022   1.311   7.267   0.103
 2676SOL    HW211023   1.237   7.230   0.153
 2676SOL    HW311024   1.319   7.357   0.136
 2676SOL    MW411025   1.302   7.274   0.115
 2677SOL     OW11026   0.119   6.273   1.192
 2677SOL    HW211027   0.181   6.303   1.258
 2677SOL    HW311028   0.053   6.342   1.186
 2677SOL    MW411029   0.118   6.286   1.199
 2678SOL     OW11030   1.535   6.941   0.045
 2678SOL    HW211031   1.482   6.990  -0.019
 2678SOL    HW311032   1.566   7.007   0.106
 2678SOL    MW411033   1.533   6.955   0.043
 2679SOL     OW11034   0.760   5.830   0.100
 2679SOL    HW211035   0.708   5.750   0.088
 2679SOL    HW311036   0.847   5.807   0.068
 2679SOL    MW411037   0.763   5.816   0.094
 2680SOL     OW11038   0.214   7.382   1.644
 2680SOL    HW211039   0.188   7.450   1.582
 2680SOL    HW311040   0.262   7.319   1.592
 2680SOL    MW411041   0.216   7.382   1.630
 2681SOL     OW11042   0.266   6.701   1.151
 2681SOL    HW211043   0.319   6.776   1.176
 2681SOL    HW311044   0.185   6.739   1.117
 2681SOL    MW411045   0.262   6.716   1.151
 2682SOL     OW11046   0.806   6.605   1.139
 2682SOL    HW211047   0.834   6.514   1.151
 2682SOL    HW311048   0.735   6.599   1.075
 2682SOL    MW411049   0.799   6.593   1.134
 2683SOL     OW11050   0.121   6.470   0.557
 2683SOL    HW211051   0.212   6.485   0.584
 2683SOL    HW311052   0.124   6.391   0.503
 2683SOL    MW411053   0.133   6.462   0.555
 2684SOL     OW11054   0.357   6.178   1.811
 2684SOL    HW211055   0.304   6.258   1.818
 2684SOL    HW311056   0.427   6.190   1.876
 2684SOL    MW411057   0.359   6.191   1.819
 2685SOL     OW11058   0.743   5.728   1.518
 2685SOL    HW211059   0.720   5.636   1.520
 2685SOL    HW311060   0.829   5.730   1.475
 2685SOL    MW411061   0.750   5.718   1.514
 2686SOL     OW11062   0.427   6.252   1.557
 2686SOL    HW211063   0.507   6.302   1.543
 2686SOL    HW311064   0.418   6.246   1.652
 2686SOL    MW411065   0.436   6.258   1.567
 2687SOL     OW11066   0.748   7.402   0.931
 2687SOL    HW211067   0.837   7.417   0.961
 2687SOL    HW311068   0.743   7.449   0.847
 2687SOL    MW411069   0.758   7.410   0.924
 2688SOL     OW11070   1.404   5.777   1.828
 2688SOL    HW211071   1.460   5.704   1.854
 2688SOL    HW311072   1.374   5.815   1.910
 2688SOL    MW411073   1.408   5.772   1.841
 2689SOL     OW11074   0.129   7.082   0.596
 2689SOL    HW211075   0.101   7.121   0.678
 2689SOL    HW311076   0.149   6.991   0.618
 2689SOL    MW411077   0.127   7.074   0.609
 2690SOL     OW11078   0.962   7.125   0.631
 2690SOL    HW211079   1.045   7.079   0.615
 2690SOL    HW311080   0.952   7.124   0.727
 2690SOL    MW411081   0.972   7.118   0.641
 2691SOL     OW11082   1.794   6.270   0.945
 2691SOL    HW211083   1.883   6.300   0.927
 2691SOL    HW311084   1.774   6.210   0.874
 2691SOL    MW411085   1.803   6.267   0.934
 2692SOL     OW11086   1.645   6.449   1.825
 2692SOL    HW211087   1.700   6.373   1.806
 2692SOL    HW311088   1.647   6.457   1.920
 2692SOL    MW411089   1.653   6.440   1.833
 2693SOL     OW11090   0.695   7.182   0.036
 2693SOL    HW211091   0.635   7.251   0.006
 2693SOL    HW311092   0.640   7.124   0.089
 2693SOL    MW411093   0.679   7.184   0.038
 2694SOL     OW11094   1.133   5.827   0.259
 2694SOL    HW211095   1.066   5.803   0.196
 2694SOL    HW311096   1.198   5.876   0.208
 2694SOL    MW411097   1.133   5.829   0.244
 2695SOL     OW11098   0.940   6.011   1.344
 2695SOL    HW211099   0.859   6.052   1.372
 2695SOL    HW311100   0.987   6.079   1.296
 2695SOL    MW411101   0.935   6.026   1.342
 2696SOL     OW11102   1.200   6.349   0.967
 2696SOL    HW211103   1.213   6.443   0.977
 2696SOL    HW311104   1.161   6.339   0.881
 2696SOL    MW411105   1.196   6.360   0.957
 2697SOL     OW11106   0.652   6.544   0.771
 2697SOL    HW211107   0.563   6.535   0.804
 2697SOL    HW311108   0.656   6.634   0.739
 2697SOL    MW411109   0.641   6.555   0.771
 2698SOL     OW11110   1.451   6.127   0.766
 2698SOL    HW211111   1.396   6.048   0.765
 2698SOL    HW311112   1.433   6.168   0.850
 2698SOL    MW411113   1.441   6.122   0.775
 2699SOL     OW11114   0.422   5.814   1.583
 2699SOL    HW211115   0.343   5.832   1.635
 2699SOL    HW311116   0.417   5.876   1.510
 2699SOL    MW411117   0.412   5.824   1.580
 2700SOL     OW11118   1.070   6.331   0.723
 2700SOL    HW211119   1.007   6.263   0.747
 2700SOL    HW311120   1.090   6.312   0.631
 2700SOL    MW411121   1.064   6.318   0.715
 2701SOL     OW11122   0.326   7.226   0.425
 2701SOL    HW211123   0.287   7.273   0.351
 2701SOL    HW311124   0.260   7.161   0.450
 2701SOL    MW411125   0.313   7.224   0.419
 2702SOL     OW11126   0.818   6.635   0.449
 2702SOL    HW211127   0.820   6.609   0.356
 2702SOL    HW311128   0.876   6.572   0.492
 2702SOL    MW411129   0.826   6.624   0.443
 2703SOL     OW11130   1.371   7.195   1.221
 2703SOL    HW211131   1.296   7.241   1.259
 2703SOL    HW311132   1.353   7.102   1.238
 2703SOL    MW411133   1.360   7.189   1.229
 2704SOL     OW11134   1.375   7.403   0.651
 2704SOL    HW211135   1.318   7.356   0.590
 2704SOL    HW311136   1.461   7.364   0.638
 2704SOL    MW411137   1.378   7.394   0.641
 2705SOL     OW11138   1.328   5.879   0.782
 2705SOL    HW211139   1.356   5.811   0.843
 2705SOL    HW311140   1.242   5.850   0.752
 2705SOL    MW411141   1.321   5.866   0.786
 2706SOL     OW11142   0.133   6.813   0.716
 2706SOL    HW211143   0.197   6.845   0.779
 2706SOL    HW311144   0.182   6.749   0.664
 2706SOL    MW411145   0.148   6.809   0.717
 2707SOL     OW11146   0.633   6.889   1.698
 2707SOL    HW211147   0.681   6.972   1.685
 2707SOL    HW311148   0.690   6.837   1.754
 2707SOL    MW411149   0.647   6.893   1.704
 2708SOL     OW11150   0.209   7.131   1.838
 2708SOL    HW211151   0.265   7.055   1.853
 2708SOL    HW311152   0.158   7.109   1.760
 2708SOL    MW411153   0.209   7.118   1.829
 2709SOL     OW11154   1.308   5.983   0.117
 2709SOL    HW211155   1.281   6.049   0.053
 2709SOL    HW311156   1.378   6.026   0.167
 2709SOL    MW411157   1.313   5.996   0.114
 2710SOL     OW11158   0.976   5.688   0.054
 2710SOL    HW211159   1.032   5.680  -0.024
 2710SOL    HW311160   0.953   5.598   0.076
 2710SOL    MW411161   0.981   5.675   0.047
 2711SOL     OW11162   1.481   6.539   0.259
 2711SOL    HW211163   1.448   6.628   0.249
 2711SOL    HW311164   1.446   6.510   0.344
 2711SOL    MW411165   1.471   6.548   0.270
 2712SOL     OW11166   1.094   6.968   1.447
 2712SOL    HW211167   1.005   6.974   1.415
 2712SOL    HW311168   1.138   7.047   1.415
 2712SOL    MW411169   1.089   6.978   1.439
 2713SOL     OW11170   0.387   5.636   1.789
 2713SOL    HW211171   0.315   5.601   1.737
 2713SOL    HW311172   0.445   5.677   1.724
 2713SOL    MW411173   0.385   5.637   1.774
 2714SOL     OW11174   0.411   7.126   1.088
 2714SOL    HW211175   0.456   7.188   1.145
 2714SOL    HW311176   0.318   7.145   1.101
 2714SOL    MW411177   0.404   7.136   1.095
 2715SOL     OW11178   1.851   6.655   1.442
 2715SOL    HW211179   1.766   6.668   1.401
 2715SOL    HW311180   1.831   6.619   1.529
 2715SOL    MW411181   1.838   6.651   1.447
 2716SOL     OW11182   0.833   7.194   1.196
 2716SOL    HW211183   0.857   7.183   1.105
 2716SOL    HW311184   0.756   7.251   1.194
 2716SOL    MW411185   0.825   7.199   1.185
 2717SOL     OW11186   0.475   6.577   0.051
 2717SOL    HW211187   0.398   6.590   0.107
 2717SOL    HW311188   0.439   6.541  -0.030
 2717SOL    MW411189   0.461   6.573   0.048
 2718SOL     OW11190   1.128   6.550   0.294
 2718SOL    HW211191   1.038   6.571   0.269
 2718SOL    HW311192   1.155   6.623   0.350
 2718SOL    MW411193   1.120   6.562   0.297
 2719SOL     OW11194   0.628   6.899   0.986
 2719SOL    HW211195   0.621   6.878   1.080
 2719SOL    HW311196   0.546   6.867   0.949
 2719SOL    MW411197   0.616   6.893   0.993
 2720SOL     OW11198   1.492   5.909   1.388
 2720SOL    HW211199   1.439   5.911   1.468
 2720SOL    HW311200   1.477   5.822   1.351
 2720SOL    MW411201   1.484   5.899   1.393
 2721SOL     OW11202   1.828   5.833   1.261
 2721SOL    HW211203   1.809   5.900   1.196
 2721SOL    HW311204   1.885   5.771   1.216
 2721SOL    MW411205   1.832   5.834   1.247
 2722SOL     OW11206   0.074   6.991   1.649
 2722SOL    HW211207   0.118   6.924   1.595
 2722SOL    HW311208  -0.011   6.953   1.669
 2722SOL    MW411209   0.069   6.977   1.645
 2723SOL     OW11210   0.757   5.666   0.701
 2723SOL    HW211211   0.686   5.727   0.683
 2723SOL    HW311212   0.808   5.663   0.620
 2723SOL    MW411213   0.753   5.672   0.688
 2724SOL     OW11214   0.515   6.906   0.450
 2724SOL    HW211215   0.508   6.938   0.540
 2724SOL    HW311216   0.425   6.890   0.422
 2724SOL    MW411217   0.503   6.908   0.457
 2725SOL     OW11218   1.110   7.299   1.359
 2725SOL    HW211219   1.030   7.284   1.309
 2725SOL    HW311220   1.117   7.394   1.366
 2725SOL    MW411221   1.101   7.310   1.353
 2726SOL     OW11222   1.224   7.264   0.849
 2726SOL    HW211223   1.271   7.337   0.808
 2726SOL    HW311224   1.145   7.303   0.885
 2726SOL    MW411225   1.219   7.279   0.848
 2727SOL     OW11226   1.632   7.359   1.124
 2727SOL    HW211227   1.675   7.329   1.204
 2727SOL    HW311228   1.551   7.307   1.121
 2727SOL    MW411229   1.627   7.348   1.134
 2728SOL     OW11230   0.717   6.323   1.831
 2728SOL    HW211231   0.787   6.265   1.803
 2728SOL    HW311232   0.660   6.268   1.886
 2728SOL    MW411233   0.719   6.310   1.835
 2729SOL     OW11234   1.504   6.535   1.464
 2729SOL    HW211235   1.509   6.588   1.544
 2729SOL    HW311236   1.466   6.452   1.492
 2729SOL    MW411237   1.500   6.530   1.479
 2730SOL     OW11238   1.144   5.670   1.710
 2730SOL    HW211239   1.139   5.577   1.691
 2730SOL    HW311240   1.227   5.681   1.756
 2730SOL    MW411241   1.152   5.659   1.714
 2731SOL     OW11242   0.518   6.190   0.164
 2731SOL    HW211243   0.484   6.246   0.234
 2731SOL    HW311244   0.589   6.140   0.204
 2731SOL    MW411245   0.524   6.191   0.178
 2732SOL     OW11246   1.614   6.941   0.986
 2732SOL    HW211247   1.649   6.923   0.899
 2732SOL    HW311248   1.519   6.942   0.973
 2732SOL    MW411249   1.606   6.938   0.973
 2733SOL     OW11250   1.043   6.589   1.355
 2733SOL    HW211251   1.086   6.624   1.433
 2733SOL    HW311252   1.026   6.666   1.301
 2733SOL    MW411253   1.046   6.604   1.358
 2734SOL     OW11254   1.574   6.076   0.228
 2734SOL    HW211255   1.566   6.147   0.165
 2734SOL    HW311256   1.592   6.120   0.311
 2734SOL    MW411257   1.575   6.090   0.230
 2735SOL     OW11258   0.434   5.731   0.657
 2735SOL    HW211259   0.484   5.774   0.588
 2735SOL    HW311260   0.349   5.775   0.657
 2735SOL    MW411261   0.431   5.744   0.648
 2736SOL     OW11262   0.193   6.793   1.517
 2736SOL    HW211263   0.221   6.746   1.595
 2736SOL    HW311264   0.114   6.748   1.488
 2736SOL    MW411265   0.186   6.782   1.523
 2737SOL     OW11266   0.701   6.120   1.484
 2737SOL    HW211267   0.673   6.208   1.508
 2737SOL    HW311268   0.670   6.064   1.555
 2737SOL    MW411269   0.693   6.123   1.496
 2738SOL     OW11270   1.243   6.338   0.203
 2738SOL    HW211271   1.290   6.356   0.122
 2738SOL    HW311272   1.209   6.422   0.231
 2738SOL    MW411273   1.245   6.352   0.196
 2739SOL     OW11274   0.356   6.516   0.697
 2739SOL    HW211275   0.414   6.572   0.645
 2739SOL    HW311276   0.400   6.431   0.699
 2739SOL    MW411277   0.369   6.513   0.690
 2740SOL     OW11278   1.496   5.868   0.534
 2740SOL    HW211279   1.418   5.818   0.559
 2740SOL    HW311280   1.467   5.959   0.534
 2740SOL    MW411281   1.482   5.872   0.537
 2741SOL     OW11282   1.082   5.830   0.693
 2741SOL    HW211283   1.102   5.905   0.637
 2741SOL    HW311284   1.062   5.869   0.778
 2741SOL    MW411285   1.083   5.846   0.697
 2742SOL     OW11286   0.978   7.080   0.025
 2742SOL    HW211287   1.005   7.158  -0.023
 2742SOL    HW311288   0.885   7.095   0.044
 2742SOL    MW411289   0.969   7.093   0.021
 2743SOL     OW11290   1.842   6.603   1.712
 2743SOL    HW211291   1.755   6.583   1.748
 2743SOL    HW311292   1.896   6.529   1.737
 2743SOL    MW411293   1.837   6.592   1.720
 2744SOL     OW11294   0.063   7.116   0.869
 2744SOL    HW211295   0.095   7.120   0.960
 2744SOL    HW311296  -0.032   7.124   0.877
 2744SOL    MW411297   0.055   7.119   0.882
 2745SOL     OW11298   0.018   6.242   0.416
 2745SOL    HW211299  -0.042   6.214   0.486
 2745SOL    HW311300   0.092   6.182   0.422
 2745SOL    MW411301   0.020   6.231   0.425
 2746SOL     OW11302   1.586   7.454   1.850
 2746SOL    HW211303   1.631   7.378   1.815
 2746SOL    HW311304   1.624   7.467   1.937
 2746SOL    MW411305   1.596   7.447   1.856
 2747SOL     OW11306   1.186   6.973   0.576
 2747SOL    HW211307   1.209   6.924   0.654
 2747SOL    HW311308   1.267   7.015   0.548
 2747SOL    MW411309   1.199   6.973   0.583
 2748SOL     OW11310   0.444   5.981   1.305
 2748SOL    HW211311   0.477   6.062   1.345
 2748SOL    HW311312   0.417   6.007   1.217
 2748SOL    MW411313   0.443   5.995   1.299
 2749SOL     OW11314   0.398   5.948   1.041
 2749SOL    HW211315   0.428   5.862   1.012
 2749SOL    HW311316   0.303   5.941   1.044
 2749SOL    MW411317   0.390   5.937   1.039
 2750SOL     OW11318   1.227   6.157   1.732
 2750SOL    HW211319   1.279   6.092   1.685
 2750SOL    HW311320   1.185   6.208   1.662
 2750SOL    MW411321   1.228   6.154   1.715
 2751SOL     OW11322   1.326   5.952   1.593
 2751SOL    HW211323   1.233   5.936   1.580
 2751SOL    HW311324   1.352   5.890   1.661
 2751SOL    MW411325   1.316   5.942   1.600
 2752SOL     OW11326   0.541   5.726   0.932
 2752SOL    HW211327   0.551   5.635   0.958
 2752SOL    HW311328   0.497   5.722   0.847
 2752SOL    MW411329   0.537   5.714   0.924
 2753SOL     OW11330   0.635   7.341   1.478
 2753SOL    HW211331   0.552   7.326   1.523
 2753SOL    HW311332   0.694   7.274   1.513
 2753SOL    MW411333   0.633   7.331   1.488
 2754SOL     OW11334   1.692   6.048   1.103
 2754SOL    HW211335   1.625   6.081   1.163
 2754SOL    HW311336   1.735   6.126   1.069
 2754SOL    MW411337   1.690   6.063   1.107
 2755SOL     OW11338   1.870   6.768   1.073
 2755SOL    HW211339   1.863   6.708   0.998
 2755SOL    HW311340   1.796   6.828   1.062
 2755SOL    MW411341   1.860   6.768   1.062
 2756SOL     OW11342   1.252   6.630   0.991
 2756SOL    HW211343   1.266   6.602   1.082
 2756SOL    HW311344   1.338   6.661   0.963
 2756SOL    MW411345   1.265   6.631   1.000
 2757SOL     OW11346   1.335   6.125   1.270
 2757SOL    HW211347   1.356   6.126   1.177
 2757SOL    HW311348   1.380   6.047   1.303
 2757SOL    MW411349   1.342   6.115   1.262
 2758SOL     OW11350   1.828   6.256   1.812
 2758SOL    HW211351   1.865   6.201   1.881
 2758SOL    HW311352   1.853   6.213   1.730
 2758SOL    MW411353   1.835   6.244   1.811
 2759SOL     OW11354   1.375   6.554   1.863
 2759SOL    HW211355   1.441   6.502   1.817
 2759SOL    HW311356   1.395   6.541   1.956
 2759SOL    MW411357   1.386   6.545   1.870
 2760SOL     OW11358   1.326   5.640   0.212
 2760SOL    HW211359   1.400   5.684   0.255
 2760SOL    HW311360   1.250   5.694   0.234
 2760SOL    MW411361   1.326   5.652   0.220
 2761SOL     OW11362   1.386   6.415   0.490
 2761SOL    HW211363   1.301   6.385   0.460
 2761SOL    HW311364   1.378   6.422   0.585
 2761SOL    MW411365   1.374   6.413   0.499
 2762SOL     OW11366   0.462   6.878   1.221
 2762SOL    HW211367   0.474   6.905   1.312
 2762SOL    HW311368   0.443   6.959   1.174
 2762SOL    MW411369   0.461   6.893   1.226
 2763SOL     OW11370   0.746   5.858   1.044
 2763SOL    HW211371   0.719   5.860   1.135
 2763SOL    HW311372   0.676   5.810   0.999
 2763SOL    MW411373   0.734   5.854   1.051
 2764SOL     OW11374   0.600   7.350   1.206
 2764SOL    HW211375   0.652   7.427   1.183
 2764SOL    HW311376   0.609   7.342   1.301
 2764SOL    MW411377   0.609   7.357   1.217
 2765SOL     OW11378   1.502   6.935   1.438
 2765SOL    HW211379   1.487   6.864   1.501
 2765SOL    HW311380   1.548   6.893   1.366
 2765SOL    MW411381   1.508   6.919   1.438
 2766SOL     OW11382   0.576   6.666   1.555
 2766SOL    HW211383   0.613   6.671   1.467
 2766SOL    HW311384   0.615   6.739   1.602
 2766SOL    MW411385   0.586   6.676   1.550
 2767SOL     OW11386   0.756   6.709   1.367
 2767SOL    HW211387   0.815   6.655   1.420
 2767SOL    HW311388   0.771   6.681   1.277
 2767SOL    MW411389   0.766   6.698   1.363
 2768SOL     OW11390   0.759   6.081   0.216
 2768SOL    HW211391   0.832   6.130   0.179
 2768SOL    HW311392   0.775   5.990   0.190
 2768SOL    MW411393   0.771   6.076   0.209
 2769SOL     OW11394   1.567   7.198   1.539
 2769SOL    HW211395   1.609   7.183   1.624
 2769SOL    HW311396   1.558   7.111   1.501
 2769SOL    MW411397   1.571   7.186   1.546
 2770SOL     OW11398   1.227   5.677   1.130
 2770SOL    HW211399   1.282   5.686   1.052
 2770SOL    HW311400   1.282   5.711   1.201
 2770SOL    MW411401   1.241   5.682   1.129
 2771SOL     OW11402   0.234   6.590   0.314
 2771SOL    HW211403   0.171   6.606   0.243
 2771SOL    HW311404   0.181   6.553   0.385
 2771SOL    MW411405   0.219   6.587   0.314
 2772SOL     OW11406   0.590   6.944   0.173
 2772SOL    HW211407   0.605   6.920   0.265
 2772SOL    HW311408   0.498   6.922   0.157
 2772SOL    MW411409   0.580   6.937   0.183
 2773SOL     OW11410   1.129   7.175   0.325
 2773SOL    HW211411   1.137   7.093   0.276
 2773SOL    HW311412   1.048   7.214   0.292
 2773SOL    MW411413   1.119   7.170   0.315
 2774SOL     OW11414   0.388   7.333   0.894
 2774SOL    HW211415   0.392   7.244   0.929
 2774SOL    HW311416   0.414   7.324   0.803
 2774SOL    MW411417   0.391   7.321   0.886
 2775SOL     OW11418   1.005   6.811   1.137
 2775SOL    HW211419   0.937   6.745   1.153
 2775SOL    HW311420   1.023   6.805   1.044
 2775SOL    MW411421   0.998   6.802   1.128
 2776SOL     OW11422   0.094   7.086   1.388
 2776SOL    HW211423   0.084   7.044   1.474
 2776SOL    HW311424   0.015   7.139   1.378
 2776SOL    MW411425   0.083   7.087   1.399
 2777SOL     OW11426   0.998   5.950   0.958
 2777SOL    HW211427   0.928   5.902   1.003
 2777SOL    HW311428   1.030   6.013   1.022
 2777SOL    MW411429   0.993   5.952   0.972
 2778SOL     OW11430   0.649   6.386   1.578
 2778SOL    HW211431   0.642   6.481   1.566
 2778SOL    HW311432   0.658   6.375   1.673
 2778SOL    MW411433   0.650   6.398   1.588
 2779SOL     OW11434   0.370   6.901   1.836
 2779SOL    HW211435   0.442   6.903   1.773
 2779SOL    HW311436   0.340   6.810   1.835
 2779SOL    MW411437   0.375   6.890   1.828
 2780SOL     OW11438   1.454   5.664   1.303
 2780SOL    HW211439   1.525   5.610   1.267
 2780SOL    HW311440   1.453   5.643   1.396
 2780SOL    MW411441   1.463   5.655   1.311
 2781SOL     OW11442   1.654   7.194   1.787
 2781SOL    HW211443   1.627   7.191   1.878
 2781SOL    HW311444   1.750   7.198   1.790
 2781SOL    MW411445   1.664   7.194   1.799
 2782SOL     OW11446   0.465   6.056   0.771
 2782SOL    HW211447   0.536   6.004   0.734
 2782SOL    HW311448   0.451   6.021   0.858
 2782SOL    MW411449   0.473   6.045   0.778
 2783SOL     OW11450   0.020   7.391   1.843
 2783SOL    HW211451   0.070   7.369   1.765
 2783SOL    HW311452   0.028   7.486   1.851
 2783SOL    MW411453   0.028   7.400   1.834
 2784SOL     OW11454   0.781   7.149   0.847
 2784SOL    HW211455   0.709   7.086   0.860
 2784SOL    HW311456   0.742   7.234   0.865
 2784SOL    MW411457   0.765   7.152   0.850
 2785SOL     OW11458   1.101   5.997   0.495
 2785SOL    HW211459   1.123   5.934   0.427
 2785SOL    HW311460   1.006   5.989   0.506
 2785SOL    MW411461   1.091   5.988   0.487
 2786SOL     OW11462   0.186   5.687   0.427
 2786SOL    HW211463   0.257   5.708   0.366
 2786SOL    HW311464   0.140   5.615   0.385
 2786SOL    MW411465   0.190   5.681   0.413
 2787SOL     OW11466   0.017   6.154   1.570
 2787SOL    HW211467   0.081   6.220   1.545
 2787SOL    HW311468  -0.064   6.181   1.527
 2787SOL    MW411469   0.015   6.166   1.562
 2788SOL     OW11470   1.755   7.061   0.527
 2788SOL    HW211471   1.725   6.994   0.588
 2788SOL    HW311472   1.849   7.067   0.541
 2788SOL    MW411473   1.763   7.053   0.537
 2789SOL     OW11474   1.311   6.738   0.457
 2789SOL    HW211475   1.283   6.824   0.490
 2789SOL    HW311476   1.339   6.754   0.367
 2789SOL    MW411477   1.311   6.752   0.449
 2790SOL     OW11478   0.973   5.658   0.510
 2790SOL    HW211479   1.010   5.717   0.575
 2790SOL    HW311480   0.950   5.714   0.436
 2790SOL    MW411481   0.974   5.673   0.509
 2791SOL     OW11482   1.826   6.540   0.932
 2791SOL    HW211483   1.817   6.572   0.843
 2791SOL    HW311484   1.779   6.456   0.932
 2791SOL    MW411485   1.819   6.533   0.922
 2792SOL     OW11486   0.202   6.380   1.511
 2792SOL    HW211487   0.223   6.449   1.449
 2792SOL    HW311488   0.282   6.327   1.516
 2792SOL    MW411489   0.215   6.381   1.505
 2793SOL     OW11490   1.738   6.471   0.633
 2793SOL    HW211491   1.832   6.460   0.621
 2793SOL    HW311492   1.714   6.543   0.574
 2793SOL    MW411493   1.748   6.479   0.624
 2794SOL     OW11494   0.187   6.395   1.778
 2794SOL    HW211495   0.113   6.339   1.804
 2794SOL    HW311496   0.182   6.398   1.683
 2794SOL    MW411497   0.176   6.388   1.768
 2795SOL     OW11498   0.353   5.682   1.228
 2795SOL    HW211499   0.396   5.766   1.248
 2795SOL    HW311500   0.426   5.620   1.221
 2795SOL    MW411501   0.368   5.685   1.229
 2796SOL     OW11502   0.394   6.349   0.406
 2796SOL    HW211503   0.394   6.444   0.391
 2796SOL    HW311504   0.471   6.333   0.460
 2796SOL    MW411505   0.404   6.360   0.411
 2797SOL     OW11506   1.170   6.208   1.470
 2797SOL    HW211507   1.206   6.181   1.386
 2797SOL    HW311508   1.083   6.242   1.449
 2797SOL    MW411509   1.164   6.209   1.457
 2798SOL     OW11510   0.153   6.080   0.695
 2798SOL    HW211511   0.215   6.087   0.768
 2798SOL    HW311512   0.153   5.987   0.672
 2798SOL    MW411513   0.161   6.069   0.702
 2799SOL     OW11514   1.700   7.420   0.227
 2799SOL    HW211515   1.767   7.453   0.167
 2799SOL    HW311516   1.657   7.499   0.261
 2799SOL    MW411517   1.702   7.435   0.223
 2800SOL     OW11518   0.835   6.341   1.179
 2800SOL    HW211519   0.793   6.259   1.155
 2800SOL    HW311520   0.836   6.340   1.275
 2800SOL    MW411521   0.828   6.330   1.188
 2801SOL     OW11522   1.506   7.474   1.578
 2801SOL    HW211523   1.509   7.380   1.561
 2801SOL    HW311524   1.529   7.482   1.670
 2801SOL    MW411525   1.509   7.462   1.588
 2802SOL     OW11526   0.639   5.811   1.284
 2802SOL    HW211527   0.570   5.874   1.305
 2802SOL    HW311528   0.666   5.775   1.369
 2802SOL    MW411529   0.633   5.814   1.297
 2803SOL     OW11530   0.022   6.652   0.153
 2803SOL    HW211531  -0.009   6.717   0.216
 2803SOL    HW311532  -0.029   6.574   0.172
 2803SOL    MW411533   0.012   6.649   0.163
 2804SOL     OW11534   1.434   5.664   0.901
 2804SOL    HW211535   1.522   5.673   0.938
 2804SOL    HW311536   1.444   5.605   0.827
 2804SOL    MW411537   1.448   5.658   0.895
 2805SOL     OW11538   1.466   6.403   0.745
 2805SOL    HW211539   1.546   6.418   0.694
 2805SOL    HW311540   1.459   6.308   0.751
 2805SOL    MW411541   1.475   6.392   0.740
 2806SOL     OW11542   0.606   7.452   0.095
 2806SOL    HW211543   0.511   7.452   0.087
 2806SOL    HW311544   0.622   7.398   0.173
 2806SOL    MW411545   0.596   7.446   0.104
 2807SOL     OW11546   0.916   6.329   1.442
 2807SOL    HW211547   0.985   6.396   1.439
 2807SOL    HW311548   0.849   6.367   1.498
 2807SOL    MW411549   0.917   6.342   1.449
 2808SOL     OW11550   0.334   6.629   1.690
 2808SOL    HW211551   0.288   6.545   1.692
 2808SOL    HW311552   0.391   6.623   1.614
 2808SOL    MW411553   0.336   6.617   1.682
 2809SOL     OW11554   1.451   6.272   0.011
 2809SOL    HW211555   1.379   6.248  -0.047
 2809SOL    HW311556   1.517   6.309  -0.047
 2809SOL    MW411557   1.450   6.274  -0.004
 2810SOL     OW11558   0.585   7.004   0.691
 2810SOL    HW211559   0.650   6.937   0.712
 2810SOL    HW311560   0.637   7.081   0.668
 2810SOL    MW411561   0.600   7.006   0.690
 2811SOL     OW11562   0.846   6.169   0.821
 2811SOL    HW211563   0.786   6.187   0.893
 2811SOL    HW311564   0.880   6.081   0.840
 2811SOL    MW411565   0.842   6.159   0.834
 2812SOL     OW11566   1.787   5.668   1.490
 2812SOL    HW211567   1.708   5.714   1.518
 2812SOL    HW311568   1.822   5.722   1.419
 2812SOL    MW411569   1.781   5.681   1.484
 2813SOL     OW11570   1.071   6.752   0.840
 2813SOL    HW211571   1.163   6.733   0.858
 2813SOL    HW311572   1.044   6.682   0.780
 2813SOL    MW411573   1.079   6.740   0.834
 2814SOL     OW11574   0.864   6.572   0.195
 2814SOL    HW211575   0.850   6.484   0.160
 2814SOL    HW311576   0.815   6.629   0.136
 2814SOL    MW411577   0.856   6.567   0.183
 2815SOL     OW11578   1.345   6.990   0.936
 2815SOL    HW211579   1.318   7.074   0.901
 2815SOL    HW311580   1.305   6.985   1.023
 2815SOL    MW411581   1.338   6.999   0.942
 2816SOL     OW11582   1.264   6.938   1.204
 2816SOL    HW211583   1.275   6.905   1.293
 2816SOL    HW311584   1.183   6.897   1.173
 2816SOL    MW411585   1.254   6.930   1.210
 2817SOL     OW11586   0.277   6.296   0.974
 2817SOL    HW211587   0.227   6.295   1.055
 2817SOL    HW311588   0.297   6.388   0.958
 2817SOL    MW411589   0.273   6.308   0.982
 2818SOL     OW11590   1.344   7.060   1.736
 2818SOL    HW211591   1.344   7.154   1.752
 2818SOL    HW311592   1.389   7.050   1.652
 2818SOL    MW411593   1.350   7.070   1.727
 2819SOL     OW11594   1.583   5.778   0.297
 2819SOL    HW211595   1.576   5.782   0.392
 2819SOL    HW311596   1.595   5.869   0.270
 2819SOL    MW411597   1.584   5.791   0.305
 2820SOL     OW11598   0.872   6.341   0.411
 2820SOL    HW211599   0.852   6.327   0.318
 2820SOL    HW311600   0.965   6.320   0.418
 2820SOL    MW411601   0.882   6.336   0.400
 2821SOL     OW11602   0.199   5.964   1.715
 2821SOL    HW211603   0.156   6.023   1.652
 2821SOL    HW311604   0.267   6.019   1.755
 2821SOL    MW411605   0.203   5.979   1.712
 2822SOL     OW11606   1.311   6.584   1.260
 2822SOL    HW211607   1.374   6.581   1.333
 2822SOL    HW311608   1.227   6.602   1.302
 2822SOL    MW411609   1.307   6.586   1.275
 2823SOL     OW11610   0.855   7.299   0.449
 2823SOL    HW211611   0.913   7.370   0.476
 2823SOL    HW311612   0.878   7.227   0.507
 2823SOL    MW411613   0.866   7.299   0.460
 2824SOL     OW11614   1.650   5.761   1.039
 2824SOL    HW211615   1.695   5.679   1.058
 2824SOL    HW311616   1.670   5.817   1.115
 2824SOL    MW411617   1.660   5.757   1.051
 2825SOL     OW11618   0.098   5.604   1.138
 2825SOL    HW211619   0.089   5.605   1.043
 2825SOL    HW311620   0.192   5.616   1.153
 2825SOL    MW411621   0.110   5.607   1.129
 2826SOL     OW11622   1.735   6.797   0.758
 2826SOL    HW211623   1.714   6.743   0.681
 2826SOL    HW311624   1.831   6.795   0.762
 2826SOL    MW411625   1.744   6.790   0.747
 2827SOL     OW11626   0.427   6.942   1.501
 2827SOL    HW211627   0.348   6.892   1.524
 2827SOL    HW311628   0.497   6.901   1.551
 2827SOL    MW411629   0.425   6.930   1.511
 2828SOL     OW11630   0.311   5.731   0.184
 2828SOL    HW211631   0.240   5.786   0.152
 2828SOL    HW311632   0.353   5.697   0.105
 2828SOL    MW411633   0.307   5.733   0.170
 2829SOL     OW11634   1.435   6.228   1.020
 2829SOL    HW211635   1.358   6.274   0.986
 2829SOL    HW311636   1.492   6.297   1.054
 2829SOL    MW411637   1.432   6.243   1.020
 2830SOL     OW11638   0.067   5.830   0.033
 2830SOL    HW211639   0.034   5.909   0.077
 2830SOL    HW311640   0.122   5.863  -0.038
 2830SOL    MW411641   0.070   5.844   0.030
 2831SOL     OW11642   0.101   7.087   0.222
 2831SOL    HW211643   0.118   7.171   0.264
 2831SOL    HW311644   0.136   7.096   0.134
 2831SOL    MW411645   0.106   7.100   0.216
 2832SOL     OW11646   1.373   7.176   0.439
 2832SOL    HW211647   1.436   7.166   0.368
 2832SOL    HW311648   1.290   7.196   0.394
 2832SOL    MW411649   1.370   7.177   0.424
 2833SOL     OW11650   1.736   6.444   2.125
 2833SOL    HW211651   1.777   6.386   2.190
 2833SOL    HW311652   1.643   6.436   2.142
 2833SOL    MW411653   1.730   6.436   2.135
 2834SOL     OW11654   1.602   6.376   3.120
 2834SOL    HW211655   1.557   6.443   3.171
 2834SOL    HW311656   1.690   6.412   3.106
 2834SOL    MW411657   1.608   6.389   3.124
 2835SOL     OW11658   0.530   6.627   2.354
 2835SOL    HW211659   0.620   6.602   2.338
 2835SOL    HW311660   0.526   6.720   2.331
 2835SOL    MW411661   0.542   6.636   2.349
 2836SOL     OW11662   1.646   7.330   2.496
 2836SOL    HW211663   1.658   7.276   2.574
 2836SOL    HW311664   1.683   7.278   2.425
 2836SOL    MW411665   1.652   7.315   2.497
 2837SOL     OW11666   1.025   7.215   3.497
 2837SOL    HW211667   1.066   7.251   3.418
 2837SOL    HW311668   1.060   7.126   3.504
 2837SOL    MW411669   1.036   7.208   3.488
 2838SOL     OW11670   1.582   6.770   3.101
 2838SOL    HW211671   1.503   6.735   3.059
 2838SOL    HW311672   1.609   6.842   3.045
 2838SOL    MW411673   1.575   6.775   3.088
 2839SOL     OW11674   0.814   6.083   2.367
 2839SOL    HW211675   0.789   6.171   2.395
 2839SOL    HW311676   0.811   6.086   2.271
 2839SOL    MW411677   0.810   6.095   2.359
 2840SOL     OW11678   0.256   6.111   2.295
 2840SOL    HW211679   0.288   6.199   2.277
 2840SOL    HW311680   0.244   6.109   2.390
 2840SOL    MW411681   0.259   6.123   2.307
 2841SOL     OW11682   0.334   6.524   3.196
 2841SOL    HW211683   0.397   6.471   3.147
 2841SOL    HW311684   0.315   6.598   3.139
 2841SOL    MW411685   0.340   6.526   3.183
 2842SOL     OW11686   0.655   5.866   2.382
 2842SOL    HW211687   0.713   5.942   2.384
 2842SOL    HW311688   0.590   5.887   2.315
 2842SOL    MW411689   0.654   5.878   2.373
 2843SOL     OW11690   0.742   6.793   2.557
 2843SOL    HW211691   0.822   6.796   2.609
 2843SOL    HW311692   0.770   6.760   2.471
 2843SOL    MW411693   0.756   6.789   2.552
 2844SOL     OW11694   0.767   7.134   3.460
 2844SOL    HW211695   0.851   7.160   3.499
 2844SOL    HW311696   0.791   7.078   3.386
 2844SOL    MW411697   0.781   7.130   3.455
 2845SOL     OW11698   0.519   6.297   2.548
 2845SOL    HW211699   0.504   6.217   2.599
 2845SOL    HW311700   0.601   6.332   2.582
 2845SOL    MW411701   0.527   6.289   2.560
 2846SOL     OW11702   0.856   6.983   3.233
 2846SOL    HW211703   0.820   7.049   3.173
 2846SOL    HW311704   0.784   6.921   3.246
 2846SOL    MW411705   0.842   6.983   3.227
 2847SOL     OW11706   0.661   6.123   2.925
 2847SOL    HW211707   0.567   6.119   2.943
 2847SOL    HW311708   0.691   6.032   2.934
 2847SOL    MW411709   0.652   6.111   2.928
 2848SOL     OW11710   0.407   6.537   2.829
 2848SOL    HW211711   0.362   6.544   2.745
 2848SOL    HW311712   0.387   6.620   2.873
 2848SOL    MW411713   0.399   6.549   2.823
 2849SOL     OW11714   0.104   7.383   2.704
 2849SOL    HW211715   0.193   7.375   2.739
 2849SOL    HW311716   0.068   7.295   2.709
 2849SOL    MW411717   0.111   7.370   2.709
 2850SOL     OW11718   1.369   6.775   2.073
 2850SOL    HW211719   1.287   6.811   2.039
 2850SOL    HW311720   1.437   6.818   2.022
 2850SOL    MW411721   1.367   6.785   2.061
 2851SOL     OW11722   0.368   6.910   2.739
 2851SOL    HW211723   0.344   6.963   2.815
 2851SOL    HW311724   0.424   6.968   2.687
 2851SOL    MW411725   0.372   6.925   2.742
 2852SOL     OW11726   0.930   6.554   2.549
 2852SOL    HW211727   0.844   6.541   2.589
 2852SOL    HW311728   0.983   6.481   2.581
 2852SOL    MW411729   0.926   6.543   2.558
 2853SOL     OW11730   0.338   7.206   3.334
 2853SOL    HW211731   0.246   7.182   3.319
 2853SOL    HW311732   0.382   7.123   3.351
 2853SOL    MW411733   0.332   7.191   3.333
 2854SOL     OW11734   0.921   6.916   2.266
 2854SOL    HW211735   0.898   6.978   2.334
 2854SOL    HW311736   0.878   6.834   2.292
 2854SOL    MW411737   0.913   6.912   2.277
 2855SOL     OW11738   1.794   5.917   2.722
 2855SOL    HW211739   1.731   5.897   2.791
 2855SOL    HW311740   1.784   5.846   2.659
 2855SOL    MW411741   1.784   5.904   2.723
 2856SOL     OW11742   0.418   5.889   2.234
 2856SOL    HW211743   0.392   5.851   2.150
 2856SOL    HW311744   0.355   5.959   2.250
 2856SOL    MW411745   0.407   5.892   2.225
 2857SOL     OW11746   0.253   6.850   2.271
 2857SOL    HW211747   0.201   6.918   2.227
 2857SOL    HW311748   0.250   6.776   2.211
 2857SOL    MW411749   0.245   6.849   2.258
 2858SOL     OW11750   0.915   7.313   2.049
 2858SOL    HW211751   0.870   7.329   2.132
 2858SOL    HW311752   0.846   7.278   1.991
 2858SOL    MW411753   0.901   7.310   2.051
 2859SOL     OW11754   1.850   6.086   2.024
 2859SOL    HW211755   1.759   6.088   2.052
 2859SOL    HW311756   1.895   6.148   2.082
 2859SOL    MW411757   1.843   6.094   2.034
 2860SOL     OW11758   1.595   6.689   2.374
 2860SOL    HW211759   1.505   6.689   2.409
 2860SOL    HW311760   1.588   6.735   2.291
 2860SOL    MW411761   1.582   6.695   2.368
 2861SOL     OW11762   1.395   6.324   3.446
 2861SOL    HW211763   1.464   6.262   3.423
 2861SOL    HW311764   1.320   6.298   3.393
 2861SOL    MW411765   1.395   6.311   3.437
 2862SOL     OW11766   0.136   7.204   2.998
 2862SOL    HW211767   0.119   7.150   3.075
 2862SOL    HW311768   0.124   7.294   3.028
 2862SOL    MW411769   0.133   7.208   3.012
 2863SOL     OW11770   1.131   6.711   3.438
 2863SOL    HW211771   1.116   6.804   3.423
 2863SOL    HW311772   1.226   6.701   3.438
 2863SOL    MW411773   1.140   6.721   3.435
 2864SOL     OW11774   0.927   6.135   3.639
 2864SOL    HW211775   1.017   6.136   3.606
 2864SOL    HW311776   0.886   6.060   3.597
 2864SOL    MW411777   0.933   6.125   3.630
 2865SOL     OW11778   1.502   6.667   2.766
 2865SOL    HW211779   1.505   6.601   2.697
 2865SOL    HW311780   1.587   6.710   2.762
 2865SOL    MW411781   1.514   6.663   2.757
 2866SOL     OW11782   1.122   6.270   2.335
 2866SOL    HW211783   1.148   6.294   2.246
 2866SOL    HW311784   1.104   6.177   2.331
 2866SOL    MW411785   1.124   6.262   2.322
 2867SOL     OW11786   1.787   6.890   2.186
 2867SOL    HW211787   1.743   6.931   2.261
 2867SOL    HW311788   1.844   6.958   2.151
 2867SOL    MW411789   1.789   6.904   2.191
 2868SOL     OW11790   0.707   5.939   3.589
 2868SOL    HW211791   0.717   5.865   3.529
 2868SOL    HW311792   0.743   5.908   3.672
 2868SOL    MW411793   0.713   5.925   3.591
 2869SOL     OW11794   0.443   7.306   2.504
 2869SOL    HW211795   0.475   7.394   2.482
 2869SOL    HW311796   0.396   7.278   2.426
 2869SOL    MW411797   0.442   7.314   2.491
 2870SOL     OW11798   1.827   5.668   2.553
 2870SOL    HW211799   1.881   5.619   2.615
 2870SOL    HW311800   1.770   5.602   2.514
 2870SOL    MW411801   1.827   5.652   2.555
 2871SOL     OW11802   0.159   7.366   2.081
 2871SOL    HW211803   0.188   7.456   2.073
 2871SOL    HW311804   0.109   7.349   2.002
 2871SOL    MW411805   0.157   7.374   2.070
 2872SOL     OW11806   0.946   5.621   2.966
 2872SOL    HW211807   0.905   5.699   2.928
 2872SOL    HW311808   1.040   5.639   2.961
 2872SOL    MW411809   0.952   5.633   2.961
 2873SOL     OW11810   1.563   7.174   2.052
 2873SOL    HW211811   1.611   7.243   2.098
 2873SOL    HW311812   1.484   7.218   2.021
 2873SOL    MW411813   1.558   7.188   2.055
 2874SOL     OW11814   0.961   6.299   1.996
 2874SOL    HW211815   0.963   6.246   1.917
 2874SOL    HW311816   1.049   6.336   2.002
 2874SOL    MW411817   0.973   6.298   1.985
 2875SOL     OW11818   1.575   6.225   2.332
 2875SOL    HW211819   1.614   6.225   2.419
 2875SOL    HW311820   1.516   6.301   2.332
 2875SOL    MW411821   1.572   6.236   2.343
 2876SOL     OW11822   0.892   6.592   3.461
 2876SOL    HW211823   0.869   6.572   3.551
 2876SOL    HW311824   0.977   6.636   3.466
 2876SOL    MW411825   0.899   6.595   3.473
 2877SOL     OW11826   0.972   5.729   3.221
 2877SOL    HW211827   0.978   5.691   3.134
 2877SOL    HW311828   0.961   5.823   3.206
 2877SOL    MW411829   0.973   5.737   3.209
 2878SOL     OW11830   1.061   6.218   3.055
 2878SOL    HW211831   1.136   6.247   3.002
 2878SOL    HW311832   0.993   6.283   3.039
 2878SOL    MW411833   1.062   6.230   3.045
 2879SOL     OW11834   1.611   6.186   3.332
 2879SOL    HW211835   1.592   6.095   3.311
 2879SOL    HW311836   1.589   6.235   3.253
 2879SOL    MW411837   1.606   6.179   3.319
 2880SOL     OW11838   1.753   7.280   3.236
 2880SOL    HW211839   1.681   7.242   3.287
 2880SOL    HW311840   1.770   7.365   3.277
 2880SOL    MW411841   1.747   7.285   3.248
 2881SOL     OW11842   1.058   5.924   3.438
 2881SOL    HW211843   1.024   5.963   3.357
 2881SOL    HW311844   1.036   5.832   3.431
 2881SOL    MW411845   1.051   5.917   3.428
 2882SOL     OW11846   1.467   6.738   3.514
 2882SOL    HW211847   1.549   6.779   3.544
 2882SOL    HW311848   1.430   6.700   3.594
 2882SOL    MW411849   1.473   6.739   3.529
 2883SOL     OW11850   1.762   6.111   2.498
 2883SOL    HW211851   1.851   6.080   2.515
 2883SOL    HW311852   1.705   6.051   2.546
 2883SOL    MW411853   1.765   6.099   2.507
 2884SOL     OW11854   0.188   5.825   2.527
 2884SOL    HW211855   0.179   5.765   2.453
 2884SOL    HW311856   0.121   5.796   2.590
 2884SOL    MW411857   0.178   5.812   2.525
 2885SOL     OW11858   1.131   6.918   2.088
 2885SOL    HW211859   1.081   6.920   2.170
 2885SOL    HW311860   1.065   6.936   2.020
 2885SOL    MW411861   1.117   6.920   2.090
 2886SOL     OW11862   0.135   5.998   2.890
 2886SOL    HW211863   0.107   6.089   2.899
 2886SOL    HW311864   0.072   5.959   2.829
 2886SOL    MW411865   0.122   6.004   2.884
 2887SOL     OW11866   0.594   7.336   2.196
 2887SOL    HW211867   0.515   7.294   2.229
 2887SOL    HW311868   0.660   7.319   2.263
 2887SOL    MW411869   0.593   7.328   2.209
 2888SOL     OW11870   1.722   6.856   3.593
 2888SOL    HW211871   1.772   6.782   3.625
 2888SOL    HW311872   1.668   6.883   3.668
 2888SOL    MW411873   1.722   6.850   3.606
 2889SOL     OW11874   0.730   6.751   1.903
 2889SOL    HW211875   0.652   6.697   1.890
 2889SOL    HW311876   0.701   6.824   1.956
 2889SOL    MW411877   0.716   6.753   1.908
 2890SOL     OW11878   1.856   6.491   3.095
 2890SOL    HW211879   1.872   6.529   3.008
 2890SOL    HW311880   1.890   6.557   3.156
 2890SOL    MW411881   1.863   6.504   3.091
 2891SOL     OW11882   1.648   7.200   2.764
 2891SOL    HW211883   1.677   7.267   2.825
 2891SOL    HW311884   1.629   7.124   2.819
 2891SOL    MW411885   1.650   7.200   2.779
 2892SOL     OW11886   1.311   7.267   1.971
 2892SOL    HW211887   1.237   7.230   2.021
 2892SOL    HW311888   1.319   7.357   2.004
 2892SOL    MW411889   1.302   7.274   1.983
 2893SOL     OW11890   0.119   6.273   3.060
 2893SOL    HW211891   0.181   6.303   3.126
 2893SOL    HW311892   0.053   6.342   3.054
 2893SOL    MW411893   0.118   6.286   3.067
 2894SOL     OW11894   1.535   6.941   1.913
 2894SOL    HW211895   1.482   6.990   1.849
 2894SOL    HW311896   1.566   7.007   1.974
 2894SOL    MW411897   1.533   6.955   1.911
 2895SOL     OW11898   0.760   5.830   1.968
 2895SOL    HW211899   0.708   5.750   1.956
 2895SOL    HW311900   0.847   5.807   1.936
 2895SOL    MW411901   0.763   5.816   1.962
 2896SOL     OW11902   0.214   7.382   3.512
 2896SOL    HW211903   0.188   7.450   3.450
 2896SOL    HW311904   0.262   7.319   3.460
 2896SOL    MW411905   0.216   7.382   3.498
 2897SOL     OW11906   0.266   6.701   3.019
 2897SOL    HW211907   0.319   6.776   3.044
 2897SOL    HW311908   0.185   6.739   2.985
 2897SOL    MW411909   0.262   6.716   3.019
 2898SOL     OW11910   0.806   6.605   3.007
 2898SOL    HW211911   0.834   6.514   3.019
 2898SOL    HW311912   0.735   6.599   2.943
 2898SOL    MW411913   0.799   6.593   3.002
 2899SOL     OW11914   0.121   6.470   2.425
 2899SOL    HW211915   0.212   6.485   2.452
 2899SOL    HW311916   0.124   6.391   2.371
 2899SOL    MW411917   0.133   6.462   2.423
 2900SOL     OW11918   0.357   6.178   3.679
 2900SOL    HW211919   0.304   6.258   3.686
 2900SOL    HW311920   0.427   6.190   3.744
 2900SOL    MW411921   0.359   6.191   3.687
 2901SOL     OW11922   0.743   5.728   3.386
 2901SOL    HW211923   0.720   5.636   3.388
 2901SOL    HW311924   0.829   5.730   3.343
 2901SOL    MW411925   0.750   5.718   3.382
 2902SOL     OW11926   0.427   6.252   3.425
 2902SOL    HW211927   0.507   6.302   3.411
 2902SOL    HW311928   0.418   6.246   3.520
 2902SOL    MW411929   0.436   6.258   3.435
 2903SOL     OW11930   0.748   7.402   2.799
 2903SOL    HW211931   0.837   7.417   2.829
 2903SOL    HW311932   0.743   7.449   2.715
 2903SOL    MW411933   0.758   7.410   2.792
 2904SOL     OW11934   1.404   5.777   3.696
 2904SOL    HW211935   1.460   5.704   3.722
 2904SOL    HW311936   1.374   5.815   3.778
 2904SOL    MW411937   1.408   5.772   3.709
 2905SOL     OW11938   0.129   7.082   2.464
 2905SOL    HW211939   0.101   7.121   2.546
 2905SOL    HW311940   0.149   6.991   2.486
 2905SOL    MW411941   0.127   7.074   2.477
 2906SOL     OW11942   0.962   7.125   2.499
 2906SOL    HW211943   1.045   7.079   2.483
 2906SOL    HW311944   0.952   7.124   2.595
 2906SOL    MW411945   0.972   7.118   2.509
 2907SOL     OW11946   1.794   6.270   2.813
 2907SOL    HW211947   1.883   6.300   2.795
 2907SOL    HW311948   1.774   6.210   2.742
 2907SOL    MW411949   1.803   6.267   2.802
 2908SOL     OW11950   1.645   6.449   3.693
 2908SOL    HW211951   1.700   6.373   3.674
 2908SOL    HW311952   1.647   6.457   3.788
 2908SOL    MW411953   1.653   6.440   3.701
 2909SOL     OW11954   0.695   7.182   1.904
 2909SOL    HW211955   0.635   7.251   1.874
 2909SOL    HW311956   0.640   7.124   1.957
 2909SOL    MW411957   0.679   7.184   1.906
 2910SOL     OW11958   1.133   5.827   2.127
 2910SOL    HW211959   1.066   5.803   2.064
 2910SOL    HW311960   1.198   5.876   2.076
 2910SOL    MW411961   1.133   5.829   2.112
 2911SOL     OW11962   0.940   6.011   3.212
 2911SOL    HW211963   0.859   6.052   3.240
 2911SOL    HW311964   0.987   6.079   3.164
 2911SOL    MW411965   0.935   6.026   3.210
 2912SOL     OW11966   1.200   6.349   2.835
 2912SOL    HW211967   1.213   6.443   2.845
 2912SOL    HW311968   1.161   6.339   2.749
 2912SOL    MW411969   1.196   6.360   2.825
 2913SOL     OW11970   0.652   6.544   2.639
 2913SOL    HW211971   0.563   6.535   2.672
 2913SOL    HW311972   0.656   6.634   2.607
 2913SOL    MW411973   0.641   6.555   2.639
 2914SOL     OW11974   1.451   6.127   2.634
 2914SOL    HW211975   1.396   6.048   2.633
 2914SOL    HW311976   1.433   6.168   2.718
 2914SOL    MW411977   1.441   6.122   2.643
 2915SOL     OW11978   0.422   5.814   3.451
 2915SOL    HW211979   0.343   5.832   3.503
 2915SOL    HW311980   0.417   5.876   3.378
 2915SOL    MW411981   0.412   5.824   3.448
 2916SOL     OW11982   1.070   6.331   2.591
 2916SOL    HW211983   1.007   6.263   2.615
 2916SOL    HW311984   1.090   6.312   2.499
 2916SOL    MW411985   1.064   6.318   2.583
 2917SOL     OW11986   0.326   7.226   2.293
 2917SOL    HW211987   0.287   7.273   2.219
 2917SOL    HW311988   0.260   7.161   2.318
 2917SOL    MW411989   0.313   7.224   2.287
 2918SOL     OW11990   0.818   6.635   2.317
 2918SOL    HW211991   0.820   6.609   2.224
 2918SOL    HW311992   0.876   6.572   2.360
 2918SOL    MW411993   0.826   6.624   2.311
 2919SOL     OW11994   1.371   7.195   3.089
 2919SOL    HW211995   1.296   7.241   3.127
 2919SOL    HW311996   1.353   7.102   3.106
 2919SOL    MW411997   1.360   7.189   3.097
 2920SOL     OW11998   1.375   7.403   2.519
 2920SOL    HW211999   1.318   7.356   2.458
 2920SOL    HW312000   1.461   7.364   2.506
 2920SOL    MW412001   1.378   7.394   2.509
 2921SOL     OW12002   1.328   5.879   2.650
 2921SOL    HW212003   1.356   5.811   2.711
 2921SOL    HW312004   1.242   5.850   2.620
 2921SOL    MW412005   1.321   5.866   2.654
 2922SOL     OW12006   0.133   6.813   2.584
 2922SOL    HW212007   0.197   6.845   2.647
 2922SOL    HW312008   0.182   6.749   2.532
 2922SOL    MW412009   0.148   6.809   2.585
 2923SOL     OW12010   0.633   6.889   3.566
 2923SOL    HW212011   0.681   6.972   3.553
 2923SOL    HW312012   0.690   6.837   3.622
 2923SOL    MW412013   0.647   6.893   3.572
 2924SOL     OW12014   0.209   7.131   3.706
 2924SOL    HW212015   0.265   7.055   3.721
 2924SOL    HW312016   0.158   7.109   3.628
 2924SOL    MW412017   0.209   7.118   3.697
 2925SOL     OW12018   1.308   5.983   1.985
 2925SOL    HW212019   1.281   6.049   1.921
 2925SOL    HW312020   1.378   6.026   2.035
 2925SOL    MW412021   1.313   5.996   1.982
 2926SOL     OW12022   0.976   5.688   1.922
 2926SOL    HW212023   1.032   5.680   1.844
 2926SOL    HW312024   0.953   5.598   1.944
 2926SOL    MW412025   0.981   5.675   1.915
 2927SOL     OW12026   1.481   6.539   2.127
 2927SOL    HW212027   1.448   6.628   2.117
 2927SOL    HW312028   1.446   6.510   2.212
 2927SOL    MW412029   1.471   6.548   2.138
 2928SOL     OW12030   1.094   6.968   3.315
 2928SOL    HW212031   1.005   6.974   3.283
 2928SOL    HW312032   1.138   7.047   3.283
 2928SOL    MW412033   1.089   6.978   3.307
 2929SOL     OW12034   0.387   5.636   3.657
 2929SOL    HW212035   0.315   5.601   3.605
 2929SOL    HW312036   0.445   5.677   3.592
 2929SOL    MW412037   0.385   5.637   3.642
 2930SOL     OW12038   0.411   7.126   2.956
 2930SOL    HW212039   0.456   7.188   3.013
 2930SOL    HW312040   0.318   7.145   2.969
 2930SOL    MW412041   0.404   7.136   2.963
 2931SOL     OW12042   1.851   6.655   3.310
 2931SOL    HW212043   1.766   6.668   3.269
 2931SOL    HW312044   1.831   6.619   3.397
 2931SOL    MW412045   1.838   6.651   3.315
 2932SOL     OW12046   0.833   7.194   3.064
 2932SOL    HW212047   0.857   7.183   2.973
 2932SOL    HW312048   0.756   7.251   3.062
 2932SOL    MW412049   0.825   7.199   3.053
 2933SOL     OW12050   0.475   6.577   1.919
 2933SOL    HW212051   0.398   6.590   1.975
 2933SOL    HW312052   0.439   6.541   1.838
 2933SOL    MW412053   0.461   6.573   1.916
 2934SOL     OW12054   1.128   6.550   2.162
 2934SOL    HW212055   1.038   6.571   2.137
 2934SOL    HW312056   1.155   6.623   2.218
 2934SOL    MW412057   1.120   6.562   2.165
 2935SOL     OW12058   0.628   6.899   2.854
 2935SOL    HW212059   0.621   6.878   2.948
 2935SOL    HW312060   0.546   6.867   2.817
 2935SOL    MW412061   0.616   6.893   2.861
 2936SOL     OW12062   1.492   5.909   3.256
 2936SOL    HW212063   1.439   5.911   3.336
 2936SOL    HW312064   1.477   5.822   3.219
 2936SOL    MW412065   1.484   5.899   3.261
 2937SOL     OW12066   1.828   5.833   3.129
 2937SOL    HW212067   1.809   5.900   3.064
 2937SOL    HW312068   1.885   5.771   3.084
 2937SOL    MW412069   1.832   5.834   3.115
 2938SOL     OW12070   0.074   6.991   3.517
 2938SOL    HW212071   0.118   6.924   3.463
 2938SOL    HW312072  -0.011   6.953   3.537
 2938SOL    MW412073   0.069   6.977   3.513
 2939SOL     OW12074   0.757   5.666   2.569
 2939SOL    HW212075   0.686   5.727   2.551
 2939SOL    HW312076   0.808   5.663   2.488
 2939SOL    MW412077   0.753   5.672   2.556
 2940SOL     OW12078   0.515   6.906   2.318
 2940SOL    HW212079   0.508   6.938   2.408
 2940SOL    HW312080   0.425   6.890   2.290
 2940SOL    MW412081   0.503   6.908   2.325
 2941SOL     OW12082   1.110   7.299   3.227
 2941SOL    HW212083   1.030   7.284   3.177
 2941SOL    HW312084   1.117   7.394   3.234
 2941SOL    MW412085   1.101   7.310   3.221
 2942SOL     OW12086   1.224   7.264   2.717
 2942SOL    HW212087   1.271   7.337   2.676
 2942SOL    HW312088   1.145   7.303   2.753
 2942SOL    MW412089   1.219   7.279   2.716
 2943SOL     OW12090   1.632   7.359   2.992
 2943SOL    HW212091   1.675   7.329   3.072
 2943SOL    HW312092   1.551   7.307   2.989
 2943SOL    MW412093   1.627   7.348   3.002
 2944SOL     OW12094   0.717   6.323   3.699
 2944SOL    HW212095   0.787   6.265   3.671
 2944SOL    HW312096   0.660   6.268   3.754
 2944SOL    MW412097   0.719   6.310   3.703
 2945SOL     OW12098   1.504   6.535   3.332
 2945SOL    HW212099   1.509   6.588   3.412
 2945SOL    HW312100   1.466   6.452   3.360
 2945SOL    MW412101   1.500   6.530   3.347
 2946SOL     OW12102   1.144   5.670   3.578
 2946SOL    HW212103   1.139   5.577   3.559
 2946SOL    HW312104   1.227   5.681   3.624
 2946SOL    MW412105   1.152   5.659   3.582
 2947SOL     OW12106   0.518   6.190   2.032
 2947SOL    HW212107   0.484   6.246   2.102
 2947SOL    HW312108   0.589   6.140   2.072
 2947SOL    MW412109   0.524   6.191   2.046
 2948SOL     OW12110   1.614   6.941   2.854
 2948SOL    HW212111   1.649   6.923   2.767
 2948SOL    HW312112   1.519   6.942   2.841
 2948SOL    MW412113   1.606   6.938   2.841
 2949SOL     OW12114   1.043   6.589   3.223
 2949SOL    HW212115   1.086   6.624   3.301
 2949SOL    HW312116   1.026   6.666   3.169
 2949SOL    MW412117   1.046   6.604   3.226
 2950SOL     OW12118   1.574   6.076   2.096
 2950SOL    HW212119   1.566   6.147   2.033
 2950SOL    HW312120   1.592   6.120   2.179
 2950SOL    MW412121   1.575   6.090   2.098
 2951SOL     OW12122   0.434   5.731   2.525
 2951SOL    HW212123   0.484   5.774   2.456
 2951SOL    HW312124   0.349   5.775   2.525
 2951SOL    MW412125   0.431   5.744   2.516
 2952SOL     OW12126   0.193   6.793   3.385
 2952SOL    HW212127   0.221   6.746   3.463
 2952SOL    HW312128   0.114   6.748   3.356
 2952SOL    MW412129   0.186   6.782   3.391
 2953SOL     OW12130   0.701   6.120   3.352
 2953SOL    HW212131   0.673   6.208   3.376
 2953SOL    HW312132   0.670   6.064   3.423
 2953SOL    MW412133   0.693   6.123   3.364
 2954SOL     OW12134   1.243   6.338   2.071
 2954SOL    HW212135   1.290   6.356   1.990
 2954SOL    HW312136   1.209   6.422   2.099
 2954SOL    MW412137   1.245   6.352   2.064
 2955SOL     OW12138   0.356   6.516   2.565
 2955SOL    HW212139   0.414   6.572   2.513
 2955SOL    HW312140   0.400   6.431   2.567
 2955SOL    MW412141   0.369   6.513   2.558
 2956SOL     OW12142   1.496   5.868   2.402
 2956SOL    HW212143   1.418   5.818   2.427
 2956SOL    HW312144   1.467   5.959   2.402
 2956SOL    MW412145   1.482   5.872   2.405
 2957SOL     OW12146   1.082   5.830   2.561
 2957SOL    HW212147   1.102   5.905   2.505
 2957SOL    HW312148   1.062   5.869   2.646
 2957SOL    MW412149   1.083   5.846   2.565
 2958SOL     OW12150   0.978   7.080   1.893
 2958SOL    HW212151   1.005   7.158   1.845
 2958SOL    HW312152   0.885   7.095   1.912
 2958SOL    MW412153   0.969   7.093   1.889
 2959SOL     OW12154   1.842   6.603   3.580
 2959SOL    HW212155   1.755   6.583   3.616
 2959SOL    HW312156   1.896   6.529   3.605
 2959SOL    MW412157   1.837   6.592   3.588
 2960SOL     OW12158   0.063   7.116   2.737
 2960SOL    HW212159   0.095   7.120   2.828
 2960SOL    HW312160  -0.032   7.124   2.745
 2960SOL    MW412161   0.055   7.119   2.750
 2961SOL     OW12162   0.018   6.242   2.284
 2961SOL    HW212163  -0.042   6.214   2.354
 2961SOL    HW312164   0.092   6.182   2.290
 2961SOL    MW412165   0.020   6.231   2.293
 2962SOL     OW12166   1.586   7.454   3.718
 2962SOL    HW212167   1.631   7.378   3.683
 2962SOL    HW312168   1.624   7.467   3.805
 2962SOL    MW412169   1.596   7.447   3.724
 2963SOL     OW12170   1.186   6.973   2.444
 2963SOL    HW212171   1.209   6.924   2.522
 2963SOL    HW312172   1.267   7.015   2.416
 2963SOL    MW412173   1.199   6.973   2.451
 2964SOL     OW12174   0.444   5.981   3.173
 2964SOL    HW212175   0.477   6.062   3.213
 2964SOL    HW312176   0.417   6.007   3.085
 2964SOL    MW412177   0.443   5.995   3.167
 2965SOL     OW12178   0.398   5.948   2.909
 2965SOL    HW212179   0.428   5.862   2.880
 2965SOL    HW312180   0.303   5.941   2.912
 2965SOL    MW412181   0.390   5.937   2.907
 2966SOL     OW12182   1.227   6.157   3.600
 2966SOL    HW212183   1.279   6.092   3.553
 2966SOL    HW312184   1.185   6.208   3.530
 2966SOL    MW412185   1.228   6.154   3.583
 2967SOL     OW12186   1.326   5.952   3.461
 2967SOL    HW212187   1.233   5.936   3.448
 2967SOL    HW312188   1.352   5.890   3.529
 2967SOL    MW412189   1.316   5.942   3.468
 2968SOL     OW12190   0.541   5.726   2.800
 2968SOL    HW212191   0.551   5.635   2.826
 2968SOL    HW312192   0.497   5.722   2.715
 2968SOL    MW412193   0.537   5.714   2.792
 2969SOL     OW12194   0.635   7.341   3.346
 2969SOL    HW212195   0.552   7.326   3.391
 2969SOL    HW312196   0.694   7.274   3.381
 2969SOL    MW412197   0.633   7.331   3.356
 2970SOL     OW12198   1.692   6.048   2.971
 2970SOL    HW212199   1.625   6.081   3.031
 2970SOL    HW312200   1.735   6.126   2.937
 2970SOL    MW412201   1.690   6.063   2.975
 2971SOL     OW12202   1.870   6.768   2.941
 2971SOL    HW212203   1.863   6.708   2.866
 2971SOL    HW312204   1.796   6.828   2.930
 2971SOL    MW412205   1.860   6.768   2.930
 2972SOL     OW12206   1.252   6.630   2.859
 2972SOL    HW212207   1.266   6.602   2.950
 2972SOL    HW312208   1.338   6.661   2.831
 2972SOL    MW412209   1.265   6.631   2.868
 2973SOL     OW12210   1.335   6.125   3.138
 2973SOL    HW212211   1.356   6.126   3.045
 2973SOL    HW312212   1.380   6.047   3.171
 2973SOL    MW412213   1.342   6.115   3.130
 2974SOL     OW12214   1.828   6.256   3.680
 2974SOL    HW212215   1.865   6.201   3.749
 2974SOL    HW312216   1.853   6.213   3.598
 2974SOL    MW412217   1.835   6.244   3.679
 2975SOL     OW12218   1.375   6.554   3.731
 2975SOL    HW212219   1.441   6.502   3.685
 2975SOL    HW312220   1.395   6.541   3.824
 2975SOL    MW412221   1.386   6.545   3.738
 2976SOL     OW12222   1.326   5.640   2.080
 2976SOL    HW212223   1.400   5.684   2.123
 2976SOL    HW312224   1.250   5.694   2.102
 2976SOL    MW412225   1.326   5.652   2.088
 2977SOL     OW12226   1.386   6.415   2.358
 2977SOL    HW212227   1.301   6.385   2.328
 2977SOL    HW312228   1.378   6.422   2.453
 2977SOL    MW412229   1.374   6.413   2.367
 2978SOL     OW12230   0.462   6.878   3.089
 2978SOL    HW212231   0.474   6.905   3.180
 2978SOL    HW312232   0.443   6.959   3.042
 2978SOL    MW412233   0.461   6.893   3.094
 2979SOL     OW12234   0.746   5.858   2.912
 2979SOL    HW212235   0.719   5.860   3.003
 2979SOL    HW312236   0.676   5.810   2.867
 2979SOL    MW412237   0.734   5.854   2.919
 2980SOL     OW12238   0.600   7.350   3.074
 2980SOL    HW212239   0.652   7.427   3.051
 2980SOL    HW312240   0.609   7.342   3.169
 2980SOL    MW412241   0.609   7.357   3.085
 2981SOL     OW12242   1.502   6.935   3.306
 2981SOL    HW212243   1.487   6.864   3.369
 2981SOL    HW312244   1.548   6.893   3.234
 2981SOL    MW412245   1.508   6.919   3.306
 2982SOL     OW12246   0.576   6.666   3.423
 2982SOL    HW212247   0.613   6.671   3.335
 2982SOL    HW312248   0.615   6.739   3.470
 2982SOL    MW412249   0.586   6.676   3.418
 2983SOL     OW12250   0.756   6.709   3.235
 2983SOL    HW212251   0.815   6.655   3.288
 2983SOL    HW312252   0.771   6.681   3.145
 2983SOL    MW412253   0.766   6.698   3.231
 2984SOL     OW12254   0.759   6.081   2.084
 2984SOL    HW212255   0.832   6.130   2.047
 2984SOL    HW312256   0.775   5.990   2.058
 2984SOL    MW412257   0.771   6.076   2.077
 2985SOL     OW12258   1.567   7.198   3.407
 2985SOL    HW212259   1.609   7.183   3.492
 2985SOL    HW312260   1.558   7.111   3.369
 2985SOL    MW412261   1.571   7.186   3.414
 2986SOL     OW12262   1.227   5.677   2.998
 2986SOL    HW212263   1.282   5.686   2.920
 2986SOL    HW312264   1.282   5.711   3.069
 2986SOL    MW412265   1.241   5.682   2.997
 2987SOL     OW12266   0.234   6.590   2.182
 2987SOL    HW212267   0.171   6.606   2.111
 2987SOL    HW312268   0.181   6.553   2.253
 2987SOL    MW412269   0.219   6.587   2.182
 2988SOL     OW12270   0.590   6.944   2.041
 2988SOL    HW212271   0.605   6.920   2.133
 2988SOL    HW312272   0.498   6.922   2.025
 2988SOL    MW412273   0.580   6.937   2.051
 2989SOL     OW12274   1.129   7.175   2.193
 2989SOL    HW212275   1.137   7.093   2.144
 2989SOL    HW312276   1.048   7.214   2.160
 2989SOL    MW412277   1.119   7.170   2.183
 2990SOL     OW12278   0.388   7.333   2.762
 2990SOL    HW212279   0.392   7.244   2.797
 2990SOL    HW312280   0.414   7.324   2.671
 2990SOL    MW412281   0.391   7.321   2.754
 2991SOL     OW12282   1.005   6.811   3.005
 2991SOL    HW212283   0.937   6.745   3.021
 2991SOL    HW312284   1.023   6.805   2.912
 2991SOL    MW412285   0.998   6.802   2.996
 2992SOL     OW12286   0.094   7.086   3.256
 2992SOL    HW212287   0.084   7.044   3.342
 2992SOL    HW312288   0.015   7.139   3.246
 2992SOL    MW412289   0.083   7.087   3.267
 2993SOL     OW12290   0.998   5.950   2.826
 2993SOL    HW212291   0.928   5.902   2.871
 2993SOL    HW312292   1.030   6.013   2.890
 2993SOL    MW412293   0.993   5.952   2.840
 2994SOL     OW12294   0.649   6.386   3.446
 2994SOL    HW212295   0.642   6.481   3.434
 2994SOL    HW312296   0.658   6.375   3.541
 2994SOL    MW412297   0.650   6.398   3.456
 2995SOL     OW12298   0.370   6.901   3.704
 2995SOL    HW212299   0.442   6.903   3.641
 2995SOL    HW312300   0.340   6.810   3.703
 2995SOL    MW412301   0.375   6.890   3.696
 2996SOL     OW12302   1.454   5.664   3.171
 2996SOL    HW212303   1.525   5.610   3.135
 2996SOL    HW312304   1.453   5.643   3.264
 2996SOL    MW412305   1.463   5.655   3.179
 2997SOL     OW12306   1.654   7.194   3.655
 2997SOL    HW212307   1.627   7.191   3.746
 2997SOL    HW312308   1.750   7.198   3.658
 2997SOL    MW412309   1.664   7.194   3.667
 2998SOL     OW12310   0.465   6.056   2.639
 2998SOL    HW212311   0.536   6.004   2.602
 2998SOL    HW312312   0.451   6.021   2.726
 2998SOL    MW412313   0.473   6.045   2.646
 2999SOL     OW12314   0.020   7.391   3.711
 2999SOL    HW212315   0.070   7.369   3.633
 2999SOL    HW312316   0.028   7.486   3.719
 2999SOL    MW412317   0.028   7.400   3.702
 3000SOL     OW12318   0.781   7.149   2.715
 3000SOL    HW212319   0.709   7.086   2.728
 3000SOL    HW312320   0.742   7.234   2.733
 3000SOL    MW412321   0.765   7.152   2.718
 3001SOL     OW12322   1.101   5.997   2.363
 3001SOL    HW212323   1.123   5.934   2.295
 3001SOL    HW312324   1.006   5.989   2.374
 3001SOL    MW412325   1.091   5.988   2.355
 3002SOL     OW12326   0.186   5.687   2.295
 3002SOL    HW212327   0.257   5.708   2.234
 3002SOL    HW312328   0.140   5.615   2.253
 3002SOL    MW412329   0.190   5.681   2.281
 3003SOL     OW12330   0.017   6.154   3.438
 3003SOL    HW212331   0.081   6.220   3.413
 3003SOL    HW312332  -0.064   6.181   3.395
 3003SOL    MW412333   0.015   6.166   3.430
 3004SOL     OW12334   1.755   7.061   2.395
 3004SOL    HW212335   1.725   6.994   2.456
 3004SOL    HW312336   1.849   7.067   2.409
 3004SOL    MW412337   1.763   7.053   2.405
 3005SOL     OW12338   1.311   6.738   2.325
 3005SOL    HW212339   1.283   6.824   2.358
 3005SOL    HW312340   1.339   6.754   2.235
 3005SOL    MW412341   1.311   6.752   2.317
 3006SOL     OW12342   0.973   5.658   2.378
 3006SOL    HW212343   1.010   5.717   2.443
 3006SOL    HW312344   0.950   5.714   2.304
 3006SOL    MW412345   0.974   5.673   2.377
 3007SOL     OW12346   1.826   6.540   2.800
 3007SOL    HW212347   1.817   6.572   2.711
 3007SOL    HW312348   1.779   6.456   2.800
 3007SOL    MW412349   1.819   6.533   2.790
 3008SOL     OW12350   0.202   6.380   3.379
 3008SOL    HW212351   0.223   6.449   3.317
 3008SOL    HW312352   0.282   6.327   3.384
 3008SOL    MW412353   0.215   6.381   3.373
 3009SOL     OW12354   1.738   6.471   2.501
 3009SOL    HW212355   1.832   6.460   2.489
 3009SOL    HW312356   1.714   6.543   2.442
 3009SOL    MW412357   1.748   6.479   2.492
 3010SOL     OW12358   0.187   6.395   3.646
 3010SOL    HW212359   0.113   6.339   3.672
 3010SOL    HW312360   0.182   6.398   3.551
 3010SOL    MW412361   0.176   6.388   3.636
 3011SOL     OW12362   0.353   5.682   3.096
 3011SOL    HW212363   0.396   5.766   3.116
 3011SOL    HW312364   0.426   5.620   3.089
 3011SOL    MW412365   0.368   5.685   3.097
 3012SOL     OW12366   0.394   6.349   2.274
 3012SOL    HW212367   0.394   6.444   2.259
 3012SOL    HW312368   0.471   6.333   2.328
 3012SOL    MW412369   0.404   6.360   2.279
 3013SOL     OW12370   1.170   6.208   3.338
 3013SOL    HW212371   1.206   6.181   3.254
 3013SOL    HW312372   1.083   6.242   3.317
 3013SOL    MW412373   1.164   6.209   3.325
 3014SOL     OW12374   0.153   6.080   2.563
 3014SOL    HW212375   0.215   6.087   2.636
 3014SOL    HW312376   0.153   5.987   2.540
 3014SOL    MW412377   0.161   6.069   2.570
 3015SOL     OW12378   1.700   7.420   2.095
 3015SOL    HW212379   1.767   7.453   2.035
 3015SOL    HW312380   1.657   7.499   2.129
 3015SOL    MW412381   1.702   7.435   2.091
 3016SOL     OW12382   0.835   6.341   3.047
 3016SOL    HW212383   0.793   6.259   3.023
 3016SOL    HW312384   0.836   6.340   3.143
 3016SOL    MW412385   0.828   6.330   3.056
 3017SOL     OW12386   1.506   7.474   3.446
 3017SOL    HW212387   1.509   7.380   3.429
 3017SOL    HW312388   1.529   7.482   3.538
 3017SOL    MW412389   1.509   7.462   3.456
 3018SOL     OW12390   0.639   5.811   3.152
 3018SOL    HW212391   0.570   5.874   3.173
 3018SOL    HW312392   0.666   5.775   3.237
 3018SOL    MW412393   0.633   5.814   3.165
 3019SOL     OW12394   0.022   6.652   2.021
 3019SOL    HW212395  -0.009   6.717   2.084
 3019SOL    HW312396  -0.029   6.574   2.040
 3019SOL    MW412397   0.012   6.649   2.031
 3020SOL     OW12398   1.434   5.664   2.769
 3020SOL    HW212399   1.522   5.673   2.806
 3020SOL    HW312400   1.444   5.605   2.695
 3020SOL    MW412401   1.448   5.658   2.763
 3021SOL     OW12402   1.466   6.403   2.613
 3021SOL    HW212403   1.546   6.418   2.562
 3021SOL    HW312404   1.459   6.308   2.619
 3021SOL    MW412405   1.475   6.392   2.608
 3022SOL     OW12406   0.606   7.452   1.963
 3022SOL    HW212407   0.511   7.452   1.955
 3022SOL    HW312408   0.622   7.398   2.041
 3022SOL    MW412409   0.596   7.446   1.972
 3023SOL     OW12410   0.916   6.329   3.310
 3023SOL    HW212411   0.985   6.396   3.307
 3023SOL    HW312412   0.849   6.367   3.366
 3023SOL    MW412413   0.917   6.342   3.317
 3024SOL     OW12414   0.334   6.629   3.558
 3024SOL    HW212415   0.288   6.545   3.560
 3024SOL    HW312416   0.391   6.623   3.482
 3024SOL    MW412417   0.336   6.617   3.550
 3025SOL     OW12418   1.451   6.272   1.879
 3025SOL    HW212419   1.379   6.248   1.821
 3025SOL    HW312420   1.517   6.309   1.821
 3025SOL    MW412421   1.450   6.274   1.864
 3026SOL     OW12422   0.585   7.004   2.559
 3026SOL    HW212423   0.650   6.937   2.580
 3026SOL    HW312424   0.637   7.081   2.536
 3026SOL    MW412425   0.600   7.006   2.558
 3027SOL     OW12426   0.846   6.169   2.689
 3027SOL    HW212427   0.786   6.187   2.761
 3027SOL    HW312428   0.880   6.081   2.708
 3027SOL    MW412429   0.842   6.159   2.702
 3028SOL     OW12430   1.787   5.668   3.358
 3028SOL    HW212431   1.708   5.714   3.386
 3028SOL    HW312432   1.822   5.722   3.287
 3028SOL    MW412433   1.781   5.681   3.352
 3029SOL     OW12434   1.071   6.752   2.708
 3029SOL    HW212435   1.163   6.733   2.726
 3029SOL    HW312436   1.044   6.682   2.648
 3029SOL    MW412437   1.079   6.740   2.702
 3030SOL     OW12438   0.864   6.572   2.063
 3030SOL    HW212439   0.850   6.484   2.028
 3030SOL    HW312440   0.815   6.629   2.004
 3030SOL    MW412441   0.856   6.567   2.051
 3031SOL     OW12442   1.345   6.990   2.804
 3031SOL    HW212443   1.318   7.074   2.769
 3031SOL    HW312444   1.305   6.985   2.891
 3031SOL    MW412445   1.338   6.999   2.810
 3032SOL     OW12446   1.264   6.938   3.072
 3032SOL    HW212447   1.275   6.905   3.161
 3032SOL    HW312448   1.183   6.897   3.041
 3032SOL    MW412449   1.254   6.930   3.078
 3033SOL     OW12450   0.277   6.296   2.842
 3033SOL    HW212451   0.227   6.295   2.923
 3033SOL    HW312452   0.297   6.388   2.826
 3033SOL    MW412453   0.273   6.308   2.850
 3034SOL     OW12454   1.344   7.060   3.604
 3034SOL    HW212455   1.344   7.154   3.620
 3034SOL    HW312456   1.389   7.050   3.520
 3034SOL    MW412457   1.350   7.070   3.595
 3035SOL     OW12458   1.583   5.778   2.165
 3035SOL    HW212459   1.576   5.782   2.260
 3035SOL    HW312460   1.595   5.869   2.138
 3035SOL    MW412461   1.584   5.791   2.173
 3036SOL     OW12462   0.872   6.341   2.279
 3036SOL    HW212463   0.852   6.327   2.186
 3036SOL    HW312464   0.965   6.320   2.286
 3036SOL    MW412465   0.882   6.336   2.268
 3037SOL     OW12466   0.199   5.964   3.583
 3037SOL    HW212467   0.156   6.023   3.520
 3037SOL    HW312468   0.267   6.019   3.623
 3037SOL    MW412469   0.203   5.979   3.580
 3038SOL     OW12470   1.311   6.584   3.128
 3038SOL    HW212471   1.374   6.581   3.201
 3038SOL    HW312472   1.227   6.602   3.170
 3038SOL    MW412473   1.307   6.586   3.143
 3039SOL     OW12474   0.855   7.299   2.317
 3039SOL    HW212475   0.913   7.370   2.344
 3039SOL    HW312476   0.878   7.227   2.375
 3039SOL    MW412477   0.866   7.299   2.328
 3040SOL     OW12478   1.650   5.761   2.907
 3040SOL    HW212479   1.695   5.679   2.926
 3040SOL    HW312480   1.670   5.817   2.983
 3040SOL    MW412481   1.660   5.757   2.919
 3041SOL     OW12482   0.098   5.604   3.006
 3041SOL    HW212483   0.089   5.605   2.911
 3041SOL    HW312484   0.192   5.616   3.021
 3041SOL    MW412485   0.110   5.607   2.997
 3042SOL     OW12486   1.735   6.797   2.626
 3042SOL    HW212487   1.714   6.743   2.549
 3042SOL    HW312488   1.831   6.795   2.630
 3042SOL    MW412489   1.744   6.790   2.615
 3043SOL     OW12490   0.427   6.942   3.369
 3043SOL    HW212491   0.348   6.892   3.392
 3043SOL    HW312492   0.497   6.901   3.419
 3043SOL    MW412493   0.425   6.930   3.379
 3044SOL     OW12494   0.311   5.731   2.052
 3044SOL    HW212495   0.240   5.786   2.020
 3044SOL    HW312496   0.353   5.697   1.973
 3044SOL    MW412497   0.307   5.733   2.038
 3045SOL     OW12498   1.435   6.228   2.888
 3045SOL    HW212499   1.358   6.274   2.854
 3045SOL    HW312500   1.492   6.297   2.922
 3045SOL    MW412501   1.432   6.243   2.888
 3046SOL     OW12502   0.067   5.830   1.901
 3046SOL    HW212503   0.034   5.909   1.945
 3046SOL    HW312504   0.122   5.863   1.830
 3046SOL    MW412505   0.070   5.844   1.898
 3047SOL     OW12506   0.101   7.087   2.090
 3047SOL    HW212507   0.118   7.171   2.132
 3047SOL    HW312508   0.136   7.096   2.002
 3047SOL    MW412509   0.106   7.100   2.084
 3048SOL     OW12510   1.373   7.176   2.307
 3048SOL    HW212511   1.436   7.166   2.236
 3048SOL    HW312512   1.290   7.196   2.262
 3048SOL    MW412513   1.370   7.177   2.292
 3049SOL     OW12514   1.736   6.444   3.993
 3049SOL    HW212515   1.777   6.386   4.058
 3049SOL    HW312516   1.643   6.436   4.010
 3049SOL    MW412517   1.730   6.436   4.003
 3050SOL     OW12518   1.602   6.376   4.988
 3050SOL    HW212519   1.557   6.443   5.039
 3050SOL    HW312520   1.690   6.412   4.974
 3050SOL    MW412521   1.608   6.389   4.992
 3051SOL     OW12522   0.530   6.627   4.222
 3051SOL    HW212523   0.620   6.602   4.206
 3051SOL    HW312524   0.526   6.720   4.199
 3051SOL    MW412525   0.542   6.636   4.217
 3052SOL     OW12526   1.646   7.330   4.364
 3052SOL    HW212527   1.658   7.276   4.442
 3052SOL    HW312528   1.683   7.278   4.293
 3052SOL    MW412529   1.652   7.315   4.365
 3053SOL     OW12530   1.025   7.215   5.365
 3053SOL    HW212531   1.066   7.251   5.286
 3053SOL    HW312532   1.060   7.126   5.372
 3053SOL    MW412533   1.036   7.208   5.356
 3054SOL     OW12534   1.582   6.770   4.969
 3054SOL    HW212535   1.503   6.735   4.927
 3054SOL    HW312536   1.609   6.842   4.913
 3054SOL    MW412537   1.575   6.775   4.956
 3055SOL     OW12538   0.814   6.083   4.235
 3055SOL    HW212539   0.789   6.171   4.263
 3055SOL    HW312540   0.811   6.086   4.139
 3055SOL    MW412541   0.810   6.095   4.227
 3056SOL     OW12542   0.256   6.111   4.163
 3056SOL    HW212543   0.288   6.199   4.145
 3056SOL    HW312544   0.244   6.109   4.258
 3056SOL    MW412545   0.259   6.123   4.175
 3057SOL     OW12546   0.334   6.524   5.064
 3057SOL    HW212547   0.397   6.471   5.015
 3057SOL    HW312548   0.315   6.598   5.007
 3057SOL    MW412549   0.340   6.526   5.051
 3058SOL     OW12550   0.655   5.866   4.250
 3058SOL    HW212551   0.713   5.942   4.252
 3058SOL    HW312552   0.590   5.887   4.183
 3058SOL    MW412553   0.654   5.878   4.241
 3059SOL     OW12554   0.742   6.793   4.425
 3059SOL    HW212555   0.822   6.796   4.477
 3059SOL    HW312556   0.770   6.760   4.339
 3059SOL    MW412557   0.756   6.789   4.420
 3060SOL     OW12558   0.767   7.134   5.328
 3060SOL    HW212559   0.851   7.160   5.367
 3060SOL    HW312560   0.791   7.078   5.254
 3060SOL    MW412561   0.781   7.130   5.323
 3061SOL     OW12562   0.519   6.297   4.416
 3061SOL    HW212563   0.504   6.217   4.467
 3061SOL    HW312564   0.601   6.332   4.450
 3061SOL    MW412565   0.527   6.289   4.428
 3062SOL     OW12566   0.856   6.983   5.101
 3062SOL    HW212567   0.820   7.049   5.041
 3062SOL    HW312568   0.784   6.921   5.114
 3062SOL    MW412569   0.842   6.983   5.095
 3063SOL     OW12570   0.661   6.123   4.793
 3063SOL    HW212571   0.567   6.119   4.811
 3063SOL    HW312572   0.691   6.032   4.802
 3063SOL    MW412573   0.652   6.111   4.796
 3064SOL     OW12574   0.407   6.537   4.697
 3064SOL    HW212575   0.362   6.544   4.613
 3064SOL    HW312576   0.387   6.620   4.741
 3064SOL    MW412577   0.399   6.549   4.691
 3065SOL     OW12578   0.104   7.383   4.572
 3065SOL    HW212579   0.193   7.375   4.607
 3065SOL    HW312580   0.068   7.295   4.577
 3065SOL    MW412581   0.111   7.370   4.577
 3066SOL     OW12582   1.369   6.775   3.941
 3066SOL    HW212583   1.287   6.811   3.907
 3066SOL    HW312584   1.437   6.818   3.890
 3066SOL    MW412585   1.367   6.785   3.929
 3067SOL     OW12586   0.368   6.910   4.607
 3067SOL    HW212587   0.344   6.963   4.683
 3067SOL    HW312588   0.424   6.968   4.555
 3067SOL    MW412589   0.372   6.925   4.610
 3068SOL     OW12590   0.930   6.554   4.417
 3068SOL    HW212591   0.844   6.541   4.457
 3068SOL    HW312592   0.983   6.481   4.449
 3068SOL    MW412593   0.926   6.543   4.426
 3069SOL     OW12594   0.338   7.206   5.202
 3069SOL    HW212595   0.246   7.182   5.187
 3069SOL    HW312596   0.382   7.123   5.219
 3069SOL    MW412597   0.332   7.191   5.201
 3070SOL     OW12598   0.921   6.916   4.134
 3070SOL    HW212599   0.898   6.978   4.202
 3070SOL    HW312600   0.878   6.834   4.160
 3070SOL    MW412601   0.913   6.912   4.145
 3071SOL     OW12602   1.794   5.917   4.590
 3071SOL    HW212603   1.731   5.897   4.659
 3071SOL    HW312604   1.784   5.846   4.527
 3071SOL    MW412605   1.784   5.904   4.591
 3072SOL     OW12606   0.418   5.889   4.102
 3072SOL    HW212607   0.392   5.851   4.018
 3072SOL    HW312608   0.355   5.959   4.118
 3072SOL    MW412609   0.407   5.892   4.093
 3073SOL     OW12610   0.253   6.850   4.139
 3073SOL    HW212611   0.201   6.918   4.095
 3073SOL    HW312612   0.250   6.776   4.079
 3073SOL    MW412613   0.245   6.849   4.126
 3074SOL     OW12614   0.915   7.313   3.917
 3074SOL    HW212615   0.870   7.329   4.000
 3074SOL    HW312616   0.846   7.278   3.859
 3074SOL    MW412617   0.901   7.310   3.919
 3075SOL     OW12618   1.850   6.086   3.892
 3075SOL    HW212619   1.759   6.088   3.920
 3075SOL    HW312620   1.895   6.148   3.950
 3075SOL    MW412621   1.843   6.094   3.902
 3076SOL     OW12622   1.595   6.689   4.242
 3076SOL    HW212623   1.505   6.689   4.277
 3076SOL    HW312624   1.588   6.735   4.159
 3076SOL    MW412625   1.582   6.695   4.236
 3077SOL     OW12626   1.395   6.324   5.314
 3077SOL    HW212627   1.464   6.262   5.291
 3077SOL    HW312628   1.320   6.298   5.261
 3077SOL    MW412629   1.395   6.311   5.305
 3078SOL     OW12630   0.136   7.204   4.866
 3078SOL    HW212631   0.119   7.150   4.943
 3078SOL    HW312632   0.124   7.294   4.896
 3078SOL    MW412633   0.133   7.208   4.880
 3079SOL     OW12634   1.131   6.711   5.306
 3079SOL    HW212635   1.116   6.804   5.291
 3079SOL    HW312636   1.226   6.701   5.306
 3079SOL    MW412637   1.140   6.721   5.303
 3080SOL     OW12638   0.927   6.135   5.507
 3080SOL    HW212639   1.017   6.136   5.474
 3080SOL    HW312640   0.886   6.060   5.465
 3080SOL    MW412641   0.933   6.125   5.498
 3081SOL     OW12642   1.502   6.667   4.634
 3081SOL    HW212643   1.505   6.601   4.565
 3081SOL    HW312644   1.587   6.710   4.630
 3081SOL    MW412645   1.514   6.663   4.625
 3082SOL     OW12646   1.122   6.270   4.203
 3082SOL    HW212647   1.148   6.294   4.114
 3082SOL    HW312648   1.104   6.177   4.199
 3082SOL    MW412649   1.124   6.262   4.190
 3083SOL     OW12650   1.787   6.890   4.054
 3083SOL    HW212651   1.743   6.931   4.129
 3083SOL    HW312652   1.844   6.958   4.019
 3083SOL    MW412653   1.789   6.904   4.059
 3084SOL     OW12654   0.707   5.939   5.457
 3084SOL    HW212655   0.717   5.865   5.397
 3084SOL    HW312656   0.743   5.908   5.540
 3084SOL    MW412657   0.713   5.925   5.459
 3085SOL     OW12658   0.443   7.306   4.372
 3085SOL    HW212659   0.475   7.394   4.350
 3085SOL    HW312660   0.396   7.278   4.294
 3085SOL    MW412661   0.442   7.314   4.359
 3086SOL     OW12662   1.827   5.668   4.421
 3086SOL    HW212663   1.881   5.619   4.483
 3086SOL    HW312664   1.770   5.602   4.382
 3086SOL    MW412665   1.827   5.652   4.423
 3087SOL     OW12666   0.159   7.366   3.949
 3087SOL    HW212667   0.188   7.456   3.941
 3087SOL    HW312668   0.109   7.349   3.870
 3087SOL    MW412669   0.157   7.374   3.938
 3088SOL     OW12670   0.946   5.621   4.834
 3088SOL    HW212671   0.905   5.699   4.796
 3088SOL    HW312672   1.040   5.639   4.829
 3088SOL    MW412673   0.952   5.633   4.829
 3089SOL     OW12674   1.563   7.174   3.920
 3089SOL    HW212675   1.611   7.243   3.966
 3089SOL    HW312676   1.484   7.218   3.889
 3089SOL    MW412677   1.558   7.188   3.923
 3090SOL     OW12678   0.961   6.299   3.864
 3090SOL    HW212679   0.963   6.246   3.785
 3090SOL    HW312680   1.049   6.336   3.870
 3090SOL    MW412681   0.973   6.298   3.853
 3091SOL     OW12682   1.575   6.225   4.200
 3091SOL    HW212683   1.614   6.225   4.287
 3091SOL    HW312684   1.516   6.301   4.200
 3091SOL    MW412685   1.572   6.236   4.211
 3092SOL     OW12686   0.892   6.592   5.329
 3092SOL    HW212687   0.869   6.572   5.419
 3092SOL    HW312688   0.977   6.636   5.334
 3092SOL    MW412689   0.899   6.595   5.341
 3093SOL     OW12690   0.972   5.729   5.089
 3093SOL    HW212691   0.978   5.691   5.002
 3093SOL    HW312692   0.961   5.823   5.074
 3093SOL    MW412693   0.973   5.737   5.077
 3094SOL     OW12694   1.061   6.218   4.923
 3094SOL    HW212695   1.136   6.247   4.870
 3094SOL    HW312696   0.993   6.283   4.907
 3094SOL    MW412697   1.062   6.230   4.913
 3095SOL     OW12698   1.611   6.186   5.200
 3095SOL    HW212699   1.592   6.095   5.179
 3095SOL    HW312700   1.589   6.235   5.121
 3095SOL    MW412701   1.606   6.179   5.187
 3096SOL     OW12702   1.753   7.280   5.104
 3096SOL    HW212703   1.681   7.242   5.155
 3096SOL    HW312704   1.770   7.365   5.145
 3096SOL    MW412705   1.747   7.285   5.116
 3097SOL     OW12706   1.058   5.924   5.306
 3097SOL    HW212707   1.024   5.963   5.225
 3097SOL    HW312708   1.036   5.832   5.299
 3097SOL    MW412709   1.051   5.917   5.296
 3098SOL     OW12710   1.467   6.738   5.382
 3098SOL    HW212711   1.549   6.779   5.412
 3098SOL    HW312712   1.430   6.700   5.462
 3098SOL    MW412713   1.473   6.739   5.397
 3099SOL     OW12714   1.762   6.111   4.366
 3099SOL    HW212715   1.851   6.080   4.383
 3099SOL    HW312716   1.705   6.051   4.414
 3099SOL    MW412717   1.765   6.099   4.375
 3100SOL     OW12718   0.188   5.825   4.395
 3100SOL    HW212719   0.179   5.765   4.321
 3100SOL    HW312720   0.121   5.796   4.458
 3100SOL    MW412721   0.178   5.812   4.393
 3101SOL     OW12722   1.131   6.918   3.956
 3101SOL    HW212723   1.081   6.920   4.038
 3101SOL    HW312724   1.065   6.936   3.888
 3101SOL    MW412725   1.117   6.920   3.958
 3102SOL     OW12726   0.135   5.998   4.758
 3102SOL    HW212727   0.107   6.089   4.767
 3102SOL    HW312728   0.072   5.959   4.697
 3102SOL    MW412729   0.122   6.004   4.752
 3103SOL     OW12730   0.594   7.336   4.064
 3103SOL    HW212731   0.515   7.294   4.097
 3103SOL    HW312732   0.660   7.319   4.131
 3103SOL    MW412733   0.593   7.328   4.077
 3104SOL     OW12734   1.722   6.856   5.461
 3104SOL    HW212735   1.772   6.782   5.493
 3104SOL    HW312736   1.668   6.883   5.536
 3104SOL    MW412737   1.722   6.850   5.474
 3105SOL     OW12738   0.730   6.751   3.771
 3105SOL    HW212739   0.652   6.697   3.758
 3105SOL    HW312740   0.701   6.824   3.824
 3105SOL    MW412741   0.716   6.753   3.776
 3106SOL     OW12742   1.856   6.491   4.963
 3106SOL    HW212743   1.872   6.529   4.876
 3106SOL    HW312744   1.890   6.557   5.024
 3106SOL    MW412745   1.863   6.504   4.959
 3107SOL     OW12746   1.648   7.200   4.632
 3107SOL    HW212747   1.677   7.267   4.693
 3107SOL    HW312748   1.629   7.124   4.687
 3107SOL    MW412749   1.650   7.200   4.647
 3108SOL     OW12750   1.311   7.267   3.839
 3108SOL    HW212751   1.237   7.230   3.889
 3108SOL    HW312752   1.319   7.357   3.872
 3108SOL    MW412753   1.302   7.274   3.851
 3109SOL     OW12754   0.119   6.273   4.928
 3109SOL    HW212755   0.181   6.303   4.994
 3109SOL    HW312756   0.053   6.342   4.922
 3109SOL    MW412757   0.118   6.286   4.935
 3110SOL     OW12758   1.535   6.941   3.781
 3110SOL    HW212759   1.482   6.990   3.717
 3110SOL    HW312760   1.566   7.007   3.842
 3110SOL    MW412761   1.533   6.955   3.779
 3111SOL     OW12762   0.760   5.830   3.836
 3111SOL    HW212763   0.708   5.750   3.824
 3111SOL    HW312764   0.847   5.807   3.804
 3111SOL    MW412765   0.763   5.816   3.830
 3112SOL     OW12766   0.214   7.382   5.380
 3112SOL    HW212767   0.188   7.450   5.318
 3112SOL    HW312768   0.262   7.319   5.328
 3112SOL    MW412769   0.216   7.382   5.366
 3113SOL     OW12770   0.266   6.701   4.887
 3113SOL    HW212771   0.319   6.776   4.912
 3113SOL    HW312772   0.185   6.739   4.853
 3113SOL    MW412773   0.262   6.716   4.887
 3114SOL     OW12774   0.806   6.605   4.875
 3114SOL    HW212775   0.834   6.514   4.887
 3114SOL    HW312776   0.735   6.599   4.811
 3114SOL    MW412777   0.799   6.593   4.870
 3115SOL     OW12778   0.121   6.470   4.293
 3115SOL    HW212779   0.212   6.485   4.320
 3115SOL    HW312780   0.124   6.391   4.239
 3115SOL    MW412781   0.133   6.462   4.291
 3116SOL     OW12782   0.357   6.178   5.547
 3116SOL    HW212783   0.304   6.258   5.554
 3116SOL    HW312784   0.427   6.190   5.612
 3116SOL    MW412785   0.359   6.191   5.555
 3117SOL     OW12786   0.743   5.728   5.254
 3117SOL    HW212787   0.720   5.636   5.256
 3117SOL    HW312788   0.829   5.730   5.211
 3117SOL    MW412789   0.750   5.718   5.250
 3118SOL     OW12790   0.427   6.252   5.293
 3118SOL    HW212791   0.507   6.302   5.279
 3118SOL    HW312792   0.418   6.246   5.388
 3118SOL    MW412793   0.436   6.258   5.303
 3119SOL     OW12794   0.748   7.402   4.667
 3119SOL    HW212795   0.837   7.417   4.697
 3119SOL    HW312796   0.743   7.449   4.583
 3119SOL    MW412797   0.758   7.410   4.660
 3120SOL     OW12798   1.404   5.777   5.564
 3120SOL    HW212799   1.460   5.704   5.590
 3120SOL    HW312800   1.374   5.815   5.646
 3120SOL    MW412801   1.408   5.772   5.577
 3121SOL     OW12802   0.129   7.082   4.332
 3121SOL    HW212803   0.101   7.121   4.414
 3121SOL    HW312804   0.149   6.991   4.354
 3121SOL    MW412805   0.127   7.074   4.345
 3122SOL     OW12806   0.962   7.125   4.367
 3122SOL    HW212807   1.045   7.079   4.351
 3122SOL    HW312808   0.952   7.124   4.463
 3122SOL    MW412809   0.972   7.118   4.377
 3123SOL     OW12810   1.794   6.270   4.681
 3123SOL    HW212811   1.883   6.300   4.663
 3123SOL    HW312812   1.774   6.210   4.610
 3123SOL    MW412813   1.803   6.267   4.670
 3124SOL     OW12814   1.645   6.449   5.561
 3124SOL    HW212815   1.700   6.373   5.542
 3124SOL    HW312816   1.647   6.457   5.656
 3124SOL    MW412817   1.653   6.440   5.569
 3125SOL     OW12818   0.695   7.182   3.772
 3125SOL    HW212819   0.635   7.251   3.742
 3125SOL    HW312820   0.640   7.124   3.825
 3125SOL    MW412821   0.679   7.184   3.774
 3126SOL     OW12822   1.133   5.827   3.995
 3126SOL    HW212823   1.066   5.803   3.932
 3126SOL    HW312824   1.198   5.876   3.944
 3126SOL    MW412825   1.133   5.829   3.980
 3127SOL     OW12826   0.940   6.011   5.080
 3127SOL    HW212827   0.859   6.052   5.108
 3127SOL    HW312828   0.987   6.079   5.032
 3127SOL    MW412829   0.935   6.026   5.078
 3128SOL     OW12830   1.200   6.349   4.703
 3128SOL    HW212831   1.213   6.443   4.713
 3128SOL    HW312832   1.161   6.339   4.617
 3128SOL    MW412833   1.196   6.360   4.693
 3129SOL     OW12834   0.652   6.544   4.507
 3129SOL    HW212835   0.563   6.535   4.540
 3129SOL    HW312836   0.656   6.634   4.475
 3129SOL    MW412837   0.641   6.555   4.507
 3130SOL     OW12838   1.451   6.127   4.502
 3130SOL    HW212839   1.396   6.048   4.501
 3130SOL    HW312840   1.433   6.168   4.586
 3130SOL    MW412841   1.441   6.122   4.511
 3131SOL     OW12842   0.422   5.814   5.319
 3131SOL    HW212843   0.343   5.832   5.371
 3131SOL    HW312844   0.417   5.876   5.246
 3131SOL    MW412845   0.412   5.824   5.316
 3132SOL     OW12846   1.070   6.331   4.459
 3132SOL    HW212847   1.007   6.263   4.483
 3132SOL    HW312848   1.090   6.312   4.367
 3132SOL    MW412849   1.064   6.318   4.451
 3133SOL     OW12850   0.326   7.226   4.161
 3133SOL    HW212851   0.287   7.273   4.087
 3133SOL    HW312852   0.260   7.161   4.186
 3133SOL    MW412853   0.313   7.224   4.155
 3134SOL     OW12854   0.818   6.635   4.185
 3134SOL    HW212855   0.820   6.609   4.092
 3134SOL    HW312856   0.876   6.572   4.228
 3134SOL    MW412857   0.826   6.624   4.179
 3135SOL     OW12858   1.371   7.195   4.957
 3135SOL    HW212859   1.296   7.241   4.995
 3135SOL    HW312860   1.353   7.102   4.974
 3135SOL    MW412861   1.360   7.189   4.965
 3136SOL     OW12862   1.375   7.403   4.387
 3136SOL    HW212863   1.318   7.356   4.326
 3136SOL    HW312864   1.461   7.364   4.374
 3136SOL    MW412865   1.378   7.394   4.377
 3137SOL     OW12866   1.328   5.879   4.518
 3137SOL    HW212867   1.356   5.811   4.579
 3137SOL    HW312868   1.242   5.850   4.488
 3137SOL    MW412869   1.321   5.866   4.522
 3138SOL     OW12870   0.133   6.813   4.452
 3138SOL    HW212871   0.197   6.845   4.515
 3138SOL    HW312872   0.182   6.749   4.400
 3138SOL    MW412873   0.148   6.809   4.453
 3139SOL     OW12874   0.633   6.889   5.434
 3139SOL    HW212875   0.681   6.972   5.421
 3139SOL    HW312876   0.690   6.837   5.490
 3139SOL    MW412877   0.647   6.893   5.440
 3140SOL     OW12878   0.209   7.131   5.574
 3140SOL    HW212879   0.265   7.055   5.589
 3140SOL    HW312880   0.158   7.109   5.496
 3140SOL    MW412881   0.209   7.118   5.565
 3141SOL     OW12882   1.308   5.983   3.853
 3141SOL    HW212883   1.281   6.049   3.789
 3141SOL    HW312884   1.378   6.026   3.903
 3141SOL    MW412885   1.313   5.996   3.850
 3142SOL     OW12886   0.976   5.688   3.790
 3142SOL    HW212887   1.032   5.680   3.712
 3142SOL    HW312888   0.953   5.598   3.812
 3142SOL    MW412889   0.981   5.675   3.783
 3143SOL     OW12890   1.481   6.539   3.995
 3143SOL    HW212891   1.448   6.628   3.985
 3143SOL    HW312892   1.446   6.510   4.080
 3143SOL    MW412893   1.471   6.548   4.006
 3144SOL     OW12894   1.094   6.968   5.183
 3144SOL    HW212895   1.005   6.974   5.151
 3144SOL    HW312896   1.138   7.047   5.151
 3144SOL    MW412897   1.089   6.978   5.175
 3145SOL     OW12898   0.387   5.636   5.525
 3145SOL    HW212899   0.315   5.601   5.473
 3145SOL    HW312900   0.445   5.677   5.460
 3145SOL    MW412901   0.385   5.637   5.510
 3146SOL     OW12902   0.411   7.126   4.824
 3146SOL    HW212903   0.456   7.188   4.881
 3146SOL    HW312904   0.318   7.145   4.837
 3146SOL    MW412905   0.404   7.136   4.831
 3147SOL     OW12906   1.851   6.655   5.178
 3147SOL    HW212907   1.766   6.668   5.137
 3147SOL    HW312908   1.831   6.619   5.265
 3147SOL    MW412909   1.838   6.651   5.183
 3148SOL     OW12910   0.833   7.194   4.932
 3148SOL    HW212911   0.857   7.183   4.841
 3148SOL    HW312912   0.756   7.251   4.930
 3148SOL    MW412913   0.825   7.199   4.921
 3149SOL     OW12914   0.475   6.577   3.787
 3149SOL    HW212915   0.398   6.590   3.843
 3149SOL    HW312916   0.439   6.541   3.706
 3149SOL    MW412917   0.461   6.573   3.784
 3150SOL     OW12918   1.128   6.550   4.030
 3150SOL    HW212919   1.038   6.571   4.005
 3150SOL    HW312920   1.155   6.623   4.086
 3150SOL    MW412921   1.120   6.562   4.033
 3151SOL     OW12922   0.628   6.899   4.722
 3151SOL    HW212923   0.621   6.878   4.816
 3151SOL    HW312924   0.546   6.867   4.685
 3151SOL    MW412925   0.616   6.893   4.729
 3152SOL     OW12926   1.492   5.909   5.124
 3152SOL    HW212927   1.439   5.911   5.204
 3152SOL    HW312928   1.477   5.822   5.087
 3152SOL    MW412929   1.484   5.899   5.129
 3153SOL     OW12930   1.828   5.833   4.997
 3153SOL    HW212931   1.809   5.900   4.932
 3153SOL    HW312932   1.885   5.771   4.952
 3153SOL    MW412933   1.832   5.834   4.983
 3154SOL     OW12934   0.074   6.991   5.385
 3154SOL    HW212935   0.118   6.924   5.331
 3154SOL    HW312936  -0.011   6.953   5.405
 3154SOL    MW412937   0.069   6.977   5.381
 3155SOL     OW12938   0.757   5.666   4.437
 3155SOL    HW212939   0.686   5.727   4.419
 3155SOL    HW312940   0.808   5.663   4.356
 3155SOL    MW412941   0.753   5.672   4.424
 3156SOL     OW12942   0.515   6.906   4.186
 3156SOL    HW212943   0.508   6.938   4.276
 3156SOL    HW312944   0.425   6.890   4.158
 3156SOL    MW412945   0.503   6.908   4.193
 3157SOL     OW12946   1.110   7.299   5.095
 3157SOL    HW212947   1.030   7.284   5.045
 3157SOL    HW312948   1.117   7.394   5.102
 3157SOL    MW412949   1.101   7.310   5.089
 3158SOL     OW12950   1.224   7.264   4.585
 3158SOL    HW212951   1.271   7.337   4.544
 3158SOL    HW312952   1.145   7.303   4.621
 3158SOL    MW412953   1.219   7.279   4.584
 3159SOL     OW12954   1.632   7.359   4.860
 3159SOL    HW212955   1.675   7.329   4.940
 3159SOL    HW312956   1.551   7.307   4.857
 3159SOL    MW412957   1.627   7.348   4.870
 3160SOL     OW12958   0.717   6.323   5.567
 3160SOL    HW212959   0.787   6.265   5.539
 3160SOL    HW312960   0.660   6.268   5.622
 3160SOL    MW412961   0.719   6.310   5.571
 3161SOL     OW12962   1.504   6.535   5.200
 3161SOL    HW212963   1.509   6.588   5.280
 3161SOL    HW312964   1.466   6.452   5.228
 3161SOL    MW412965   1.500   6.530   5.215
 3162SOL     OW12966   1.144   5.670   5.446
 3162SOL    HW212967   1.139   5.577   5.427
 3162SOL    HW312968   1.227   5.681   5.492
 3162SOL    MW412969   1.152   5.659   5.450
 3163SOL     OW12970   0.518   6.190   3.900
 3163SOL    HW212971   0.484   6.246   3.970
 3163SOL    HW312972   0.589   6.140   3.940
 3163SOL    MW412973   0.524   6.191   3.914
 3164SOL     OW12974   1.614   6.941   4.722
 3164SOL    HW212975   1.649   6.923   4.635
 3164SOL    HW312976   1.519   6.942   4.709
 3164SOL    MW412977   1.606   6.938   4.709
 3165SOL     OW12978   1.043   6.589   5.091
 3165SOL    HW212979   1.086   6.624   5.169
 3165SOL    HW312980   1.026   6.666   5.037
 3165SOL    MW412981   1.046   6.604   5.094
 3166SOL     OW12982   1.574   6.076   3.964
 3166SOL    HW212983   1.566   6.147   3.901
 3166SOL    HW312984   1.592   6.120   4.047
 3166SOL    MW412985   1.575   6.090   3.966
 3167SOL     OW12986   0.434   5.731   4.393
 3167SOL    HW212987   0.484   5.774   4.324
 3167SOL    HW312988   0.349   5.775   4.393
 3167SOL    MW412989   0.431   5.744   4.384
 3168SOL     OW12990   0.193   6.793   5.253
 3168SOL    HW212991   0.221   6.746   5.331
 3168SOL    HW312992   0.114   6.748   5.224
 3168SOL    MW412993   0.186   6.782   5.259
 3169SOL     OW12994   0.701   6.120   5.220
 3169SOL    HW212995   0.673   6.208   5.244
 3169SOL    HW312996   0.670   6.064   5.291
 3169SOL    MW412997   0.693   6.123   5.232
 3170SOL     OW12998   1.243   6.338   3.939
 3170SOL    HW212999   1.290   6.356   3.858
 3170SOL    HW313000   1.209   6.422   3.967
 3170SOL    MW413001   1.245   6.352   3.932
 3171SOL     OW13002   0.356   6.516   4.433
 3171SOL    HW213003   0.414   6.572   4.381
 3171SOL    HW313004   0.400   6.431   4.435
 3171SOL    MW413005   0.369   6.513   4.426
 3172SOL     OW13006   1.496   5.868   4.270
 3172SOL    HW213007   1.418   5.818   4.295
 3172SOL    HW313008   1.467   5.959   4.270
 3172SOL    MW413009   1.482   5.872   4.273
 3173SOL     OW13010   1.082   5.830   4.429
 3173SOL    HW213011   1.102   5.905   4.373
 3173SOL    HW313012   1.062   5.869   4.514
 3173SOL    MW413013   1.083   5.846   4.433
 3174SOL     OW13014   0.978   7.080   3.761
 3174SOL    HW213015   1.005   7.158   3.713
 3174SOL    HW313016   0.885   7.095   3.780
 3174SOL    MW413017   0.969   7.093   3.757
 3175SOL     OW13018   1.842   6.603   5.448
 3175SOL    HW213019   1.755   6.583   5.484
 3175SOL    HW313020   1.896   6.529   5.473
 3175SOL    MW413021   1.837   6.592   5.456
 3176SOL     OW13022   0.063   7.116   4.605
 3176SOL    HW213023   0.095   7.120   4.696
 3176SOL    HW313024  -0.032   7.124   4.613
 3176SOL    MW413025   0.055   7.119   4.618
 3177SOL     OW13026   0.018   6.242   4.152
 3177SOL    HW213027  -0.042   6.214   4.222
 3177SOL    HW313028   0.092   6.182   4.158
 3177SOL    MW413029   0.020   6.231   4.161
 3178SOL     OW13030   1.586   7.454   5.586
 3178SOL    HW213031   1.631   7.378   5.551
 3178SOL    HW313032   1.624   7.467   5.673
 3178SOL    MW413033   1.596   7.447   5.592
 3179SOL     OW13034   1.186   6.973   4.312
 3179SOL    HW213035   1.209   6.924   4.390
 3179SOL    HW313036   1.267   7.015   4.284
 3179SOL    MW413037   1.199   6.973   4.319
 3180SOL     OW13038   0.444   5.981   5.041
 3180SOL    HW213039   0.477   6.062   5.081
 3180SOL    HW313040   0.417   6.007   4.953
 3180SOL    MW413041   0.443   5.995   5.035
 3181SOL     OW13042   0.398   5.948   4.777
 3181SOL    HW213043   0.428   5.862   4.748
 3181SOL    HW313044   0.303   5.941   4.780
 3181SOL    MW413045   0.390   5.937   4.775
 3182SOL     OW13046   1.227   6.157   5.468
 3182SOL    HW213047   1.279   6.092   5.421
 3182SOL    HW313048   1.185   6.208   5.398
 3182SOL    MW413049   1.228   6.154   5.451
 3183SOL     OW13050   1.326   5.952   5.329
 3183SOL    HW213051   1.233   5.936   5.316
 3183SOL    HW313052   1.352   5.890   5.397
 3183SOL    MW413053   1.316   5.942   5.336
 3184SOL     OW13054   0.541   5.726   4.668
 3184SOL    HW213055   0.551   5.635   4.694
 3184SOL    HW313056   0.497   5.722   4.583
 3184SOL    MW413057   0.537   5.714   4.660
 3185SOL     OW13058   0.635   7.341   5.214
 3185SOL    HW213059   0.552   7.326   5.259
 3185SOL    HW313060   0.694   7.274   5.249
 3185SOL    MW413061   0.633   7.331   5.224
 3186SOL     OW13062   1.692   6.048   4.839
 3186SOL    HW213063   1.625   6.081   4.899
 3186SOL    HW313064   1.735   6.126   4.805
 3186SOL    MW413065   1.690   6.063   4.843
 3187SOL     OW13066   1.870   6.768   4.809
 3187SOL    HW213067   1.863   6.708   4.734
 3187SOL    HW313068   1.796   6.828   4.798
 3187SOL    MW413069   1.860   6.768   4.798
 3188SOL     OW13070   1.252   6.630   4.727
 3188SOL    HW213071   1.266   6.602   4.818
 3188SOL    HW313072   1.338   6.661   4.699
 3188SOL    MW413073   1.265   6.631   4.736
 3189SOL     OW13074   1.335   6.125   5.006
 3189SOL    HW213075   1.356   6.126   4.913
 3189SOL    HW313076   1.380   6.047   5.039
 3189SOL    MW413077   1.342   6.115   4.998
 3190SOL     OW13078   1.828   6.256   5.548
 3190SOL    HW213079   1.865   6.201   5.617
 3190SOL    HW313080   1.853   6.213   5.466
 3190SOL    MW413081   1.835   6.244   5.547
 3191SOL     OW13082   1.375   6.554   5.600
 3191SOL    HW213083   1.441   6.502   5.554
 3191SOL    HW313084   1.395   6.541   5.693
 3191SOL    MW413085   1.386   6.545   5.607
 3192SOL     OW13086   1.326   5.640   3.948
 3192SOL    HW213087   1.400   5.684   3.991
 3192SOL    HW313088   1.250   5.694   3.970
 3192SOL    MW413089   1.326   5.652   3.956
 3193SOL     OW13090   1.386   6.415   4.226
 3193SOL    HW213091   1.301   6.385   4.196
 3193SOL    HW313092   1.378   6.422   4.321
 3193SOL    MW413093   1.374   6.413   4.235
 3194SOL     OW13094   0.462   6.878   4.957
 3194SOL    HW213095   0.474   6.905   5.048
 3194SOL    HW313096   0.443   6.959   4.910
 3194SOL    MW413097   0.461   6.893   4.962
 3195SOL     OW13098   0.746   5.858   4.780
 3195SOL    HW213099   0.719   5.860   4.871
 3195SOL    HW313100   0.676   5.810   4.735
 3195SOL    MW413101   0.734   5.854   4.787
 3196SOL     OW13102   0.600   7.350   4.942
 3196SOL    HW213103   0.652   7.427   4.919
 3196SOL    HW313104   0.609   7.342   5.037
 3196SOL    MW413105   0.609   7.357   4.953
 3197SOL     OW13106   1.502   6.935   5.174
 3197SOL    HW213107   1.487   6.864   5.237
 3197SOL    HW313108   1.548   6.893   5.102
 3197SOL    MW413109   1.508   6.919   5.174
 3198SOL     OW13110   0.576   6.666   5.291
 3198SOL    HW213111   0.613   6.671   5.203
 3198SOL    HW313112   0.615   6.739   5.338
 3198SOL    MW413113   0.586   6.676   5.286
 3199SOL     OW13114   0.756   6.709   5.103
 3199SOL    HW213115   0.815   6.655   5.156
 3199SOL    HW313116   0.771   6.681   5.013
 3199SOL    MW413117   0.766   6.698   5.099
 3200SOL     OW13118   0.759   6.081   3.952
 3200SOL    HW213119   0.832   6.130   3.915
 3200SOL    HW313120   0.775   5.990   3.926
 3200SOL    MW413121   0.771   6.076   3.945
 3201SOL     OW13122   1.567   7.198   5.275
 3201SOL    HW213123   1.609   7.183   5.360
 3201SOL    HW313124   1.558   7.111   5.237
 3201SOL    MW413125   1.571   7.186   5.282
 3202SOL     OW13126   1.227   5.677   4.866
 3202SOL    HW213127   1.282   5.686   4.788
 3202SOL    HW313128   1.282   5.711   4.937
 3202SOL    MW413129   1.241   5.682   4.865
 3203SOL     OW13130   0.234   6.590   4.050
 3203SOL    HW213131   0.171   6.606   3.979
 3203SOL    HW313132   0.181   6.553   4.121
 3203SOL    MW413133   0.219   6.587   4.050
 3204SOL     OW13134   0.590   6.944   3.909
 3204SOL    HW213135   0.605   6.920   4.001
 3204SOL    HW313136   0.498   6.922   3.893
 3204SOL    MW413137   0.580   6.937   3.919
 3205SOL     OW13138   1.129   7.175   4.061
 3205SOL    HW213139   1.137   7.093   4.012
 3205SOL    HW313140   1.048   7.214   4.028
 3205SOL    MW413141   1.119   7.170   4.051
 3206SOL     OW13142   0.388   7.333   4.630
 3206SOL    HW213143   0.392   7.244   4.665
 3206SOL    HW313144   0.414   7.324   4.539
 3206SOL    MW413145   0.391   7.321   4.622
 3207SOL     OW13146   1.005   6.811   4.873
 3207SOL    HW213147   0.937   6.745   4.889
 3207SOL    HW313148   1.023   6.805   4.780
 3207SOL    MW413149   0.998   6.802   4.864
 3208SOL     OW13150   0.094   7.086   5.124
 3208SOL    HW213151   0.084   7.044   5.210
 3208SOL    HW313152   0.015   7.139   5.114
 3208SOL    MW413153   0.083   7.087   5.135
 3209SOL     OW13154   0.998   5.950   4.694
 3209SOL    HW213155   0.928   5.902   4.739
 3209SOL    HW313156   1.030   6.013   4.758
 3209SOL    MW413157   0.993   5.952   4.708
 3210SOL     OW13158   0.649   6.386   5.314
 3210SOL    HW213159   0.642   6.481   5.302
 3210SOL    HW313160   0.658   6.375   5.409
 3210SOL    MW413161   0.650   6.398   5.324
 3211SOL     OW13162   0.370   6.901   5.572
 3211SOL    HW213163   0.442   6.903   5.509
 3211SOL    HW313164   0.340   6.810   5.571
 3211SOL    MW413165   0.375   6.890   5.564
 3212SOL     OW13166   1.454   5.664   5.039
 3212SOL    HW213167   1.525   5.610   5.003
 3212SOL    HW313168   1.453   5.643   5.132
 3212SOL    MW413169   1.463   5.655   5.047
 3213SOL     OW13170   1.654   7.194   5.523
 3213SOL    HW213171   1.627   7.191   5.614
 3213SOL    HW313172   1.750   7.198   5.526
 3213SOL    MW413173   1.664   7.194   5.535
 3214SOL     OW13174   0.465   6.056   4.507
 3214SOL    HW213175   0.536   6.004   4.470
 3214SOL    HW313176   0.451   6.021   4.594
 3214SOL    MW413177   0.473   6.045   4.514
 3215SOL     OW13178   0.020   7.391   5.579
 3215SOL    HW213179   0.070   7.369   5.501
 3215SOL    HW313180   0.028   7.486   5.587
 3215SOL    MW413181   0.028   7.400   5.570
 3216SOL     OW13182   0.781   7.149   4.583
 3216SOL    HW213183   0.709   7.086   4.596
 3216SOL    HW313184   0.742   7.234   4.601
 3216SOL    MW413185   0.765   7.152   4.586
 3217SOL     OW13186   1.101   5.997   4.231
 3217SOL    HW213187   1.123   5.934   4.163
 3217SOL    HW313188   1.006   5.989   4.242
 3217SOL    MW413189   1.091   5.988   4.223
 3218SOL     OW13190   0.186   5.687   4.163
 3218SOL    HW213191   0.257   5.708   4.102
 3218SOL    HW313192   0.140   5.615   4.121
 3218SOL    MW413193   0.190   5.681   4.149
 3219SOL     OW13194   0.017   6.154   5.306
 3219SOL    HW213195   0.081   6.220   5.281
 3219SOL    HW313196  -0.064   6.181   5.263
 3219SOL    MW413197   0.015   6.166   5.298
 3220SOL     OW13198   1.755   7.061   4.263
 3220SOL    HW213199   1.725   6.994   4.324
 3220SOL    HW313200   1.849   7.067   4.277
 3220SOL    MW413201   1.763   7.053   4.273
 3221SOL     OW13202   1.311   6.738   4.193
 3221SOL    HW213203   1.283   6.824   4.226
 3221SOL    HW313204   1.339   6.754   4.103
 3221SOL    MW413205   1.311   6.752   4.185
 3222SOL     OW13206   0.973   5.658   4.246
 3222SOL    HW213207   1.010   5.717   4.311
 3222SOL    HW313208   0.950   5.714   4.172
 3222SOL    MW413209   0.974   5.673   4.245
 3223SOL     OW13210   1.826   6.540   4.668
 3223SOL    HW213211   1.817   6.572   4.579
 3223SOL    HW313212   1.779   6.456   4.668
 3223SOL    MW413213   1.819   6.533   4.658
 3224SOL     OW13214   0.202   6.380   5.247
 3224SOL    HW213215   0.223   6.449   5.185
 3224SOL    HW313216   0.282   6.327   5.252
 3224SOL    MW413217   0.215   6.381   5.241
 3225SOL     OW13218   1.738   6.471   4.369
 3225SOL    HW213219   1.832   6.460   4.357
 3225SOL    HW313220   1.714   6.543   4.310
 3225SOL    MW413221   1.748   6.479   4.360
 3226SOL     OW13222   0.187   6.395   5.514
 3226SOL    HW213223   0.113   6.339   5.540
 3226SOL    HW313224   0.182   6.398   5.419
 3226SOL    MW413225   0.176   6.388   5.504
 3227SOL     OW13226   0.353   5.682   4.964
 3227SOL    HW213227   0.396   5.766   4.984
 3227SOL    HW313228   0.426   5.620   4.957
 3227SOL    MW413229   0.368   5.685   4.965
 3228SOL     OW13230   0.394   6.349   4.142
 3228SOL    HW213231   0.394   6.444   4.127
 3228SOL    HW313232   0.471   6.333   4.196
 3228SOL    MW413233   0.404   6.360   4.147
 3229SOL     OW13234   1.170   6.208   5.206
 3229SOL    HW213235   1.206   6.181   5.122
 3229SOL    HW313236   1.083   6.242   5.185
 3229SOL    MW413237   1.164   6.209   5.193
 3230SOL     OW13238   0.153   6.080   4.431
 3230SOL    HW213239   0.215   6.087   4.504
 3230SOL    HW313240   0.153   5.987   4.408
 3230SOL    MW413241   0.161   6.069   4.438
 3231SOL     OW13242   1.700   7.420   3.963
 3231SOL    HW213243   1.767   7.453   3.903
 3231SOL    HW313244   1.657   7.499   3.997
 3231SOL    MW413245   1.702   7.435   3.959
 3232SOL     OW13246   0.835   6.341   4.915
 3232SOL    HW213247   0.793   6.259   4.891
 3232SOL    HW313248   0.836   6.340   5.011
 3232SOL    MW413249   0.828   6.330   4.924
 3233SOL     OW13250   1.506   7.474   5.314
 3233SOL    HW213251   1.509   7.380   5.297
 3233SOL    HW313252   1.529   7.482   5.406
 3233SOL    MW413253   1.509   7.462   5.324
 3234SOL     OW13254   0.639   5.811   5.020
 3234SOL    HW213255   0.570   5.874   5.041
 3234SOL    HW313256   0.666   5.775   5.105
 3234SOL    MW413257   0.633   5.814   5.033
 3235SOL     OW13258   0.022   6.652   3.889
 3235SOL    HW213259  -0.009   6.717   3.952
 3235SOL    HW313260  -0.029   6.574   3.908
 3235SOL    MW413261   0.012   6.649   3.899
 3236SOL     OW13262   1.434   5.664   4.637
 3236SOL    HW213263   1.522   5.673   4.674
 3236SOL    HW313264   1.444   5.605   4.563
 3236SOL    MW413265   1.448   5.658   4.631
 3237SOL     OW13266   1.466   6.403   4.481
 3237SOL    HW213267   1.546   6.418   4.430
 3237SOL    HW313268   1.459   6.308   4.487
 3237SOL    MW413269   1.475   6.392   4.476
 3238SOL     OW13270   0.606   7.452   3.831
 3238SOL    HW213271   0.511   7.452   3.823
 3238SOL    HW313272   0.622   7.398   3.909
 3238SOL    MW413273   0.596   7.446   3.840
 3239SOL     OW13274   0.916   6.329   5.178
 3239SOL    HW213275   0.985   6.396   5.175
 3239SOL    HW313276   0.849   6.367   5.234
 3239SOL    MW413277   0.917   6.342   5.185
 3240SOL     OW13278   0.334   6.629   5.426
 3240SOL    HW213279   0.288   6.545   5.428
 3240SOL    HW313280   0.391   6.623   5.350
 3240SOL    MW413281   0.336   6.617   5.418
 3241SOL     OW13282   1.451   6.272   3.747
 3241SOL    HW213283   1.379   6.248   3.689
 3241SOL    HW313284   1.517   6.309   3.689
 3241SOL    MW413285   1.450   6.274   3.732
 3242SOL     OW13286   0.585   7.004   4.427
 3242SOL    HW213287   0.650   6.937   4.448
 3242SOL    HW313288   0.637   7.081   4.404
 3242SOL    MW413289   0.600   7.006   4.426
 3243SOL     OW13290   0.846   6.169   4.557
 3243SOL    HW213291   0.786   6.187   4.629
 3243SOL    HW313292   0.880   6.081   4.576
 3243SOL    MW413293   0.842   6.159   4.570
 3244SOL     OW13294   1.787   5.668   5.226
 3244SOL    HW213295   1.708   5.714   5.254
 3244SOL    HW313296   1.822   5.722   5.155
 3244SOL    MW413297   1.781   5.681   5.220
 3245SOL     OW13298   1.071   6.752   4.576
 3245SOL    HW213299   1.163   6.733   4.594
 3245SOL    HW313300   1.044   6.682   4.516
 3245SOL    MW413301   1.079   6.740   4.570
 3246SOL     OW13302   0.864   6.572   3.931
 3246SOL    HW213303   0.850   6.484   3.896
 3246SOL    HW313304   0.815   6.629   3.872
 3246SOL    MW413305   0.856   6.567   3.919
 3247SOL     OW13306   1.345   6.990   4.672
 3247SOL    HW213307   1.318   7.074   4.637
 3247SOL    HW313308   1.305   6.985   4.759
 3247SOL    MW413309   1.338   6.999   4.678
 3248SOL     OW13310   1.264   6.938   4.940
 3248SOL    HW213311   1.275   6.905   5.029
 3248SOL    HW313312   1.183   6.897   4.909
 3248SOL    MW413313   1.254   6.930   4.946
 3249SOL     OW13314   0.277   6.296   4.710
 3249SOL    HW213315   0.227   6.295   4.791
 3249SOL    HW313316   0.297   6.388   4.694
 3249SOL    MW413317   0.273   6.308   4.718
 3250SOL     OW13318   1.344   7.060   5.472
 3250SOL    HW213319   1.344   7.154   5.488
 3250SOL    HW313320   1.389   7.050   5.388
 3250SOL    MW413321   1.350   7.070   5.463
 3251SOL     OW13322   1.583   5.778   4.033
 3251SOL    HW213323   1.576   5.782   4.128
 3251SOL    HW313324   1.595   5.869   4.006
 3251SOL    MW413325   1.584   5.791   4.041
 3252SOL     OW13326   0.872   6.341   4.147
 3252SOL    HW213327   0.852   6.327   4.054
 3252SOL    HW313328   0.965   6.320   4.154
 3252SOL    MW413329   0.882   6.336   4.136
 3253SOL     OW13330   0.199   5.964   5.451
 3253SOL    HW213331   0.156   6.023   5.388
 3253SOL    HW313332   0.267   6.019   5.491
 3253SOL    MW413333   0.203   5.979   5.448
 3254SOL     OW13334   1.311   6.584   4.996
 3254SOL    HW213335   1.374   6.581   5.069
 3254SOL    HW313336   1.227   6.602   5.038
 3254SOL    MW413337   1.307   6.586   5.011
 3255SOL     OW13338   0.855   7.299   4.185
 3255SOL    HW213339   0.913   7.370   4.212
 3255SOL    HW313340   0.878   7.227   4.243
 3255SOL    MW413341   0.866   7.299   4.196
 3256SOL     OW13342   1.650   5.761   4.775
 3256SOL    HW213343   1.695   5.679   4.794
 3256SOL    HW313344   1.670   5.817   4.851
 3256SOL    MW413345   1.660   5.757   4.787
 3257SOL     OW13346   0.098   5.604   4.874
 3257SOL    HW213347   0.089   5.605   4.779
 3257SOL    HW313348   0.192   5.616   4.889
 3257SOL    MW413349   0.110   5.607   4.865
 3258SOL     OW13350   1.735   6.797   4.494
 3258SOL    HW213351   1.714   6.743   4.417
 3258SOL    HW313352   1.831   6.795   4.498
 3258SOL    MW413353   1.744   6.790   4.483
 3259SOL     OW13354   0.427   6.942   5.237
 3259SOL    HW213355   0.348   6.892   5.260
 3259SOL    HW313356   0.497   6.901   5.287
 3259SOL    MW413357   0.425   6.930   5.247
 3260SOL     OW13358   0.311   5.731   3.920
 3260SOL    HW213359   0.240   5.786   3.888
 3260SOL    HW313360   0.353   5.697   3.841
 3260SOL    MW413361   0.307   5.733   3.906
 3261SOL     OW13362   1.435   6.228   4.756
 3261SOL    HW213363   1.358   6.274   4.722
 3261SOL    HW313364   1.492   6.297   4.790
 3261SOL    MW413365   1.432   6.243   4.756
 3262SOL     OW13366   0.067   5.830   3.769
 3262SOL    HW213367   0.034   5.909   3.813
 3262SOL    HW313368   0.122   5.863   3.698
 3262SOL    MW413369   0.070   5.844   3.766
 3263SOL     OW13370   0.101   7.087   3.958
 3263SOL    HW213371   0.118   7.171   4.000
 3263SOL    HW313372   0.136   7.096   3.870
 3263SOL    MW413373   0.106   7.100   3.952
 3264SOL     OW13374   1.373   7.176   4.175
 3264SOL    HW213375   1.436   7.166   4.104
 3264SOL    HW313376   1.290   7.196   4.130
 3264SOL    MW413377   1.370   7.177   4.160
 3265SOL     OW13378   1.736   6.444   5.862
 3265SOL    HW213379   1.777   6.386   5.927
 3265SOL    HW313380   1.643   6.436   5.879
 3265SOL    MW413381   1.730   6.436   5.872
 3266SOL     OW13382   1.602   6.376   6.857
 3266SOL    HW213383   1.557   6.443   6.908
 3266SOL    HW313384   1.690   6.412   6.843
 3266SOL    MW413385   1.608   6.389   6.861
 3267SOL     OW13386   0.530   6.627   6.091
 3267SOL    HW213387   0.620   6.602   6.075
 3267SOL    HW313388   0.526   6.720   6.068
 3267SOL    MW413389   0.542   6.636   6.086
 3268SOL     OW13390   1.646   7.330   6.233
 3268SOL    HW213391   1.658   7.276   6.311
 3268SOL    HW313392   1.683   7.278   6.162
 3268SOL    MW413393   1.652   7.315   6.234
 3269SOL     OW13394   1.025   7.215   7.234
 3269SOL    HW213395   1.066   7.251   7.155
 3269SOL    HW313396   1.060   7.126   7.241
 3269SOL    MW413397   1.036   7.208   7.225
 3270SOL     OW13398   1.582   6.770   6.838
 3270SOL    HW213399   1.503   6.735   6.796
 3270SOL    HW313400   1.609   6.842   6.782
 3270SOL    MW413401   1.575   6.775   6.825
 3271SOL     OW13402   0.814   6.083   6.104
 3271SOL    HW213403   0.789   6.171   6.132
 3271SOL    HW313404   0.811   6.086   6.008
 3271SOL    MW413405   0.810   6.095   6.096
 3272SOL     OW13406   0.256   6.111   6.032
 3272SOL    HW213407   0.288   6.199   6.014
 3272SOL    HW313408   0.244   6.109   6.127
 3272SOL    MW413409   0.259   6.123   6.044
 3273SOL     OW13410   0.334   6.524   6.933
 3273SOL    HW213411   0.397   6.471   6.884
 3273SOL    HW313412   0.315   6.598   6.876
 3273SOL    MW413413   0.340   6.526   6.920
 3274SOL     OW13414   0.655   5.866   6.119
 3274SOL    HW213415   0.713   5.942   6.121
 3274SOL    HW313416   0.590   5.887   6.052
 3274SOL    MW413417   0.654   5.878   6.110
 3275SOL     OW13418   0.742   6.793   6.294
 3275SOL    HW213419   0.822   6.796   6.346
 3275SOL    HW313420   0.770   6.760   6.208
 3275SOL    MW413421   0.756   6.789   6.289
 3276SOL     OW13422   0.767   7.134   7.197
 3276SOL    HW213423   0.851   7.160   7.236
 3276SOL    HW313424   0.791   7.078   7.123
 3276SOL    MW413425   0.781   7.130   7.192
 3277SOL     OW13426   0.519   6.297   6.285
 3277SOL    HW213427   0.504   6.217   6.336
 3277SOL    HW313428   0.601   6.332   6.319
 3277SOL    MW413429   0.527   6.289   6.297
 3278SOL     OW13430   0.856   6.983   6.970
 3278SOL    HW213431   0.820   7.049   6.910
 3278SOL    HW313432   0.784   6.921   6.983
 3278SOL    MW413433   0.842   6.983   6.964
 3279SOL     OW13434   0.661   6.123   6.662
 3279SOL    HW213435   0.567   6.119   6.680
 3279SOL    HW313436   0.691   6.032   6.671
 3279SOL    MW413437   0.652   6.111   6.665
 3280SOL     OW13438   0.407   6.537   6.566
 3280SOL    HW213439   0.362   6.544   6.482
 3280SOL    HW313440   0.387   6.620   6.610
 3280SOL    MW413441   0.399   6.549   6.560
 3281SOL     OW13442   0.104   7.383   6.441
 3281SOL    HW213443   0.193   7.375   6.476
 3281SOL    HW313444   0.068   7.295   6.446
 3281SOL    MW413445   0.111   7.370   6.446
 3282SOL     OW13446   1.369   6.775   5.810
 3282SOL    HW213447   1.287   6.811   5.776
 3282SOL    HW313448   1.437   6.818   5.759
 3282SOL    MW413449   1.367   6.785   5.798
 3283SOL     OW13450   0.368   6.910   6.476
 3283SOL    HW213451   0.344   6.963   6.552
 3283SOL    HW313452   0.424   6.968   6.424
 3283SOL    MW413453   0.372   6.925   6.479
 3284SOL     OW13454   0.930   6.554   6.286
 3284SOL    HW213455   0.844   6.541   6.326
 3284SOL    HW313456   0.983   6.481   6.318
 3284SOL    MW413457   0.926   6.543   6.295
 3285SOL     OW13458   0.338   7.206   7.071
 3285SOL    HW213459   0.246   7.182   7.056
 3285SOL    HW313460   0.382   7.123   7.088
 3285SOL    MW413461   0.332   7.191   7.070
 3286SOL     OW13462   0.921   6.916   6.003
 3286SOL    HW213463   0.898   6.978   6.071
 3286SOL    HW313464   0.878   6.834   6.029
 3286SOL    MW413465   0.913   6.912   6.014
 3287SOL     OW13466   1.794   5.917   6.459
 3287SOL    HW213467   1.731   5.897   6.528
 3287SOL    HW313468   1.784   5.846   6.396
 3287SOL    MW413469   1.784   5.904   6.460
 3288SOL     OW13470   0.418   5.889   5.971
 3288SOL    HW213471   0.392   5.851   5.887
 3288SOL    HW313472   0.355   5.959   5.987
 3288SOL    MW413473   0.407   5.892   5.962
 3289SOL     OW13474   0.253   6.850   6.008
 3289SOL    HW213475   0.201   6.918   5.964
 3289SOL    HW313476   0.250   6.776   5.948
 3289SOL    MW413477   0.245   6.849   5.995
 3290SOL     OW13478   0.915   7.313   5.786
 3290SOL    HW213479   0.870   7.329   5.869
 3290SOL    HW313480   0.846   7.278   5.728
 3290SOL    MW413481   0.901   7.310   5.788
 3291SOL     OW13482   1.850   6.086   5.761
 3291SOL    HW213483   1.759   6.088   5.789
 3291SOL    HW313484   1.895   6.148   5.819
 3291SOL    MW413485   1.843   6.094   5.771
 3292SOL     OW13486   1.595   6.689   6.111
 3292SOL    HW213487   1.505   6.689   6.146
 3292SOL    HW313488   1.588   6.735   6.028
 3292SOL    MW413489   1.582   6.695   6.105
 3293SOL     OW13490   1.395   6.324   7.183
 3293SOL    HW213491   1.464   6.262   7.160
 3293SOL    HW313492   1.320   6.298   7.130
 3293SOL    MW413493   1.395   6.311   7.174
 3294SOL     OW13494   0.136   7.204   6.735
 3294SOL    HW213495   0.119   7.150   6.812
 3294SOL    HW313496   0.124   7.294   6.765
 3294SOL    MW413497   0.133   7.208   6.749
 3295SOL     OW13498   1.131   6.711   7.175
 3295SOL    HW213499   1.116   6.804   7.160
 3295SOL    HW313500   1.226   6.701   7.175
 3295SOL    MW413501   1.140   6.721   7.172
 3296SOL     OW13502   0.927   6.135   7.376
 3296SOL    HW213503   1.017   6.136   7.343
 3296SOL    HW313504   0.886   6.060   7.334
 3296SOL    MW413505   0.933   6.125   7.367
 3297SOL     OW13506   1.502   6.667   6.503
 3297SOL    HW213507   1.505   6.601   6.434
 3297SOL    HW313508   1.587   6.710   6.499
 3297SOL    MW413509   1.514   6.663   6.494
 3298SOL     OW13510   1.122   6.270   6.072
 3298SOL    HW213511   1.148   6.294   5.983
 3298SOL    HW313512   1.104   6.177   6.068
 3298SOL    MW413513   1.124   6.262   6.059
 3299SOL     OW13514   1.787   6.890   5.923
 3299SOL    HW213515   1.743   6.931   5.998
 3299SOL    HW313516   1.844   6.958   5.888
 3299SOL    MW413517   1.789   6.904   5.928
 3300SOL     OW13518   0.707   5.939   7.326
 3300SOL    HW213519   0.717   5.865   7.266
 3300SOL    HW313520   0.743   5.908   7.409
 3300SOL    MW413521   0.713   5.925   7.328
 3301SOL     OW13522   0.443   7.306   6.241
 3301SOL    HW213523   0.475   7.394   6.219
 3301SOL    HW313524   0.396   7.278   6.163
 3301SOL    MW413525   0.442   7.314   6.228
 3302SOL     OW13526   1.827   5.668   6.290
 3302SOL    HW213527   1.881   5.619   6.352
 3302SOL    HW313528   1.770   5.602   6.251
 3302SOL    MW413529   1.827   5.652   6.292
 3303SOL     OW13530   0.159   7.366   5.818
 3303SOL    HW213531   0.188   7.456   5.810
 3303SOL    HW313532   0.109   7.349   5.739
 3303SOL    MW413533   0.157   7.374   5.807
 3304SOL     OW13534   0.946   5.621   6.703
 3304SOL    HW213535   0.905   5.699   6.665
 3304SOL    HW313536   1.040   5.639   6.698
 3304SOL    MW413537   0.952   5.633   6.698
 3305SOL     OW13538   1.563   7.174   5.789
 3305SOL    HW213539   1.611   7.243   5.835
 3305SOL    HW313540   1.484   7.218   5.758
 3305SOL    MW413541   1.558   7.188   5.792
 3306SOL     OW13542   0.961   6.299   5.733
 3306SOL    HW213543   0.963   6.246   5.654
 3306SOL    HW313544   1.049   6.336   5.739
 3306SOL    MW413545   0.973   6.298   5.722
 3307SOL     OW13546   1.575   6.225   6.069
 3307SOL    HW213547   1.614   6.225   6.156
 3307SOL    HW313548   1.516   6.301   6.069
 3307SOL    MW413549   1.572   6.236   6.080
 3308SOL     OW13550   0.892   6.592   7.198
 3308SOL    HW213551   0.869   6.572   7.288
 3308SOL    HW313552   0.977   6.636   7.203
 3308SOL    MW413553   0.899   6.595   7.210
 3309SOL     OW13554   0.972   5.729   6.958
 3309SOL    HW213555   0.978   5.691   6.871
 3309SOL    HW313556   0.961   5.823   6.943
 3309SOL    MW413557   0.973   5.737   6.946
 3310SOL     OW13558   1.061   6.218   6.792
 3310SOL    HW213559   1.136   6.247   6.739
 3310SOL    HW313560   0.993   6.283   6.776
 3310SOL    MW413561   1.062   6.230   6.782
 3311SOL     OW13562   1.611   6.186   7.069
 3311SOL    HW213563   1.592   6.095   7.048
 3311SOL    HW313564   1.589   6.235   6.990
 3311SOL    MW413565   1.606   6.179   7.056
 3312SOL     OW13566   1.753   7.280   6.973
 3312SOL    HW213567   1.681   7.242   7.024
 3312SOL    HW313568   1.770   7.365   7.014
 3312SOL    MW413569   1.747   7.285   6.985
 3313SOL     OW13570   1.058   5.924   7.175
 3313SOL    HW213571   1.024   5.963   7.094
 3313SOL    HW313572   1.036   5.832   7.168
 3313SOL    MW413573   1.051   5.917   7.165
 3314SOL     OW13574   1.467   6.738   7.251
 3314SOL    HW213575   1.549   6.779   7.281
 3314SOL    HW313576   1.430   6.700   7.331
 3314SOL    MW413577   1.473   6.739   7.266
 3315SOL     OW13578   1.762   6.111   6.235
 3315SOL    HW213579   1.851   6.080   6.252
 3315SOL    HW313580   1.705   6.051   6.283
 3315SOL    MW413581   1.765   6.099   6.244
 3316SOL     OW13582   0.188   5.825   6.264
 3316SOL    HW213583   0.179   5.765   6.190
 3316SOL    HW313584   0.121   5.796   6.327
 3316SOL    MW413585   0.178   5.812   6.262
 3317SOL     OW13586   1.131   6.918   5.825
 3317SOL    HW213587   1.081   6.920   5.907
 3317SOL    HW313588   1.065   6.936   5.757
 3317SOL    MW413589   1.117   6.920   5.827
 3318SOL     OW13590   0.135   5.998   6.627
 3318SOL    HW213591   0.107   6.089   6.636
 3318SOL    HW313592   0.072   5.959   6.566
 3318SOL    MW413593   0.122   6.004   6.621
 3319SOL     OW13594   0.594   7.336   5.933
 3319SOL    HW213595   0.515   7.294   5.966
 3319SOL    HW313596   0.660   7.319   6.000
 3319SOL    MW413597   0.593   7.328   5.946
 3320SOL     OW13598   1.722   6.856   7.330
 3320SOL    HW213599   1.772   6.782   7.362
 3320SOL    HW313600   1.668   6.883   7.405
 3320SOL    MW413601   1.722   6.850   7.343
 3321SOL     OW13602   0.730   6.751   5.640
 3321SOL    HW213603   0.652   6.697   5.627
 3321SOL    HW313604   0.701   6.824   5.693
 3321SOL    MW413605   0.716   6.753   5.645
 3322SOL     OW13606   1.856   6.491   6.832
 3322SOL    HW213607   1.872   6.529   6.745
 3322SOL    HW313608   1.890   6.557   6.893
 3322SOL    MW413609   1.863   6.504   6.828
 3323SOL     OW13610   1.648   7.200   6.501
 3323SOL    HW213611   1.677   7.267   6.562
 3323SOL    HW313612   1.629   7.124   6.556
 3323SOL    MW413613   1.650   7.200   6.516
 3324SOL     OW13614   1.311   7.267   5.708
 3324SOL    HW213615   1.237   7.230   5.758
 3324SOL    HW313616   1.319   7.357   5.741
 3324SOL    MW413617   1.302   7.274   5.720
 3325SOL     OW13618   0.119   6.273   6.797
 3325SOL    HW213619   0.181   6.303   6.863
 3325SOL    HW313620   0.053   6.342   6.791
 3325SOL    MW413621   0.118   6.286   6.804
 3326SOL     OW13622   1.535   6.941   5.650
 3326SOL    HW213623   1.482   6.990   5.586
 3326SOL    HW313624   1.566   7.007   5.711
 3326SOL    MW413625   1.533   6.955   5.648
 3327SOL     OW13626   0.760   5.830   5.705
 3327SOL    HW213627   0.708   5.750   5.693
 3327SOL    HW313628   0.847   5.807   5.673
 3327SOL    MW413629   0.763   5.816   5.699
 3328SOL     OW13630   0.214   7.382   7.249
 3328SOL    HW213631   0.188   7.450   7.187
 3328SOL    HW313632   0.262   7.319   7.197
 3328SOL    MW413633   0.216   7.382   7.235
 3329SOL     OW13634   0.266   6.701   6.756
 3329SOL    HW213635   0.319   6.776   6.781
 3329SOL    HW313636   0.185   6.739   6.722
 3329SOL    MW413637   0.262   6.716   6.756
 3330SOL     OW13638   0.806   6.605   6.744
 3330SOL    HW213639   0.834   6.514   6.756
 3330SOL    HW313640   0.735   6.599   6.680
 3330SOL    MW413641   0.799   6.593   6.739
 3331SOL     OW13642   0.121   6.470   6.162
 3331SOL    HW213643   0.212   6.485   6.189
 3331SOL    HW313644   0.124   6.391   6.108
 3331SOL    MW413645   0.133   6.462   6.160
 3332SOL     OW13646   0.357   6.178   7.416
 3332SOL    HW213647   0.304   6.258   7.423
 3332SOL    HW313648   0.427   6.190   7.481
 3332SOL    MW413649   0.359   6.191   7.424
 3333SOL     OW13650   0.743   5.728   7.123
 3333SOL    HW213651   0.720   5.636   7.125
 3333SOL    HW313652   0.829   5.730   7.080
 3333SOL    MW413653   0.750   5.718   7.119
 3334SOL     OW13654   0.427   6.252   7.162
 3334SOL    HW213655   0.507   6.302   7.148
 3334SOL    HW313656   0.418   6.246   7.257
 3334SOL    MW413657   0.436   6.258   7.172
 3335SOL     OW13658   0.748   7.402   6.536
 3335SOL    HW213659   0.837   7.417   6.566
 3335SOL    HW313660   0.743   7.449   6.452
 3335SOL    MW413661   0.758   7.410   6.529
 3336SOL     OW13662   1.404   5.777   7.433
 3336SOL    HW213663   1.460   5.704   7.459
 3336SOL    HW313664   1.374   5.815   7.515
 3336SOL    MW413665   1.408   5.772   7.446
 3337SOL     OW13666   0.129   7.082   6.201
 3337SOL    HW213667   0.101   7.121   6.283
 3337SOL    HW313668   0.149   6.991   6.223
 3337SOL    MW413669   0.127   7.074   6.214
 3338SOL     OW13670   0.962   7.125   6.236
 3338SOL    HW213671   1.045   7.079   6.220
 3338SOL    HW313672   0.952   7.124   6.332
 3338SOL    MW413673   0.972   7.118   6.246
 3339SOL     OW13674   1.794   6.270   6.550
 3339SOL    HW213675   1.883   6.300   6.532
 3339SOL    HW313676   1.774   6.210   6.479
 3339SOL    MW413677   1.803   6.267   6.539
 3340SOL     OW13678   1.645   6.449   7.430
 3340SOL    HW213679   1.700   6.373   7.411
 3340SOL    HW313680   1.647   6.457   7.525
 3340SOL    MW413681   1.653   6.440   7.438
 3341SOL     OW13682   0.695   7.182   5.641
 3341SOL    HW213683   0.635   7.251   5.611
 3341SOL    HW313684   0.640   7.124   5.694
 3341SOL    MW413685   0.679   7.184   5.643
 3342SOL     OW13686   1.133   5.827   5.864
 3342SOL    HW213687   1.066   5.803   5.801
 3342SOL    HW313688   1.198   5.876   5.813
 3342SOL    MW413689   1.133   5.829   5.849
 3343SOL     OW13690   0.940   6.011   6.949
 3343SOL    HW213691   0.859   6.052   6.977
 3343SOL    HW313692   0.987   6.079   6.901
 3343SOL    MW413693   0.935   6.026   6.947
 3344SOL     OW13694   1.200   6.349   6.572
 3344SOL    HW213695   1.213   6.443   6.582
 3344SOL    HW313696   1.161   6.339   6.486
 3344SOL    MW413697   1.196   6.360   6.562
 3345SOL     OW13698   0.652   6.544   6.376
 3345SOL    HW213699   0.563   6.535   6.409
 3345SOL    HW313700   0.656   6.634   6.344
 3345SOL    MW413701   0.641   6.555   6.376
 3346SOL     OW13702   1.451   6.127   6.371
 3346SOL    HW213703   1.396   6.048   6.370
 3346SOL    HW313704   1.433   6.168   6.455
 3346SOL    MW413705   1.441   6.122   6.380
 3347SOL     OW13706   0.422   5.814   7.188
 3347SOL    HW213707   0.343   5.832   7.240
 3347SOL    HW313708   0.417   5.876   7.115
 3347SOL    MW413709   0.412   5.824   7.185
 3348SOL     OW13710   1.070   6.331   6.328
 3348SOL    HW213711   1.007   6.263   6.352
 3348SOL    HW313712   1.090   6.312   6.236
 3348SOL    MW413713   1.064   6.318   6.320
 3349SOL     OW13714   0.326   7.226   6.030
 3349SOL    HW213715   0.287   7.273   5.956
 3349SOL    HW313716   0.260   7.161   6.055
 3349SOL    MW413717   0.313   7.224   6.024
 3350SOL     OW13718   0.818   6.635   6.054
 3350SOL    HW213719   0.820   6.609   5.961
 3350SOL    HW313720   0.876   6.572   6.097
 3350SOL    MW413721   0.826   6.624   6.048
 3351SOL     OW13722   1.371   7.195   6.826
 3351SOL    HW213723   1.296   7.241   6.864
 3351SOL    HW313724   1.353   7.102   6.843
 3351SOL    MW413725   1.360   7.189   6.834
 3352SOL     OW13726   1.375   7.403   6.256
 3352SOL    HW213727   1.318   7.356   6.195
 3352SOL    HW313728   1.461   7.364   6.243
 3352SOL    MW413729   1.378   7.394   6.246
 3353SOL     OW13730   1.328   5.879   6.387
 3353SOL    HW213731   1.356   5.811   6.448
 3353SOL    HW313732   1.242   5.850   6.357
 3353SOL    MW413733   1.321   5.866   6.391
 3354SOL     OW13734   0.133   6.813   6.321
 3354SOL    HW213735   0.197   6.845   6.384
 3354SOL    HW313736   0.182   6.749   6.269
 3354SOL    MW413737   0.148   6.809   6.322
 3355SOL     OW13738   0.633   6.889   7.303
 3355SOL    HW213739   0.681   6.972   7.290
 3355SOL    HW313740   0.690   6.837   7.359
 3355SOL    MW413741   0.647   6.893   7.309
 3356SOL     OW13742   0.209   7.131   7.443
 3356SOL    HW213743   0.265   7.055   7.458
 3356SOL    HW313744   0.158   7.109   7.365
 3356SOL    MW413745   0.209   7.118   7.434
 3357SOL     OW13746   1.308   5.983   5.722
 3357SOL    HW213747   1.281   6.049   5.658
 3357SOL    HW313748   1.378   6.026   5.772
 3357SOL    MW413749   1.313   5.996   5.719
 3358SOL     OW13750   0.976   5.688   5.659
 3358SOL    HW213751   1.032   5.680   5.581
 3358SOL    HW313752   0.953   5.598   5.681
 3358SOL    MW413753   0.981   5.675   5.652
 3359SOL     OW13754   1.481   6.539   5.864
 3359SOL    HW213755   1.448   6.628   5.854
 3359SOL    HW313756   1.446   6.510   5.949
 3359SOL    MW413757   1.471   6.548   5.875
 3360SOL     OW13758   1.094   6.968   7.052
 3360SOL    HW213759   1.005   6.974   7.020
 3360SOL    HW313760   1.138   7.047   7.020
 3360SOL    MW413761   1.089   6.978   7.044
 3361SOL     OW13762   0.387   5.636   7.394
 3361SOL    HW213763   0.315   5.601   7.342
 3361SOL    HW313764   0.445   5.677   7.329
 3361SOL    MW413765   0.385   5.637   7.379
 3362SOL     OW13766   0.411   7.126   6.693
 3362SOL    HW213767   0.456   7.188   6.750
 3362SOL    HW313768   0.318   7.145   6.706
 3362SOL    MW413769   0.404   7.136   6.700
 3363SOL     OW13770   1.851   6.655   7.047
 3363SOL    HW213771   1.766   6.668   7.006
 3363SOL    HW313772   1.831   6.619   7.134
 3363SOL    MW413773   1.838   6.651   7.052
 3364SOL     OW13774   0.833   7.194   6.801
 3364SOL    HW213775   0.857   7.183   6.710
 3364SOL    HW313776   0.756   7.251   6.799
 3364SOL    MW413777   0.825   7.199   6.790
 3365SOL     OW13778   0.475   6.577   5.656
 3365SOL    HW213779   0.398   6.590   5.712
 3365SOL    HW313780   0.439   6.541   5.575
 3365SOL    MW413781   0.461   6.573   5.653
 3366SOL     OW13782   1.128   6.550   5.899
 3366SOL    HW213783   1.038   6.571   5.874
 3366SOL    HW313784   1.155   6.623   5.955
 3366SOL    MW413785   1.120   6.562   5.902
 3367SOL     OW13786   0.628   6.899   6.591
 3367SOL    HW213787   0.621   6.878   6.685
 3367SOL    HW313788   0.546   6.867   6.554
 3367SOL    MW413789   0.616   6.893   6.598
 3368SOL     OW13790   1.492   5.909   6.993
 3368SOL    HW213791   1.439   5.911   7.073
 3368SOL    HW313792   1.477   5.822   6.956
 3368SOL    MW413793   1.484   5.899   6.998
 3369SOL     OW13794   1.828   5.833   6.866
 3369SOL    HW213795   1.809   5.900   6.801
 3369SOL    HW313796   1.885   5.771   6.821
 3369SOL    MW413797   1.832   5.834   6.852
 3370SOL     OW13798   0.074   6.991   7.254
 3370SOL    HW213799   0.118   6.924   7.200
 3370SOL    HW313800  -0.011   6.953   7.274
 3370SOL    MW413801   0.069   6.977   7.250
 3371SOL     OW13802   0.757   5.666   6.306
 3371SOL    HW213803   0.686   5.727   6.288
 3371SOL    HW313804   0.808   5.663   6.225
 3371SOL    MW413805   0.753   5.672   6.293
 3372SOL     OW13806   0.515   6.906   6.055
 3372SOL    HW213807   0.508   6.938   6.145
 3372SOL    HW313808   0.425   6.890   6.027
 3372SOL    MW413809   0.503   6.908   6.062
 3373SOL     OW13810   1.110   7.299   6.964
 3373SOL    HW213811   1.030   7.284   6.914
 3373SOL    HW313812   1.117   7.394   6.971
 3373SOL    MW413813   1.101   7.310   6.958
 3374SOL     OW13814   1.224   7.264   6.454
 3374SOL    HW213815   1.271   7.337   6.413
 3374SOL    HW313816   1.145   7.303   6.490
 3374SOL    MW413817   1.219   7.279   6.453
 3375SOL     OW13818   1.632   7.359   6.729
 3375SOL    HW213819   1.675   7.329   6.809
 3375SOL    HW313820   1.551   7.307   6.726
 3375SOL    MW413821   1.627   7.348   6.739
 3376SOL     OW13822   0.717   6.323   7.436
 3376SOL    HW213823   0.787   6.265   7.408
 3376SOL    HW313824   0.660   6.268   7.491
 3376SOL    MW413825   0.719   6.310   7.440
 3377SOL     OW13826   1.504   6.535   7.069
 3377SOL    HW213827   1.509   6.588   7.149
 3377SOL    HW313828   1.466   6.452   7.097
 3377SOL    MW413829   1.500   6.530   7.084
 3378SOL     OW13830   1.144   5.670   7.315
 3378SOL    HW213831   1.139   5.577   7.296
 3378SOL    HW313832   1.227   5.681   7.361
 3378SOL    MW413833   1.152   5.659   7.319
 3379SOL     OW13834   0.518   6.190   5.769
 3379SOL    HW213835   0.484   6.246   5.839
 3379SOL    HW313836   0.589   6.140   5.809
 3379SOL    MW413837   0.524   6.191   5.783
 3380SOL     OW13838   1.614   6.941   6.591
 3380SOL    HW213839   1.649   6.923   6.504
 3380SOL    HW313840   1.519   6.942   6.578
 3380SOL    MW413841   1.606   6.938   6.578
 3381SOL     OW13842   1.043   6.589   6.960
 3381SOL    HW213843   1.086   6.624   7.038
 3381SOL    HW313844   1.026   6.666   6.906
 3381SOL    MW413845   1.046   6.604   6.963
 3382SOL     OW13846   1.574   6.076   5.833
 3382SOL    HW213847   1.566   6.147   5.770
 3382SOL    HW313848   1.592   6.120   5.916
 3382SOL    MW413849   1.575   6.090   5.835
 3383SOL     OW13850   0.434   5.731   6.262
 3383SOL    HW213851   0.484   5.774   6.193
 3383SOL    HW313852   0.349   5.775   6.262
 3383SOL    MW413853   0.431   5.744   6.253
 3384SOL     OW13854   0.193   6.793   7.122
 3384SOL    HW213855   0.221   6.746   7.200
 3384SOL    HW313856   0.114   6.748   7.093
 3384SOL    MW413857   0.186   6.782   7.128
 3385SOL     OW13858   0.701   6.120   7.089
 3385SOL    HW213859   0.673   6.208   7.113
 3385SOL    HW313860   0.670   6.064   7.160
 3385SOL    MW413861   0.693   6.123   7.101
 3386SOL     OW13862   1.243   6.338   5.808
 3386SOL    HW213863   1.290   6.356   5.727
 3386SOL    HW313864   1.209   6.422   5.836
 3386SOL    MW413865   1.245   6.352   5.801
 3387SOL     OW13866   0.356   6.516   6.302
 3387SOL    HW213867   0.414   6.572   6.250
 3387SOL    HW313868   0.400   6.431   6.304
 3387SOL    MW413869   0.369   6.513   6.295
 3388SOL     OW13870   1.496   5.868   6.139
 3388SOL    HW213871   1.418   5.818   6.164
 3388SOL    HW313872   1.467   5.959   6.139
 3388SOL    MW413873   1.482   5.872   6.142
 3389SOL     OW13874   1.082   5.830   6.298
 3389SOL    HW213875   1.102   5.905   6.242
 3389SOL    HW313876   1.062   5.869   6.383
 3389SOL    MW413877   1.083   5.846   6.302
 3390SOL     OW13878   0.978   7.080   5.630
 3390SOL    HW213879   1.005   7.158   5.582
 3390SOL    HW313880   0.885   7.095   5.649
 3390SOL    MW413881   0.969   7.093   5.626
 3391SOL     OW13882   1.842   6.603   7.317
 3391SOL    HW213883   1.755   6.583   7.353
 3391SOL    HW313884   1.896   6.529   7.342
 3391SOL    MW413885   1.837   6.592   7.325
 3392SOL     OW13886   0.063   7.116   6.474
 3392SOL    HW213887   0.095   7.120   6.565
 3392SOL    HW313888  -0.032   7.124   6.482
 3392SOL    MW413889   0.055   7.119   6.487
 3393SOL     OW13890   0.018   6.242   6.021
 3393SOL    HW213891  -0.042   6.214   6.091
 3393SOL    HW313892   0.092   6.182   6.027
 3393SOL    MW413893   0.020   6.231   6.030
 3394SOL     OW13894   1.586   7.454   7.455
 3394SOL    HW213895   1.631   7.378   7.420
 3394SOL    HW313896   1.624   7.467   7.542
 3394SOL    MW413897   1.596   7.447   7.461
 3395SOL     OW13898   1.186   6.973   6.181
 3395SOL    HW213899   1.209   6.924   6.259
 3395SOL    HW313900   1.267   7.015   6.153
 3395SOL    MW413901   1.199   6.973   6.188
 3396SOL     OW13902   0.444   5.981   6.910
 3396SOL    HW213903   0.477   6.062   6.950
 3396SOL    HW313904   0.417   6.007   6.822
 3396SOL    MW413905   0.443   5.995   6.904
 3397SOL     OW13906   0.398   5.948   6.646
 3397SOL    HW213907   0.428   5.862   6.617
 3397SOL    HW313908   0.303   5.941   6.649
 3397SOL    MW413909   0.390   5.937   6.644
 3398SOL     OW13910   1.227   6.157   7.337
 3398SOL    HW213911   1.279   6.092   7.290
 3398SOL    HW313912   1.185   6.208   7.267
 3398SOL    MW413913   1.228   6.154   7.320
 3399SOL     OW13914   1.326   5.952   7.198
 3399SOL    HW213915   1.233   5.936   7.185
 3399SOL    HW313916   1.352   5.890   7.266
 3399SOL    MW413917   1.316   5.942   7.205
 3400SOL     OW13918   0.541   5.726   6.537
 3400SOL    HW213919   0.551   5.635   6.563
 3400SOL    HW313920   0.497   5.722   6.452
 3400SOL    MW413921   0.537   5.714   6.529
 3401SOL     OW13922   0.635   7.341   7.083
 3401SOL    HW213923   0.552   7.326   7.128
 3401SOL    HW313924   0.694   7.274   7.118
 3401SOL    MW413925   0.633   7.331   7.093
 3402SOL     OW13926   1.692   6.048   6.708
 3402SOL    HW213927   1.625   6.081   6.768
 3402SOL    HW313928   1.735   6.126   6.674
 3402SOL    MW413929   1.690   6.063   6.712
 3403SOL     OW13930   1.870   6.768   6.678
 3403SOL    HW213931   1.863   6.708   6.603
 3403SOL    HW313932   1.796   6.828   6.667
 3403SOL    MW413933   1.860   6.768   6.667
 3404SOL     OW13934   1.252   6.630   6.596
 3404SOL    HW213935   1.266   6.602   6.687
 3404SOL    HW313936   1.338   6.661   6.568
 3404SOL    MW413937   1.265   6.631   6.605
 3405SOL     OW13938   1.335   6.125   6.875
 3405SOL    HW213939   1.356   6.126   6.782
 3405SOL    HW313940   1.380   6.047   6.908
 3405SOL    MW413941   1.342   6.115   6.867
 3406SOL     OW13942   1.828   6.256   7.417
 3406SOL    HW213943   1.865   6.201   7.486
 3406SOL    HW313944   1.853   6.213   7.335
 3406SOL    MW413945   1.835   6.244   7.416
 3407SOL     OW13946   1.375   6.554   7.468
 3407SOL    HW213947   1.441   6.502   7.422
 3407SOL    HW313948   1.395   6.541   7.561
 3407SOL    MW413949   1.386   6.545   7.475
 3408SOL     OW13950   1.326   5.640   5.817
 3408SOL    HW213951   1.400   5.684   5.860
 3408SOL    HW313952   1.250   5.694   5.839
 3408SOL    MW413953   1.326   5.652   5.825
 3409SOL     OW13954   1.386   6.415   6.095
 3409SOL    HW213955   1.301   6.385   6.065
 3409SOL    HW313956   1.378   6.422   6.190
 3409SOL    MW413957   1.374   6.413   6.104
 3410SOL     OW13958   0.462   6.878   6.826
 3410SOL    HW213959   0.474   6.905   6.917
 3410SOL    HW313960   0.443   6.959   6.779
 3410SOL    MW413961   0.461   6.893   6.831
 3411SOL     OW13962   0.746   5.858   6.649
 3411SOL    HW213963   0.719   5.860   6.740
 3411SOL    HW313964   0.676   5.810   6.604
 3411SOL    MW413965   0.734   5.854   6.656
 3412SOL     OW13966   0.600   7.350   6.811
 3412SOL    HW213967   0.652   7.427   6.788
 3412SOL    HW313968   0.609   7.342   6.906
 3412SOL    MW413969   0.609   7.357   6.822
 3413SOL     OW13970   1.502   6.935   7.043
 3413SOL    HW213971   1.487   6.864   7.106
 3413SOL    HW313972   1.548   6.893   6.971
 3413SOL    MW413973   1.508   6.919   7.043
 3414SOL     OW13974   0.576   6.666   7.160
 3414SOL    HW213975   0.613   6.671   7.072
 3414SOL    HW313976   0.615   6.739   7.207
 3414SOL    MW413977   0.586   6.676   7.155
 3415SOL     OW13978   0.756   6.709   6.972
 3415SOL    HW213979   0.815   6.655   7.025
 3415SOL    HW313980   0.771   6.681   6.882
 3415SOL    MW413981   0.766   6.698   6.968
 3416SOL     OW13982   0.759   6.081   5.821
 3416SOL    HW213983   0.832   6.130   5.784
 3416SOL    HW313984   0.775   5.990   5.795
 3416SOL    MW413985   0.771   6.076   5.814
 3417SOL     OW13986   1.567   7.198   7.144
 3417SOL    HW213987   1.609   7.183   7.229
 3417SOL    HW313988   1.558   7.111   7.106
 3417SOL    MW413989   1.571   7.186   7.151
 3418SOL     OW13990   1.227   5.677   6.735
 3418SOL    HW213991   1.282   5.686   6.657
 3418SOL    HW313992   1.282   5.711   6.806
 3418SOL    MW413993   1.241   5.682   6.734
 3419SOL     OW13994   0.234   6.590   5.919
 3419SOL    HW213995   0.171   6.606   5.848
 3419SOL    HW313996   0.181   6.553   5.990
 3419SOL    MW413997   0.219   6.587   5.919
 3420SOL     OW13998   0.590   6.944   5.778
 3420SOL    HW213999   0.605   6.920   5.870
 3420SOL    HW314000   0.498   6.922   5.762
 3420SOL    MW414001   0.580   6.937   5.788
 3421SOL     OW14002   1.129   7.175   5.930
 3421SOL    HW214003   1.137   7.093   5.881
 3421SOL    HW314004   1.048   7.214   5.897
 3421SOL    MW414005   1.119   7.170   5.920
 3422SOL     OW14006   0.388   7.333   6.499
 3422SOL    HW214007   0.392   7.244   6.534
 3422SOL    HW314008   0.414   7.324   6.408
 3422SOL    MW414009   0.391   7.321   6.491
 3423SOL     OW14010   1.005   6.811   6.742
 3423SOL    HW214011   0.937   6.745   6.758
 3423SOL    HW314012   1.023   6.805   6.649
 3423SOL    MW414013   0.998   6.802   6.733
 3424SOL     OW14014   0.094   7.086   6.993
 3424SOL    HW214015   0.084   7.044   7.079
 3424SOL    HW314016   0.015   7.139   6.983
 3424SOL    MW414017   0.083   7.087   7.004
 3425SOL     OW14018   0.998   5.950   6.563
 3425SOL    HW214019   0.928   5.902   6.608
 3425SOL    HW314020   1.030   6.013   6.627
 3425SOL    MW414021   0.993   5.952   6.577
 3426SOL     OW14022   0.649   6.386   7.183
 3426SOL    HW214023   0.642   6.481   7.171
 3426SOL    HW314024   0.658   6.375   7.278
 3426SOL    MW414025   0.650   6.398   7.193
 3427SOL     OW14026   0.370   6.901   7.441
 3427SOL    HW214027   0.442   6.903   7.378
 3427SOL    HW314028   0.340   6.810   7.440
 3427SOL    MW414029   0.375   6.890   7.433
 3428SOL     OW14030   1.454   5.664   6.908
 3428SOL    HW214031   1.525   5.610   6.872
 3428SOL    HW314032   1.453   5.643   7.001
 3428SOL    MW414033   1.463   5.655   6.916
 3429SOL     OW14034   1.654   7.194   7.392
 3429SOL    HW214035   1.627   7.191   7.483
 3429SOL    HW314036   1.750   7.198   7.395
 3429SOL    MW414037   1.664   7.194   7.404
 3430SOL     OW14038   0.465   6.056   6.376
 3430SOL    HW214039   0.536   6.004   6.339
 3430SOL    HW314040   0.451   6.021   6.463
 3430SOL    MW414041   0.473   6.045   6.383
 3431SOL     OW14042   0.020   7.391   7.448
 3431SOL    HW214043   0.070   7.369   7.370
 3431SOL    HW314044   0.028   7.486   7.456
 3431SOL    MW414045   0.028   7.400   7.439
 3432SOL     OW14046   0.781   7.149   6.452
 3432SOL    HW214047   0.709   7.086   6.465
 3432SOL    HW314048   0.742   7.234   6.470
 3432SOL    MW414049   0.765   7.152   6.455
 3433SOL     OW14050   1.101   5.997   6.100
 3433SOL    HW214051   1.123   5.934   6.032
 3433SOL    HW314052   1.006   5.989   6.111
 3433SOL    MW414053   1.091   5.988   6.092
 3434SOL     OW14054   0.186   5.687   6.032
 3434SOL    HW214055   0.257   5.708   5.971
 3434SOL    HW314056   0.140   5.615   5.990
 3434SOL    MW414057   0.190   5.681   6.018
 3435SOL     OW14058   0.017   6.154   7.175
 3435SOL    HW214059   0.081   6.220   7.150
 3435SOL    HW314060  -0.064   6.181   7.132
 3435SOL    MW414061   0.015   6.166   7.167
 3436SOL     OW14062   1.755   7.061   6.132
 3436SOL    HW214063   1.725   6.994   6.193
 3436SOL    HW314064   1.849   7.067   6.146
 3436SOL    MW414065   1.763   7.053   6.142
 3437SOL     OW14066   1.311   6.738   6.062
 3437SOL    HW214067   1.283   6.824   6.095
 3437SOL    HW314068   1.339   6.754   5.972
 3437SOL    MW414069   1.311   6.752   6.054
 3438SOL     OW14070   0.973   5.658   6.115
 3438SOL    HW214071   1.010   5.717   6.180
 3438SOL    HW314072   0.950   5.714   6.041
 3438SOL    MW414073   0.974   5.673   6.114
 3439SOL     OW14074   1.826   6.540   6.537
 3439SOL    HW214075   1.817   6.572   6.448
 3439SOL    HW314076   1.779   6.456   6.537
 3439SOL    MW414077   1.819   6.533   6.527
 3440SOL     OW14078   0.202   6.380   7.116
 3440SOL    HW214079   0.223   6.449   7.054
 3440SOL    HW314080   0.282   6.327   7.121
 3440SOL    MW414081   0.215   6.381   7.110
 3441SOL     OW14082   1.738   6.471   6.238
 3441SOL    HW214083   1.832   6.460   6.226
 3441SOL    HW314084   1.714   6.543   6.179
 3441SOL    MW414085   1.748   6.479   6.229
 3442SOL     OW14086   0.187   6.395   7.383
 3442SOL    HW214087   0.113   6.339   7.409
 3442SOL    HW314088   0.182   6.398   7.288
 3442SOL    MW414089   0.176   6.388   7.373
 3443SOL     OW14090   0.353   5.682   6.833
 3443SOL    HW214091   0.396   5.766   6.853
 3443SOL    HW314092   0.426   5.620   6.826
 3443SOL    MW414093   0.368   5.685   6.834
 3444SOL     OW14094   0.394   6.349   6.011
 3444SOL    HW214095   0.394   6.444   5.996
 3444SOL    HW314096   0.471   6.333   6.065
 3444SOL    MW414097   0.404   6.360   6.016
 3445SOL     OW14098   1.170   6.208   7.075
 3445SOL    HW214099   1.206   6.181   6.991
 3445SOL    HW314100   1.083   6.242   7.054
 3445SOL    MW414101   1.164   6.209   7.062
 3446SOL     OW14102   0.153   6.080   6.300
 3446SOL    HW214103   0.215   6.087   6.373
 3446SOL    HW314104   0.153   5.987   6.277
 3446SOL    MW414105   0.161   6.069   6.307
 3447SOL     OW14106   1.700   7.420   5.832
 3447SOL    HW214107   1.767   7.453   5.772
 3447SOL    HW314108   1.657   7.499   5.866
 3447SOL    MW414109   1.702   7.435   5.828
 3448SOL     OW14110   0.835   6.341   6.784
 3448SOL    HW214111   0.793   6.259   6.760
 3448SOL    HW314112   0.836   6.340   6.880
 3448SOL    MW414113   0.828   6.330   6.793
 3449SOL     OW14114   1.506   7.474   7.183
 3449SOL    HW214115   1.509   7.380   7.166
 3449SOL    HW314116   1.529   7.482   7.275
 3449SOL    MW414117   1.509   7.462   7.193
 3450SOL     OW14118   0.639   5.811   6.889
 3450SOL    HW214119   0.570   5.874   6.910
 3450SOL    HW314120   0.666   5.775   6.974
 3450SOL    MW414121   0.633   5.814   6.902
 3451SOL     OW14122   0.022   6.652   5.758
 3451SOL    HW214123  -0.009   6.717   5.821
 3451SOL    HW314124  -0.029   6.574   5.777
 3451SOL    MW414125   0.012   6.649   5.768
 3452SOL     OW14126   1.434   5.664   6.506
 3452SOL    HW214127   1.522   5.673   6.543
 3452SOL    HW314128   1.444   5.605   6.432
 3452SOL    MW414129   1.448   5.658   6.500
 3453SOL     OW14130   1.466   6.403   6.350
 3453SOL    HW214131   1.546   6.418   6.299
 3453SOL    HW314132   1.459   6.308   6.356
 3453SOL    MW414133   1.475   6.392   6.345
 3454SOL     OW14134   0.606   7.452   5.700
 3454SOL    HW214135   0.511   7.452   5.692
 3454SOL    HW314136   0.622   7.398   5.778
 3454SOL    MW414137   0.596   7.446   5.709
 3455SOL     OW14138   0.916   6.329   7.047
 3455SOL    HW214139   0.985   6.396   7.044
 3455SOL    HW314140   0.849   6.367   7.103
 3455SOL    MW414141   0.917   6.342   7.054
 3456SOL     OW14142   0.334   6.629   7.295
 3456SOL    HW214143   0.288   6.545   7.297
 3456SOL    HW314144   0.391   6.623   7.219
 3456SOL    MW414145   0.336   6.617   7.287
 3457SOL     OW14146   1.451   6.272   5.615
 3457SOL    HW214147   1.379   6.248   5.557
 3457SOL    HW314148   1.517   6.309   5.557
 3457SOL    MW414149   1.450   6.274   5.600
 3458SOL     OW14150   0.585   7.004   6.296
 3458SOL    HW214151   0.650   6.937   6.317
 3458SOL    HW314152   0.637   7.081   6.273
 3458SOL    MW414153   0.600   7.006   6.295
 3459SOL     OW14154   0.846   6.169   6.426
 3459SOL    HW214155   0.786   6.187   6.498
 3459SOL    HW314156   0.880   6.081   6.445
 3459SOL    MW414157   0.842   6.159   6.439
 3460SOL     OW14158   1.787   5.668   7.095
 3460SOL    HW214159   1.708   5.714   7.123
 3460SOL    HW314160   1.822   5.722   7.024
 3460SOL    MW414161   1.781   5.681   7.089
 3461SOL     OW14162   1.071   6.752   6.445
 3461SOL    HW214163   1.163   6.733   6.463
 3461SOL    HW314164   1.044   6.682   6.385
 3461SOL    MW414165   1.079   6.740   6.439
 3462SOL     OW14166   0.864   6.572   5.800
 3462SOL    HW214167   0.850   6.484   5.765
 3462SOL    HW314168   0.815   6.629   5.741
 3462SOL    MW414169   0.856   6.567   5.788
 3463SOL     OW14170   1.345   6.990   6.541
 3463SOL    HW214171   1.318   7.074   6.506
 3463SOL    HW314172   1.305   6.985   6.628
 3463SOL    MW414173   1.338   6.999   6.547
 3464SOL     OW14174   1.264   6.938   6.809
 3464SOL    HW214175   1.275   6.905   6.898
 3464SOL    HW314176   1.183   6.897   6.778
 3464SOL    MW414177   1.254   6.930   6.815
 3465SOL     OW14178   0.277   6.296   6.579
 3465SOL    HW214179   0.227   6.295   6.660
 3465SOL    HW314180   0.297   6.388   6.563
 3465SOL    MW414181   0.273   6.308   6.587
 3466SOL     OW14182   1.344   7.060   7.341
 3466SOL    HW214183   1.344   7.154   7.357
 3466SOL    HW314184   1.389   7.050   7.257
 3466SOL    MW414185   1.350   7.070   7.332
 3467SOL     OW14186   1.583   5.778   5.902
 3467SOL    HW214187   1.576   5.782   5.997
 3467SOL    HW314188   1.595   5.869   5.875
 3467SOL    MW414189   1.584   5.791   5.910
 3468SOL     OW14190   0.872   6.341   6.016
 3468SOL    HW214191   0.852   6.327   5.923
 3468SOL    HW314192   0.965   6.320   6.023
 3468SOL    MW414193   0.882   6.336   6.005
 3469SOL     OW14194   0.199   5.964   7.320
 3469SOL    HW214195   0.156   6.023   7.257
 3469SOL    HW314196   0.267   6.019   7.360
 3469SOL    MW414197   0.203   5.979   7.317
 3470SOL     OW14198   1.311   6.584   6.865
 3470SOL    HW214199   1.374   6.581   6.938
 3470SOL    HW314200   1.227   6.602   6.907
 3470SOL    MW414201   1.307   6.586   6.880
 3471SOL     OW14202   0.855   7.299   6.054
 3471SOL    HW214203   0.913   7.370   6.081
 3471SOL    HW314204   0.878   7.227   6.112
 3471SOL    MW414205   0.866   7.299   6.065
 3472SOL     OW14206   1.650   5.761   6.644
 3472SOL    HW214207   1.695   5.679   6.663
 3472SOL    HW314208   1.670   5.817   6.720
 3472SOL    MW414209   1.660   5.757   6.656
 3473SOL     OW14210   0.098   5.604   6.743
 3473SOL    HW214211   0.089   5.605   6.648
 3473SOL    HW314212   0.192   5.616   6.758
 3473SOL    MW414213   0.110   5.607   6.734
 3474SOL     OW14214   1.735   6.797   6.363
 3474SOL    HW214215   1.714   6.743   6.286
 3474SOL    HW314216   1.831   6.795   6.367
 3474SOL    MW414217   1.744   6.790   6.352
 3475SOL     OW14218   0.427   6.942   7.106
 3475SOL    HW214219   0.348   6.892   7.129
 3475SOL    HW314220   0.497   6.901   7.156
 3475SOL    MW414221   0.425   6.930   7.116
 3476SOL     OW14222   0.311   5.731   5.789
 3476SOL    HW214223   0.240   5.786   5.757
 3476SOL    HW314224   0.353   5.697   5.710
 3476SOL    MW414225   0.307   5.733   5.775
 3477SOL     OW14226   1.435   6.228   6.625
 3477SOL    HW214227   1.358   6.274   6.591
 3477SOL    HW314228   1.492   6.297   6.659
 3477SOL    MW414229   1.432   6.243   6.625
 3478SOL     OW14230   0.067   5.830   5.638
 3478SOL    HW214231   0.034   5.909   5.682
 3478SOL    HW314232   0.122   5.863   5.567
 3478SOL    MW414233   0.070   5.844   5.635
 3479SOL     OW14234   0.101   7.087   5.827
 3479SOL    HW214235   0.118   7.171   5.869
 3479SOL    HW314236   0.136   7.096   5.739
 3479SOL    MW414237   0.106   7.100   5.821
 3480SOL     OW14238   1.373   7.176   6.044
 3480SOL    HW214239   1.436   7.166   5.973
 3480SOL    HW314240   1.290   7.196   5.999
 3480SOL    MW414241   1.370   7.177   6.029
 3481SOL     OW14242   3.604   0.839   0.257
 3481SOL    HW214243   3.645   0.781   0.322
 3481SOL    HW314244   3.511   0.831   0.274
 3481SOL    MW414245   3.598   0.831   0.267
 3482SOL     OW14246   3.470   0.771   1.252
 3482SOL    HW214247   3.425   0.838   1.303
 3482SOL    HW314248   3.558   0.807   1.238
 3482SOL    MW414249   3.476   0.784   1.256
 3483SOL     OW14250   2.398   1.022   0.486
 3483SOL    HW214251   2.488   0.997   0.470
 3483SOL    HW314252   2.394   1.115   0.463
 3483SOL    MW414253   2.410   1.031   0.481
 3484SOL     OW14254   3.514   1.725   0.628
 3484SOL    HW214255   3.526   1.671   0.706
 3484SOL    HW314256   3.551   1.673   0.557
 3484SOL    MW414257   3.520   1.710   0.629
 3485SOL     OW14258   2.893   1.610   1.629
 3485SOL    HW214259   2.934   1.646   1.550
 3485SOL    HW314260   2.928   1.521   1.636
 3485SOL    MW414261   2.904   1.603   1.620
 3486SOL     OW14262   3.450   1.165   1.233
 3486SOL    HW214263   3.371   1.130   1.191
 3486SOL    HW314264   3.477   1.237   1.177
 3486SOL    MW414265   3.443   1.170   1.220
 3487SOL     OW14266   2.682   0.478   0.499
 3487SOL    HW214267   2.657   0.566   0.527
 3487SOL    HW314268   2.679   0.481   0.403
 3487SOL    MW414269   2.678   0.490   0.491
 3488SOL     OW14270   2.124   0.506   0.427
 3488SOL    HW214271   2.156   0.594   0.409
 3488SOL    HW314272   2.112   0.504   0.522
 3488SOL    MW414273   2.127   0.518   0.439
 3489SOL     OW14274   2.202   0.919   1.328
 3489SOL    HW214275   2.265   0.866   1.279
 3489SOL    HW314276   2.183   0.993   1.271
 3489SOL    MW414277   2.208   0.921   1.315
 3490SOL     OW14278   2.523   0.261   0.514
 3490SOL    HW214279   2.581   0.337   0.516
 3490SOL    HW314280   2.458   0.282   0.447
 3490SOL    MW414281   2.522   0.273   0.505
 3491SOL     OW14282   2.610   1.188   0.689
 3491SOL    HW214283   2.690   1.191   0.741
 3491SOL    HW314284   2.638   1.155   0.603
 3491SOL    MW414285   2.624   1.184   0.684
 3492SOL     OW14286   2.635   1.529   1.592
 3492SOL    HW214287   2.719   1.555   1.631
 3492SOL    HW314288   2.659   1.473   1.518
 3492SOL    MW414289   2.649   1.525   1.587
 3493SOL     OW14290   2.387   0.692   0.680
 3493SOL    HW214291   2.372   0.612   0.731
 3493SOL    HW314292   2.469   0.727   0.714
 3493SOL    MW414293   2.395   0.684   0.692
 3494SOL     OW14294   2.724   1.378   1.365
 3494SOL    HW214295   2.688   1.444   1.305
 3494SOL    HW314296   2.652   1.316   1.378
 3494SOL    MW414297   2.710   1.378   1.359
 3495SOL     OW14298   2.529   0.518   1.057
 3495SOL    HW214299   2.435   0.514   1.075
 3495SOL    HW314300   2.559   0.427   1.066
 3495SOL    MW414301   2.520   0.506   1.060
 3496SOL     OW14302   2.275   0.932   0.961
 3496SOL    HW214303   2.230   0.939   0.877
 3496SOL    HW314304   2.255   1.015   1.005
 3496SOL    MW414305   2.267   0.944   0.955
 3497SOL     OW14306   1.972   1.778   0.836
 3497SOL    HW214307   2.061   1.770   0.871
 3497SOL    HW314308   1.936   1.690   0.841
 3497SOL    MW414309   1.979   1.765   0.841
 3498SOL     OW14310   3.237   1.170   0.205
 3498SOL    HW214311   3.155   1.206   0.171
 3498SOL    HW314312   3.305   1.213   0.154
 3498SOL    MW414313   3.235   1.180   0.193
 3499SOL     OW14314   2.236   1.305   0.871
 3499SOL    HW214315   2.212   1.358   0.947
 3499SOL    HW314316   2.292   1.363   0.819
 3499SOL    MW414317   2.240   1.320   0.874
 3500SOL     OW14318   2.798   0.949   0.681
 3500SOL    HW214319   2.712   0.936   0.721
 3500SOL    HW314320   2.851   0.876   0.713
 3500SOL    MW414321   2.794   0.938   0.690
 3501SOL     OW14322   2.206   1.601   1.466
 3501SOL    HW214323   2.114   1.577   1.451
 3501SOL    HW314324   2.250   1.518   1.483
 3501SOL    MW414325   2.200   1.586   1.465
 3502SOL     OW14326   2.789   1.311   0.398
 3502SOL    HW214327   2.766   1.373   0.466
 3502SOL    HW314328   2.746   1.229   0.424
 3502SOL    MW414329   2.781   1.307   0.409
 3503SOL     OW14330   3.662   0.312   0.854
 3503SOL    HW214331   3.599   0.292   0.923
 3503SOL    HW314332   3.652   0.241   0.791
 3503SOL    MW414333   3.652   0.299   0.855
 3504SOL     OW14334   2.286   0.284   0.366
 3504SOL    HW214335   2.260   0.246   0.282
 3504SOL    HW314336   2.223   0.354   0.382
 3504SOL    MW414337   2.275   0.287   0.357
 3505SOL     OW14338   2.121   1.245   0.403
 3505SOL    HW214339   2.069   1.313   0.359
 3505SOL    HW314340   2.118   1.171   0.343
 3505SOL    MW414341   2.113   1.244   0.390
 3506SOL     OW14342   2.783   1.708   0.181
 3506SOL    HW214343   2.738   1.724   0.264
 3506SOL    HW314344   2.714   1.673   0.123
 3506SOL    MW414345   2.769   1.705   0.183
 3507SOL     OW14346   3.718   0.481   0.156
 3507SOL    HW214347   3.627   0.483   0.184
 3507SOL    HW314348   3.763   0.543   0.214
 3507SOL    MW414349   3.711   0.489   0.166
 3508SOL     OW14350   3.463   1.084   0.506
 3508SOL    HW214351   3.373   1.084   0.541
 3508SOL    HW314352   3.456   1.130   0.423
 3508SOL    MW414353   3.450   1.090   0.500
 3509SOL     OW14354   3.263   0.719   1.578
 3509SOL    HW214355   3.332   0.657   1.555
 3509SOL    HW314356   3.188   0.693   1.525
 3509SOL    MW414357   3.263   0.706   1.569
 3510SOL     OW14358   2.004   1.599   1.130
 3510SOL    HW214359   1.987   1.545   1.207
 3510SOL    HW314360   1.992   1.689   1.160
 3510SOL    MW414361   2.001   1.603   1.144
 3511SOL     OW14362   2.999   1.106   1.570
 3511SOL    HW214363   2.984   1.199   1.555
 3511SOL    HW314364   3.094   1.096   1.570
 3511SOL    MW414365   3.008   1.116   1.567
 3512SOL     OW14366   2.795   0.530   1.771
 3512SOL    HW214367   2.885   0.531   1.738
 3512SOL    HW314368   2.754   0.455   1.729
 3512SOL    MW414369   2.801   0.520   1.762
 3513SOL     OW14370   3.370   1.062   0.898
 3513SOL    HW214371   3.373   0.996   0.829
 3513SOL    HW314372   3.455   1.105   0.894
 3513SOL    MW414373   3.382   1.058   0.889
 3514SOL     OW14374   2.990   0.665   0.467
 3514SOL    HW214375   3.016   0.689   0.378
 3514SOL    HW314376   2.972   0.572   0.463
 3514SOL    MW414377   2.992   0.657   0.454
 3515SOL     OW14378   3.655   1.285   0.318
 3515SOL    HW214379   3.611   1.326   0.393
 3515SOL    HW314380   3.712   1.353   0.283
 3515SOL    MW414381   3.657   1.299   0.323
 3516SOL     OW14382   2.575   0.334   1.721
 3516SOL    HW214383   2.585   0.260   1.661
 3516SOL    HW314384   2.611   0.303   1.804
 3516SOL    MW414385   2.581   0.320   1.723
 3517SOL     OW14386   2.311   1.701   0.636
 3517SOL    HW214387   2.343   1.789   0.614
 3517SOL    HW314388   2.264   1.673   0.558
 3517SOL    MW414389   2.310   1.709   0.623
 3518SOL     OW14390   3.695   0.063   0.685
 3518SOL    HW214391   3.749   0.014   0.747
 3518SOL    HW314392   3.638  -0.003   0.646
 3518SOL    MW414393   3.695   0.047   0.687
 3519SOL     OW14394   2.027   1.761   0.213
 3519SOL    HW214395   2.056   1.851   0.205
 3519SOL    HW314396   1.977   1.744   0.134
 3519SOL    MW414397   2.025   1.769   0.202
 3520SOL     OW14398   2.814   0.016   1.098
 3520SOL    HW214399   2.773   0.094   1.060
 3520SOL    HW314400   2.908   0.034   1.093
 3520SOL    MW414401   2.820   0.028   1.093
 3521SOL     OW14402   3.431   1.569   0.184
 3521SOL    HW214403   3.479   1.638   0.230
 3521SOL    HW314404   3.352   1.613   0.153
 3521SOL    MW414405   3.426   1.583   0.187
 3522SOL     OW14406   2.829   0.694   0.128
 3522SOL    HW214407   2.831   0.641   0.049
 3522SOL    HW314408   2.917   0.731   0.134
 3522SOL    MW414409   2.841   0.693   0.117
 3523SOL     OW14410   3.443   0.620   0.464
 3523SOL    HW214411   3.482   0.620   0.551
 3523SOL    HW314412   3.384   0.696   0.464
 3523SOL    MW414413   3.440   0.631   0.475
 3524SOL     OW14414   2.760   0.987   1.593
 3524SOL    HW214415   2.737   0.967   1.683
 3524SOL    HW314416   2.845   1.031   1.598
 3524SOL    MW414417   2.767   0.990   1.605
 3525SOL     OW14418   2.840   0.124   1.353
 3525SOL    HW214419   2.846   0.086   1.266
 3525SOL    HW314420   2.829   0.218   1.338
 3525SOL    MW414421   2.841   0.132   1.341
 3526SOL     OW14422   2.929   0.613   1.187
 3526SOL    HW214423   3.004   0.642   1.134
 3526SOL    HW314424   2.861   0.678   1.171
 3526SOL    MW414425   2.930   0.625   1.177
 3527SOL     OW14426   3.479   0.581   1.464
 3527SOL    HW214427   3.460   0.490   1.443
 3527SOL    HW314428   3.457   0.630   1.385
 3527SOL    MW414429   3.474   0.574   1.451
 3528SOL     OW14430   3.621   1.675   1.368
 3528SOL    HW214431   3.549   1.637   1.419
 3528SOL    HW314432   3.638   1.760   1.409
 3528SOL    MW414433   3.615   1.680   1.380
 3529SOL     OW14434   2.926   0.319   1.570
 3529SOL    HW214435   2.892   0.358   1.489
 3529SOL    HW314436   2.904   0.227   1.563
 3529SOL    MW414437   2.919   0.312   1.560
 3530SOL     OW14438   3.335   1.133   1.646
 3530SOL    HW214439   3.417   1.174   1.676
 3530SOL    HW314440   3.298   1.095   1.726
 3530SOL    MW414441   3.341   1.134   1.661
 3531SOL     OW14442   3.630   0.506   0.630
 3531SOL    HW214443   3.719   0.475   0.647
 3531SOL    HW314444   3.573   0.446   0.678
 3531SOL    MW414445   3.633   0.494   0.639
 3532SOL     OW14446   2.056   0.220   0.659
 3532SOL    HW214447   2.047   0.160   0.585
 3532SOL    HW314448   1.989   0.191   0.722
 3532SOL    MW414449   2.046   0.207   0.657
 3533SOL     OW14450   2.999   1.313   0.220
 3533SOL    HW214451   2.949   1.315   0.302
 3533SOL    HW314452   2.933   1.331   0.152
 3533SOL    MW414453   2.985   1.315   0.222
 3534SOL     OW14454   2.003   0.393   1.022
 3534SOL    HW214455   1.975   0.484   1.031
 3534SOL    HW314456   1.940   0.354   0.961
 3534SOL    MW414457   1.990   0.399   1.016
 3535SOL     OW14458   2.462   1.731   0.328
 3535SOL    HW214459   2.383   1.689   0.361
 3535SOL    HW314460   2.528   1.714   0.395
 3535SOL    MW414461   2.461   1.723   0.341
 3536SOL     OW14462   3.590   1.251   1.725
 3536SOL    HW214463   3.640   1.177   1.757
 3536SOL    HW314464   3.536   1.278   1.800
 3536SOL    MW414465   3.590   1.245   1.738
 3537SOL     OW14466   2.598   1.146   0.035
 3537SOL    HW214467   2.520   1.092   0.022
 3537SOL    HW314468   2.569   1.219   0.088
 3537SOL    MW414469   2.584   1.148   0.040
 3538SOL     OW14470   3.724   0.886   1.227
 3538SOL    HW214471   3.740   0.924   1.140
 3538SOL    HW314472   3.758   0.952   1.288
 3538SOL    MW414473   3.731   0.899   1.223
 3539SOL     OW14474   3.516   1.595   0.896
 3539SOL    HW214475   3.545   1.662   0.957
 3539SOL    HW314476   3.497   1.519   0.951
 3539SOL    MW414477   3.518   1.595   0.911
 3540SOL     OW14478   3.179   1.662   0.103
 3540SOL    HW214479   3.105   1.625   0.153
 3540SOL    HW314480   3.187   1.752   0.136
 3540SOL    MW414481   3.170   1.669   0.115
 3541SOL     OW14482   1.987   0.668   1.192
 3541SOL    HW214483   2.049   0.698   1.258
 3541SOL    HW314484   1.921   0.737   1.186
 3541SOL    MW414485   1.986   0.681   1.199
 3542SOL     OW14486   3.403   1.336   0.045
 3542SOL    HW214487   3.350   1.385  -0.019
 3542SOL    HW314488   3.434   1.402   0.106
 3542SOL    MW414489   3.401   1.350   0.043
 3543SOL     OW14490   2.628   0.225   0.100
 3543SOL    HW214491   2.576   0.145   0.088
 3543SOL    HW314492   2.715   0.202   0.068
 3543SOL    MW414493   2.631   0.211   0.094
 3544SOL     OW14494   2.082   1.777   1.644
 3544SOL    HW214495   2.056   1.845   1.582
 3544SOL    HW314496   2.130   1.714   1.592
 3544SOL    MW414497   2.084   1.777   1.630
 3545SOL     OW14498   2.134   1.096   1.151
 3545SOL    HW214499   2.187   1.171   1.176
 3545SOL    HW314500   2.053   1.134   1.117
 3545SOL    MW414501   2.130   1.111   1.151
 3546SOL     OW14502   2.674   1.000   1.139
 3546SOL    HW214503   2.702   0.909   1.151
 3546SOL    HW314504   2.603   0.994   1.075
 3546SOL    MW414505   2.667   0.988   1.134
 3547SOL     OW14506   1.989   0.865   0.557
 3547SOL    HW214507   2.080   0.880   0.584
 3547SOL    HW314508   1.992   0.786   0.503
 3547SOL    MW414509   2.001   0.857   0.555
 3548SOL     OW14510   2.225   0.573   1.811
 3548SOL    HW214511   2.172   0.653   1.818
 3548SOL    HW314512   2.295   0.585   1.876
 3548SOL    MW414513   2.227   0.586   1.819
 3549SOL     OW14514   2.611   0.123   1.518
 3549SOL    HW214515   2.588   0.031   1.520
 3549SOL    HW314516   2.697   0.125   1.475
 3549SOL    MW414517   2.618   0.113   1.514
 3550SOL     OW14518   2.295   0.647   1.557
 3550SOL    HW214519   2.375   0.697   1.543
 3550SOL    HW314520   2.286   0.641   1.652
 3550SOL    MW414521   2.304   0.653   1.567
 3551SOL     OW14522   2.616   1.797   0.931
 3551SOL    HW214523   2.705   1.812   0.961
 3551SOL    HW314524   2.611   1.844   0.847
 3551SOL    MW414525   2.626   1.805   0.924
 3552SOL     OW14526   3.272   0.172   1.828
 3552SOL    HW214527   3.328   0.099   1.854
 3552SOL    HW314528   3.242   0.210   1.910
 3552SOL    MW414529   3.276   0.167   1.841
 3553SOL     OW14530   1.997   1.477   0.596
 3553SOL    HW214531   1.969   1.516   0.678
 3553SOL    HW314532   2.017   1.386   0.618
 3553SOL    MW414533   1.995   1.469   0.609
 3554SOL     OW14534   2.830   1.520   0.631
 3554SOL    HW214535   2.913   1.474   0.615
 3554SOL    HW314536   2.820   1.519   0.727
 3554SOL    MW414537   2.840   1.513   0.641
 3555SOL     OW14538   3.662   0.665   0.945
 3555SOL    HW214539   3.751   0.695   0.927
 3555SOL    HW314540   3.642   0.605   0.874
 3555SOL    MW414541   3.671   0.662   0.934
 3556SOL     OW14542   3.513   0.844   1.825
 3556SOL    HW214543   3.568   0.768   1.806
 3556SOL    HW314544   3.515   0.852   1.920
 3556SOL    MW414545   3.521   0.835   1.833
 3557SOL     OW14546   2.563   1.577   0.036
 3557SOL    HW214547   2.503   1.646   0.006
 3557SOL    HW314548   2.508   1.519   0.089
 3557SOL    MW414549   2.547   1.579   0.038
 3558SOL     OW14550   3.001   0.222   0.259
 3558SOL    HW214551   2.934   0.198   0.196
 3558SOL    HW314552   3.066   0.271   0.208
 3558SOL    MW414553   3.001   0.224   0.244
 3559SOL     OW14554   2.808   0.406   1.344
 3559SOL    HW214555   2.727   0.447   1.372
 3559SOL    HW314556   2.855   0.474   1.296
 3559SOL    MW414557   2.803   0.421   1.342
 3560SOL     OW14558   3.068   0.744   0.967
 3560SOL    HW214559   3.081   0.838   0.977
 3560SOL    HW314560   3.029   0.734   0.881
 3560SOL    MW414561   3.064   0.755   0.957
 3561SOL     OW14562   2.520   0.939   0.771
 3561SOL    HW214563   2.431   0.930   0.804
 3561SOL    HW314564   2.524   1.029   0.739
 3561SOL    MW414565   2.509   0.950   0.771
 3562SOL     OW14566   3.319   0.522   0.766
 3562SOL    HW214567   3.264   0.443   0.765
 3562SOL    HW314568   3.301   0.563   0.850
 3562SOL    MW414569   3.309   0.517   0.775
 3563SOL     OW14570   2.290   0.209   1.583
 3563SOL    HW214571   2.211   0.227   1.635
 3563SOL    HW314572   2.285   0.271   1.510
 3563SOL    MW414573   2.280   0.219   1.580
 3564SOL     OW14574   2.938   0.726   0.723
 3564SOL    HW214575   2.875   0.658   0.747
 3564SOL    HW314576   2.958   0.707   0.631
 3564SOL    MW414577   2.932   0.713   0.715
 3565SOL     OW14578   2.194   1.621   0.425
 3565SOL    HW214579   2.155   1.668   0.351
 3565SOL    HW314580   2.128   1.556   0.450
 3565SOL    MW414581   2.181   1.619   0.419
 3566SOL     OW14582   2.686   1.030   0.449
 3566SOL    HW214583   2.688   1.004   0.356
 3566SOL    HW314584   2.744   0.967   0.492
 3566SOL    MW414585   2.694   1.019   0.443
 3567SOL     OW14586   3.239   1.590   1.221
 3567SOL    HW214587   3.164   1.636   1.259
 3567SOL    HW314588   3.221   1.497   1.238
 3567SOL    MW414589   3.228   1.584   1.229
 3568SOL     OW14590   3.243   1.798   0.651
 3568SOL    HW214591   3.186   1.751   0.590
 3568SOL    HW314592   3.329   1.759   0.638
 3568SOL    MW414593   3.246   1.789   0.641
 3569SOL     OW14594   3.196   0.274   0.782
 3569SOL    HW214595   3.224   0.206   0.843
 3569SOL    HW314596   3.110   0.245   0.752
 3569SOL    MW414597   3.189   0.261   0.786
 3570SOL     OW14598   2.001   1.208   0.716
 3570SOL    HW214599   2.065   1.240   0.779
 3570SOL    HW314600   2.050   1.144   0.664
 3570SOL    MW414601   2.016   1.204   0.717
 3571SOL     OW14602   2.501   1.284   1.698
 3571SOL    HW214603   2.549   1.367   1.685
 3571SOL    HW314604   2.558   1.232   1.754
 3571SOL    MW414605   2.515   1.288   1.704
 3572SOL     OW14606   2.077   1.526   1.838
 3572SOL    HW214607   2.133   1.450   1.853
 3572SOL    HW314608   2.026   1.504   1.760
 3572SOL    MW414609   2.077   1.513   1.829
 3573SOL     OW14610   3.176   0.378   0.117
 3573SOL    HW214611   3.149   0.444   0.053
 3573SOL    HW314612   3.246   0.421   0.167
 3573SOL    MW414613   3.181   0.391   0.114
 3574SOL     OW14614   2.844   0.083   0.054
 3574SOL    HW214615   2.900   0.075  -0.024
 3574SOL    HW314616   2.821  -0.007   0.076
 3574SOL    MW414617   2.849   0.070   0.047
 3575SOL     OW14618   3.349   0.934   0.259
 3575SOL    HW214619   3.316   1.023   0.249
 3575SOL    HW314620   3.314   0.905   0.344
 3575SOL    MW414621   3.339   0.943   0.270
 3576SOL     OW14622   2.962   1.363   1.447
 3576SOL    HW214623   2.873   1.369   1.415
 3576SOL    HW314624   3.006   1.442   1.415
 3576SOL    MW414625   2.957   1.373   1.439
 3577SOL     OW14626   2.255   0.031   1.789
 3577SOL    HW214627   2.183  -0.004   1.737
 3577SOL    HW314628   2.313   0.072   1.724
 3577SOL    MW414629   2.253   0.032   1.774
 3578SOL     OW14630   2.279   1.521   1.088
 3578SOL    HW214631   2.324   1.583   1.145
 3578SOL    HW314632   2.186   1.540   1.101
 3578SOL    MW414633   2.272   1.531   1.095
 3579SOL     OW14634   3.719   1.050   1.442
 3579SOL    HW214635   3.634   1.063   1.401
 3579SOL    HW314636   3.699   1.014   1.529
 3579SOL    MW414637   3.706   1.046   1.447
 3580SOL     OW14638   2.701   1.589   1.196
 3580SOL    HW214639   2.725   1.578   1.105
 3580SOL    HW314640   2.624   1.646   1.194
 3580SOL    MW414641   2.693   1.594   1.185
 3581SOL     OW14642   2.343   0.972   0.051
 3581SOL    HW214643   2.266   0.985   0.107
 3581SOL    HW314644   2.307   0.936  -0.030
 3581SOL    MW414645   2.329   0.968   0.048
 3582SOL     OW14646   2.996   0.945   0.294
 3582SOL    HW214647   2.906   0.966   0.269
 3582SOL    HW314648   3.023   1.018   0.350
 3582SOL    MW414649   2.988   0.957   0.297
 3583SOL     OW14650   2.496   1.294   0.986
 3583SOL    HW214651   2.489   1.273   1.080
 3583SOL    HW314652   2.414   1.262   0.949
 3583SOL    MW414653   2.484   1.288   0.993
 3584SOL     OW14654   3.360   0.304   1.388
 3584SOL    HW214655   3.307   0.306   1.468
 3584SOL    HW314656   3.345   0.217   1.351
 3584SOL    MW414657   3.352   0.294   1.393
 3585SOL     OW14658   3.696   0.228   1.261
 3585SOL    HW214659   3.677   0.295   1.196
 3585SOL    HW314660   3.753   0.166   1.216
 3585SOL    MW414661   3.700   0.229   1.247
 3586SOL     OW14662   1.942   1.386   1.649
 3586SOL    HW214663   1.986   1.319   1.595
 3586SOL    HW314664   1.857   1.348   1.669
 3586SOL    MW414665   1.937   1.372   1.645
 3587SOL     OW14666   2.625   0.061   0.701
 3587SOL    HW214667   2.554   0.122   0.683
 3587SOL    HW314668   2.676   0.058   0.620
 3587SOL    MW414669   2.621   0.067   0.688
 3588SOL     OW14670   2.383   1.301   0.450
 3588SOL    HW214671   2.376   1.333   0.540
 3588SOL    HW314672   2.293   1.285   0.422
 3588SOL    MW414673   2.371   1.303   0.457
 3589SOL     OW14674   2.978   1.694   1.359
 3589SOL    HW214675   2.898   1.679   1.309
 3589SOL    HW314676   2.985   1.789   1.366
 3589SOL    MW414677   2.969   1.705   1.353
 3590SOL     OW14678   3.092   1.659   0.849
 3590SOL    HW214679   3.139   1.732   0.808
 3590SOL    HW314680   3.013   1.698   0.885
 3590SOL    MW414681   3.087   1.674   0.848
 3591SOL     OW14682   3.500   1.754   1.124
 3591SOL    HW214683   3.543   1.724   1.204
 3591SOL    HW314684   3.419   1.702   1.121
 3591SOL    MW414685   3.495   1.743   1.134
 3592SOL     OW14686   2.585   0.718   1.831
 3592SOL    HW214687   2.655   0.660   1.803
 3592SOL    HW314688   2.528   0.663   1.886
 3592SOL    MW414689   2.587   0.705   1.835
 3593SOL     OW14690   3.372   0.930   1.464
 3593SOL    HW214691   3.377   0.983   1.544
 3593SOL    HW314692   3.334   0.847   1.492
 3593SOL    MW414693   3.368   0.925   1.479
 3594SOL     OW14694   3.012   0.065   1.710
 3594SOL    HW214695   3.007  -0.028   1.691
 3594SOL    HW314696   3.095   0.076   1.756
 3594SOL    MW414697   3.020   0.054   1.714
 3595SOL     OW14698   2.386   0.585   0.164
 3595SOL    HW214699   2.352   0.641   0.234
 3595SOL    HW314700   2.457   0.535   0.204
 3595SOL    MW414701   2.392   0.586   0.178
 3596SOL     OW14702   3.482   1.336   0.986
 3596SOL    HW214703   3.517   1.318   0.899
 3596SOL    HW314704   3.387   1.337   0.973
 3596SOL    MW414705   3.474   1.333   0.973
 3597SOL     OW14706   2.911   0.984   1.355
 3597SOL    HW214707   2.954   1.019   1.433
 3597SOL    HW314708   2.894   1.061   1.301
 3597SOL    MW414709   2.914   0.999   1.358
 3598SOL     OW14710   3.442   0.471   0.228
 3598SOL    HW214711   3.434   0.542   0.165
 3598SOL    HW314712   3.460   0.515   0.311
 3598SOL    MW414713   3.443   0.485   0.230
 3599SOL     OW14714   2.302   0.126   0.657
 3599SOL    HW214715   2.352   0.169   0.588
 3599SOL    HW314716   2.217   0.170   0.657
 3599SOL    MW414717   2.299   0.139   0.648
 3600SOL     OW14718   2.061   1.188   1.517
 3600SOL    HW214719   2.089   1.141   1.595
 3600SOL    HW314720   1.982   1.143   1.488
 3600SOL    MW414721   2.054   1.177   1.523
 3601SOL     OW14722   2.569   0.515   1.484
 3601SOL    HW214723   2.541   0.603   1.508
 3601SOL    HW314724   2.538   0.459   1.555
 3601SOL    MW414725   2.561   0.518   1.496
 3602SOL     OW14726   3.111   0.733   0.203
 3602SOL    HW214727   3.158   0.751   0.122
 3602SOL    HW314728   3.077   0.817   0.231
 3602SOL    MW414729   3.113   0.747   0.196
 3603SOL     OW14730   2.224   0.911   0.697
 3603SOL    HW214731   2.282   0.967   0.645
 3603SOL    HW314732   2.268   0.826   0.699
 3603SOL    MW414733   2.237   0.908   0.690
 3604SOL     OW14734   3.364   0.263   0.534
 3604SOL    HW214735   3.286   0.213   0.559
 3604SOL    HW314736   3.335   0.354   0.534
 3604SOL    MW414737   3.350   0.267   0.537
 3605SOL     OW14738   2.950   0.225   0.693
 3605SOL    HW214739   2.970   0.300   0.637
 3605SOL    HW314740   2.930   0.264   0.778
 3605SOL    MW414741   2.951   0.241   0.697
 3606SOL     OW14742   2.846   1.475   0.025
 3606SOL    HW214743   2.873   1.553  -0.023
 3606SOL    HW314744   2.753   1.490   0.044
 3606SOL    MW414745   2.837   1.488   0.021
 3607SOL     OW14746   3.710   0.998   1.712
 3607SOL    HW214747   3.623   0.978   1.748
 3607SOL    HW314748   3.764   0.924   1.737
 3607SOL    MW414749   3.705   0.987   1.720
 3608SOL     OW14750   1.931   1.511   0.869
 3608SOL    HW214751   1.963   1.515   0.960
 3608SOL    HW314752   1.836   1.519   0.877
 3608SOL    MW414753   1.923   1.514   0.882
 3609SOL     OW14754   1.886   0.637   0.416
 3609SOL    HW214755   1.826   0.609   0.486
 3609SOL    HW314756   1.960   0.577   0.422
 3609SOL    MW414757   1.888   0.626   0.425
 3610SOL     OW14758   3.454   1.849   1.850
 3610SOL    HW214759   3.499   1.773   1.815
 3610SOL    HW314760   3.492   1.862   1.937
 3610SOL    MW414761   3.464   1.842   1.856
 3611SOL     OW14762   3.054   1.368   0.576
 3611SOL    HW214763   3.077   1.319   0.654
 3611SOL    HW314764   3.135   1.410   0.548
 3611SOL    MW414765   3.067   1.368   0.583
 3612SOL     OW14766   2.312   0.376   1.305
 3612SOL    HW214767   2.345   0.457   1.345
 3612SOL    HW314768   2.285   0.402   1.217
 3612SOL    MW414769   2.311   0.390   1.299
 3613SOL     OW14770   2.266   0.343   1.041
 3613SOL    HW214771   2.296   0.257   1.012
 3613SOL    HW314772   2.171   0.336   1.044
 3613SOL    MW414773   2.258   0.332   1.039
 3614SOL     OW14774   3.095   0.552   1.732
 3614SOL    HW214775   3.147   0.487   1.685
 3614SOL    HW314776   3.053   0.603   1.662
 3614SOL    MW414777   3.096   0.549   1.715
 3615SOL     OW14778   3.194   0.347   1.593
 3615SOL    HW214779   3.101   0.331   1.580
 3615SOL    HW314780   3.220   0.285   1.661
 3615SOL    MW414781   3.184   0.337   1.600
 3616SOL     OW14782   2.409   0.121   0.932
 3616SOL    HW214783   2.419   0.030   0.958
 3616SOL    HW314784   2.365   0.117   0.847
 3616SOL    MW414785   2.405   0.109   0.924
 3617SOL     OW14786   2.503   1.736   1.478
 3617SOL    HW214787   2.420   1.721   1.523
 3617SOL    HW314788   2.562   1.669   1.513
 3617SOL    MW414789   2.501   1.726   1.488
 3618SOL     OW14790   3.560   0.443   1.103
 3618SOL    HW214791   3.493   0.476   1.163
 3618SOL    HW314792   3.603   0.521   1.069
 3618SOL    MW414793   3.558   0.458   1.107
 3619SOL     OW14794   3.738   1.163   1.073
 3619SOL    HW214795   3.731   1.103   0.998
 3619SOL    HW314796   3.664   1.223   1.062
 3619SOL    MW414797   3.728   1.163   1.062
 3620SOL     OW14798   3.120   1.025   0.991
 3620SOL    HW214799   3.134   0.997   1.082
 3620SOL    HW314800   3.206   1.056   0.963
 3620SOL    MW414801   3.133   1.026   1.000
 3621SOL     OW14802   3.203   0.520   1.270
 3621SOL    HW214803   3.224   0.521   1.177
 3621SOL    HW314804   3.248   0.442   1.303
 3621SOL    MW414805   3.210   0.510   1.262
 3622SOL     OW14806   3.696   0.651   1.812
 3622SOL    HW214807   3.733   0.596   1.881
 3622SOL    HW314808   3.721   0.608   1.730
 3622SOL    MW414809   3.703   0.639   1.811
 3623SOL     OW14810   3.243   0.949   1.863
 3623SOL    HW214811   3.309   0.897   1.817
 3623SOL    HW314812   3.263   0.936   1.956
 3623SOL    MW414813   3.254   0.940   1.870
 3624SOL     OW14814   3.194   0.035   0.212
 3624SOL    HW214815   3.268   0.079   0.255
 3624SOL    HW314816   3.118   0.089   0.234
 3624SOL    MW414817   3.194   0.047   0.220
 3625SOL     OW14818   3.254   0.810   0.490
 3625SOL    HW214819   3.169   0.780   0.460
 3625SOL    HW314820   3.246   0.817   0.585
 3625SOL    MW414821   3.242   0.808   0.499
 3626SOL     OW14822   2.330   1.273   1.221
 3626SOL    HW214823   2.342   1.300   1.312
 3626SOL    HW314824   2.311   1.354   1.174
 3626SOL    MW414825   2.329   1.288   1.226
 3627SOL     OW14826   2.614   0.253   1.044
 3627SOL    HW214827   2.587   0.255   1.135
 3627SOL    HW314828   2.544   0.205   0.999
 3627SOL    MW414829   2.602   0.249   1.051
 3628SOL     OW14830   2.468   1.745   1.206
 3628SOL    HW214831   2.520   1.822   1.183
 3628SOL    HW314832   2.477   1.737   1.301
 3628SOL    MW414833   2.477   1.752   1.217
 3629SOL     OW14834   3.370   1.330   1.438
 3629SOL    HW214835   3.355   1.259   1.501
 3629SOL    HW314836   3.416   1.288   1.366
 3629SOL    MW414837   3.376   1.314   1.438
 3630SOL     OW14838   2.444   1.061   1.555
 3630SOL    HW214839   2.481   1.066   1.467
 3630SOL    HW314840   2.483   1.134   1.602
 3630SOL    MW414841   2.454   1.071   1.550
 3631SOL     OW14842   2.624   1.104   1.367
 3631SOL    HW214843   2.683   1.050   1.420
 3631SOL    HW314844   2.639   1.076   1.277
 3631SOL    MW414845   2.634   1.093   1.363
 3632SOL     OW14846   2.627   0.476   0.216
 3632SOL    HW214847   2.700   0.525   0.179
 3632SOL    HW314848   2.643   0.385   0.190
 3632SOL    MW414849   2.639   0.471   0.209
 3633SOL     OW14850   3.435   1.593   1.539
 3633SOL    HW214851   3.477   1.578   1.624
 3633SOL    HW314852   3.426   1.506   1.501
 3633SOL    MW414853   3.439   1.581   1.546
 3634SOL     OW14854   3.095   0.072   1.130
 3634SOL    HW214855   3.150   0.081   1.052
 3634SOL    HW314856   3.150   0.106   1.201
 3634SOL    MW414857   3.109   0.077   1.129
 3635SOL     OW14858   2.102   0.985   0.314
 3635SOL    HW214859   2.039   1.001   0.243
 3635SOL    HW314860   2.049   0.948   0.385
 3635SOL    MW414861   2.087   0.982   0.314
 3636SOL     OW14862   2.458   1.339   0.173
 3636SOL    HW214863   2.473   1.315   0.265
 3636SOL    HW314864   2.366   1.317   0.157
 3636SOL    MW414865   2.448   1.332   0.183
 3637SOL     OW14866   2.997   1.570   0.325
 3637SOL    HW214867   3.005   1.488   0.276
 3637SOL    HW314868   2.916   1.609   0.292
 3637SOL    MW414869   2.987   1.565   0.315
 3638SOL     OW14870   2.256   1.728   0.894
 3638SOL    HW214871   2.260   1.639   0.929
 3638SOL    HW314872   2.282   1.719   0.803
 3638SOL    MW414873   2.259   1.716   0.886
 3639SOL     OW14874   2.873   1.206   1.137
 3639SOL    HW214875   2.805   1.140   1.153
 3639SOL    HW314876   2.891   1.200   1.044
 3639SOL    MW414877   2.866   1.197   1.128
 3640SOL     OW14878   1.962   1.481   1.388
 3640SOL    HW214879   1.952   1.439   1.474
 3640SOL    HW314880   1.883   1.534   1.378
 3640SOL    MW414881   1.951   1.482   1.399
 3641SOL     OW14882   2.866   0.345   0.958
 3641SOL    HW214883   2.796   0.297   1.003
 3641SOL    HW314884   2.898   0.408   1.022
 3641SOL    MW414885   2.861   0.347   0.972
 3642SOL     OW14886   2.517   0.781   1.578
 3642SOL    HW214887   2.510   0.876   1.566
 3642SOL    HW314888   2.526   0.770   1.673
 3642SOL    MW414889   2.518   0.793   1.588
 3643SOL     OW14890   2.238   1.296   1.836
 3643SOL    HW214891   2.310   1.298   1.773
 3643SOL    HW314892   2.208   1.205   1.835
 3643SOL    MW414893   2.243   1.285   1.828
 3644SOL     OW14894   3.322   0.059   1.303
 3644SOL    HW214895   3.393   0.005   1.267
 3644SOL    HW314896   3.321   0.038   1.396
 3644SOL    MW414897   3.331   0.050   1.311
 3645SOL     OW14898   3.522   1.589   1.787
 3645SOL    HW214899   3.495   1.586   1.878
 3645SOL    HW314900   3.618   1.593   1.790
 3645SOL    MW414901   3.532   1.589   1.799
 3646SOL     OW14902   2.333   0.451   0.771
 3646SOL    HW214903   2.404   0.399   0.734
 3646SOL    HW314904   2.319   0.416   0.858
 3646SOL    MW414905   2.341   0.440   0.778
 3647SOL     OW14906   1.888   1.786   1.843
 3647SOL    HW214907   1.938   1.764   1.765
 3647SOL    HW314908   1.896   1.881   1.851
 3647SOL    MW414909   1.896   1.795   1.834
 3648SOL     OW14910   2.649   1.544   0.847
 3648SOL    HW214911   2.577   1.481   0.860
 3648SOL    HW314912   2.610   1.629   0.865
 3648SOL    MW414913   2.633   1.547   0.850
 3649SOL     OW14914   2.969   0.392   0.495
 3649SOL    HW214915   2.991   0.329   0.427
 3649SOL    HW314916   2.874   0.384   0.506
 3649SOL    MW414917   2.959   0.383   0.487
 3650SOL     OW14918   2.054   0.082   0.427
 3650SOL    HW214919   2.125   0.103   0.366
 3650SOL    HW314920   2.008   0.010   0.385
 3650SOL    MW414921   2.058   0.076   0.413
 3651SOL     OW14922   1.885   0.549   1.570
 3651SOL    HW214923   1.949   0.615   1.545
 3651SOL    HW314924   1.804   0.576   1.527
 3651SOL    MW414925   1.883   0.561   1.562
 3652SOL     OW14926   3.623   1.456   0.527
 3652SOL    HW214927   3.593   1.389   0.588
 3652SOL    HW314928   3.717   1.462   0.541
 3652SOL    MW414929   3.631   1.448   0.537
 3653SOL     OW14930   3.179   1.133   0.457
 3653SOL    HW214931   3.151   1.219   0.490
 3653SOL    HW314932   3.207   1.149   0.367
 3653SOL    MW414933   3.179   1.147   0.449
 3654SOL     OW14934   2.841   0.053   0.510
 3654SOL    HW214935   2.878   0.112   0.575
 3654SOL    HW314936   2.818   0.109   0.436
 3654SOL    MW414937   2.842   0.068   0.509
 3655SOL     OW14938   3.694   0.935   0.932
 3655SOL    HW214939   3.685   0.967   0.843
 3655SOL    HW314940   3.647   0.851   0.932
 3655SOL    MW414941   3.687   0.928   0.922
 3656SOL     OW14942   2.070   0.775   1.511
 3656SOL    HW214943   2.091   0.844   1.449
 3656SOL    HW314944   2.150   0.722   1.516
 3656SOL    MW414945   2.083   0.776   1.505
 3657SOL     OW14946   3.606   0.866   0.633
 3657SOL    HW214947   3.700   0.855   0.621
 3657SOL    HW314948   3.582   0.938   0.574
 3657SOL    MW414949   3.616   0.874   0.624
 3658SOL     OW14950   2.055   0.790   1.778
 3658SOL    HW214951   1.981   0.734   1.804
 3658SOL    HW314952   2.050   0.793   1.683
 3658SOL    MW414953   2.044   0.783   1.768
 3659SOL     OW14954   2.221   0.077   1.228
 3659SOL    HW214955   2.264   0.161   1.248
 3659SOL    HW314956   2.294   0.015   1.221
 3659SOL    MW414957   2.236   0.080   1.229
 3660SOL     OW14958   2.262   0.744   0.406
 3660SOL    HW214959   2.262   0.839   0.391
 3660SOL    HW314960   2.339   0.728   0.460
 3660SOL    MW414961   2.272   0.755   0.411
 3661SOL     OW14962   3.038   0.603   1.470
 3661SOL    HW214963   3.074   0.576   1.386
 3661SOL    HW314964   2.951   0.637   1.449
 3661SOL    MW414965   3.032   0.604   1.457
 3662SOL     OW14966   2.021   0.475   0.695
 3662SOL    HW214967   2.083   0.482   0.768
 3662SOL    HW314968   2.021   0.382   0.672
 3662SOL    MW414969   2.029   0.464   0.702
 3663SOL     OW14970   3.568   1.815   0.227
 3663SOL    HW214971   3.635   1.848   0.167
 3663SOL    HW314972   3.525   1.894   0.261
 3663SOL    MW414973   3.570   1.830   0.223
 3664SOL     OW14974   2.703   0.736   1.179
 3664SOL    HW214975   2.661   0.654   1.155
 3664SOL    HW314976   2.704   0.735   1.275
 3664SOL    MW414977   2.696   0.725   1.188
 3665SOL     OW14978   3.374   1.869   1.578
 3665SOL    HW214979   3.377   1.775   1.561
 3665SOL    HW314980   3.397   1.877   1.670
 3665SOL    MW414981   3.377   1.857   1.588
 3666SOL     OW14982   2.507   0.206   1.284
 3666SOL    HW214983   2.438   0.269   1.305
 3666SOL    HW314984   2.534   0.170   1.369
 3666SOL    MW414985   2.501   0.209   1.297
 3667SOL     OW14986   1.890   1.047   0.153
 3667SOL    HW214987   1.859   1.112   0.216
 3667SOL    HW314988   1.839   0.969   0.172
 3667SOL    MW414989   1.880   1.044   0.163
 3668SOL     OW14990   3.302   0.059   0.901
 3668SOL    HW214991   3.390   0.068   0.938
 3668SOL    HW314992   3.312   0.000   0.827
 3668SOL    MW414993   3.316   0.053   0.895
 3669SOL     OW14994   3.334   0.798   0.745
 3669SOL    HW214995   3.414   0.813   0.694
 3669SOL    HW314996   3.327   0.703   0.751
 3669SOL    MW414997   3.343   0.787   0.740
 3670SOL     OW14998   2.474   1.847   0.095
 3670SOL    HW214999   2.379   1.847   0.087
 3670SOL    HW315000   2.490   1.793   0.173
 3670SOL    MW415001   2.464   1.841   0.104
 3671SOL     OW15002   2.784   0.724   1.442
 3671SOL    HW215003   2.853   0.791   1.439
 3671SOL    HW315004   2.717   0.762   1.498
 3671SOL    MW415005   2.785   0.737   1.449
 3672SOL     OW15006   2.202   1.024   1.690
 3672SOL    HW215007   2.156   0.940   1.692
 3672SOL    HW315008   2.259   1.018   1.614
 3672SOL    MW415009   2.204   1.012   1.682
 3673SOL     OW15010   3.319   0.667   0.011
 3673SOL    HW215011   3.247   0.643  -0.047
 3673SOL    HW315012   3.385   0.704  -0.047
 3673SOL    MW415013   3.318   0.669  -0.004
 3674SOL     OW15014   2.453   1.399   0.691
 3674SOL    HW215015   2.518   1.332   0.712
 3674SOL    HW315016   2.505   1.476   0.668
 3674SOL    MW415017   2.468   1.401   0.690
 3675SOL     OW15018   2.714   0.564   0.821
 3675SOL    HW215019   2.654   0.582   0.893
 3675SOL    HW315020   2.748   0.476   0.840
 3675SOL    MW415021   2.710   0.554   0.834
 3676SOL     OW15022   3.655   0.063   1.490
 3676SOL    HW215023   3.576   0.109   1.518
 3676SOL    HW315024   3.690   0.117   1.419
 3676SOL    MW415025   3.649   0.076   1.484
 3677SOL     OW15026   2.939   1.147   0.840
 3677SOL    HW215027   3.031   1.128   0.858
 3677SOL    HW315028   2.912   1.077   0.780
 3677SOL    MW415029   2.947   1.135   0.834
 3678SOL     OW15030   2.732   0.967   0.195
 3678SOL    HW215031   2.718   0.879   0.160
 3678SOL    HW315032   2.683   1.024   0.136
 3678SOL    MW415033   2.724   0.962   0.183
 3679SOL     OW15034   3.213   1.385   0.936
 3679SOL    HW215035   3.186   1.469   0.901
 3679SOL    HW315036   3.173   1.380   1.023
 3679SOL    MW415037   3.206   1.394   0.942
 3680SOL     OW15038   3.132   1.333   1.204
 3680SOL    HW215039   3.143   1.300   1.293
 3680SOL    HW315040   3.051   1.292   1.173
 3680SOL    MW415041   3.122   1.325   1.210
 3681SOL     OW15042   2.145   0.691   0.974
 3681SOL    HW215043   2.095   0.690   1.055
 3681SOL    HW315044   2.165   0.783   0.958
 3681SOL    MW415045   2.141   0.703   0.982
 3682SOL     OW15046   3.212   1.455   1.736
 3682SOL    HW215047   3.212   1.549   1.752
 3682SOL    HW315048   3.257   1.445   1.652
 3682SOL    MW415049   3.218   1.465   1.727
 3683SOL     OW15050   3.451   0.173   0.297
 3683SOL    HW215051   3.444   0.177   0.392
 3683SOL    HW315052   3.463   0.264   0.270
 3683SOL    MW415053   3.452   0.186   0.305
 3684SOL     OW15054   2.740   0.736   0.411
 3684SOL    HW215055   2.720   0.722   0.318
 3684SOL    HW315056   2.833   0.715   0.418
 3684SOL    MW415057   2.750   0.731   0.400
 3685SOL     OW15058   2.067   0.359   1.715
 3685SOL    HW215059   2.024   0.418   1.652
 3685SOL    HW315060   2.135   0.414   1.755
 3685SOL    MW415061   2.071   0.374   1.712
 3686SOL     OW15062   3.179   0.979   1.260
 3686SOL    HW215063   3.242   0.976   1.333
 3686SOL    HW315064   3.095   0.997   1.302
 3686SOL    MW415065   3.175   0.981   1.275
 3687SOL     OW15066   2.723   1.694   0.449
 3687SOL    HW215067   2.781   1.765   0.476
 3687SOL    HW315068   2.746   1.622   0.507
 3687SOL    MW415069   2.734   1.694   0.460
 3688SOL     OW15070   3.518   0.156   1.039
 3688SOL    HW215071   3.563   0.074   1.058
 3688SOL    HW315072   3.538   0.212   1.115
 3688SOL    MW415073   3.528   0.152   1.051
 3689SOL     OW15074   1.966  -0.001   1.138
 3689SOL    HW215075   1.957   0.000   1.043
 3689SOL    HW315076   2.060   0.011   1.153
 3689SOL    MW415077   1.978   0.002   1.129
 3690SOL     OW15078   3.603   1.192   0.758
 3690SOL    HW215079   3.582   1.138   0.681
 3690SOL    HW315080   3.699   1.190   0.762
 3690SOL    MW415081   3.612   1.185   0.747
 3691SOL     OW15082   2.295   1.337   1.501
 3691SOL    HW215083   2.216   1.287   1.524
 3691SOL    HW315084   2.365   1.296   1.551
 3691SOL    MW415085   2.293   1.325   1.511
 3692SOL     OW15086   2.179   0.126   0.184
 3692SOL    HW215087   2.108   0.181   0.152
 3692SOL    HW315088   2.221   0.092   0.105
 3692SOL    MW415089   2.175   0.128   0.170
 3693SOL     OW15090   3.303   0.623   1.020
 3693SOL    HW215091   3.226   0.669   0.986
 3693SOL    HW315092   3.360   0.692   1.054
 3693SOL    MW415093   3.300   0.638   1.020
 3694SOL     OW15094   1.935   0.225   0.033
 3694SOL    HW215095   1.902   0.304   0.077
 3694SOL    HW315096   1.990   0.258  -0.038
 3694SOL    MW415097   1.938   0.239   0.030
 3695SOL     OW15098   1.969   1.482   0.222
 3695SOL    HW215099   1.986   1.566   0.264
 3695SOL    HW315100   2.004   1.491   0.134
 3695SOL    MW415101   1.974   1.495   0.216
 3696SOL     OW15102   3.241   1.571   0.439
 3696SOL    HW215103   3.304   1.561   0.368
 3696SOL    HW315104   3.158   1.591   0.394
 3696SOL    MW415105   3.238   1.572   0.424
 3697SOL     OW15106   3.604   0.839   2.125
 3697SOL    HW215107   3.645   0.781   2.190
 3697SOL    HW315108   3.511   0.831   2.142
 3697SOL    MW415109   3.598   0.831   2.135
 3698SOL     OW15110   3.470   0.771   3.120
 3698SOL    HW215111   3.425   0.838   3.171
 3698SOL    HW315112   3.558   0.807   3.106
 3698SOL    MW415113   3.476   0.784   3.124
 3699SOL     OW15114   2.398   1.022   2.354
 3699SOL    HW215115   2.488   0.997   2.338
 3699SOL    HW315116   2.394   1.115   2.331
 3699SOL    MW415117   2.410   1.031   2.349
 3700SOL     OW15118   3.514   1.725   2.496
 3700SOL    HW215119   3.526   1.671   2.574
 3700SOL    HW315120   3.551   1.673   2.425
 3700SOL    MW415121   3.520   1.710   2.497
 3701SOL     OW15122   2.893   1.610   3.497
 3701SOL    HW215123   2.934   1.646   3.418
 3701SOL    HW315124   2.928   1.521   3.504
 3701SOL    MW415125   2.904   1.603   3.488
 3702SOL     OW15126   3.450   1.165   3.101
 3702SOL    HW215127   3.371   1.130   3.059
 3702SOL    HW315128   3.477   1.237   3.045
 3702SOL    MW415129   3.443   1.170   3.088
 3703SOL     OW15130   2.682   0.478   2.367
 3703SOL    HW215131   2.657   0.566   2.395
 3703SOL    HW315132   2.679   0.481   2.271
 3703SOL    MW415133   2.678   0.490   2.359
 3704SOL     OW15134   2.124   0.506   2.295
 3704SOL    HW215135   2.156   0.594   2.277
 3704SOL    HW315136   2.112   0.504   2.390
 3704SOL    MW415137   2.127   0.518   2.307
 3705SOL     OW15138   2.202   0.919   3.196
 3705SOL    HW215139   2.265   0.866   3.147
 3705SOL    HW315140   2.183   0.993   3.139
 3705SOL    MW415141   2.208   0.921   3.183
 3706SOL     OW15142   2.523   0.261   2.382
 3706SOL    HW215143   2.581   0.337   2.384
 3706SOL    HW315144   2.458   0.282   2.315
 3706SOL    MW415145   2.522   0.273   2.373
 3707SOL     OW15146   2.610   1.188   2.557
 3707SOL    HW215147   2.690   1.191   2.609
 3707SOL    HW315148   2.638   1.155   2.471
 3707SOL    MW415149   2.624   1.184   2.552
 3708SOL     OW15150   2.635   1.529   3.460
 3708SOL    HW215151   2.719   1.555   3.499
 3708SOL    HW315152   2.659   1.473   3.386
 3708SOL    MW415153   2.649   1.525   3.455
 3709SOL     OW15154   2.387   0.692   2.548
 3709SOL    HW215155   2.372   0.612   2.599
 3709SOL    HW315156   2.469   0.727   2.582
 3709SOL    MW415157   2.395   0.684   2.560
 3710SOL     OW15158   2.724   1.378   3.233
 3710SOL    HW215159   2.688   1.444   3.173
 3710SOL    HW315160   2.652   1.316   3.246
 3710SOL    MW415161   2.710   1.378   3.227
 3711SOL     OW15162   2.529   0.518   2.925
 3711SOL    HW215163   2.435   0.514   2.943
 3711SOL    HW315164   2.559   0.427   2.934
 3711SOL    MW415165   2.520   0.506   2.928
 3712SOL     OW15166   2.275   0.932   2.829
 3712SOL    HW215167   2.230   0.939   2.745
 3712SOL    HW315168   2.255   1.015   2.873
 3712SOL    MW415169   2.267   0.944   2.823
 3713SOL     OW15170   1.972   1.778   2.704
 3713SOL    HW215171   2.061   1.770   2.739
 3713SOL    HW315172   1.936   1.690   2.709
 3713SOL    MW415173   1.979   1.765   2.709
 3714SOL     OW15174   3.237   1.170   2.073
 3714SOL    HW215175   3.155   1.206   2.039
 3714SOL    HW315176   3.305   1.213   2.022
 3714SOL    MW415177   3.235   1.180   2.061
 3715SOL     OW15178   2.236   1.305   2.739
 3715SOL    HW215179   2.212   1.358   2.815
 3715SOL    HW315180   2.292   1.363   2.687
 3715SOL    MW415181   2.240   1.320   2.742
 3716SOL     OW15182   2.798   0.949   2.549
 3716SOL    HW215183   2.712   0.936   2.589
 3716SOL    HW315184   2.851   0.876   2.581
 3716SOL    MW415185   2.794   0.938   2.558
 3717SOL     OW15186   2.206   1.601   3.334
 3717SOL    HW215187   2.114   1.577   3.319
 3717SOL    HW315188   2.250   1.518   3.351
 3717SOL    MW415189   2.200   1.586   3.333
 3718SOL     OW15190   2.789   1.311   2.266
 3718SOL    HW215191   2.766   1.373   2.334
 3718SOL    HW315192   2.746   1.229   2.292
 3718SOL    MW415193   2.781   1.307   2.277
 3719SOL     OW15194   3.662   0.312   2.722
 3719SOL    HW215195   3.599   0.292   2.791
 3719SOL    HW315196   3.652   0.241   2.659
 3719SOL    MW415197   3.652   0.299   2.723
 3720SOL     OW15198   2.286   0.284   2.234
 3720SOL    HW215199   2.260   0.246   2.150
 3720SOL    HW315200   2.223   0.354   2.250
 3720SOL    MW415201   2.275   0.287   2.225
 3721SOL     OW15202   2.121   1.245   2.271
 3721SOL    HW215203   2.069   1.313   2.227
 3721SOL    HW315204   2.118   1.171   2.211
 3721SOL    MW415205   2.113   1.244   2.258
 3722SOL     OW15206   2.783   1.708   2.049
 3722SOL    HW215207   2.738   1.724   2.132
 3722SOL    HW315208   2.714   1.673   1.991
 3722SOL    MW415209   2.769   1.705   2.051
 3723SOL     OW15210   3.718   0.481   2.024
 3723SOL    HW215211   3.627   0.483   2.052
 3723SOL    HW315212   3.763   0.543   2.082
 3723SOL    MW415213   3.711   0.489   2.034
 3724SOL     OW15214   3.463   1.084   2.374
 3724SOL    HW215215   3.373   1.084   2.409
 3724SOL    HW315216   3.456   1.130   2.291
 3724SOL    MW415217   3.450   1.090   2.368
 3725SOL     OW15218   3.263   0.719   3.446
 3725SOL    HW215219   3.332   0.657   3.423
 3725SOL    HW315220   3.188   0.693   3.393
 3725SOL    MW415221   3.263   0.706   3.437
 3726SOL     OW15222   2.004   1.599   2.998
 3726SOL    HW215223   1.987   1.545   3.075
 3726SOL    HW315224   1.992   1.689   3.028
 3726SOL    MW415225   2.001   1.603   3.012
 3727SOL     OW15226   2.999   1.106   3.438
 3727SOL    HW215227   2.984   1.199   3.423
 3727SOL    HW315228   3.094   1.096   3.438
 3727SOL    MW415229   3.008   1.116   3.435
 3728SOL     OW15230   2.795   0.530   3.639
 3728SOL    HW215231   2.885   0.531   3.606
 3728SOL    HW315232   2.754   0.455   3.597
 3728SOL    MW415233   2.801   0.520   3.630
 3729SOL     OW15234   3.370   1.062   2.766
 3729SOL    HW215235   3.373   0.996   2.697
 3729SOL    HW315236   3.455   1.105   2.762
 3729SOL    MW415237   3.382   1.058   2.757
 3730SOL     OW15238   2.990   0.665   2.335
 3730SOL    HW215239   3.016   0.689   2.246
 3730SOL    HW315240   2.972   0.572   2.331
 3730SOL    MW415241   2.992   0.657   2.322
 3731SOL     OW15242   3.655   1.285   2.186
 3731SOL    HW215243   3.611   1.326   2.261
 3731SOL    HW315244   3.712   1.353   2.151
 3731SOL    MW415245   3.657   1.299   2.191
 3732SOL     OW15246   2.575   0.334   3.589
 3732SOL    HW215247   2.585   0.260   3.529
 3732SOL    HW315248   2.611   0.303   3.672
 3732SOL    MW415249   2.581   0.320   3.591
 3733SOL     OW15250   2.311   1.701   2.504
 3733SOL    HW215251   2.343   1.789   2.482
 3733SOL    HW315252   2.264   1.673   2.426
 3733SOL    MW415253   2.310   1.709   2.491
 3734SOL     OW15254   3.695   0.063   2.553
 3734SOL    HW215255   3.749   0.014   2.615
 3734SOL    HW315256   3.638  -0.003   2.514
 3734SOL    MW415257   3.695   0.047   2.555
 3735SOL     OW15258   2.027   1.761   2.081
 3735SOL    HW215259   2.056   1.851   2.073
 3735SOL    HW315260   1.977   1.744   2.002
 3735SOL    MW415261   2.025   1.769   2.070
 3736SOL     OW15262   2.814   0.016   2.966
 3736SOL    HW215263   2.773   0.094   2.928
 3736SOL    HW315264   2.908   0.034   2.961
 3736SOL    MW415265   2.820   0.028   2.961
 3737SOL     OW15266   3.431   1.569   2.052
 3737SOL    HW215267   3.479   1.638   2.098
 3737SOL    HW315268   3.352   1.613   2.021
 3737SOL    MW415269   3.426   1.583   2.055
 3738SOL     OW15270   2.829   0.694   1.996
 3738SOL    HW215271   2.831   0.641   1.917
 3738SOL    HW315272   2.917   0.731   2.002
 3738SOL    MW415273   2.841   0.693   1.985
 3739SOL     OW15274   3.443   0.620   2.332
 3739SOL    HW215275   3.482   0.620   2.419
 3739SOL    HW315276   3.384   0.696   2.332
 3739SOL    MW415277   3.440   0.631   2.343
 3740SOL     OW15278   2.760   0.987   3.461
 3740SOL    HW215279   2.737   0.967   3.551
 3740SOL    HW315280   2.845   1.031   3.466
 3740SOL    MW415281   2.767   0.990   3.473
 3741SOL     OW15282   2.840   0.124   3.221
 3741SOL    HW215283   2.846   0.086   3.134
 3741SOL    HW315284   2.829   0.218   3.206
 3741SOL    MW415285   2.841   0.132   3.209
 3742SOL     OW15286   2.929   0.613   3.055
 3742SOL    HW215287   3.004   0.642   3.002
 3742SOL    HW315288   2.861   0.678   3.039
 3742SOL    MW415289   2.930   0.625   3.045
 3743SOL     OW15290   3.479   0.581   3.332
 3743SOL    HW215291   3.460   0.490   3.311
 3743SOL    HW315292   3.457   0.630   3.253
 3743SOL    MW415293   3.474   0.574   3.319
 3744SOL     OW15294   3.621   1.675   3.236
 3744SOL    HW215295   3.549   1.637   3.287
 3744SOL    HW315296   3.638   1.760   3.277
 3744SOL    MW415297   3.615   1.680   3.248
 3745SOL     OW15298   2.926   0.319   3.438
 3745SOL    HW215299   2.892   0.358   3.357
 3745SOL    HW315300   2.904   0.227   3.431
 3745SOL    MW415301   2.919   0.312   3.428
 3746SOL     OW15302   3.335   1.133   3.514
 3746SOL    HW215303   3.417   1.174   3.544
 3746SOL    HW315304   3.298   1.095   3.594
 3746SOL    MW415305   3.341   1.134   3.529
 3747SOL     OW15306   3.630   0.506   2.498
 3747SOL    HW215307   3.719   0.475   2.515
 3747SOL    HW315308   3.573   0.446   2.546
 3747SOL    MW415309   3.633   0.494   2.507
 3748SOL     OW15310   2.056   0.220   2.527
 3748SOL    HW215311   2.047   0.160   2.453
 3748SOL    HW315312   1.989   0.191   2.590
 3748SOL    MW415313   2.046   0.207   2.525
 3749SOL     OW15314   2.999   1.313   2.088
 3749SOL    HW215315   2.949   1.315   2.170
 3749SOL    HW315316   2.933   1.331   2.020
 3749SOL    MW415317   2.985   1.315   2.090
 3750SOL     OW15318   2.003   0.393   2.890
 3750SOL    HW215319   1.975   0.484   2.899
 3750SOL    HW315320   1.940   0.354   2.829
 3750SOL    MW415321   1.990   0.399   2.884
 3751SOL     OW15322   2.462   1.731   2.196
 3751SOL    HW215323   2.383   1.689   2.229
 3751SOL    HW315324   2.528   1.714   2.263
 3751SOL    MW415325   2.461   1.723   2.209
 3752SOL     OW15326   3.590   1.251   3.593
 3752SOL    HW215327   3.640   1.177   3.625
 3752SOL    HW315328   3.536   1.278   3.668
 3752SOL    MW415329   3.590   1.245   3.606
 3753SOL     OW15330   2.598   1.146   1.903
 3753SOL    HW215331   2.520   1.092   1.890
 3753SOL    HW315332   2.569   1.219   1.956
 3753SOL    MW415333   2.584   1.148   1.908
 3754SOL     OW15334   3.724   0.886   3.095
 3754SOL    HW215335   3.740   0.924   3.008
 3754SOL    HW315336   3.758   0.952   3.156
 3754SOL    MW415337   3.731   0.899   3.091
 3755SOL     OW15338   3.516   1.595   2.764
 3755SOL    HW215339   3.545   1.662   2.825
 3755SOL    HW315340   3.497   1.519   2.819
 3755SOL    MW415341   3.518   1.595   2.779
 3756SOL     OW15342   3.179   1.662   1.971
 3756SOL    HW215343   3.105   1.625   2.021
 3756SOL    HW315344   3.187   1.752   2.004
 3756SOL    MW415345   3.170   1.669   1.983
 3757SOL     OW15346   1.987   0.668   3.060
 3757SOL    HW215347   2.049   0.698   3.126
 3757SOL    HW315348   1.921   0.737   3.054
 3757SOL    MW415349   1.986   0.681   3.067
 3758SOL     OW15350   3.403   1.336   1.913
 3758SOL    HW215351   3.350   1.385   1.849
 3758SOL    HW315352   3.434   1.402   1.974
 3758SOL    MW415353   3.401   1.350   1.911
 3759SOL     OW15354   2.628   0.225   1.968
 3759SOL    HW215355   2.576   0.145   1.956
 3759SOL    HW315356   2.715   0.202   1.936
 3759SOL    MW415357   2.631   0.211   1.962
 3760SOL     OW15358   2.082   1.777   3.512
 3760SOL    HW215359   2.056   1.845   3.450
 3760SOL    HW315360   2.130   1.714   3.460
 3760SOL    MW415361   2.084   1.777   3.498
 3761SOL     OW15362   2.134   1.096   3.019
 3761SOL    HW215363   2.187   1.171   3.044
 3761SOL    HW315364   2.053   1.134   2.985
 3761SOL    MW415365   2.130   1.111   3.019
 3762SOL     OW15366   2.674   1.000   3.007
 3762SOL    HW215367   2.702   0.909   3.019
 3762SOL    HW315368   2.603   0.994   2.943
 3762SOL    MW415369   2.667   0.988   3.002
 3763SOL     OW15370   1.989   0.865   2.425
 3763SOL    HW215371   2.080   0.880   2.452
 3763SOL    HW315372   1.992   0.786   2.371
 3763SOL    MW415373   2.001   0.857   2.423
 3764SOL     OW15374   2.225   0.573   3.679
 3764SOL    HW215375   2.172   0.653   3.686
 3764SOL    HW315376   2.295   0.585   3.744
 3764SOL    MW415377   2.227   0.586   3.687
 3765SOL     OW15378   2.611   0.123   3.386
 3765SOL    HW215379   2.588   0.031   3.388
 3765SOL    HW315380   2.697   0.125   3.343
 3765SOL    MW415381   2.618   0.113   3.382
 3766SOL     OW15382   2.295   0.647   3.425
 3766SOL    HW215383   2.375   0.697   3.411
 3766SOL    HW315384   2.286   0.641   3.520
 3766SOL    MW415385   2.304   0.653   3.435
 3767SOL     OW15386   2.616   1.797   2.799
 3767SOL    HW215387   2.705   1.812   2.829
 3767SOL    HW315388   2.611   1.844   2.715
 3767SOL    MW415389   2.626   1.805   2.792
 3768SOL     OW15390   3.272   0.172   3.696
 3768SOL    HW215391   3.328   0.099   3.722
 3768SOL    HW315392   3.242   0.210   3.778
 3768SOL    MW415393   3.276   0.167   3.709
 3769SOL     OW15394   1.997   1.477   2.464
 3769SOL    HW215395   1.969   1.516   2.546
 3769SOL    HW315396   2.017   1.386   2.486
 3769SOL    MW415397   1.995   1.469   2.477
 3770SOL     OW15398   2.830   1.520   2.499
 3770SOL    HW215399   2.913   1.474   2.483
 3770SOL    HW315400   2.820   1.519   2.595
 3770SOL    MW415401   2.840   1.513   2.509
 3771SOL     OW15402   3.662   0.665   2.813
 3771SOL    HW215403   3.751   0.695   2.795
 3771SOL    HW315404   3.642   0.605   2.742
 3771SOL    MW415405   3.671   0.662   2.802
 3772SOL     OW15406   3.513   0.844   3.693
 3772SOL    HW215407   3.568   0.768   3.674
 3772SOL    HW315408   3.515   0.852   3.788
 3772SOL    MW415409   3.521   0.835   3.701
 3773SOL     OW15410   2.563   1.577   1.904
 3773SOL    HW215411   2.503   1.646   1.874
 3773SOL    HW315412   2.508   1.519   1.957
 3773SOL    MW415413   2.547   1.579   1.906
 3774SOL     OW15414   3.001   0.222   2.127
 3774SOL    HW215415   2.934   0.198   2.064
 3774SOL    HW315416   3.066   0.271   2.076
 3774SOL    MW415417   3.001   0.224   2.112
 3775SOL     OW15418   2.808   0.406   3.212
 3775SOL    HW215419   2.727   0.447   3.240
 3775SOL    HW315420   2.855   0.474   3.164
 3775SOL    MW415421   2.803   0.421   3.210
 3776SOL     OW15422   3.068   0.744   2.835
 3776SOL    HW215423   3.081   0.838   2.845
 3776SOL    HW315424   3.029   0.734   2.749
 3776SOL    MW415425   3.064   0.755   2.825
 3777SOL     OW15426   2.520   0.939   2.639
 3777SOL    HW215427   2.431   0.930   2.672
 3777SOL    HW315428   2.524   1.029   2.607
 3777SOL    MW415429   2.509   0.950   2.639
 3778SOL     OW15430   3.319   0.522   2.634
 3778SOL    HW215431   3.264   0.443   2.633
 3778SOL    HW315432   3.301   0.563   2.718
 3778SOL    MW415433   3.309   0.517   2.643
 3779SOL     OW15434   2.290   0.209   3.451
 3779SOL    HW215435   2.211   0.227   3.503
 3779SOL    HW315436   2.285   0.271   3.378
 3779SOL    MW415437   2.280   0.219   3.448
 3780SOL     OW15438   2.938   0.726   2.591
 3780SOL    HW215439   2.875   0.658   2.615
 3780SOL    HW315440   2.958   0.707   2.499
 3780SOL    MW415441   2.932   0.713   2.583
 3781SOL     OW15442   2.194   1.621   2.293
 3781SOL    HW215443   2.155   1.668   2.219
 3781SOL    HW315444   2.128   1.556   2.318
 3781SOL    MW415445   2.181   1.619   2.287
 3782SOL     OW15446   2.686   1.030   2.317
 3782SOL    HW215447   2.688   1.004   2.224
 3782SOL    HW315448   2.744   0.967   2.360
 3782SOL    MW415449   2.694   1.019   2.311
 3783SOL     OW15450   3.239   1.590   3.089
 3783SOL    HW215451   3.164   1.636   3.127
 3783SOL    HW315452   3.221   1.497   3.106
 3783SOL    MW415453   3.228   1.584   3.097
 3784SOL     OW15454   3.243   1.798   2.519
 3784SOL    HW215455   3.186   1.751   2.458
 3784SOL    HW315456   3.329   1.759   2.506
 3784SOL    MW415457   3.246   1.789   2.509
 3785SOL     OW15458   3.196   0.274   2.650
 3785SOL    HW215459   3.224   0.206   2.711
 3785SOL    HW315460   3.110   0.245   2.620
 3785SOL    MW415461   3.189   0.261   2.654
 3786SOL     OW15462   2.001   1.208   2.584
 3786SOL    HW215463   2.065   1.240   2.647
 3786SOL    HW315464   2.050   1.144   2.532
 3786SOL    MW415465   2.016   1.204   2.585
 3787SOL     OW15466   2.501   1.284   3.566
 3787SOL    HW215467   2.549   1.367   3.553
 3787SOL    HW315468   2.558   1.232   3.622
 3787SOL    MW415469   2.515   1.288   3.572
 3788SOL     OW15470   2.077   1.526   3.706
 3788SOL    HW215471   2.133   1.450   3.721
 3788SOL    HW315472   2.026   1.504   3.628
 3788SOL    MW415473   2.077   1.513   3.697
 3789SOL     OW15474   3.176   0.378   1.985
 3789SOL    HW215475   3.149   0.444   1.921
 3789SOL    HW315476   3.246   0.421   2.035
 3789SOL    MW415477   3.181   0.391   1.982
 3790SOL     OW15478   2.844   0.083   1.922
 3790SOL    HW215479   2.900   0.075   1.844
 3790SOL    HW315480   2.821  -0.007   1.944
 3790SOL    MW415481   2.849   0.070   1.915
 3791SOL     OW15482   3.349   0.934   2.127
 3791SOL    HW215483   3.316   1.023   2.117
 3791SOL    HW315484   3.314   0.905   2.212
 3791SOL    MW415485   3.339   0.943   2.138
 3792SOL     OW15486   2.962   1.363   3.315
 3792SOL    HW215487   2.873   1.369   3.283
 3792SOL    HW315488   3.006   1.442   3.283
 3792SOL    MW415489   2.957   1.373   3.307
 3793SOL     OW15490   2.255   0.031   3.657
 3793SOL    HW215491   2.183  -0.004   3.605
 3793SOL    HW315492   2.313   0.072   3.592
 3793SOL    MW415493   2.253   0.032   3.642
 3794SOL     OW15494   2.279   1.521   2.956
 3794SOL    HW215495   2.324   1.583   3.013
 3794SOL    HW315496   2.186   1.540   2.969
 3794SOL    MW415497   2.272   1.531   2.963
 3795SOL     OW15498   3.719   1.050   3.310
 3795SOL    HW215499   3.634   1.063   3.269
 3795SOL    HW315500   3.699   1.014   3.397
 3795SOL    MW415501   3.706   1.046   3.315
 3796SOL     OW15502   2.701   1.589   3.064
 3796SOL    HW215503   2.725   1.578   2.973
 3796SOL    HW315504   2.624   1.646   3.062
 3796SOL    MW415505   2.693   1.594   3.053
 3797SOL     OW15506   2.343   0.972   1.919
 3797SOL    HW215507   2.266   0.985   1.975
 3797SOL    HW315508   2.307   0.936   1.838
 3797SOL    MW415509   2.329   0.968   1.916
 3798SOL     OW15510   2.996   0.945   2.162
 3798SOL    HW215511   2.906   0.966   2.137
 3798SOL    HW315512   3.023   1.018   2.218
 3798SOL    MW415513   2.988   0.957   2.165
 3799SOL     OW15514   2.496   1.294   2.854
 3799SOL    HW215515   2.489   1.273   2.948
 3799SOL    HW315516   2.414   1.262   2.817
 3799SOL    MW415517   2.484   1.288   2.861
 3800SOL     OW15518   3.360   0.304   3.256
 3800SOL    HW215519   3.307   0.306   3.336
 3800SOL    HW315520   3.345   0.217   3.219
 3800SOL    MW415521   3.352   0.294   3.261
 3801SOL     OW15522   3.696   0.228   3.129
 3801SOL    HW215523   3.677   0.295   3.064
 3801SOL    HW315524   3.753   0.166   3.084
 3801SOL    MW415525   3.700   0.229   3.115
 3802SOL     OW15526   1.942   1.386   3.517
 3802SOL    HW215527   1.986   1.319   3.463
 3802SOL    HW315528   1.857   1.348   3.537
 3802SOL    MW415529   1.937   1.372   3.513
 3803SOL     OW15530   2.625   0.061   2.569
 3803SOL    HW215531   2.554   0.122   2.551
 3803SOL    HW315532   2.676   0.058   2.488
 3803SOL    MW415533   2.621   0.067   2.556
 3804SOL     OW15534   2.383   1.301   2.318
 3804SOL    HW215535   2.376   1.333   2.408
 3804SOL    HW315536   2.293   1.285   2.290
 3804SOL    MW415537   2.371   1.303   2.325
 3805SOL     OW15538   2.978   1.694   3.227
 3805SOL    HW215539   2.898   1.679   3.177
 3805SOL    HW315540   2.985   1.789   3.234
 3805SOL    MW415541   2.969   1.705   3.221
 3806SOL     OW15542   3.092   1.659   2.717
 3806SOL    HW215543   3.139   1.732   2.676
 3806SOL    HW315544   3.013   1.698   2.753
 3806SOL    MW415545   3.087   1.674   2.716
 3807SOL     OW15546   3.500   1.754   2.992
 3807SOL    HW215547   3.543   1.724   3.072
 3807SOL    HW315548   3.419   1.702   2.989
 3807SOL    MW415549   3.495   1.743   3.002
 3808SOL     OW15550   2.585   0.718   3.699
 3808SOL    HW215551   2.655   0.660   3.671
 3808SOL    HW315552   2.528   0.663   3.754
 3808SOL    MW415553   2.587   0.705   3.703
 3809SOL     OW15554   3.372   0.930   3.332
 3809SOL    HW215555   3.377   0.983   3.412
 3809SOL    HW315556   3.334   0.847   3.360
 3809SOL    MW415557   3.368   0.925   3.347
 3810SOL     OW15558   3.012   0.065   3.578
 3810SOL    HW215559   3.007  -0.028   3.559
 3810SOL    HW315560   3.095   0.076   3.624
 3810SOL    MW415561   3.020   0.054   3.582
 3811SOL     OW15562   2.386   0.585   2.032
 3811SOL    HW215563   2.352   0.641   2.102
 3811SOL    HW315564   2.457   0.535   2.072
 3811SOL    MW415565   2.392   0.586   2.046
 3812SOL     OW15566   3.482   1.336   2.854
 3812SOL    HW215567   3.517   1.318   2.767
 3812SOL    HW315568   3.387   1.337   2.841
 3812SOL    MW415569   3.474   1.333   2.841
 3813SOL     OW15570   2.911   0.984   3.223
 3813SOL    HW215571   2.954   1.019   3.301
 3813SOL    HW315572   2.894   1.061   3.169
 3813SOL    MW415573   2.914   0.999   3.226
 3814SOL     OW15574   3.442   0.471   2.096
 3814SOL    HW215575   3.434   0.542   2.033
 3814SOL    HW315576   3.460   0.515   2.179
 3814SOL    MW415577   3.443   0.485   2.098
 3815SOL     OW15578   2.302   0.126   2.525
 3815SOL    HW215579   2.352   0.169   2.456
 3815SOL    HW315580   2.217   0.170   2.525
 3815SOL    MW415581   2.299   0.139   2.516
 3816SOL     OW15582   2.061   1.188   3.385
 3816SOL    HW215583   2.089   1.141   3.463
 3816SOL    HW315584   1.982   1.143   3.356
 3816SOL    MW415585   2.054   1.177   3.391
 3817SOL     OW15586   2.569   0.515   3.352
 3817SOL    HW215587   2.541   0.603   3.376
 3817SOL    HW315588   2.538   0.459   3.423
 3817SOL    MW415589   2.561   0.518   3.364
 3818SOL     OW15590   3.111   0.733   2.071
 3818SOL    HW215591   3.158   0.751   1.990
 3818SOL    HW315592   3.077   0.817   2.099
 3818SOL    MW415593   3.113   0.747   2.064
 3819SOL     OW15594   2.224   0.911   2.565
 3819SOL    HW215595   2.282   0.967   2.513
 3819SOL    HW315596   2.268   0.826   2.567
 3819SOL    MW415597   2.237   0.908   2.558
 3820SOL     OW15598   3.364   0.263   2.402
 3820SOL    HW215599   3.286   0.213   2.427
 3820SOL    HW315600   3.335   0.354   2.402
 3820SOL    MW415601   3.350   0.267   2.405
 3821SOL     OW15602   2.950   0.225   2.561
 3821SOL    HW215603   2.970   0.300   2.505
 3821SOL    HW315604   2.930   0.264   2.646
 3821SOL    MW415605   2.951   0.241   2.565
 3822SOL     OW15606   2.846   1.475   1.893
 3822SOL    HW215607   2.873   1.553   1.845
 3822SOL    HW315608   2.753   1.490   1.912
 3822SOL    MW415609   2.837   1.488   1.889
 3823SOL     OW15610   3.710   0.998   3.580
 3823SOL    HW215611   3.623   0.978   3.616
 3823SOL    HW315612   3.764   0.924   3.605
 3823SOL    MW415613   3.705   0.987   3.588
 3824SOL     OW15614   1.931   1.511   2.737
 3824SOL    HW215615   1.963   1.515   2.828
 3824SOL    HW315616   1.836   1.519   2.745
 3824SOL    MW415617   1.923   1.514   2.750
 3825SOL     OW15618   1.886   0.637   2.284
 3825SOL    HW215619   1.826   0.609   2.354
 3825SOL    HW315620   1.960   0.577   2.290
 3825SOL    MW415621   1.888   0.626   2.293
 3826SOL     OW15622   3.454   1.849   3.718
 3826SOL    HW215623   3.499   1.773   3.683
 3826SOL    HW315624   3.492   1.862   3.805
 3826SOL    MW415625   3.464   1.842   3.724
 3827SOL     OW15626   3.054   1.368   2.444
 3827SOL    HW215627   3.077   1.319   2.522
 3827SOL    HW315628   3.135   1.410   2.416
 3827SOL    MW415629   3.067   1.368   2.451
 3828SOL     OW15630   2.312   0.376   3.173
 3828SOL    HW215631   2.345   0.457   3.213
 3828SOL    HW315632   2.285   0.402   3.085
 3828SOL    MW415633   2.311   0.390   3.167
 3829SOL     OW15634   2.266   0.343   2.909
 3829SOL    HW215635   2.296   0.257   2.880
 3829SOL    HW315636   2.171   0.336   2.912
 3829SOL    MW415637   2.258   0.332   2.907
 3830SOL     OW15638   3.095   0.552   3.600
 3830SOL    HW215639   3.147   0.487   3.553
 3830SOL    HW315640   3.053   0.603   3.530
 3830SOL    MW415641   3.096   0.549   3.583
 3831SOL     OW15642   3.194   0.347   3.461
 3831SOL    HW215643   3.101   0.331   3.448
 3831SOL    HW315644   3.220   0.285   3.529
 3831SOL    MW415645   3.184   0.337   3.468
 3832SOL     OW15646   2.409   0.121   2.800
 3832SOL    HW215647   2.419   0.030   2.826
 3832SOL    HW315648   2.365   0.117   2.715
 3832SOL    MW415649   2.405   0.109   2.792
 3833SOL     OW15650   2.503   1.736   3.346
 3833SOL    HW215651   2.420   1.721   3.391
 3833SOL    HW315652   2.562   1.669   3.381
 3833SOL    MW415653   2.501   1.726   3.356
 3834SOL     OW15654   3.560   0.443   2.971
 3834SOL    HW215655   3.493   0.476   3.031
 3834SOL    HW315656   3.603   0.521   2.937
 3834SOL    MW415657   3.558   0.458   2.975
 3835SOL     OW15658   3.738   1.163   2.941
 3835SOL    HW215659   3.731   1.103   2.866
 3835SOL    HW315660   3.664   1.223   2.930
 3835SOL    MW415661   3.728   1.163   2.930
 3836SOL     OW15662   3.120   1.025   2.859
 3836SOL    HW215663   3.134   0.997   2.950
 3836SOL    HW315664   3.206   1.056   2.831
 3836SOL    MW415665   3.133   1.026   2.868
 3837SOL     OW15666   3.203   0.520   3.138
 3837SOL    HW215667   3.224   0.521   3.045
 3837SOL    HW315668   3.248   0.442   3.171
 3837SOL    MW415669   3.210   0.510   3.130
 3838SOL     OW15670   3.696   0.651   3.680
 3838SOL    HW215671   3.733   0.596   3.749
 3838SOL    HW315672   3.721   0.608   3.598
 3838SOL    MW415673   3.703   0.639   3.679
 3839SOL     OW15674   3.243   0.949   3.731
 3839SOL    HW215675   3.309   0.897   3.685
 3839SOL    HW315676   3.263   0.936   3.824
 3839SOL    MW415677   3.254   0.940   3.738
 3840SOL     OW15678   3.194   0.035   2.080
 3840SOL    HW215679   3.268   0.079   2.123
 3840SOL    HW315680   3.118   0.089   2.102
 3840SOL    MW415681   3.194   0.047   2.088
 3841SOL     OW15682   3.254   0.810   2.358
 3841SOL    HW215683   3.169   0.780   2.328
 3841SOL    HW315684   3.246   0.817   2.453
 3841SOL    MW415685   3.242   0.808   2.367
 3842SOL     OW15686   2.330   1.273   3.089
 3842SOL    HW215687   2.342   1.300   3.180
 3842SOL    HW315688   2.311   1.354   3.042
 3842SOL    MW415689   2.329   1.288   3.094
 3843SOL     OW15690   2.614   0.253   2.912
 3843SOL    HW215691   2.587   0.255   3.003
 3843SOL    HW315692   2.544   0.205   2.867
 3843SOL    MW415693   2.602   0.249   2.919
 3844SOL     OW15694   2.468   1.745   3.074
 3844SOL    HW215695   2.520   1.822   3.051
 3844SOL    HW315696   2.477   1.737   3.169
 3844SOL    MW415697   2.477   1.752   3.085
 3845SOL     OW15698   3.370   1.330   3.306
 3845SOL    HW215699   3.355   1.259   3.369
 3845SOL    HW315700   3.416   1.288   3.234
 3845SOL    MW415701   3.376   1.314   3.306
 3846SOL     OW15702   2.444   1.061   3.423
 3846SOL    HW215703   2.481   1.066   3.335
 3846SOL    HW315704   2.483   1.134   3.470
 3846SOL    MW415705   2.454   1.071   3.418
 3847SOL     OW15706   2.624   1.104   3.235
 3847SOL    HW215707   2.683   1.050   3.288
 3847SOL    HW315708   2.639   1.076   3.145
 3847SOL    MW415709   2.634   1.093   3.231
 3848SOL     OW15710   2.627   0.476   2.084
 3848SOL    HW215711   2.700   0.525   2.047
 3848SOL    HW315712   2.643   0.385   2.058
 3848SOL    MW415713   2.639   0.471   2.077
 3849SOL     OW15714   3.435   1.593   3.407
 3849SOL    HW215715   3.477   1.578   3.492
 3849SOL    HW315716   3.426   1.506   3.369
 3849SOL    MW415717   3.439   1.581   3.414
 3850SOL     OW15718   3.095   0.072   2.998
 3850SOL    HW215719   3.150   0.081   2.920
 3850SOL    HW315720   3.150   0.106   3.069
 3850SOL    MW415721   3.109   0.077   2.997
 3851SOL     OW15722   2.102   0.985   2.182
 3851SOL    HW215723   2.039   1.001   2.111
 3851SOL    HW315724   2.049   0.948   2.253
 3851SOL    MW415725   2.087   0.982   2.182
 3852SOL     OW15726   2.458   1.339   2.041
 3852SOL    HW215727   2.473   1.315   2.133
 3852SOL    HW315728   2.366   1.317   2.025
 3852SOL    MW415729   2.448   1.332   2.051
 3853SOL     OW15730   2.997   1.570   2.193
 3853SOL    HW215731   3.005   1.488   2.144
 3853SOL    HW315732   2.916   1.609   2.160
 3853SOL    MW415733   2.987   1.565   2.183
 3854SOL     OW15734   2.256   1.728   2.762
 3854SOL    HW215735   2.260   1.639   2.797
 3854SOL    HW315736   2.282   1.719   2.671
 3854SOL    MW415737   2.259   1.716   2.754
 3855SOL     OW15738   2.873   1.206   3.005
 3855SOL    HW215739   2.805   1.140   3.021
 3855SOL    HW315740   2.891   1.200   2.912
 3855SOL    MW415741   2.866   1.197   2.996
 3856SOL     OW15742   1.962   1.481   3.256
 3856SOL    HW215743   1.952   1.439   3.342
 3856SOL    HW315744   1.883   1.534   3.246
 3856SOL    MW415745   1.951   1.482   3.267
 3857SOL     OW15746   2.866   0.345   2.826
 3857SOL    HW215747   2.796   0.297   2.871
 3857SOL    HW315748   2.898   0.408   2.890
 3857SOL    MW415749   2.861   0.347   2.840
 3858SOL     OW15750   2.517   0.781   3.446
 3858SOL    HW215751   2.510   0.876   3.434
 3858SOL    HW315752   2.526   0.770   3.541
 3858SOL    MW415753   2.518   0.793   3.456
 3859SOL     OW15754   2.238   1.296   3.704
 3859SOL    HW215755   2.310   1.298   3.641
 3859SOL    HW315756   2.208   1.205   3.703
 3859SOL    MW415757   2.243   1.285   3.696
 3860SOL     OW15758   3.322   0.059   3.171
 3860SOL    HW215759   3.393   0.005   3.135
 3860SOL    HW315760   3.321   0.038   3.264
 3860SOL    MW415761   3.331   0.050   3.179
 3861SOL     OW15762   3.522   1.589   3.655
 3861SOL    HW215763   3.495   1.586   3.746
 3861SOL    HW315764   3.618   1.593   3.658
 3861SOL    MW415765   3.532   1.589   3.667
 3862SOL     OW15766   2.333   0.451   2.639
 3862SOL    HW215767   2.404   0.399   2.602
 3862SOL    HW315768   2.319   0.416   2.726
 3862SOL    MW415769   2.341   0.440   2.646
 3863SOL     OW15770   1.888   1.786   3.711
 3863SOL    HW215771   1.938   1.764   3.633
 3863SOL    HW315772   1.896   1.881   3.719
 3863SOL    MW415773   1.896   1.795   3.702
 3864SOL     OW15774   2.649   1.544   2.715
 3864SOL    HW215775   2.577   1.481   2.728
 3864SOL    HW315776   2.610   1.629   2.733
 3864SOL    MW415777   2.633   1.547   2.718
 3865SOL     OW15778   2.969   0.392   2.363
 3865SOL    HW215779   2.991   0.329   2.295
 3865SOL    HW315780   2.874   0.384   2.374
 3865SOL    MW415781   2.959   0.383   2.355
 3866SOL     OW15782   2.054   0.082   2.295
 3866SOL    HW215783   2.125   0.103   2.234
 3866SOL    HW315784   2.008   0.010   2.253
 3866SOL    MW415785   2.058   0.076   2.281
 3867SOL     OW15786   1.885   0.549   3.438
 3867SOL    HW215787   1.949   0.615   3.413
 3867SOL    HW315788   1.804   0.576   3.395
 3867SOL    MW415789   1.883   0.561   3.430
 3868SOL     OW15790   3.623   1.456   2.395
 3868SOL    HW215791   3.593   1.389   2.456
 3868SOL    HW315792   3.717   1.462   2.409
 3868SOL    MW415793   3.631   1.448   2.405
 3869SOL     OW15794   3.179   1.133   2.325
 3869SOL    HW215795   3.151   1.219   2.358
 3869SOL    HW315796   3.207   1.149   2.235
 3869SOL    MW415797   3.179   1.147   2.317
 3870SOL     OW15798   2.841   0.053   2.378
 3870SOL    HW215799   2.878   0.112   2.443
 3870SOL    HW315800   2.818   0.109   2.304
 3870SOL    MW415801   2.842   0.068   2.377
 3871SOL     OW15802   3.694   0.935   2.800
 3871SOL    HW215803   3.685   0.967   2.711
 3871SOL    HW315804   3.647   0.851   2.800
 3871SOL    MW415805   3.687   0.928   2.790
 3872SOL     OW15806   2.070   0.775   3.379
 3872SOL    HW215807   2.091   0.844   3.317
 3872SOL    HW315808   2.150   0.722   3.384
 3872SOL    MW415809   2.083   0.776   3.373
 3873SOL     OW15810   3.606   0.866   2.501
 3873SOL    HW215811   3.700   0.855   2.489
 3873SOL    HW315812   3.582   0.938   2.442
 3873SOL    MW415813   3.616   0.874   2.492
 3874SOL     OW15814   2.055   0.790   3.646
 3874SOL    HW215815   1.981   0.734   3.672
 3874SOL    HW315816   2.050   0.793   3.551
 3874SOL    MW415817   2.044   0.783   3.636
 3875SOL     OW15818   2.221   0.077   3.096
 3875SOL    HW215819   2.264   0.161   3.116
 3875SOL    HW315820   2.294   0.015   3.089
 3875SOL    MW415821   2.236   0.080   3.097
 3876SOL     OW15822   2.262   0.744   2.274
 3876SOL    HW215823   2.262   0.839   2.259
 3876SOL    HW315824   2.339   0.728   2.328
 3876SOL    MW415825   2.272   0.755   2.279
 3877SOL     OW15826   3.038   0.603   3.338
 3877SOL    HW215827   3.074   0.576   3.254
 3877SOL    HW315828   2.951   0.637   3.317
 3877SOL    MW415829   3.032   0.604   3.325
 3878SOL     OW15830   2.021   0.475   2.563
 3878SOL    HW215831   2.083   0.482   2.636
 3878SOL    HW315832   2.021   0.382   2.540
 3878SOL    MW415833   2.029   0.464   2.570
 3879SOL     OW15834   3.568   1.815   2.095
 3879SOL    HW215835   3.635   1.848   2.035
 3879SOL    HW315836   3.525   1.894   2.129
 3879SOL    MW415837   3.570   1.830   2.091
 3880SOL     OW15838   2.703   0.736   3.047
 3880SOL    HW215839   2.661   0.654   3.023
 3880SOL    HW315840   2.704   0.735   3.143
 3880SOL    MW415841   2.696   0.725   3.056
 3881SOL     OW15842   3.374   1.869   3.446
 3881SOL    HW215843   3.377   1.775   3.429
 3881SOL    HW315844   3.397   1.877   3.538
 3881SOL    MW415845   3.377   1.857   3.456
 3882SOL     OW15846   2.507   0.206   3.152
 3882SOL    HW215847   2.438   0.269   3.173
 3882SOL    HW315848   2.534   0.170   3.237
 3882SOL    MW415849   2.501   0.209   3.165
 3883SOL     OW15850   1.890   1.047   2.021
 3883SOL    HW215851   1.859   1.112   2.084
 3883SOL    HW315852   1.839   0.969   2.040
 3883SOL    MW415853   1.880   1.044   2.031
 3884SOL     OW15854   3.302   0.059   2.769
 3884SOL    HW215855   3.390   0.068   2.806
 3884SOL    HW315856   3.312   0.000   2.695
 3884SOL    MW415857   3.316   0.053   2.763
 3885SOL     OW15858   3.334   0.798   2.613
 3885SOL    HW215859   3.414   0.813   2.562
 3885SOL    HW315860   3.327   0.703   2.619
 3885SOL    MW415861   3.343   0.787   2.608
 3886SOL     OW15862   2.474   1.847   1.963
 3886SOL    HW215863   2.379   1.847   1.955
 3886SOL    HW315864   2.490   1.793   2.041
 3886SOL    MW415865   2.464   1.841   1.972
 3887SOL     OW15866   2.784   0.724   3.310
 3887SOL    HW215867   2.853   0.791   3.307
 3887SOL    HW315868   2.717   0.762   3.366
 3887SOL    MW415869   2.785   0.737   3.317
 3888SOL     OW15870   2.202   1.024   3.558
 3888SOL    HW215871   2.156   0.940   3.560
 3888SOL    HW315872   2.259   1.018   3.482
 3888SOL    MW415873   2.204   1.012   3.550
 3889SOL     OW15874   3.319   0.667   1.879
 3889SOL    HW215875   3.247   0.643   1.821
 3889SOL    HW315876   3.385   0.704   1.821
 3889SOL    MW415877   3.318   0.669   1.864
 3890SOL     OW15878   2.453   1.399   2.559
 3890SOL    HW215879   2.518   1.332   2.580
 3890SOL    HW315880   2.505   1.476   2.536
 3890SOL    MW415881   2.468   1.401   2.558
 3891SOL     OW15882   2.714   0.564   2.689
 3891SOL    HW215883   2.654   0.582   2.761
 3891SOL    HW315884   2.748   0.476   2.708
 3891SOL    MW415885   2.710   0.554   2.702
 3892SOL     OW15886   3.655   0.063   3.358
 3892SOL    HW215887   3.576   0.109   3.386
 3892SOL    HW315888   3.690   0.117   3.287
 3892SOL    MW415889   3.649   0.076   3.352
 3893SOL     OW15890   2.939   1.147   2.708
 3893SOL    HW215891   3.031   1.128   2.726
 3893SOL    HW315892   2.912   1.077   2.648
 3893SOL    MW415893   2.947   1.135   2.702
 3894SOL     OW15894   2.732   0.967   2.063
 3894SOL    HW215895   2.718   0.879   2.028
 3894SOL    HW315896   2.683   1.024   2.004
 3894SOL    MW415897   2.724   0.962   2.051
 3895SOL     OW15898   3.213   1.385   2.804
 3895SOL    HW215899   3.186   1.469   2.769
 3895SOL    HW315900   3.173   1.380   2.891
 3895SOL    MW415901   3.206   1.394   2.810
 3896SOL     OW15902   3.132   1.333   3.072
 3896SOL    HW215903   3.143   1.300   3.161
 3896SOL    HW315904   3.051   1.292   3.041
 3896SOL    MW415905   3.122   1.325   3.078
 3897SOL     OW15906   2.145   0.691   2.842
 3897SOL    HW215907   2.095   0.690   2.923
 3897SOL    HW315908   2.165   0.783   2.826
 3897SOL    MW415909   2.141   0.703   2.850
 3898SOL     OW15910   3.212   1.455   3.604
 3898SOL    HW215911   3.212   1.549   3.620
 3898SOL    HW315912   3.257   1.445   3.520
 3898SOL    MW415913   3.218   1.465   3.595
 3899SOL     OW15914   3.451   0.173   2.165
 3899SOL    HW215915   3.444   0.177   2.260
 3899SOL    HW315916   3.463   0.264   2.138
 3899SOL    MW415917   3.452   0.186   2.173
 3900SOL     OW15918   2.740   0.736   2.279
 3900SOL    HW215919   2.720   0.722   2.186
 3900SOL    HW315920   2.833   0.715   2.286
 3900SOL    MW415921   2.750   0.731   2.268
 3901SOL     OW15922   2.067   0.359   3.583
 3901SOL    HW215923   2.024   0.418   3.520
 3901SOL    HW315924   2.135   0.414   3.623
 3901SOL    MW415925   2.071   0.374   3.580
 3902SOL     OW15926   3.179   0.979   3.128
 3902SOL    HW215927   3.242   0.976   3.201
 3902SOL    HW315928   3.095   0.997   3.170
 3902SOL    MW415929   3.175   0.981   3.143
 3903SOL     OW15930   2.723   1.694   2.317
 3903SOL    HW215931   2.781   1.765   2.344
 3903SOL    HW315932   2.746   1.622   2.375
 3903SOL    MW415933   2.734   1.694   2.328
 3904SOL     OW15934   3.518   0.156   2.907
 3904SOL    HW215935   3.563   0.074   2.926
 3904SOL    HW315936   3.538   0.212   2.983
 3904SOL    MW415937   3.528   0.152   2.919
 3905SOL     OW15938   1.966  -0.001   3.006
 3905SOL    HW215939   1.957   0.000   2.911
 3905SOL    HW315940   2.060   0.011   3.021
 3905SOL    MW415941   1.978   0.002   2.997
 3906SOL     OW15942   3.603   1.192   2.626
 3906SOL    HW215943   3.582   1.138   2.549
 3906SOL    HW315944   3.699   1.190   2.630
 3906SOL    MW415945   3.612   1.185   2.615
 3907SOL     OW15946   2.295   1.337   3.369
 3907SOL    HW215947   2.216   1.287   3.392
 3907SOL    HW315948   2.365   1.296   3.419
 3907SOL    MW415949   2.293   1.325   3.379
 3908SOL     OW15950   2.179   0.126   2.052
 3908SOL    HW215951   2.108   0.181   2.020
 3908SOL    HW315952   2.221   0.092   1.973
 3908SOL    MW415953   2.175   0.128   2.038
 3909SOL     OW15954   3.303   0.623   2.888
 3909SOL    HW215955   3.226   0.669   2.854
 3909SOL    HW315956   3.360   0.692   2.922
 3909SOL    MW415957   3.300   0.638   2.888
 3910SOL     OW15958   1.935   0.225   1.901
 3910SOL    HW215959   1.902   0.304   1.945
 3910SOL    HW315960   1.990   0.258   1.830
 3910SOL    MW415961   1.938   0.239   1.898
 3911SOL     OW15962   1.969   1.482   2.090
 3911SOL    HW215963   1.986   1.566   2.132
 3911SOL    HW315964   2.004   1.491   2.002
 3911SOL    MW415965   1.974   1.495   2.084
 3912SOL     OW15966   3.241   1.571   2.307
 3912SOL    HW215967   3.304   1.561   2.236
 3912SOL    HW315968   3.158   1.591   2.262
 3912SOL    MW415969   3.238   1.572   2.292
 3913SOL     OW15970   3.604   0.839   3.993
 3913SOL    HW215971   3.645   0.781   4.058
 3913SOL    HW315972   3.511   0.831   4.010
 3913SOL    MW415973   3.598   0.831   4.003
 3914SOL     OW15974   3.470   0.771   4.988
 3914SOL    HW215975   3.425   0.838   5.039
 3914SOL    HW315976   3.558   0.807   4.974
 3914SOL    MW415977   3.476   0.784   4.992
 3915SOL     OW15978   2.398   1.022   4.222
 3915SOL    HW215979   2.488   0.997   4.206
 3915SOL    HW315980   2.394   1.115   4.199
 3915SOL    MW415981   2.410   1.031   4.217
 3916SOL     OW15982   3.514   1.725   4.364
 3916SOL    HW215983   3.526   1.671   4.442
 3916SOL    HW315984   3.551   1.673   4.293
 3916SOL    MW415985   3.520   1.710   4.365
 3917SOL     OW15986   2.893   1.610   5.365
 3917SOL    HW215987   2.934   1.646   5.286
 3917SOL    HW315988   2.928   1.521   5.372
 3917SOL    MW415989   2.904   1.603   5.356
 3918SOL     OW15990   3.450   1.165   4.969
 3918SOL    HW215991   3.371   1.130   4.927
 3918SOL    HW315992   3.477   1.237   4.913
 3918SOL    MW415993   3.443   1.170   4.956
 3919SOL     OW15994   2.682   0.478   4.235
 3919SOL    HW215995   2.657   0.566   4.263
 3919SOL    HW315996   2.679   0.481   4.139
 3919SOL    MW415997   2.678   0.490   4.227
 3920SOL     OW15998   2.124   0.506   4.163
 3920SOL    HW215999   2.156   0.594   4.145
 3920SOL    HW316000   2.112   0.504   4.258
 3920SOL    MW416001   2.127   0.518   4.175
 3921SOL     OW16002   2.202   0.919   5.064
 3921SOL    HW216003   2.265   0.866   5.015
 3921SOL    HW316004   2.183   0.993   5.007
 3921SOL    MW416005   2.208   0.921   5.051
 3922SOL     OW16006   2.523   0.261   4.250
 3922SOL    HW216007   2.581   0.337   4.252
 3922SOL    HW316008   2.458   0.282   4.183
 3922SOL    MW416009   2.522   0.273   4.241
 3923SOL     OW16010   2.610   1.188   4.425
 3923SOL    HW216011   2.690   1.191   4.477
 3923SOL    HW316012   2.638   1.155   4.339
 3923SOL    MW416013   2.624   1.184   4.420
 3924SOL     OW16014   2.635   1.529   5.328
 3924SOL    HW216015   2.719   1.555   5.367
 3924SOL    HW316016   2.659   1.473   5.254
 3924SOL    MW416017   2.649   1.525   5.323
 3925SOL     OW16018   2.387   0.692   4.416
 3925SOL    HW216019   2.372   0.612   4.467
 3925SOL    HW316020   2.469   0.727   4.450
 3925SOL    MW416021   2.395   0.684   4.428
 3926SOL     OW16022   2.724   1.378   5.101
 3926SOL    HW216023   2.688   1.444   5.041
 3926SOL    HW316024   2.652   1.316   5.114
 3926SOL    MW416025   2.710   1.378   5.095
 3927SOL     OW16026   2.529   0.518   4.793
 3927SOL    HW216027   2.435   0.514   4.811
 3927SOL    HW316028   2.559   0.427   4.802
 3927SOL    MW416029   2.520   0.506   4.796
 3928SOL     OW16030   2.275   0.932   4.697
 3928SOL    HW216031   2.230   0.939   4.613
 3928SOL    HW316032   2.255   1.015   4.741
 3928SOL    MW416033   2.267   0.944   4.691
 3929SOL     OW16034   1.972   1.778   4.572
 3929SOL    HW216035   2.061   1.770   4.607
 3929SOL    HW316036   1.936   1.690   4.577
 3929SOL    MW416037   1.979   1.765   4.577
 3930SOL     OW16038   3.237   1.170   3.941
 3930SOL    HW216039   3.155   1.206   3.907
 3930SOL    HW316040   3.305   1.213   3.890
 3930SOL    MW416041   3.235   1.180   3.929
 3931SOL     OW16042   2.236   1.305   4.607
 3931SOL    HW216043   2.212   1.358   4.683
 3931SOL    HW316044   2.292   1.363   4.555
 3931SOL    MW416045   2.240   1.320   4.610
 3932SOL     OW16046   2.798   0.949   4.417
 3932SOL    HW216047   2.712   0.936   4.457
 3932SOL    HW316048   2.851   0.876   4.449
 3932SOL    MW416049   2.794   0.938   4.426
 3933SOL     OW16050   2.206   1.601   5.202
 3933SOL    HW216051   2.114   1.577   5.187
 3933SOL    HW316052   2.250   1.518   5.219
 3933SOL    MW416053   2.200   1.586   5.201
 3934SOL     OW16054   2.789   1.311   4.134
 3934SOL    HW216055   2.766   1.373   4.202
 3934SOL    HW316056   2.746   1.229   4.160
 3934SOL    MW416057   2.781   1.307   4.145
 3935SOL     OW16058   3.662   0.312   4.590
 3935SOL    HW216059   3.599   0.292   4.659
 3935SOL    HW316060   3.652   0.241   4.527
 3935SOL    MW416061   3.652   0.299   4.591
 3936SOL     OW16062   2.286   0.284   4.102
 3936SOL    HW216063   2.260   0.246   4.018
 3936SOL    HW316064   2.223   0.354   4.118
 3936SOL    MW416065   2.275   0.287   4.093
 3937SOL     OW16066   2.121   1.245   4.139
 3937SOL    HW216067   2.069   1.313   4.095
 3937SOL    HW316068   2.118   1.171   4.079
 3937SOL    MW416069   2.113   1.244   4.126
 3938SOL     OW16070   2.783   1.708   3.917
 3938SOL    HW216071   2.738   1.724   4.000
 3938SOL    HW316072   2.714   1.673   3.859
 3938SOL    MW416073   2.769   1.705   3.919
 3939SOL     OW16074   3.718   0.481   3.892
 3939SOL    HW216075   3.627   0.483   3.920
 3939SOL    HW316076   3.763   0.543   3.950
 3939SOL    MW416077   3.711   0.489   3.902
 3940SOL     OW16078   3.463   1.084   4.242
 3940SOL    HW216079   3.373   1.084   4.277
 3940SOL    HW316080   3.456   1.130   4.159
 3940SOL    MW416081   3.450   1.090   4.236
 3941SOL     OW16082   3.263   0.719   5.314
 3941SOL    HW216083   3.332   0.657   5.291
 3941SOL    HW316084   3.188   0.693   5.261
 3941SOL    MW416085   3.263   0.706   5.305
 3942SOL     OW16086   2.004   1.599   4.866
 3942SOL    HW216087   1.987   1.545   4.943
 3942SOL    HW316088   1.992   1.689   4.896
 3942SOL    MW416089   2.001   1.603   4.880
 3943SOL     OW16090   2.999   1.106   5.306
 3943SOL    HW216091   2.984   1.199   5.291
 3943SOL    HW316092   3.094   1.096   5.306
 3943SOL    MW416093   3.008   1.116   5.303
 3944SOL     OW16094   2.795   0.530   5.507
 3944SOL    HW216095   2.885   0.531   5.474
 3944SOL    HW316096   2.754   0.455   5.465
 3944SOL    MW416097   2.801   0.520   5.498
 3945SOL     OW16098   3.370   1.062   4.634
 3945SOL    HW216099   3.373   0.996   4.565
 3945SOL    HW316100   3.455   1.105   4.630
 3945SOL    MW416101   3.382   1.058   4.625
 3946SOL     OW16102   2.990   0.665   4.203
 3946SOL    HW216103   3.016   0.689   4.114
 3946SOL    HW316104   2.972   0.572   4.199
 3946SOL    MW416105   2.992   0.657   4.190
 3947SOL     OW16106   3.655   1.285   4.054
 3947SOL    HW216107   3.611   1.326   4.129
 3947SOL    HW316108   3.712   1.353   4.019
 3947SOL    MW416109   3.657   1.299   4.059
 3948SOL     OW16110   2.575   0.334   5.457
 3948SOL    HW216111   2.585   0.260   5.397
 3948SOL    HW316112   2.611   0.303   5.540
 3948SOL    MW416113   2.581   0.320   5.459
 3949SOL     OW16114   2.311   1.701   4.372
 3949SOL    HW216115   2.343   1.789   4.350
 3949SOL    HW316116   2.264   1.673   4.294
 3949SOL    MW416117   2.310   1.709   4.359
 3950SOL     OW16118   3.695   0.063   4.421
 3950SOL    HW216119   3.749   0.014   4.483
 3950SOL    HW316120   3.638  -0.003   4.382
 3950SOL    MW416121   3.695   0.047   4.423
 3951SOL     OW16122   2.027   1.761   3.949
 3951SOL    HW216123   2.056   1.851   3.941
 3951SOL    HW316124   1.977   1.744   3.870
 3951SOL    MW416125   2.025   1.769   3.938
 3952SOL     OW16126   2.814   0.016   4.834
 3952SOL    HW216127   2.773   0.094   4.796
 3952SOL    HW316128   2.908   0.034   4.829
 3952SOL    MW416129   2.820   0.028   4.829
 3953SOL     OW16130   3.431   1.569   3.920
 3953SOL    HW216131   3.479   1.638   3.966
 3953SOL    HW316132   3.352   1.613   3.889
 3953SOL    MW416133   3.426   1.583   3.923
 3954SOL     OW16134   2.829   0.694   3.864
 3954SOL    HW216135   2.831   0.641   3.785
 3954SOL    HW316136   2.917   0.731   3.870
 3954SOL    MW416137   2.841   0.693   3.853
 3955SOL     OW16138   3.443   0.620   4.200
 3955SOL    HW216139   3.482   0.620   4.287
 3955SOL    HW316140   3.384   0.696   4.200
 3955SOL    MW416141   3.440   0.631   4.211
 3956SOL     OW16142   2.760   0.987   5.329
 3956SOL    HW216143   2.737   0.967   5.419
 3956SOL    HW316144   2.845   1.031   5.334
 3956SOL    MW416145   2.767   0.990   5.341
 3957SOL     OW16146   2.840   0.124   5.089
 3957SOL    HW216147   2.846   0.086   5.002
 3957SOL    HW316148   2.829   0.218   5.074
 3957SOL    MW416149   2.841   0.132   5.077
 3958SOL     OW16150   2.929   0.613   4.923
 3958SOL    HW216151   3.004   0.642   4.870
 3958SOL    HW316152   2.861   0.678   4.907
 3958SOL    MW416153   2.930   0.625   4.913
 3959SOL     OW16154   3.479   0.581   5.200
 3959SOL    HW216155   3.460   0.490   5.179
 3959SOL    HW316156   3.457   0.630   5.121
 3959SOL    MW416157   3.474   0.574   5.187
 3960SOL     OW16158   3.621   1.675   5.104
 3960SOL    HW216159   3.549   1.637   5.155
 3960SOL    HW316160   3.638   1.760   5.145
 3960SOL    MW416161   3.615   1.680   5.116
 3961SOL     OW16162   2.926   0.319   5.306
 3961SOL    HW216163   2.892   0.358   5.225
 3961SOL    HW316164   2.904   0.227   5.299
 3961SOL    MW416165   2.919   0.312   5.296
 3962SOL     OW16166   3.335   1.133   5.382
 3962SOL    HW216167   3.417   1.174   5.412
 3962SOL    HW316168   3.298   1.095   5.462
 3962SOL    MW416169   3.341   1.134   5.397
 3963SOL     OW16170   3.630   0.506   4.366
 3963SOL    HW216171   3.719   0.475   4.383
 3963SOL    HW316172   3.573   0.446   4.414
 3963SOL    MW416173   3.633   0.494   4.375
 3964SOL     OW16174   2.056   0.220   4.395
 3964SOL    HW216175   2.047   0.160   4.321
 3964SOL    HW316176   1.989   0.191   4.458
 3964SOL    MW416177   2.046   0.207   4.393
 3965SOL     OW16178   2.999   1.313   3.956
 3965SOL    HW216179   2.949   1.315   4.038
 3965SOL    HW316180   2.933   1.331   3.888
 3965SOL    MW416181   2.985   1.315   3.958
 3966SOL     OW16182   2.003   0.393   4.758
 3966SOL    HW216183   1.975   0.484   4.767
 3966SOL    HW316184   1.940   0.354   4.697
 3966SOL    MW416185   1.990   0.399   4.752
 3967SOL     OW16186   2.462   1.731   4.064
 3967SOL    HW216187   2.383   1.689   4.097
 3967SOL    HW316188   2.528   1.714   4.131
 3967SOL    MW416189   2.461   1.723   4.077
 3968SOL     OW16190   3.590   1.251   5.461
 3968SOL    HW216191   3.640   1.177   5.493
 3968SOL    HW316192   3.536   1.278   5.536
 3968SOL    MW416193   3.590   1.245   5.474
 3969SOL     OW16194   2.598   1.146   3.771
 3969SOL    HW216195   2.520   1.092   3.758
 3969SOL    HW316196   2.569   1.219   3.824
 3969SOL    MW416197   2.584   1.148   3.776
 3970SOL     OW16198   3.724   0.886   4.963
 3970SOL    HW216199   3.740   0.924   4.876
 3970SOL    HW316200   3.758   0.952   5.024
 3970SOL    MW416201   3.731   0.899   4.959
 3971SOL     OW16202   3.516   1.595   4.632
 3971SOL    HW216203   3.545   1.662   4.693
 3971SOL    HW316204   3.497   1.519   4.687
 3971SOL    MW416205   3.518   1.595   4.647
 3972SOL     OW16206   3.179   1.662   3.839
 3972SOL    HW216207   3.105   1.625   3.889
 3972SOL    HW316208   3.187   1.752   3.872
 3972SOL    MW416209   3.170   1.669   3.851
 3973SOL     OW16210   1.987   0.668   4.928
 3973SOL    HW216211   2.049   0.698   4.994
 3973SOL    HW316212   1.921   0.737   4.922
 3973SOL    MW416213   1.986   0.681   4.935
 3974SOL     OW16214   3.403   1.336   3.781
 3974SOL    HW216215   3.350   1.385   3.717
 3974SOL    HW316216   3.434   1.402   3.842
 3974SOL    MW416217   3.401   1.350   3.779
 3975SOL     OW16218   2.628   0.225   3.836
 3975SOL    HW216219   2.576   0.145   3.824
 3975SOL    HW316220   2.715   0.202   3.804
 3975SOL    MW416221   2.631   0.211   3.830
 3976SOL     OW16222   2.082   1.777   5.380
 3976SOL    HW216223   2.056   1.845   5.318
 3976SOL    HW316224   2.130   1.714   5.328
 3976SOL    MW416225   2.084   1.777   5.366
 3977SOL     OW16226   2.134   1.096   4.887
 3977SOL    HW216227   2.187   1.171   4.912
 3977SOL    HW316228   2.053   1.134   4.853
 3977SOL    MW416229   2.130   1.111   4.887
 3978SOL     OW16230   2.674   1.000   4.875
 3978SOL    HW216231   2.702   0.909   4.887
 3978SOL    HW316232   2.603   0.994   4.811
 3978SOL    MW416233   2.667   0.988   4.870
 3979SOL     OW16234   1.989   0.865   4.293
 3979SOL    HW216235   2.080   0.880   4.320
 3979SOL    HW316236   1.992   0.786   4.239
 3979SOL    MW416237   2.001   0.857   4.291
 3980SOL     OW16238   2.225   0.573   5.547
 3980SOL    HW216239   2.172   0.653   5.554
 3980SOL    HW316240   2.295   0.585   5.612
 3980SOL    MW416241   2.227   0.586   5.555
 3981SOL     OW16242   2.611   0.123   5.254
 3981SOL    HW216243   2.588   0.031   5.256
 3981SOL    HW316244   2.697   0.125   5.211
 3981SOL    MW416245   2.618   0.113   5.250
 3982SOL     OW16246   2.295   0.647   5.293
 3982SOL    HW216247   2.375   0.697   5.279
 3982SOL    HW316248   2.286   0.641   5.388
 3982SOL    MW416249   2.304   0.653   5.303
 3983SOL     OW16250   2.616   1.797   4.667
 3983SOL    HW216251   2.705   1.812   4.697
 3983SOL    HW316252   2.611   1.844   4.583
 3983SOL    MW416253   2.626   1.805   4.660
 3984SOL     OW16254   3.272   0.172   5.564
 3984SOL    HW216255   3.328   0.099   5.590
 3984SOL    HW316256   3.242   0.210   5.646
 3984SOL    MW416257   3.276   0.167   5.577
 3985SOL     OW16258   1.997   1.477   4.332
 3985SOL    HW216259   1.969   1.516   4.414
 3985SOL    HW316260   2.017   1.386   4.354
 3985SOL    MW416261   1.995   1.469   4.345
 3986SOL     OW16262   2.830   1.520   4.367
 3986SOL    HW216263   2.913   1.474   4.351
 3986SOL    HW316264   2.820   1.519   4.463
 3986SOL    MW416265   2.840   1.513   4.377
 3987SOL     OW16266   3.662   0.665   4.681
 3987SOL    HW216267   3.751   0.695   4.663
 3987SOL    HW316268   3.642   0.605   4.610
 3987SOL    MW416269   3.671   0.662   4.670
 3988SOL     OW16270   3.513   0.844   5.561
 3988SOL    HW216271   3.568   0.768   5.542
 3988SOL    HW316272   3.515   0.852   5.656
 3988SOL    MW416273   3.521   0.835   5.569
 3989SOL     OW16274   2.563   1.577   3.772
 3989SOL    HW216275   2.503   1.646   3.742
 3989SOL    HW316276   2.508   1.519   3.825
 3989SOL    MW416277   2.547   1.579   3.774
 3990SOL     OW16278   3.001   0.222   3.995
 3990SOL    HW216279   2.934   0.198   3.932
 3990SOL    HW316280   3.066   0.271   3.944
 3990SOL    MW416281   3.001   0.224   3.980
 3991SOL     OW16282   2.808   0.406   5.080
 3991SOL    HW216283   2.727   0.447   5.108
 3991SOL    HW316284   2.855   0.474   5.032
 3991SOL    MW416285   2.803   0.421   5.078
 3992SOL     OW16286   3.068   0.744   4.703
 3992SOL    HW216287   3.081   0.838   4.713
 3992SOL    HW316288   3.029   0.734   4.617
 3992SOL    MW416289   3.064   0.755   4.693
 3993SOL     OW16290   2.520   0.939   4.507
 3993SOL    HW216291   2.431   0.930   4.540
 3993SOL    HW316292   2.524   1.029   4.475
 3993SOL    MW416293   2.509   0.950   4.507
 3994SOL     OW16294   3.319   0.522   4.502
 3994SOL    HW216295   3.264   0.443   4.501
 3994SOL    HW316296   3.301   0.563   4.586
 3994SOL    MW416297   3.309   0.517   4.511
 3995SOL     OW16298   2.290   0.209   5.319
 3995SOL    HW216299   2.211   0.227   5.371
 3995SOL    HW316300   2.285   0.271   5.246
 3995SOL    MW416301   2.280   0.219   5.316
 3996SOL     OW16302   2.938   0.726   4.459
 3996SOL    HW216303   2.875   0.658   4.483
 3996SOL    HW316304   2.958   0.707   4.367
 3996SOL    MW416305   2.932   0.713   4.451
 3997SOL     OW16306   2.194   1.621   4.161
 3997SOL    HW216307   2.155   1.668   4.087
 3997SOL    HW316308   2.128   1.556   4.186
 3997SOL    MW416309   2.181   1.619   4.155
 3998SOL     OW16310   2.686   1.030   4.185
 3998SOL    HW216311   2.688   1.004   4.092
 3998SOL    HW316312   2.744   0.967   4.228
 3998SOL    MW416313   2.694   1.019   4.179
 3999SOL     OW16314   3.239   1.590   4.957
 3999SOL    HW216315   3.164   1.636   4.995
 3999SOL    HW316316   3.221   1.497   4.974
 3999SOL    MW416317   3.228   1.584   4.965
 4000SOL     OW16318   3.243   1.798   4.387
 4000SOL    HW216319   3.186   1.751   4.326
 4000SOL    HW316320   3.329   1.759   4.374
 4000SOL    MW416321   3.246   1.789   4.377
 4001SOL     OW16322   3.196   0.274   4.518
 4001SOL    HW216323   3.224   0.206   4.579
 4001SOL    HW316324   3.110   0.245   4.488
 4001SOL    MW416325   3.189   0.261   4.522
 4002SOL     OW16326   2.001   1.208   4.452
 4002SOL    HW216327   2.065   1.240   4.515
 4002SOL    HW316328   2.050   1.144   4.400
 4002SOL    MW416329   2.016   1.204   4.453
 4003SOL     OW16330   2.501   1.284   5.434
 4003SOL    HW216331   2.549   1.367   5.421
 4003SOL    HW316332   2.558   1.232   5.490
 4003SOL    MW416333   2.515   1.288   5.440
 4004SOL     OW16334   2.077   1.526   5.574
 4004SOL    HW216335   2.133   1.450   5.589
 4004SOL    HW316336   2.026   1.504   5.496
 4004SOL    MW416337   2.077   1.513   5.565
 4005SOL     OW16338   3.176   0.378   3.853
 4005SOL    HW216339   3.149   0.444   3.789
 4005SOL    HW316340   3.246   0.421   3.903
 4005SOL    MW416341   3.181   0.391   3.850
 4006SOL     OW16342   2.844   0.083   3.790
 4006SOL    HW216343   2.900   0.075   3.712
 4006SOL    HW316344   2.821  -0.007   3.812
 4006SOL    MW416345   2.849   0.070   3.783
 4007SOL     OW16346   3.349   0.934   3.995
 4007SOL    HW216347   3.316   1.023   3.985
 4007SOL    HW316348   3.314   0.905   4.080
 4007SOL    MW416349   3.339   0.943   4.006
 4008SOL     OW16350   2.962   1.363   5.183
 4008SOL    HW216351   2.873   1.369   5.151
 4008SOL    HW316352   3.006   1.442   5.151
 4008SOL    MW416353   2.957   1.373   5.175
 4009SOL     OW16354   2.255   0.031   5.525
 4009SOL    HW216355   2.183  -0.004   5.473
 4009SOL    HW316356   2.313   0.072   5.460
 4009SOL    MW416357   2.253   0.032   5.510
 4010SOL     OW16358   2.279   1.521   4.824
 4010SOL    HW216359   2.324   1.583   4.881
 4010SOL    HW316360   2.186   1.540   4.837
 4010SOL    MW416361   2.272   1.531   4.831
 4011SOL     OW16362   3.719   1.050   5.178
 4011SOL    HW216363   3.634   1.063   5.137
 4011SOL    HW316364   3.699   1.014   5.265
 4011SOL    MW416365   3.706   1.046   5.183
 4012SOL     OW16366   2.701   1.589   4.932
 4012SOL    HW216367   2.725   1.578   4.841
 4012SOL    HW316368   2.624   1.646   4.930
 4012SOL    MW416369   2.693   1.594   4.921
 4013SOL     OW16370   2.343   0.972   3.787
 4013SOL    HW216371   2.266   0.985   3.843
 4013SOL    HW316372   2.307   0.936   3.706
 4013SOL    MW416373   2.329   0.968   3.784
 4014SOL     OW16374   2.996   0.945   4.030
 4014SOL    HW216375   2.906   0.966   4.005
 4014SOL    HW316376   3.023   1.018   4.086
 4014SOL    MW416377   2.988   0.957   4.033
 4015SOL     OW16378   2.496   1.294   4.722
 4015SOL    HW216379   2.489   1.273   4.816
 4015SOL    HW316380   2.414   1.262   4.685
 4015SOL    MW416381   2.484   1.288   4.729
 4016SOL     OW16382   3.360   0.304   5.124
 4016SOL    HW216383   3.307   0.306   5.204
 4016SOL    HW316384   3.345   0.217   5.087
 4016SOL    MW416385   3.352   0.294   5.129
 4017SOL     OW16386   3.696   0.228   4.997
 4017SOL    HW216387   3.677   0.295   4.932
 4017SOL    HW316388   3.753   0.166   4.952
 4017SOL    MW416389   3.700   0.229   4.983
 4018SOL     OW16390   1.942   1.386   5.385
 4018SOL    HW216391   1.986   1.319   5.331
 4018SOL    HW316392   1.857   1.348   5.405
 4018SOL    MW416393   1.937   1.372   5.381
 4019SOL     OW16394   2.625   0.061   4.437
 4019SOL    HW216395   2.554   0.122   4.419
 4019SOL    HW316396   2.676   0.058   4.356
 4019SOL    MW416397   2.621   0.067   4.424
 4020SOL     OW16398   2.383   1.301   4.186
 4020SOL    HW216399   2.376   1.333   4.276
 4020SOL    HW316400   2.293   1.285   4.158
 4020SOL    MW416401   2.371   1.303   4.193
 4021SOL     OW16402   2.978   1.694   5.095
 4021SOL    HW216403   2.898   1.679   5.045
 4021SOL    HW316404   2.985   1.789   5.102
 4021SOL    MW416405   2.969   1.705   5.089
 4022SOL     OW16406   3.092   1.659   4.585
 4022SOL    HW216407   3.139   1.732   4.544
 4022SOL    HW316408   3.013   1.698   4.621
 4022SOL    MW416409   3.087   1.674   4.584
 4023SOL     OW16410   3.500   1.754   4.860
 4023SOL    HW216411   3.543   1.724   4.940
 4023SOL    HW316412   3.419   1.702   4.857
 4023SOL    MW416413   3.495   1.743   4.870
 4024SOL     OW16414   2.585   0.718   5.567
 4024SOL    HW216415   2.655   0.660   5.539
 4024SOL    HW316416   2.528   0.663   5.622
 4024SOL    MW416417   2.587   0.705   5.571
 4025SOL     OW16418   3.372   0.930   5.200
 4025SOL    HW216419   3.377   0.983   5.280
 4025SOL    HW316420   3.334   0.847   5.228
 4025SOL    MW416421   3.368   0.925   5.215
 4026SOL     OW16422   3.012   0.065   5.446
 4026SOL    HW216423   3.007  -0.028   5.427
 4026SOL    HW316424   3.095   0.076   5.492
 4026SOL    MW416425   3.020   0.054   5.450
 4027SOL     OW16426   2.386   0.585   3.900
 4027SOL    HW216427   2.352   0.641   3.970
 4027SOL    HW316428   2.457   0.535   3.940
 4027SOL    MW416429   2.392   0.586   3.914
 4028SOL     OW16430   3.482   1.336   4.722
 4028SOL    HW216431   3.517   1.318   4.635
 4028SOL    HW316432   3.387   1.337   4.709
 4028SOL    MW416433   3.474   1.333   4.709
 4029SOL     OW16434   2.911   0.984   5.091
 4029SOL    HW216435   2.954   1.019   5.169
 4029SOL    HW316436   2.894   1.061   5.037
 4029SOL    MW416437   2.914   0.999   5.094
 4030SOL     OW16438   3.442   0.471   3.964
 4030SOL    HW216439   3.434   0.542   3.901
 4030SOL    HW316440   3.460   0.515   4.047
 4030SOL    MW416441   3.443   0.485   3.966
 4031SOL     OW16442   2.302   0.126   4.393
 4031SOL    HW216443   2.352   0.169   4.324
 4031SOL    HW316444   2.217   0.170   4.393
 4031SOL    MW416445   2.299   0.139   4.384
 4032SOL     OW16446   2.061   1.188   5.253
 4032SOL    HW216447   2.089   1.141   5.331
 4032SOL    HW316448   1.982   1.143   5.224
 4032SOL    MW416449   2.054   1.177   5.259
 4033SOL     OW16450   2.569   0.515   5.220
 4033SOL    HW216451   2.541   0.603   5.244
 4033SOL    HW316452   2.538   0.459   5.291
 4033SOL    MW416453   2.561   0.518   5.232
 4034SOL     OW16454   3.111   0.733   3.939
 4034SOL    HW216455   3.158   0.751   3.858
 4034SOL    HW316456   3.077   0.817   3.967
 4034SOL    MW416457   3.113   0.747   3.932
 4035SOL     OW16458   2.224   0.911   4.433
 4035SOL    HW216459   2.282   0.967   4.381
 4035SOL    HW316460   2.268   0.826   4.435
 4035SOL    MW416461   2.237   0.908   4.426
 4036SOL     OW16462   3.364   0.263   4.270
 4036SOL    HW216463   3.286   0.213   4.295
 4036SOL    HW316464   3.335   0.354   4.270
 4036SOL    MW416465   3.350   0.267   4.273
 4037SOL     OW16466   2.950   0.225   4.429
 4037SOL    HW216467   2.970   0.300   4.373
 4037SOL    HW316468   2.930   0.264   4.514
 4037SOL    MW416469   2.951   0.241   4.433
 4038SOL     OW16470   2.846   1.475   3.761
 4038SOL    HW216471   2.873   1.553   3.713
 4038SOL    HW316472   2.753   1.490   3.780
 4038SOL    MW416473   2.837   1.488   3.757
 4039SOL     OW16474   3.710   0.998   5.448
 4039SOL    HW216475   3.623   0.978   5.484
 4039SOL    HW316476   3.764   0.924   5.473
 4039SOL    MW416477   3.705   0.987   5.456
 4040SOL     OW16478   1.931   1.511   4.605
 4040SOL    HW216479   1.963   1.515   4.696
 4040SOL    HW316480   1.836   1.519   4.613
 4040SOL    MW416481   1.923   1.514   4.618
 4041SOL     OW16482   1.886   0.637   4.152
 4041SOL    HW216483   1.826   0.609   4.222
 4041SOL    HW316484   1.960   0.577   4.158
 4041SOL    MW416485   1.888   0.626   4.161
 4042SOL     OW16486   3.454   1.849   5.586
 4042SOL    HW216487   3.499   1.773   5.551
 4042SOL    HW316488   3.492   1.862   5.673
 4042SOL    MW416489   3.464   1.842   5.592
 4043SOL     OW16490   3.054   1.368   4.312
 4043SOL    HW216491   3.077   1.319   4.390
 4043SOL    HW316492   3.135   1.410   4.284
 4043SOL    MW416493   3.067   1.368   4.319
 4044SOL     OW16494   2.312   0.376   5.041
 4044SOL    HW216495   2.345   0.457   5.081
 4044SOL    HW316496   2.285   0.402   4.953
 4044SOL    MW416497   2.311   0.390   5.035
 4045SOL     OW16498   2.266   0.343   4.777
 4045SOL    HW216499   2.296   0.257   4.748
 4045SOL    HW316500   2.171   0.336   4.780
 4045SOL    MW416501   2.258   0.332   4.775
 4046SOL     OW16502   3.095   0.552   5.468
 4046SOL    HW216503   3.147   0.487   5.421
 4046SOL    HW316504   3.053   0.603   5.398
 4046SOL    MW416505   3.096   0.549   5.451
 4047SOL     OW16506   3.194   0.347   5.329
 4047SOL    HW216507   3.101   0.331   5.316
 4047SOL    HW316508   3.220   0.285   5.397
 4047SOL    MW416509   3.184   0.337   5.336
 4048SOL     OW16510   2.409   0.121   4.668
 4048SOL    HW216511   2.419   0.030   4.694
 4048SOL    HW316512   2.365   0.117   4.583
 4048SOL    MW416513   2.405   0.109   4.660
 4049SOL     OW16514   2.503   1.736   5.214
 4049SOL    HW216515   2.420   1.721   5.259
 4049SOL    HW316516   2.562   1.669   5.249
 4049SOL    MW416517   2.501   1.726   5.224
 4050SOL     OW16518   3.560   0.443   4.839
 4050SOL    HW216519   3.493   0.476   4.899
 4050SOL    HW316520   3.603   0.521   4.805
 4050SOL    MW416521   3.558   0.458   4.843
 4051SOL     OW16522   3.738   1.163   4.809
 4051SOL    HW216523   3.731   1.103   4.734
 4051SOL    HW316524   3.664   1.223   4.798
 4051SOL    MW416525   3.728   1.163   4.798
 4052SOL     OW16526   3.120   1.025   4.727
 4052SOL    HW216527   3.134   0.997   4.818
 4052SOL    HW316528   3.206   1.056   4.699
 4052SOL    MW416529   3.133   1.026   4.736
 4053SOL     OW16530   3.203   0.520   5.006
 4053SOL    HW216531   3.224   0.521   4.913
 4053SOL    HW316532   3.248   0.442   5.039
 4053SOL    MW416533   3.210   0.510   4.998
 4054SOL     OW16534   3.696   0.651   5.548
 4054SOL    HW216535   3.733   0.596   5.617
 4054SOL    HW316536   3.721   0.608   5.466
 4054SOL    MW416537   3.703   0.639   5.547
 4055SOL     OW16538   3.243   0.949   5.600
 4055SOL    HW216539   3.309   0.897   5.554
 4055SOL    HW316540   3.263   0.936   5.693
 4055SOL    MW416541   3.254   0.940   5.607
 4056SOL     OW16542   3.194   0.035   3.948
 4056SOL    HW216543   3.268   0.079   3.991
 4056SOL    HW316544   3.118   0.089   3.970
 4056SOL    MW416545   3.194   0.047   3.956
 4057SOL     OW16546   3.254   0.810   4.226
 4057SOL    HW216547   3.169   0.780   4.196
 4057SOL    HW316548   3.246   0.817   4.321
 4057SOL    MW416549   3.242   0.808   4.235
 4058SOL     OW16550   2.330   1.273   4.957
 4058SOL    HW216551   2.342   1.300   5.048
 4058SOL    HW316552   2.311   1.354   4.910
 4058SOL    MW416553   2.329   1.288   4.962
 4059SOL     OW16554   2.614   0.253   4.780
 4059SOL    HW216555   2.587   0.255   4.871
 4059SOL    HW316556   2.544   0.205   4.735
 4059SOL    MW416557   2.602   0.249   4.787
 4060SOL     OW16558   2.468   1.745   4.942
 4060SOL    HW216559   2.520   1.822   4.919
 4060SOL    HW316560   2.477   1.737   5.037
 4060SOL    MW416561   2.477   1.752   4.953
 4061SOL     OW16562   3.370   1.330   5.174
 4061SOL    HW216563   3.355   1.259   5.237
 4061SOL    HW316564   3.416   1.288   5.102
 4061SOL    MW416565   3.376   1.314   5.174
 4062SOL     OW16566   2.444   1.061   5.291
 4062SOL    HW216567   2.481   1.066   5.203
 4062SOL    HW316568   2.483   1.134   5.338
 4062SOL    MW416569   2.454   1.071   5.286
 4063SOL     OW16570   2.624   1.104   5.103
 4063SOL    HW216571   2.683   1.050   5.156
 4063SOL    HW316572   2.639   1.076   5.013
 4063SOL    MW416573   2.634   1.093   5.099
 4064SOL     OW16574   2.627   0.476   3.952
 4064SOL    HW216575   2.700   0.525   3.915
 4064SOL    HW316576   2.643   0.385   3.926
 4064SOL    MW416577   2.639   0.471   3.945
 4065SOL     OW16578   3.435   1.593   5.275
 4065SOL    HW216579   3.477   1.578   5.360
 4065SOL    HW316580   3.426   1.506   5.237
 4065SOL    MW416581   3.439   1.581   5.282
 4066SOL     OW16582   3.095   0.072   4.866
 4066SOL    HW216583   3.150   0.081   4.788
 4066SOL    HW316584   3.150   0.106   4.937
 4066SOL    MW416585   3.109   0.077   4.865
 4067SOL     OW16586   2.102   0.985   4.050
 4067SOL    HW216587   2.039   1.001   3.979
 4067SOL    HW316588   2.049   0.948   4.121
 4067SOL    MW416589   2.087   0.982   4.050
 4068SOL     OW16590   2.458   1.339   3.909
 4068SOL    HW216591   2.473   1.315   4.001
 4068SOL    HW316592   2.366   1.317   3.893
 4068SOL    MW416593   2.448   1.332   3.919
 4069SOL     OW16594   2.997   1.570   4.061
 4069SOL    HW216595   3.005   1.488   4.012
 4069SOL    HW316596   2.916   1.609   4.028
 4069SOL    MW416597   2.987   1.565   4.051
 4070SOL     OW16598   2.256   1.728   4.630
 4070SOL    HW216599   2.260   1.639   4.665
 4070SOL    HW316600   2.282   1.719   4.539
 4070SOL    MW416601   2.259   1.716   4.622
 4071SOL     OW16602   2.873   1.206   4.873
 4071SOL    HW216603   2.805   1.140   4.889
 4071SOL    HW316604   2.891   1.200   4.780
 4071SOL    MW416605   2.866   1.197   4.864
 4072SOL     OW16606   1.962   1.481   5.124
 4072SOL    HW216607   1.952   1.439   5.210
 4072SOL    HW316608   1.883   1.534   5.114
 4072SOL    MW416609   1.951   1.482   5.135
 4073SOL     OW16610   2.866   0.345   4.694
 4073SOL    HW216611   2.796   0.297   4.739
 4073SOL    HW316612   2.898   0.408   4.758
 4073SOL    MW416613   2.861   0.347   4.708
 4074SOL     OW16614   2.517   0.781   5.314
 4074SOL    HW216615   2.510   0.876   5.302
 4074SOL    HW316616   2.526   0.770   5.409
 4074SOL    MW416617   2.518   0.793   5.324
 4075SOL     OW16618   2.238   1.296   5.572
 4075SOL    HW216619   2.310   1.298   5.509
 4075SOL    HW316620   2.208   1.205   5.571
 4075SOL    MW416621   2.243   1.285   5.564
 4076SOL     OW16622   3.322   0.059   5.039
 4076SOL    HW216623   3.393   0.005   5.003
 4076SOL    HW316624   3.321   0.038   5.132
 4076SOL    MW416625   3.331   0.050   5.047
 4077SOL     OW16626   3.522   1.589   5.523
 4077SOL    HW216627   3.495   1.586   5.614
 4077SOL    HW316628   3.618   1.593   5.526
 4077SOL    MW416629   3.532   1.589   5.535
 4078SOL     OW16630   2.333   0.451   4.507
 4078SOL    HW216631   2.404   0.399   4.470
 4078SOL    HW316632   2.319   0.416   4.594
 4078SOL    MW416633   2.341   0.440   4.514
 4079SOL     OW16634   1.888   1.786   5.579
 4079SOL    HW216635   1.938   1.764   5.501
 4079SOL    HW316636   1.896   1.881   5.587
 4079SOL    MW416637   1.896   1.795   5.570
 4080SOL     OW16638   2.649   1.544   4.583
 4080SOL    HW216639   2.577   1.481   4.596
 4080SOL    HW316640   2.610   1.629   4.601
 4080SOL    MW416641   2.633   1.547   4.586
 4081SOL     OW16642   2.969   0.392   4.231
 4081SOL    HW216643   2.991   0.329   4.163
 4081SOL    HW316644   2.874   0.384   4.242
 4081SOL    MW416645   2.959   0.383   4.223
 4082SOL     OW16646   2.054   0.082   4.163
 4082SOL    HW216647   2.125   0.103   4.102
 4082SOL    HW316648   2.008   0.010   4.121
 4082SOL    MW416649   2.058   0.076   4.149
 4083SOL     OW16650   1.885   0.549   5.306
 4083SOL    HW216651   1.949   0.615   5.281
 4083SOL    HW316652   1.804   0.576   5.263
 4083SOL    MW416653   1.883   0.561   5.298
 4084SOL     OW16654   3.623   1.456   4.263
 4084SOL    HW216655   3.593   1.389   4.324
 4084SOL    HW316656   3.717   1.462   4.277
 4084SOL    MW416657   3.631   1.448   4.273
 4085SOL     OW16658   3.179   1.133   4.193
 4085SOL    HW216659   3.151   1.219   4.226
 4085SOL    HW316660   3.207   1.149   4.103
 4085SOL    MW416661   3.179   1.147   4.185
 4086SOL     OW16662   2.841   0.053   4.246
 4086SOL    HW216663   2.878   0.112   4.311
 4086SOL    HW316664   2.818   0.109   4.172
 4086SOL    MW416665   2.842   0.068   4.245
 4087SOL     OW16666   3.694   0.935   4.668
 4087SOL    HW216667   3.685   0.967   4.579
 4087SOL    HW316668   3.647   0.851   4.668
 4087SOL    MW416669   3.687   0.928   4.658
 4088SOL     OW16670   2.070   0.775   5.247
 4088SOL    HW216671   2.091   0.844   5.185
 4088SOL    HW316672   2.150   0.722   5.252
 4088SOL    MW416673   2.083   0.776   5.241
 4089SOL     OW16674   3.606   0.866   4.369
 4089SOL    HW216675   3.700   0.855   4.357
 4089SOL    HW316676   3.582   0.938   4.310
 4089SOL    MW416677   3.616   0.874   4.360
 4090SOL     OW16678   2.055   0.790   5.514
 4090SOL    HW216679   1.981   0.734   5.540
 4090SOL    HW316680   2.050   0.793   5.419
 4090SOL    MW416681   2.044   0.783   5.504
 4091SOL     OW16682   2.221   0.077   4.964
 4091SOL    HW216683   2.264   0.161   4.984
 4091SOL    HW316684   2.294   0.015   4.957
 4091SOL    MW416685   2.236   0.080   4.965
 4092SOL     OW16686   2.262   0.744   4.142
 4092SOL    HW216687   2.262   0.839   4.127
 4092SOL    HW316688   2.339   0.728   4.196
 4092SOL    MW416689   2.272   0.755   4.147
 4093SOL     OW16690   3.038   0.603   5.206
 4093SOL    HW216691   3.074   0.576   5.122
 4093SOL    HW316692   2.951   0.637   5.185
 4093SOL    MW416693   3.032   0.604   5.193
 4094SOL     OW16694   2.021   0.475   4.431
 4094SOL    HW216695   2.083   0.482   4.504
 4094SOL    HW316696   2.021   0.382   4.408
 4094SOL    MW416697   2.029   0.464   4.438
 4095SOL     OW16698   3.568   1.815   3.963
 4095SOL    HW216699   3.635   1.848   3.903
 4095SOL    HW316700   3.525   1.894   3.997
 4095SOL    MW416701   3.570   1.830   3.959
 4096SOL     OW16702   2.703   0.736   4.915
 4096SOL    HW216703   2.661   0.654   4.891
 4096SOL    HW316704   2.704   0.735   5.011
 4096SOL    MW416705   2.696   0.725   4.924
 4097SOL     OW16706   3.374   1.869   5.314
 4097SOL    HW216707   3.377   1.775   5.297
 4097SOL    HW316708   3.397   1.877   5.406
 4097SOL    MW416709   3.377   1.857   5.324
 4098SOL     OW16710   2.507   0.206   5.020
 4098SOL    HW216711   2.438   0.269   5.041
 4098SOL    HW316712   2.534   0.170   5.105
 4098SOL    MW416713   2.501   0.209   5.033
 4099SOL     OW16714   1.890   1.047   3.889
 4099SOL    HW216715   1.859   1.112   3.952
 4099SOL    HW316716   1.839   0.969   3.908
 4099SOL    MW416717   1.880   1.044   3.899
 4100SOL     OW16718   3.302   0.059   4.637
 4100SOL    HW216719   3.390   0.068   4.674
 4100SOL    HW316720   3.312   0.000   4.563
 4100SOL    MW416721   3.316   0.053   4.631
 4101SOL     OW16722   3.334   0.798   4.481
 4101SOL    HW216723   3.414   0.813   4.430
 4101SOL    HW316724   3.327   0.703   4.487
 4101SOL    MW416725   3.343   0.787   4.476
 4102SOL     OW16726   2.474   1.847   3.831
 4102SOL    HW216727   2.379   1.847   3.823
 4102SOL    HW316728   2.490   1.793   3.909
 4102SOL    MW416729   2.464   1.841   3.840
 4103SOL     OW16730   2.784   0.724   5.178
 4103SOL    HW216731   2.853   0.791   5.175
 4103SOL    HW316732   2.717   0.762   5.234
 4103SOL    MW416733   2.785   0.737   5.185
 4104SOL     OW16734   2.202   1.024   5.426
 4104SOL    HW216735   2.156   0.940   5.428
 4104SOL    HW316736   2.259   1.018   5.350
 4104SOL    MW416737   2.204   1.012   5.418
 4105SOL     OW16738   3.319   0.667   3.747
 4105SOL    HW216739   3.247   0.643   3.689
 4105SOL    HW316740   3.385   0.704   3.689
 4105SOL    MW416741   3.318   0.669   3.732
 4106SOL     OW16742   2.453   1.399   4.427
 4106SOL    HW216743   2.518   1.332   4.448
 4106SOL    HW316744   2.505   1.476   4.404
 4106SOL    MW416745   2.468   1.401   4.426
 4107SOL     OW16746   2.714   0.564   4.557
 4107SOL    HW216747   2.654   0.582   4.629
 4107SOL    HW316748   2.748   0.476   4.576
 4107SOL    MW416749   2.710   0.554   4.570
 4108SOL     OW16750   3.655   0.063   5.226
 4108SOL    HW216751   3.576   0.109   5.254
 4108SOL    HW316752   3.690   0.117   5.155
 4108SOL    MW416753   3.649   0.076   5.220
 4109SOL     OW16754   2.939   1.147   4.576
 4109SOL    HW216755   3.031   1.128   4.594
 4109SOL    HW316756   2.912   1.077   4.516
 4109SOL    MW416757   2.947   1.135   4.570
 4110SOL     OW16758   2.732   0.967   3.931
 4110SOL    HW216759   2.718   0.879   3.896
 4110SOL    HW316760   2.683   1.024   3.872
 4110SOL    MW416761   2.724   0.962   3.919
 4111SOL     OW16762   3.213   1.385   4.672
 4111SOL    HW216763   3.186   1.469   4.637
 4111SOL    HW316764   3.173   1.380   4.759
 4111SOL    MW416765   3.206   1.394   4.678
 4112SOL     OW16766   3.132   1.333   4.940
 4112SOL    HW216767   3.143   1.300   5.029
 4112SOL    HW316768   3.051   1.292   4.909
 4112SOL    MW416769   3.122   1.325   4.946
 4113SOL     OW16770   2.145   0.691   4.710
 4113SOL    HW216771   2.095   0.690   4.791
 4113SOL    HW316772   2.165   0.783   4.694
 4113SOL    MW416773   2.141   0.703   4.718
 4114SOL     OW16774   3.212   1.455   5.472
 4114SOL    HW216775   3.212   1.549   5.488
 4114SOL    HW316776   3.257   1.445   5.388
 4114SOL    MW416777   3.218   1.465   5.463
 4115SOL     OW16778   3.451   0.173   4.033
 4115SOL    HW216779   3.444   0.177   4.128
 4115SOL    HW316780   3.463   0.264   4.006
 4115SOL    MW416781   3.452   0.186   4.041
 4116SOL     OW16782   2.740   0.736   4.147
 4116SOL    HW216783   2.720   0.722   4.054
 4116SOL    HW316784   2.833   0.715   4.154
 4116SOL    MW416785   2.750   0.731   4.136
 4117SOL     OW16786   2.067   0.359   5.451
 4117SOL    HW216787   2.024   0.418   5.388
 4117SOL    HW316788   2.135   0.414   5.491
 4117SOL    MW416789   2.071   0.374   5.448
 4118SOL     OW16790   3.179   0.979   4.996
 4118SOL    HW216791   3.242   0.976   5.069
 4118SOL    HW316792   3.095   0.997   5.038
 4118SOL    MW416793   3.175   0.981   5.011
 4119SOL     OW16794   2.723   1.694   4.185
 4119SOL    HW216795   2.781   1.765   4.212
 4119SOL    HW316796   2.746   1.622   4.243
 4119SOL    MW416797   2.734   1.694   4.196
 4120SOL     OW16798   3.518   0.156   4.775
 4120SOL    HW216799   3.563   0.074   4.794
 4120SOL    HW316800   3.538   0.212   4.851
 4120SOL    MW416801   3.528   0.152   4.787
 4121SOL     OW16802   1.966  -0.001   4.874
 4121SOL    HW216803   1.957   0.000   4.779
 4121SOL    HW316804   2.060   0.011   4.889
 4121SOL    MW416805   1.978   0.002   4.865
 4122SOL     OW16806   3.603   1.192   4.494
 4122SOL    HW216807   3.582   1.138   4.417
 4122SOL    HW316808   3.699   1.190   4.498
 4122SOL    MW416809   3.612   1.185   4.483
 4123SOL     OW16810   2.295   1.337   5.237
 4123SOL    HW216811   2.216   1.287   5.260
 4123SOL    HW316812   2.365   1.296   5.287
 4123SOL    MW416813   2.293   1.325   5.247
 4124SOL     OW16814   2.179   0.126   3.920
 4124SOL    HW216815   2.108   0.181   3.888
 4124SOL    HW316816   2.221   0.092   3.841
 4124SOL    MW416817   2.175   0.128   3.906
 4125SOL     OW16818   3.303   0.623   4.756
 4125SOL    HW216819   3.226   0.669   4.722
 4125SOL    HW316820   3.360   0.692   4.790
 4125SOL    MW416821   3.300   0.638   4.756
 4126SOL     OW16822   1.935   0.225   3.769
 4126SOL    HW216823   1.902   0.304   3.813
 4126SOL    HW316824   1.990   0.258   3.698
 4126SOL    MW416825   1.938   0.239   3.766
 4127SOL     OW16826   1.969   1.482   3.958
 4127SOL    HW216827   1.986   1.566   4.000
 4127SOL    HW316828   2.004   1.491   3.870
 4127SOL    MW416829   1.974   1.495   3.952
 4128SOL     OW16830   3.241   1.571   4.175
 4128SOL    HW216831   3.304   1.561   4.104
 4128SOL    HW316832   3.158   1.591   4.130
 4128SOL    MW416833   3.238   1.572   4.160
 4129SOL     OW16834   3.604   0.839   5.862
 4129SOL    HW216835   3.645   0.781   5.927
 4129SOL    HW316836   3.511   0.831   5.879
 4129SOL    MW416837   3.598   0.831   5.872
 4130SOL     OW16838   3.470   0.771   6.857
 4130SOL    HW216839   3.425   0.838   6.908
 4130SOL    HW316840   3.558   0.807   6.843
 4130SOL    MW416841   3.476   0.784   6.861
 4131SOL     OW16842   2.398   1.022   6.091
 4131SOL    HW216843   2.488   0.997   6.075
 4131SOL    HW316844   2.394   1.115   6.068
 4131SOL    MW416845   2.410   1.031   6.086
 4132SOL     OW16846   3.514   1.725   6.233
 4132SOL    HW216847   3.526   1.671   6.311
 4132SOL    HW316848   3.551   1.673   6.162
 4132SOL    MW416849   3.520   1.710   6.234
 4133SOL     OW16850   2.893   1.610   7.234
 4133SOL    HW216851   2.934   1.646   7.155
 4133SOL    HW316852   2.928   1.521   7.241
 4133SOL    MW416853   2.904   1.603   7.225
 4134SOL     OW16854   3.450   1.165   6.838
 4134SOL    HW216855   3.371   1.130   6.796
 4134SOL    HW316856   3.477   1.237   6.782
 4134SOL    MW416857   3.443   1.170   6.825
 4135SOL     OW16858   2.682   0.478   6.104
 4135SOL    HW216859   2.657   0.566   6.132
 4135SOL    HW316860   2.679   0.481   6.008
 4135SOL    MW416861   2.678   0.490   6.096
 4136SOL     OW16862   2.124   0.506   6.032
 4136SOL    HW216863   2.156   0.594   6.014
 4136SOL    HW316864   2.112   0.504   6.127
 4136SOL    MW416865   2.127   0.518   6.044
 4137SOL     OW16866   2.202   0.919   6.933
 4137SOL    HW216867   2.265   0.866   6.884
 4137SOL    HW316868   2.183   0.993   6.876
 4137SOL    MW416869   2.208   0.921   6.920
 4138SOL     OW16870   2.523   0.261   6.119
 4138SOL    HW216871   2.581   0.337   6.121
 4138SOL    HW316872   2.458   0.282   6.052
 4138SOL    MW416873   2.522   0.273   6.110
 4139SOL     OW16874   2.610   1.188   6.294
 4139SOL    HW216875   2.690   1.191   6.346
 4139SOL    HW316876   2.638   1.155   6.208
 4139SOL    MW416877   2.624   1.184   6.289
 4140SOL     OW16878   2.635   1.529   7.197
 4140SOL    HW216879   2.719   1.555   7.236
 4140SOL    HW316880   2.659   1.473   7.123
 4140SOL    MW416881   2.649   1.525   7.192
 4141SOL     OW16882   2.387   0.692   6.285
 4141SOL    HW216883   2.372   0.612   6.336
 4141SOL    HW316884   2.469   0.727   6.319
 4141SOL    MW416885   2.395   0.684   6.297
 4142SOL     OW16886   2.724   1.378   6.970
 4142SOL    HW216887   2.688   1.444   6.910
 4142SOL    HW316888   2.652   1.316   6.983
 4142SOL    MW416889   2.710   1.378   6.964
 4143SOL     OW16890   2.529   0.518   6.662
 4143SOL    HW216891   2.435   0.514   6.680
 4143SOL    HW316892   2.559   0.427   6.671
 4143SOL    MW416893   2.520   0.506   6.665
 4144SOL     OW16894   2.275   0.932   6.566
 4144SOL    HW216895   2.230   0.939   6.482
 4144SOL    HW316896   2.255   1.015   6.610
 4144SOL    MW416897   2.267   0.944   6.560
 4145SOL     OW16898   1.972   1.778   6.441
 4145SOL    HW216899   2.061   1.770   6.476
 4145SOL    HW316900   1.936   1.690   6.446
 4145SOL    MW416901   1.979   1.765   6.446
 4146SOL     OW16902   3.237   1.170   5.810
 4146SOL    HW216903   3.155   1.206   5.776
 4146SOL    HW316904   3.305   1.213   5.759
 4146SOL    MW416905   3.235   1.180   5.798
 4147SOL     OW16906   2.236   1.305   6.476
 4147SOL    HW216907   2.212   1.358   6.552
 4147SOL    HW316908   2.292   1.363   6.424
 4147SOL    MW416909   2.240   1.320   6.479
 4148SOL     OW16910   2.798   0.949   6.286
 4148SOL    HW216911   2.712   0.936   6.326
 4148SOL    HW316912   2.851   0.876   6.318
 4148SOL    MW416913   2.794   0.938   6.295
 4149SOL     OW16914   2.206   1.601   7.071
 4149SOL    HW216915   2.114   1.577   7.056
 4149SOL    HW316916   2.250   1.518   7.088
 4149SOL    MW416917   2.200   1.586   7.070
 4150SOL     OW16918   2.789   1.311   6.003
 4150SOL    HW216919   2.766   1.373   6.071
 4150SOL    HW316920   2.746   1.229   6.029
 4150SOL    MW416921   2.781   1.307   6.014
 4151SOL     OW16922   3.662   0.312   6.459
 4151SOL    HW216923   3.599   0.292   6.528
 4151SOL    HW316924   3.652   0.241   6.396
 4151SOL    MW416925   3.652   0.299   6.460
 4152SOL     OW16926   2.286   0.284   5.971
 4152SOL    HW216927   2.260   0.246   5.887
 4152SOL    HW316928   2.223   0.354   5.987
 4152SOL    MW416929   2.275   0.287   5.962
 4153SOL     OW16930   2.121   1.245   6.008
 4153SOL    HW216931   2.069   1.313   5.964
 4153SOL    HW316932   2.118   1.171   5.948
 4153SOL    MW416933   2.113   1.244   5.995
 4154SOL     OW16934   2.783   1.708   5.786
 4154SOL    HW216935   2.738   1.724   5.869
 4154SOL    HW316936   2.714   1.673   5.728
 4154SOL    MW416937   2.769   1.705   5.788
 4155SOL     OW16938   3.718   0.481   5.761
 4155SOL    HW216939   3.627   0.483   5.789
 4155SOL    HW316940   3.763   0.543   5.819
 4155SOL    MW416941   3.711   0.489   5.771
 4156SOL     OW16942   3.463   1.084   6.111
 4156SOL    HW216943   3.373   1.084   6.146
 4156SOL    HW316944   3.456   1.130   6.028
 4156SOL    MW416945   3.450   1.090   6.105
 4157SOL     OW16946   3.263   0.719   7.183
 4157SOL    HW216947   3.332   0.657   7.160
 4157SOL    HW316948   3.188   0.693   7.130
 4157SOL    MW416949   3.263   0.706   7.174
 4158SOL     OW16950   2.004   1.599   6.735
 4158SOL    HW216951   1.987   1.545   6.812
 4158SOL    HW316952   1.992   1.689   6.765
 4158SOL    MW416953   2.001   1.603   6.749
 4159SOL     OW16954   2.999   1.106   7.175
 4159SOL    HW216955   2.984   1.199   7.160
 4159SOL    HW316956   3.094   1.096   7.175
 4159SOL    MW416957   3.008   1.116   7.172
 4160SOL     OW16958   2.795   0.530   7.376
 4160SOL    HW216959   2.885   0.531   7.343
 4160SOL    HW316960   2.754   0.455   7.334
 4160SOL    MW416961   2.801   0.520   7.367
 4161SOL     OW16962   3.370   1.062   6.503
 4161SOL    HW216963   3.373   0.996   6.434
 4161SOL    HW316964   3.455   1.105   6.499
 4161SOL    MW416965   3.382   1.058   6.494
 4162SOL     OW16966   2.990   0.665   6.072
 4162SOL    HW216967   3.016   0.689   5.983
 4162SOL    HW316968   2.972   0.572   6.068
 4162SOL    MW416969   2.992   0.657   6.059
 4163SOL     OW16970   3.655   1.285   5.923
 4163SOL    HW216971   3.611   1.326   5.998
 4163SOL    HW316972   3.712   1.353   5.888
 4163SOL    MW416973   3.657   1.299   5.928
 4164SOL     OW16974   2.575   0.334   7.326
 4164SOL    HW216975   2.585   0.260   7.266
 4164SOL    HW316976   2.611   0.303   7.409
 4164SOL    MW416977   2.581   0.320   7.328
 4165SOL     OW16978   2.311   1.701   6.241
 4165SOL    HW216979   2.343   1.789   6.219
 4165SOL    HW316980   2.264   1.673   6.163
 4165SOL    MW416981   2.310   1.709   6.228
 4166SOL     OW16982   3.695   0.063   6.290
 4166SOL    HW216983   3.749   0.014   6.352
 4166SOL    HW316984   3.638  -0.003   6.251
 4166SOL    MW416985   3.695   0.047   6.292
 4167SOL     OW16986   2.027   1.761   5.818
 4167SOL    HW216987   2.056   1.851   5.810
 4167SOL    HW316988   1.977   1.744   5.739
 4167SOL    MW416989   2.025   1.769   5.807
 4168SOL     OW16990   2.814   0.016   6.703
 4168SOL    HW216991   2.773   0.094   6.665
 4168SOL    HW316992   2.908   0.034   6.698
 4168SOL    MW416993   2.820   0.028   6.698
 4169SOL     OW16994   3.431   1.569   5.789
 4169SOL    HW216995   3.479   1.638   5.835
 4169SOL    HW316996   3.352   1.613   5.758
 4169SOL    MW416997   3.426   1.583   5.792
 4170SOL     OW16998   2.829   0.694   5.733
 4170SOL    HW216999   2.831   0.641   5.654
 4170SOL    HW317000   2.917   0.731   5.739
 4170SOL    MW417001   2.841   0.693   5.722
 4171SOL     OW17002   3.443   0.620   6.069
 4171SOL    HW217003   3.482   0.620   6.156
 4171SOL    HW317004   3.384   0.696   6.069
 4171SOL    MW417005   3.440   0.631   6.080
 4172SOL     OW17006   2.760   0.987   7.198
 4172SOL    HW217007   2.737   0.967   7.288
 4172SOL    HW317008   2.845   1.031   7.203
 4172SOL    MW417009   2.767   0.990   7.210
 4173SOL     OW17010   2.840   0.124   6.958
 4173SOL    HW217011   2.846   0.086   6.871
 4173SOL    HW317012   2.829   0.218   6.943
 4173SOL    MW417013   2.841   0.132   6.946
 4174SOL     OW17014   2.929   0.613   6.792
 4174SOL    HW217015   3.004   0.642   6.739
 4174SOL    HW317016   2.861   0.678   6.776
 4174SOL    MW417017   2.930   0.625   6.782
 4175SOL     OW17018   3.479   0.581   7.069
 4175SOL    HW217019   3.460   0.490   7.048
 4175SOL    HW317020   3.457   0.630   6.990
 4175SOL    MW417021   3.474   0.574   7.056
 4176SOL     OW17022   3.621   1.675   6.973
 4176SOL    HW217023   3.549   1.637   7.024
 4176SOL    HW317024   3.638   1.760   7.014
 4176SOL    MW417025   3.615   1.680   6.985
 4177SOL     OW17026   2.926   0.319   7.175
 4177SOL    HW217027   2.892   0.358   7.094
 4177SOL    HW317028   2.904   0.227   7.168
 4177SOL    MW417029   2.919   0.312   7.165
 4178SOL     OW17030   3.335   1.133   7.251
 4178SOL    HW217031   3.417   1.174   7.281
 4178SOL    HW317032   3.298   1.095   7.331
 4178SOL    MW417033   3.341   1.134   7.266
 4179SOL     OW17034   3.630   0.506   6.235
 4179SOL    HW217035   3.719   0.475   6.252
 4179SOL    HW317036   3.573   0.446   6.283
 4179SOL    MW417037   3.633   0.494   6.244
 4180SOL     OW17038   2.056   0.220   6.264
 4180SOL    HW217039   2.047   0.160   6.190
 4180SOL    HW317040   1.989   0.191   6.327
 4180SOL    MW417041   2.046   0.207   6.262
 4181SOL     OW17042   2.999   1.313   5.825
 4181SOL    HW217043   2.949   1.315   5.907
 4181SOL    HW317044   2.933   1.331   5.757
 4181SOL    MW417045   2.985   1.315   5.827
 4182SOL     OW17046   2.003   0.393   6.627
 4182SOL    HW217047   1.975   0.484   6.636
 4182SOL    HW317048   1.940   0.354   6.566
 4182SOL    MW417049   1.990   0.399   6.621
 4183SOL     OW17050   2.462   1.731   5.933
 4183SOL    HW217051   2.383   1.689   5.966
 4183SOL    HW317052   2.528   1.714   6.000
 4183SOL    MW417053   2.461   1.723   5.946
 4184SOL     OW17054   3.590   1.251   7.330
 4184SOL    HW217055   3.640   1.177   7.362
 4184SOL    HW317056   3.536   1.278   7.405
 4184SOL    MW417057   3.590   1.245   7.343
 4185SOL     OW17058   2.598   1.146   5.640
 4185SOL    HW217059   2.520   1.092   5.627
 4185SOL    HW317060   2.569   1.219   5.693
 4185SOL    MW417061   2.584   1.148   5.645
 4186SOL     OW17062   3.724   0.886   6.832
 4186SOL    HW217063   3.740   0.924   6.745
 4186SOL    HW317064   3.758   0.952   6.893
 4186SOL    MW417065   3.731   0.899   6.828
 4187SOL     OW17066   3.516   1.595   6.501
 4187SOL    HW217067   3.545   1.662   6.562
 4187SOL    HW317068   3.497   1.519   6.556
 4187SOL    MW417069   3.518   1.595   6.516
 4188SOL     OW17070   3.179   1.662   5.708
 4188SOL    HW217071   3.105   1.625   5.758
 4188SOL    HW317072   3.187   1.752   5.741
 4188SOL    MW417073   3.170   1.669   5.720
 4189SOL     OW17074   1.987   0.668   6.797
 4189SOL    HW217075   2.049   0.698   6.863
 4189SOL    HW317076   1.921   0.737   6.791
 4189SOL    MW417077   1.986   0.681   6.804
 4190SOL     OW17078   3.403   1.336   5.650
 4190SOL    HW217079   3.350   1.385   5.586
 4190SOL    HW317080   3.434   1.402   5.711
 4190SOL    MW417081   3.401   1.350   5.648
 4191SOL     OW17082   2.628   0.225   5.705
 4191SOL    HW217083   2.576   0.145   5.693
 4191SOL    HW317084   2.715   0.202   5.673
 4191SOL    MW417085   2.631   0.211   5.699
 4192SOL     OW17086   2.082   1.777   7.249
 4192SOL    HW217087   2.056   1.845   7.187
 4192SOL    HW317088   2.130   1.714   7.197
 4192SOL    MW417089   2.084   1.777   7.235
 4193SOL     OW17090   2.134   1.096   6.756
 4193SOL    HW217091   2.187   1.171   6.781
 4193SOL    HW317092   2.053   1.134   6.722
 4193SOL    MW417093   2.130   1.111   6.756
 4194SOL     OW17094   2.674   1.000   6.744
 4194SOL    HW217095   2.702   0.909   6.756
 4194SOL    HW317096   2.603   0.994   6.680
 4194SOL    MW417097   2.667   0.988   6.739
 4195SOL     OW17098   1.989   0.865   6.162
 4195SOL    HW217099   2.080   0.880   6.189
 4195SOL    HW317100   1.992   0.786   6.108
 4195SOL    MW417101   2.001   0.857   6.160
 4196SOL     OW17102   2.225   0.573   7.416
 4196SOL    HW217103   2.172   0.653   7.423
 4196SOL    HW317104   2.295   0.585   7.481
 4196SOL    MW417105   2.227   0.586   7.424
 4197SOL     OW17106   2.611   0.123   7.123
 4197SOL    HW217107   2.588   0.031   7.125
 4197SOL    HW317108   2.697   0.125   7.080
 4197SOL    MW417109   2.618   0.113   7.119
 4198SOL     OW17110   2.295   0.647   7.162
 4198SOL    HW217111   2.375   0.697   7.148
 4198SOL    HW317112   2.286   0.641   7.257
 4198SOL    MW417113   2.304   0.653   7.172
 4199SOL     OW17114   2.616   1.797   6.536
 4199SOL    HW217115   2.705   1.812   6.566
 4199SOL    HW317116   2.611   1.844   6.452
 4199SOL    MW417117   2.626   1.805   6.529
 4200SOL     OW17118   3.272   0.172   7.433
 4200SOL    HW217119   3.328   0.099   7.459
 4200SOL    HW317120   3.242   0.210   7.515
 4200SOL    MW417121   3.276   0.167   7.446
 4201SOL     OW17122   1.997   1.477   6.201
 4201SOL    HW217123   1.969   1.516   6.283
 4201SOL    HW317124   2.017   1.386   6.223
 4201SOL    MW417125   1.995   1.469   6.214
 4202SOL     OW17126   2.830   1.520   6.236
 4202SOL    HW217127   2.913   1.474   6.220
 4202SOL    HW317128   2.820   1.519   6.332
 4202SOL    MW417129   2.840   1.513   6.246
 4203SOL     OW17130   3.662   0.665   6.550
 4203SOL    HW217131   3.751   0.695   6.532
 4203SOL    HW317132   3.642   0.605   6.479
 4203SOL    MW417133   3.671   0.662   6.539
 4204SOL     OW17134   3.513   0.844   7.430
 4204SOL    HW217135   3.568   0.768   7.411
 4204SOL    HW317136   3.515   0.852   7.525
 4204SOL    MW417137   3.521   0.835   7.438
 4205SOL     OW17138   2.563   1.577   5.641
 4205SOL    HW217139   2.503   1.646   5.611
 4205SOL    HW317140   2.508   1.519   5.694
 4205SOL    MW417141   2.547   1.579   5.643
 4206SOL     OW17142   3.001   0.222   5.864
 4206SOL    HW217143   2.934   0.198   5.801
 4206SOL    HW317144   3.066   0.271   5.813
 4206SOL    MW417145   3.001   0.224   5.849
 4207SOL     OW17146   2.808   0.406   6.949
 4207SOL    HW217147   2.727   0.447   6.977
 4207SOL    HW317148   2.855   0.474   6.901
 4207SOL    MW417149   2.803   0.421   6.947
 4208SOL     OW17150   3.068   0.744   6.572
 4208SOL    HW217151   3.081   0.838   6.582
 4208SOL    HW317152   3.029   0.734   6.486
 4208SOL    MW417153   3.064   0.755   6.562
 4209SOL     OW17154   2.520   0.939   6.376
 4209SOL    HW217155   2.431   0.930   6.409
 4209SOL    HW317156   2.524   1.029   6.344
 4209SOL    MW417157   2.509   0.950   6.376
 4210SOL     OW17158   3.319   0.522   6.371
 4210SOL    HW217159   3.264   0.443   6.370
 4210SOL    HW317160   3.301   0.563   6.455
 4210SOL    MW417161   3.309   0.517   6.380
 4211SOL     OW17162   2.290   0.209   7.188
 4211SOL    HW217163   2.211   0.227   7.240
 4211SOL    HW317164   2.285   0.271   7.115
 4211SOL    MW417165   2.280   0.219   7.185
 4212SOL     OW17166   2.938   0.726   6.328
 4212SOL    HW217167   2.875   0.658   6.352
 4212SOL    HW317168   2.958   0.707   6.236
 4212SOL    MW417169   2.932   0.713   6.320
 4213SOL     OW17170   2.194   1.621   6.030
 4213SOL    HW217171   2.155   1.668   5.956
 4213SOL    HW317172   2.128   1.556   6.055
 4213SOL    MW417173   2.181   1.619   6.024
 4214SOL     OW17174   2.686   1.030   6.054
 4214SOL    HW217175   2.688   1.004   5.961
 4214SOL    HW317176   2.744   0.967   6.097
 4214SOL    MW417177   2.694   1.019   6.048
 4215SOL     OW17178   3.239   1.590   6.826
 4215SOL    HW217179   3.164   1.636   6.864
 4215SOL    HW317180   3.221   1.497   6.843
 4215SOL    MW417181   3.228   1.584   6.834
 4216SOL     OW17182   3.243   1.798   6.256
 4216SOL    HW217183   3.186   1.751   6.195
 4216SOL    HW317184   3.329   1.759   6.243
 4216SOL    MW417185   3.246   1.789   6.246
 4217SOL     OW17186   3.196   0.274   6.387
 4217SOL    HW217187   3.224   0.206   6.448
 4217SOL    HW317188   3.110   0.245   6.357
 4217SOL    MW417189   3.189   0.261   6.391
 4218SOL     OW17190   2.001   1.208   6.321
 4218SOL    HW217191   2.065   1.240   6.384
 4218SOL    HW317192   2.050   1.144   6.269
 4218SOL    MW417193   2.016   1.204   6.322
 4219SOL     OW17194   2.501   1.284   7.303
 4219SOL    HW217195   2.549   1.367   7.290
 4219SOL    HW317196   2.558   1.232   7.359
 4219SOL    MW417197   2.515   1.288   7.309
 4220SOL     OW17198   2.077   1.526   7.443
 4220SOL    HW217199   2.133   1.450   7.458
 4220SOL    HW317200   2.026   1.504   7.365
 4220SOL    MW417201   2.077   1.513   7.434
 4221SOL     OW17202   3.176   0.378   5.722
 4221SOL    HW217203   3.149   0.444   5.658
 4221SOL    HW317204   3.246   0.421   5.772
 4221SOL    MW417205   3.181   0.391   5.719
 4222SOL     OW17206   2.844   0.083   5.659
 4222SOL    HW217207   2.900   0.075   5.581
 4222SOL    HW317208   2.821  -0.007   5.681
 4222SOL    MW417209   2.849   0.070   5.652
 4223SOL     OW17210   3.349   0.934   5.864
 4223SOL    HW217211   3.316   1.023   5.854
 4223SOL    HW317212   3.314   0.905   5.949
 4223SOL    MW417213   3.339   0.943   5.875
 4224SOL     OW17214   2.962   1.363   7.052
 4224SOL    HW217215   2.873   1.369   7.020
 4224SOL    HW317216   3.006   1.442   7.020
 4224SOL    MW417217   2.957   1.373   7.044
 4225SOL     OW17218   2.255   0.031   7.394
 4225SOL    HW217219   2.183  -0.004   7.342
 4225SOL    HW317220   2.313   0.072   7.329
 4225SOL    MW417221   2.253   0.032   7.379
 4226SOL     OW17222   2.279   1.521   6.693
 4226SOL    HW217223   2.324   1.583   6.750
 4226SOL    HW317224   2.186   1.540   6.706
 4226SOL    MW417225   2.272   1.531   6.700
 4227SOL     OW17226   3.719   1.050   7.047
 4227SOL    HW217227   3.634   1.063   7.006
 4227SOL    HW317228   3.699   1.014   7.134
 4227SOL    MW417229   3.706   1.046   7.052
 4228SOL     OW17230   2.701   1.589   6.801
 4228SOL    HW217231   2.725   1.578   6.710
 4228SOL    HW317232   2.624   1.646   6.799
 4228SOL    MW417233   2.693   1.594   6.790
 4229SOL     OW17234   2.343   0.972   5.656
 4229SOL    HW217235   2.266   0.985   5.712
 4229SOL    HW317236   2.307   0.936   5.575
 4229SOL    MW417237   2.329   0.968   5.653
 4230SOL     OW17238   2.996   0.945   5.899
 4230SOL    HW217239   2.906   0.966   5.874
 4230SOL    HW317240   3.023   1.018   5.955
 4230SOL    MW417241   2.988   0.957   5.902
 4231SOL     OW17242   2.496   1.294   6.591
 4231SOL    HW217243   2.489   1.273   6.685
 4231SOL    HW317244   2.414   1.262   6.554
 4231SOL    MW417245   2.484   1.288   6.598
 4232SOL     OW17246   3.360   0.304   6.993
 4232SOL    HW217247   3.307   0.306   7.073
 4232SOL    HW317248   3.345   0.217   6.956
 4232SOL    MW417249   3.352   0.294   6.998
 4233SOL     OW17250   3.696   0.228   6.866
 4233SOL    HW217251   3.677   0.295   6.801
 4233SOL    HW317252   3.753   0.166   6.821
 4233SOL    MW417253   3.700   0.229   6.852
 4234SOL     OW17254   1.942   1.386   7.254
 4234SOL    HW217255   1.986   1.319   7.200
 4234SOL    HW317256   1.857   1.348   7.274
 4234SOL    MW417257   1.937   1.372   7.250
 4235SOL     OW17258   2.625   0.061   6.306
 4235SOL    HW217259   2.554   0.122   6.288
 4235SOL    HW317260   2.676   0.058   6.225
 4235SOL    MW417261   2.621   0.067   6.293
 4236SOL     OW17262   2.383   1.301   6.055
 4236SOL    HW217263   2.376   1.333   6.145
 4236SOL    HW317264   2.293   1.285   6.027
 4236SOL    MW417265   2.371   1.303   6.062
 4237SOL     OW17266   2.978   1.694   6.964
 4237SOL    HW217267   2.898   1.679   6.914
 4237SOL    HW317268   2.985   1.789   6.971
 4237SOL    MW417269   2.969   1.705   6.958
 4238SOL     OW17270   3.092   1.659   6.454
 4238SOL    HW217271   3.139   1.732   6.413
 4238SOL    HW317272   3.013   1.698   6.490
 4238SOL    MW417273   3.087   1.674   6.453
 4239SOL     OW17274   3.500   1.754   6.729
 4239SOL    HW217275   3.543   1.724   6.809
 4239SOL    HW317276   3.419   1.702   6.726
 4239SOL    MW417277   3.495   1.743   6.739
 4240SOL     OW17278   2.585   0.718   7.436
 4240SOL    HW217279   2.655   0.660   7.408
 4240SOL    HW317280   2.528   0.663   7.491
 4240SOL    MW417281   2.587   0.705   7.440
 4241SOL     OW17282   3.372   0.930   7.069
 4241SOL    HW217283   3.377   0.983   7.149
 4241SOL    HW317284   3.334   0.847   7.097
 4241SOL    MW417285   3.368   0.925   7.084
 4242SOL     OW17286   3.012   0.065   7.315
 4242SOL    HW217287   3.007  -0.028   7.296
 4242SOL    HW317288   3.095   0.076   7.361
 4242SOL    MW417289   3.020   0.054   7.319
 4243SOL     OW17290   2.386   0.585   5.769
 4243SOL    HW217291   2.352   0.641   5.839
 4243SOL    HW317292   2.457   0.535   5.809
 4243SOL    MW417293   2.392   0.586   5.783
 4244SOL     OW17294   3.482   1.336   6.591
 4244SOL    HW217295   3.517   1.318   6.504
 4244SOL    HW317296   3.387   1.337   6.578
 4244SOL    MW417297   3.474   1.333   6.578
 4245SOL     OW17298   2.911   0.984   6.960
 4245SOL    HW217299   2.954   1.019   7.038
 4245SOL    HW317300   2.894   1.061   6.906
 4245SOL    MW417301   2.914   0.999   6.963
 4246SOL     OW17302   3.442   0.471   5.833
 4246SOL    HW217303   3.434   0.542   5.770
 4246SOL    HW317304   3.460   0.515   5.916
 4246SOL    MW417305   3.443   0.485   5.835
 4247SOL     OW17306   2.302   0.126   6.262
 4247SOL    HW217307   2.352   0.169   6.193
 4247SOL    HW317308   2.217   0.170   6.262
 4247SOL    MW417309   2.299   0.139   6.253
 4248SOL     OW17310   2.061   1.188   7.122
 4248SOL    HW217311   2.089   1.141   7.200
 4248SOL    HW317312   1.982   1.143   7.093
 4248SOL    MW417313   2.054   1.177   7.128
 4249SOL     OW17314   2.569   0.515   7.089
 4249SOL    HW217315   2.541   0.603   7.113
 4249SOL    HW317316   2.538   0.459   7.160
 4249SOL    MW417317   2.561   0.518   7.101
 4250SOL     OW17318   3.111   0.733   5.808
 4250SOL    HW217319   3.158   0.751   5.727
 4250SOL    HW317320   3.077   0.817   5.836
 4250SOL    MW417321   3.113   0.747   5.801
 4251SOL     OW17322   2.224   0.911   6.302
 4251SOL    HW217323   2.282   0.967   6.250
 4251SOL    HW317324   2.268   0.826   6.304
 4251SOL    MW417325   2.237   0.908   6.295
 4252SOL     OW17326   3.364   0.263   6.139
 4252SOL    HW217327   3.286   0.213   6.164
 4252SOL    HW317328   3.335   0.354   6.139
 4252SOL    MW417329   3.350   0.267   6.142
 4253SOL     OW17330   2.950   0.225   6.298
 4253SOL    HW217331   2.970   0.300   6.242
 4253SOL    HW317332   2.930   0.264   6.383
 4253SOL    MW417333   2.951   0.241   6.302
 4254SOL     OW17334   2.846   1.475   5.630
 4254SOL    HW217335   2.873   1.553   5.582
 4254SOL    HW317336   2.753   1.490   5.649
 4254SOL    MW417337   2.837   1.488   5.626
 4255SOL     OW17338   3.710   0.998   7.317
 4255SOL    HW217339   3.623   0.978   7.353
 4255SOL    HW317340   3.764   0.924   7.342
 4255SOL    MW417341   3.705   0.987   7.325
 4256SOL     OW17342   1.931   1.511   6.474
 4256SOL    HW217343   1.963   1.515   6.565
 4256SOL    HW317344   1.836   1.519   6.482
 4256SOL    MW417345   1.923   1.514   6.487
 4257SOL     OW17346   1.886   0.637   6.021
 4257SOL    HW217347   1.826   0.609   6.091
 4257SOL    HW317348   1.960   0.577   6.027
 4257SOL    MW417349   1.888   0.626   6.030
 4258SOL     OW17350   3.454   1.849   7.455
 4258SOL    HW217351   3.499   1.773   7.420
 4258SOL    HW317352   3.492   1.862   7.542
 4258SOL    MW417353   3.464   1.842   7.461
 4259SOL     OW17354   3.054   1.368   6.181
 4259SOL    HW217355   3.077   1.319   6.259
 4259SOL    HW317356   3.135   1.410   6.153
 4259SOL    MW417357   3.067   1.368   6.188
 4260SOL     OW17358   2.312   0.376   6.910
 4260SOL    HW217359   2.345   0.457   6.950
 4260SOL    HW317360   2.285   0.402   6.822
 4260SOL    MW417361   2.311   0.390   6.904
 4261SOL     OW17362   2.266   0.343   6.646
 4261SOL    HW217363   2.296   0.257   6.617
 4261SOL    HW317364   2.171   0.336   6.649
 4261SOL    MW417365   2.258   0.332   6.644
 4262SOL     OW17366   3.095   0.552   7.337
 4262SOL    HW217367   3.147   0.487   7.290
 4262SOL    HW317368   3.053   0.603   7.267
 4262SOL    MW417369   3.096   0.549   7.320
 4263SOL     OW17370   3.194   0.347   7.198
 4263SOL    HW217371   3.101   0.331   7.185
 4263SOL    HW317372   3.220   0.285   7.266
 4263SOL    MW417373   3.184   0.337   7.205
 4264SOL     OW17374   2.409   0.121   6.537
 4264SOL    HW217375   2.419   0.030   6.563
 4264SOL    HW317376   2.365   0.117   6.452
 4264SOL    MW417377   2.405   0.109   6.529
 4265SOL     OW17378   2.503   1.736   7.083
 4265SOL    HW217379   2.420   1.721   7.128
 4265SOL    HW317380   2.562   1.669   7.118
 4265SOL    MW417381   2.501   1.726   7.093
 4266SOL     OW17382   3.560   0.443   6.708
 4266SOL    HW217383   3.493   0.476   6.768
 4266SOL    HW317384   3.603   0.521   6.674
 4266SOL    MW417385   3.558   0.458   6.712
 4267SOL     OW17386   3.738   1.163   6.678
 4267SOL    HW217387   3.731   1.103   6.603
 4267SOL    HW317388   3.664   1.223   6.667
 4267SOL    MW417389   3.728   1.163   6.667
 4268SOL     OW17390   3.120   1.025   6.596
 4268SOL    HW217391   3.134   0.997   6.687
 4268SOL    HW317392   3.206   1.056   6.568
 4268SOL    MW417393   3.133   1.026   6.605
 4269SOL     OW17394   3.203   0.520   6.875
 4269SOL    HW217395   3.224   0.521   6.782
 4269SOL    HW317396   3.248   0.442   6.908
 4269SOL    MW417397   3.210   0.510   6.867
 4270SOL     OW17398   3.696   0.651   7.417
 4270SOL    HW217399   3.733   0.596   7.486
 4270SOL    HW317400   3.721   0.608   7.335
 4270SOL    MW417401   3.703   0.639   7.416
 4271SOL     OW17402   3.243   0.949   7.468
 4271SOL    HW217403   3.309   0.897   7.422
 4271SOL    HW317404   3.263   0.936   7.561
 4271SOL    MW417405   3.254   0.940   7.475
 4272SOL     OW17406   3.194   0.035   5.817
 4272SOL    HW217407   3.268   0.079   5.860
 4272SOL    HW317408   3.118   0.089   5.839
 4272SOL    MW417409   3.194   0.047   5.825
 4273SOL     OW17410   3.254   0.810   6.095
 4273SOL    HW217411   3.169   0.780   6.065
 4273SOL    HW317412   3.246   0.817   6.190
 4273SOL    MW417413   3.242   0.808   6.104
 4274SOL     OW17414   2.330   1.273   6.826
 4274SOL    HW217415   2.342   1.300   6.917
 4274SOL    HW317416   2.311   1.354   6.779
 4274SOL    MW417417   2.329   1.288   6.831
 4275SOL     OW17418   2.614   0.253   6.649
 4275SOL    HW217419   2.587   0.255   6.740
 4275SOL    HW317420   2.544   0.205   6.604
 4275SOL    MW417421   2.602   0.249   6.656
 4276SOL     OW17422   2.468   1.745   6.811
 4276SOL    HW217423   2.520   1.822   6.788
 4276SOL    HW317424   2.477   1.737   6.906
 4276SOL    MW417425   2.477   1.752   6.822
 4277SOL     OW17426   3.370   1.330   7.043
 4277SOL    HW217427   3.355   1.259   7.106
 4277SOL    HW317428   3.416   1.288   6.971
 4277SOL    MW417429   3.376   1.314   7.043
 4278SOL     OW17430   2.444   1.061   7.160
 4278SOL    HW217431   2.481   1.066   7.072
 4278SOL    HW317432   2.483   1.134   7.207
 4278SOL    MW417433   2.454   1.071   7.155
 4279SOL     OW17434   2.624   1.104   6.972
 4279SOL    HW217435   2.683   1.050   7.025
 4279SOL    HW317436   2.639   1.076   6.882
 4279SOL    MW417437   2.634   1.093   6.968
 4280SOL     OW17438   2.627   0.476   5.821
 4280SOL    HW217439   2.700   0.525   5.784
 4280SOL    HW317440   2.643   0.385   5.795
 4280SOL    MW417441   2.639   0.471   5.814
 4281SOL     OW17442   3.435   1.593   7.144
 4281SOL    HW217443   3.477   1.578   7.229
 4281SOL    HW317444   3.426   1.506   7.106
 4281SOL    MW417445   3.439   1.581   7.151
 4282SOL     OW17446   3.095   0.072   6.735
 4282SOL    HW217447   3.150   0.081   6.657
 4282SOL    HW317448   3.150   0.106   6.806
 4282SOL    MW417449   3.109   0.077   6.734
 4283SOL     OW17450   2.102   0.985   5.919
 4283SOL    HW217451   2.039   1.001   5.848
 4283SOL    HW317452   2.049   0.948   5.990
 4283SOL    MW417453   2.087   0.982   5.919
 4284SOL     OW17454   2.458   1.339   5.778
 4284SOL    HW217455   2.473   1.315   5.870
 4284SOL    HW317456   2.366   1.317   5.762
 4284SOL    MW417457   2.448   1.332   5.788
 4285SOL     OW17458   2.997   1.570   5.930
 4285SOL    HW217459   3.005   1.488   5.881
 4285SOL    HW317460   2.916   1.609   5.897
 4285SOL    MW417461   2.987   1.565   5.920
 4286SOL     OW17462   2.256   1.728   6.499
 4286SOL    HW217463   2.260   1.639   6.534
 4286SOL    HW317464   2.282   1.719   6.408
 4286SOL    MW417465   2.259   1.716   6.491
 4287SOL     OW17466   2.873   1.206   6.742
 4287SOL    HW217467   2.805   1.140   6.758
 4287SOL    HW317468   2.891   1.200   6.649
 4287SOL    MW417469   2.866   1.197   6.733
 4288SOL     OW17470   1.962   1.481   6.993
 4288SOL    HW217471   1.952   1.439   7.079
 4288SOL    HW317472   1.883   1.534   6.983
 4288SOL    MW417473   1.951   1.482   7.004
 4289SOL     OW17474   2.866   0.345   6.563
 4289SOL    HW217475   2.796   0.297   6.608
 4289SOL    HW317476   2.898   0.408   6.627
 4289SOL    MW417477   2.861   0.347   6.577
 4290SOL     OW17478   2.517   0.781   7.183
 4290SOL    HW217479   2.510   0.876   7.171
 4290SOL    HW317480   2.526   0.770   7.278
 4290SOL    MW417481   2.518   0.793   7.193
 4291SOL     OW17482   2.238   1.296   7.441
 4291SOL    HW217483   2.310   1.298   7.378
 4291SOL    HW317484   2.208   1.205   7.440
 4291SOL    MW417485   2.243   1.285   7.433
 4292SOL     OW17486   3.322   0.059   6.908
 4292SOL    HW217487   3.393   0.005   6.872
 4292SOL    HW317488   3.321   0.038   7.001
 4292SOL    MW417489   3.331   0.050   6.916
 4293SOL     OW17490   3.522   1.589   7.392
 4293SOL    HW217491   3.495   1.586   7.483
 4293SOL    HW317492   3.618   1.593   7.395
 4293SOL    MW417493   3.532   1.589   7.404
 4294SOL     OW17494   2.333   0.451   6.376
 4294SOL    HW217495   2.404   0.399   6.339
 4294SOL    HW317496   2.319   0.416   6.463
 4294SOL    MW417497   2.341   0.440   6.383
 4295SOL     OW17498   1.888   1.786   7.448
 4295SOL    HW217499   1.938   1.764   7.370
 4295SOL    HW317500   1.896   1.881   7.456
 4295SOL    MW417501   1.896   1.795   7.439
 4296SOL     OW17502   2.649   1.544   6.452
 4296SOL    HW217503   2.577   1.481   6.465
 4296SOL    HW317504   2.610   1.629   6.470
 4296SOL    MW417505   2.633   1.547   6.455
 4297SOL     OW17506   2.969   0.392   6.100
 4297SOL    HW217507   2.991   0.329   6.032
 4297SOL    HW317508   2.874   0.384   6.111
 4297SOL    MW417509   2.959   0.383   6.092
 4298SOL     OW17510   2.054   0.082   6.032
 4298SOL    HW217511   2.125   0.103   5.971
 4298SOL    HW317512   2.008   0.010   5.990
 4298SOL    MW417513   2.058   0.076   6.018
 4299SOL     OW17514   1.885   0.549   7.175
 4299SOL    HW217515   1.949   0.615   7.150
 4299SOL    HW317516   1.804   0.576   7.132
 4299SOL    MW417517   1.883   0.561   7.167
 4300SOL     OW17518   3.623   1.456   6.132
 4300SOL    HW217519   3.593   1.389   6.193
 4300SOL    HW317520   3.717   1.462   6.146
 4300SOL    MW417521   3.631   1.448   6.142
 4301SOL     OW17522   3.179   1.133   6.062
 4301SOL    HW217523   3.151   1.219   6.095
 4301SOL    HW317524   3.207   1.149   5.972
 4301SOL    MW417525   3.179   1.147   6.054
 4302SOL     OW17526   2.841   0.053   6.115
 4302SOL    HW217527   2.878   0.112   6.180
 4302SOL    HW317528   2.818   0.109   6.041
 4302SOL    MW417529   2.842   0.068   6.114
 4303SOL     OW17530   3.694   0.935   6.537
 4303SOL    HW217531   3.685   0.967   6.448
 4303SOL    HW317532   3.647   0.851   6.537
 4303SOL    MW417533   3.687   0.928   6.527
 4304SOL     OW17534   2.070   0.775   7.116
 4304SOL    HW217535   2.091   0.844   7.054
 4304SOL    HW317536   2.150   0.722   7.121
 4304SOL    MW417537   2.083   0.776   7.110
 4305SOL     OW17538   3.606   0.866   6.238
 4305SOL    HW217539   3.700   0.855   6.226
 4305SOL    HW317540   3.582   0.938   6.179
 4305SOL    MW417541   3.616   0.874   6.229
 4306SOL     OW17542   2.055   0.790   7.383
 4306SOL    HW217543   1.981   0.734   7.409
 4306SOL    HW317544   2.050   0.793   7.288
 4306SOL    MW417545   2.044   0.783   7.373
 4307SOL     OW17546   2.221   0.077   6.833
 4307SOL    HW217547   2.264   0.161   6.853
 4307SOL    HW317548   2.294   0.015   6.826
 4307SOL    MW417549   2.236   0.080   6.834
 4308SOL     OW17550   2.262   0.744   6.011
 4308SOL    HW217551   2.262   0.839   5.996
 4308SOL    HW317552   2.339   0.728   6.065
 4308SOL    MW417553   2.272   0.755   6.016
 4309SOL     OW17554   3.038   0.603   7.075
 4309SOL    HW217555   3.074   0.576   6.991
 4309SOL    HW317556   2.951   0.637   7.054
 4309SOL    MW417557   3.032   0.604   7.062
 4310SOL     OW17558   2.021   0.475   6.300
 4310SOL    HW217559   2.083   0.482   6.373
 4310SOL    HW317560   2.021   0.382   6.277
 4310SOL    MW417561   2.029   0.464   6.307
 4311SOL     OW17562   3.568   1.815   5.832
 4311SOL    HW217563   3.635   1.848   5.772
 4311SOL    HW317564   3.525   1.894   5.866
 4311SOL    MW417565   3.570   1.830   5.828
 4312SOL     OW17566   2.703   0.736   6.784
 4312SOL    HW217567   2.661   0.654   6.760
 4312SOL    HW317568   2.704   0.735   6.880
 4312SOL    MW417569   2.696   0.725   6.793
 4313SOL     OW17570   3.374   1.869   7.183
 4313SOL    HW217571   3.377   1.775   7.166
 4313SOL    HW317572   3.397   1.877   7.275
 4313SOL    MW417573   3.377   1.857   7.193
 4314SOL     OW17574   2.507   0.206   6.889
 4314SOL    HW217575   2.438   0.269   6.910
 4314SOL    HW317576   2.534   0.170   6.974
 4314SOL    MW417577   2.501   0.209   6.902
 4315SOL     OW17578   1.890   1.047   5.758
 4315SOL    HW217579   1.859   1.112   5.821
 4315SOL    HW317580   1.839   0.969   5.777
 4315SOL    MW417581   1.880   1.044   5.768
 4316SOL     OW17582   3.302   0.059   6.506
 4316SOL    HW217583   3.390   0.068   6.543
 4316SOL    HW317584   3.312   0.000   6.432
 4316SOL    MW417585   3.316   0.053   6.500
 4317SOL     OW17586   3.334   0.798   6.350
 4317SOL    HW217587   3.414   0.813   6.299
 4317SOL    HW317588   3.327   0.703   6.356
 4317SOL    MW417589   3.343   0.787   6.345
 4318SOL     OW17590   2.474   1.847   5.700
 4318SOL    HW217591   2.379   1.847   5.692
 4318SOL    HW317592   2.490   1.793   5.778
 4318SOL    MW417593   2.464   1.841   5.709
 4319SOL     OW17594   2.784   0.724   7.047
 4319SOL    HW217595   2.853   0.791   7.044
 4319SOL    HW317596   2.717   0.762   7.103
 4319SOL    MW417597   2.785   0.737   7.054
 4320SOL     OW17598   2.202   1.024   7.295
 4320SOL    HW217599   2.156   0.940   7.297
 4320SOL    HW317600   2.259   1.018   7.219
 4320SOL    MW417601   2.204   1.012   7.287
 4321SOL     OW17602   3.319   0.667   5.615
 4321SOL    HW217603   3.247   0.643   5.557
 4321SOL    HW317604   3.385   0.704   5.557
 4321SOL    MW417605   3.318   0.669   5.600
 4322SOL     OW17606   2.453   1.399   6.296
 4322SOL    HW217607   2.518   1.332   6.317
 4322SOL    HW317608   2.505   1.476   6.273
 4322SOL    MW417609   2.468   1.401   6.295
 4323SOL     OW17610   2.714   0.564   6.426
 4323SOL    HW217611   2.654   0.582   6.498
 4323SOL    HW317612   2.748   0.476   6.445
 4323SOL    MW417613   2.710   0.554   6.439
 4324SOL     OW17614   3.655   0.063   7.095
 4324SOL    HW217615   3.576   0.109   7.123
 4324SOL    HW317616   3.690   0.117   7.024
 4324SOL    MW417617   3.649   0.076   7.089
 4325SOL     OW17618   2.939   1.147   6.445
 4325SOL    HW217619   3.031   1.128   6.463
 4325SOL    HW317620   2.912   1.077   6.385
 4325SOL    MW417621   2.947   1.135   6.439
 4326SOL     OW17622   2.732   0.967   5.800
 4326SOL    HW217623   2.718   0.879   5.765
 4326SOL    HW317624   2.683   1.024   5.741
 4326SOL    MW417625   2.724   0.962   5.788
 4327SOL     OW17626   3.213   1.385   6.541
 4327SOL    HW217627   3.186   1.469   6.506
 4327SOL    HW317628   3.173   1.380   6.628
 4327SOL    MW417629   3.206   1.394   6.547
 4328SOL     OW17630   3.132   1.333   6.809
 4328SOL    HW217631   3.143   1.300   6.898
 4328SOL    HW317632   3.051   1.292   6.778
 4328SOL    MW417633   3.122   1.325   6.815
 4329SOL     OW17634   2.145   0.691   6.579
 4329SOL    HW217635   2.095   0.690   6.660
 4329SOL    HW317636   2.165   0.783   6.563
 4329SOL    MW417637   2.141   0.703   6.587
 4330SOL     OW17638   3.212   1.455   7.341
 4330SOL    HW217639   3.212   1.549   7.357
 4330SOL    HW317640   3.257   1.445   7.257
 4330SOL    MW417641   3.218   1.465   7.332
 4331SOL     OW17642   3.451   0.173   5.902
 4331SOL    HW217643   3.444   0.177   5.997
 4331SOL    HW317644   3.463   0.264   5.875
 4331SOL    MW417645   3.452   0.186   5.910
 4332SOL     OW17646   2.740   0.736   6.016
 4332SOL    HW217647   2.720   0.722   5.923
 4332SOL    HW317648   2.833   0.715   6.023
 4332SOL    MW417649   2.750   0.731   6.005
 4333SOL     OW17650   2.067   0.359   7.320
 4333SOL    HW217651   2.024   0.418   7.257
 4333SOL    HW317652   2.135   0.414   7.360
 4333SOL    MW417653   2.071   0.374   7.317
 4334SOL     OW17654   3.179   0.979   6.865
 4334SOL    HW217655   3.242   0.976   6.938
 4334SOL    HW317656   3.095   0.997   6.907
 4334SOL    MW417657   3.175   0.981   6.880
 4335SOL     OW17658   2.723   1.694   6.054
 4335SOL    HW217659   2.781   1.765   6.081
 4335SOL    HW317660   2.746   1.622   6.112
 4335SOL    MW417661   2.734   1.694   6.065
 4336SOL     OW17662   3.518   0.156   6.644
 4336SOL    HW217663   3.563   0.074   6.663
 4336SOL    HW317664   3.538   0.212   6.720
 4336SOL    MW417665   3.528   0.152   6.656
 4337SOL     OW17666   1.966  -0.001   6.743
 4337SOL    HW217667   1.957   0.000   6.648
 4337SOL    HW317668   2.060   0.011   6.758
 4337SOL    MW417669   1.978   0.002   6.734
 4338SOL     OW17670   3.603   1.192   6.363
 4338SOL    HW217671   3.582   1.138   6.286
 4338SOL    HW317672   3.699   1.190   6.367
 4338SOL    MW417673   3.612   1.185   6.352
 4339SOL     OW17674   2.295   1.337   7.106
 4339SOL    HW217675   2.216   1.287   7.129
 4339SOL    HW317676   2.365   1.296   7.156
 4339SOL    MW417677   2.293   1.325   7.116
 4340SOL     OW17678   2.179   0.126   5.789
 4340SOL    HW217679   2.108   0.181   5.757
 4340SOL    HW317680   2.221   0.092   5.710
 4340SOL    MW417681   2.175   0.128   5.775
 4341SOL     OW17682   3.303   0.623   6.625
 4341SOL    HW217683   3.226   0.669   6.591
 4341SOL    HW317684   3.360   0.692   6.659
 4341SOL    MW417685   3.300   0.638   6.625
 4342SOL     OW17686   1.935   0.225   5.638
 4342SOL    HW217687   1.902   0.304   5.682
 4342SOL    HW317688   1.990   0.258   5.567
 4342SOL    MW417689   1.938   0.239   5.635
 4343SOL     OW17690   1.969   1.482   5.827
 4343SOL    HW217691   1.986   1.566   5.869
 4343SOL    HW317692   2.004   1.491   5.739
 4343SOL    MW417693   1.974   1.495   5.821
 4344SOL     OW17694   3.241   1.571   6.044
 4344SOL    HW217695   3.304   1.561   5.973
 4344SOL    HW317696   3.158   1.591   5.999
 4344SOL    MW417697   3.238   1.572   6.029
 4345SOL     OW17698   3.604   2.707   0.257
 4345SOL    HW217699   3.645   2.649   0.322
 4345SOL    HW317700   3.511   2.699   0.274
 4345SOL    MW417701   3.598   2.699   0.267
 4346SOL     OW17702   3.470   2.639   1.252
 4346SOL    HW217703   3.425   2.706   1.303
 4346SOL    HW317704   3.558   2.675   1.238
 4346SOL    MW417705   3.476   2.652   1.256
 4347SOL     OW17706   2.398   2.890   0.486
 4347SOL    HW217707   2.488   2.865   0.470
 4347SOL    HW317708   2.394   2.983   0.463
 4347SOL    MW417709   2.410   2.899   0.481
 4348SOL     OW17710   3.514   3.593   0.628
 4348SOL    HW217711   3.526   3.539   0.706
 4348SOL    HW317712   3.551   3.541   0.557
 4348SOL    MW417713   3.520   3.578   0.629
 4349SOL     OW17714   2.893   3.478   1.629
 4349SOL    HW217715   2.934   3.514   1.550
 4349SOL    HW317716   2.928   3.389   1.636
 4349SOL    MW417717   2.904   3.471   1.620
 4350SOL     OW17718   3.450   3.033   1.233
 4350SOL    HW217719   3.371   2.998   1.191
 4350SOL    HW317720   3.477   3.105   1.177
 4350SOL    MW417721   3.443   3.038   1.220
 4351SOL     OW17722   2.682   2.346   0.499
 4351SOL    HW217723   2.657   2.434   0.527
 4351SOL    HW317724   2.679   2.349   0.403
 4351SOL    MW417725   2.678   2.358   0.491
 4352SOL     OW17726   2.124   2.374   0.427
 4352SOL    HW217727   2.156   2.462   0.409
 4352SOL    HW317728   2.112   2.372   0.522
 4352SOL    MW417729   2.127   2.386   0.439
 4353SOL     OW17730   2.202   2.787   1.328
 4353SOL    HW217731   2.265   2.734   1.279
 4353SOL    HW317732   2.183   2.861   1.271
 4353SOL    MW417733   2.208   2.789   1.315
 4354SOL     OW17734   2.523   2.129   0.514
 4354SOL    HW217735   2.581   2.205   0.516
 4354SOL    HW317736   2.458   2.150   0.447
 4354SOL    MW417737   2.522   2.141   0.505
 4355SOL     OW17738   2.610   3.056   0.689
 4355SOL    HW217739   2.690   3.059   0.741
 4355SOL    HW317740   2.638   3.023   0.603
 4355SOL    MW417741   2.624   3.052   0.684
 4356SOL     OW17742   2.635   3.397   1.592
 4356SOL    HW217743   2.719   3.423   1.631
 4356SOL    HW317744   2.659   3.341   1.518
 4356SOL    MW417745   2.649   3.393   1.587
 4357SOL     OW17746   2.387   2.560   0.680
 4357SOL    HW217747   2.372   2.480   0.731
 4357SOL    HW317748   2.469   2.595   0.714
 4357SOL    MW417749   2.395   2.552   0.692
 4358SOL     OW17750   2.724   3.246   1.365
 4358SOL    HW217751   2.688   3.312   1.305
 4358SOL    HW317752   2.652   3.184   1.378
 4358SOL    MW417753   2.710   3.246   1.359
 4359SOL     OW17754   2.529   2.386   1.057
 4359SOL    HW217755   2.435   2.382   1.075
 4359SOL    HW317756   2.559   2.295   1.066
 4359SOL    MW417757   2.520   2.374   1.060
 4360SOL     OW17758   2.275   2.800   0.961
 4360SOL    HW217759   2.230   2.807   0.877
 4360SOL    HW317760   2.255   2.883   1.005
 4360SOL    MW417761   2.267   2.812   0.955
 4361SOL     OW17762   1.972   3.646   0.836
 4361SOL    HW217763   2.061   3.638   0.871
 4361SOL    HW317764   1.936   3.558   0.841
 4361SOL    MW417765   1.979   3.633   0.841
 4362SOL     OW17766   3.237   3.038   0.205
 4362SOL    HW217767   3.155   3.074   0.171
 4362SOL    HW317768   3.305   3.081   0.154
 4362SOL    MW417769   3.235   3.048   0.193
 4363SOL     OW17770   2.236   3.173   0.871
 4363SOL    HW217771   2.212   3.226   0.947
 4363SOL    HW317772   2.292   3.231   0.819
 4363SOL    MW417773   2.240   3.188   0.874
 4364SOL     OW17774   2.798   2.817   0.681
 4364SOL    HW217775   2.712   2.804   0.721
 4364SOL    HW317776   2.851   2.744   0.713
 4364SOL    MW417777   2.794   2.806   0.690
 4365SOL     OW17778   2.206   3.469   1.466
 4365SOL    HW217779   2.114   3.445   1.451
 4365SOL    HW317780   2.250   3.386   1.483
 4365SOL    MW417781   2.200   3.454   1.465
 4366SOL     OW17782   2.789   3.179   0.398
 4366SOL    HW217783   2.766   3.241   0.466
 4366SOL    HW317784   2.746   3.097   0.424
 4366SOL    MW417785   2.781   3.175   0.409
 4367SOL     OW17786   3.662   2.180   0.854
 4367SOL    HW217787   3.599   2.160   0.923
 4367SOL    HW317788   3.652   2.109   0.791
 4367SOL    MW417789   3.652   2.167   0.855
 4368SOL     OW17790   2.286   2.152   0.366
 4368SOL    HW217791   2.260   2.114   0.282
 4368SOL    HW317792   2.223   2.222   0.382
 4368SOL    MW417793   2.275   2.155   0.357
 4369SOL     OW17794   2.121   3.113   0.403
 4369SOL    HW217795   2.069   3.181   0.359
 4369SOL    HW317796   2.118   3.039   0.343
 4369SOL    MW417797   2.113   3.112   0.390
 4370SOL     OW17798   2.783   3.576   0.181
 4370SOL    HW217799   2.738   3.592   0.264
 4370SOL    HW317800   2.714   3.541   0.123
 4370SOL    MW417801   2.769   3.573   0.183
 4371SOL     OW17802   3.718   2.349   0.156
 4371SOL    HW217803   3.627   2.351   0.184
 4371SOL    HW317804   3.763   2.411   0.214
 4371SOL    MW417805   3.711   2.357   0.166
 4372SOL     OW17806   3.463   2.952   0.506
 4372SOL    HW217807   3.373   2.952   0.541
 4372SOL    HW317808   3.456   2.998   0.423
 4372SOL    MW417809   3.450   2.958   0.500
 4373SOL     OW17810   3.263   2.587   1.578
 4373SOL    HW217811   3.332   2.525   1.555
 4373SOL    HW317812   3.188   2.561   1.525
 4373SOL    MW417813   3.263   2.574   1.569
 4374SOL     OW17814   2.004   3.467   1.130
 4374SOL    HW217815   1.987   3.413   1.207
 4374SOL    HW317816   1.992   3.557   1.160
 4374SOL    MW417817   2.001   3.471   1.144
 4375SOL     OW17818   2.999   2.974   1.570
 4375SOL    HW217819   2.984   3.067   1.555
 4375SOL    HW317820   3.094   2.964   1.570
 4375SOL    MW417821   3.008   2.984   1.567
 4376SOL     OW17822   2.795   2.398   1.771
 4376SOL    HW217823   2.885   2.399   1.738
 4376SOL    HW317824   2.754   2.323   1.729
 4376SOL    MW417825   2.801   2.388   1.762
 4377SOL     OW17826   3.370   2.930   0.898
 4377SOL    HW217827   3.373   2.864   0.829
 4377SOL    HW317828   3.455   2.973   0.894
 4377SOL    MW417829   3.382   2.926   0.889
 4378SOL     OW17830   2.990   2.533   0.467
 4378SOL    HW217831   3.016   2.557   0.378
 4378SOL    HW317832   2.972   2.440   0.463
 4378SOL    MW417833   2.992   2.525   0.454
 4379SOL     OW17834   3.655   3.153   0.318
 4379SOL    HW217835   3.611   3.194   0.393
 4379SOL    HW317836   3.712   3.221   0.283
 4379SOL    MW417837   3.657   3.167   0.323
 4380SOL     OW17838   2.575   2.202   1.721
 4380SOL    HW217839   2.585   2.128   1.661
 4380SOL    HW317840   2.611   2.171   1.804
 4380SOL    MW417841   2.581   2.188   1.723
 4381SOL     OW17842   2.311   3.569   0.636
 4381SOL    HW217843   2.343   3.657   0.614
 4381SOL    HW317844   2.264   3.541   0.558
 4381SOL    MW417845   2.310   3.577   0.623
 4382SOL     OW17846   3.695   1.931   0.685
 4382SOL    HW217847   3.749   1.882   0.747
 4382SOL    HW317848   3.638   1.865   0.646
 4382SOL    MW417849   3.695   1.915   0.687
 4383SOL     OW17850   2.027   3.629   0.213
 4383SOL    HW217851   2.056   3.719   0.205
 4383SOL    HW317852   1.977   3.612   0.134
 4383SOL    MW417853   2.025   3.637   0.202
 4384SOL     OW17854   2.814   1.884   1.098
 4384SOL    HW217855   2.773   1.962   1.060
 4384SOL    HW317856   2.908   1.902   1.093
 4384SOL    MW417857   2.820   1.896   1.093
 4385SOL     OW17858   3.431   3.437   0.184
 4385SOL    HW217859   3.479   3.506   0.230
 4385SOL    HW317860   3.352   3.481   0.153
 4385SOL    MW417861   3.426   3.451   0.187
 4386SOL     OW17862   2.829   2.562   0.128
 4386SOL    HW217863   2.831   2.509   0.049
 4386SOL    HW317864   2.917   2.599   0.134
 4386SOL    MW417865   2.841   2.561   0.117
 4387SOL     OW17866   3.443   2.488   0.464
 4387SOL    HW217867   3.482   2.488   0.551
 4387SOL    HW317868   3.384   2.564   0.464
 4387SOL    MW417869   3.440   2.499   0.475
 4388SOL     OW17870   2.760   2.855   1.593
 4388SOL    HW217871   2.737   2.835   1.683
 4388SOL    HW317872   2.845   2.899   1.598
 4388SOL    MW417873   2.767   2.858   1.605
 4389SOL     OW17874   2.840   1.992   1.353
 4389SOL    HW217875   2.846   1.954   1.266
 4389SOL    HW317876   2.829   2.086   1.338
 4389SOL    MW417877   2.841   2.000   1.341
 4390SOL     OW17878   2.929   2.481   1.187
 4390SOL    HW217879   3.004   2.510   1.134
 4390SOL    HW317880   2.861   2.546   1.171
 4390SOL    MW417881   2.930   2.493   1.177
 4391SOL     OW17882   3.479   2.449   1.464
 4391SOL    HW217883   3.460   2.358   1.443
 4391SOL    HW317884   3.457   2.498   1.385
 4391SOL    MW417885   3.474   2.442   1.451
 4392SOL     OW17886   3.621   3.543   1.368
 4392SOL    HW217887   3.549   3.505   1.419
 4392SOL    HW317888   3.638   3.628   1.409
 4392SOL    MW417889   3.615   3.548   1.380
 4393SOL     OW17890   2.926   2.187   1.570
 4393SOL    HW217891   2.892   2.226   1.489
 4393SOL    HW317892   2.904   2.095   1.563
 4393SOL    MW417893   2.919   2.180   1.560
 4394SOL     OW17894   3.335   3.001   1.646
 4394SOL    HW217895   3.417   3.042   1.676
 4394SOL    HW317896   3.298   2.963   1.726
 4394SOL    MW417897   3.341   3.002   1.661
 4395SOL     OW17898   3.630   2.374   0.630
 4395SOL    HW217899   3.719   2.343   0.647
 4395SOL    HW317900   3.573   2.314   0.678
 4395SOL    MW417901   3.633   2.362   0.639
 4396SOL     OW17902   2.056   2.088   0.659
 4396SOL    HW217903   2.047   2.028   0.585
 4396SOL    HW317904   1.989   2.059   0.722
 4396SOL    MW417905   2.046   2.075   0.657
 4397SOL     OW17906   2.999   3.181   0.220
 4397SOL    HW217907   2.949   3.183   0.302
 4397SOL    HW317908   2.933   3.199   0.152
 4397SOL    MW417909   2.985   3.183   0.222
 4398SOL     OW17910   2.003   2.261   1.022
 4398SOL    HW217911   1.975   2.352   1.031
 4398SOL    HW317912   1.940   2.222   0.961
 4398SOL    MW417913   1.990   2.267   1.016
 4399SOL     OW17914   2.462   3.599   0.328
 4399SOL    HW217915   2.383   3.557   0.361
 4399SOL    HW317916   2.528   3.582   0.395
 4399SOL    MW417917   2.461   3.591   0.341
 4400SOL     OW17918   3.590   3.119   1.725
 4400SOL    HW217919   3.640   3.045   1.757
 4400SOL    HW317920   3.536   3.146   1.800
 4400SOL    MW417921   3.590   3.113   1.738
 4401SOL     OW17922   2.598   3.014   0.035
 4401SOL    HW217923   2.520   2.960   0.022
 4401SOL    HW317924   2.569   3.087   0.088
 4401SOL    MW417925   2.584   3.016   0.040
 4402SOL     OW17926   3.724   2.754   1.227
 4402SOL    HW217927   3.740   2.792   1.140
 4402SOL    HW317928   3.758   2.820   1.288
 4402SOL    MW417929   3.731   2.767   1.223
 4403SOL     OW17930   3.516   3.463   0.896
 4403SOL    HW217931   3.545   3.530   0.957
 4403SOL    HW317932   3.497   3.387   0.951
 4403SOL    MW417933   3.518   3.463   0.911
 4404SOL     OW17934   3.179   3.530   0.103
 4404SOL    HW217935   3.105   3.493   0.153
 4404SOL    HW317936   3.187   3.620   0.136
 4404SOL    MW417937   3.170   3.537   0.115
 4405SOL     OW17938   1.987   2.536   1.192
 4405SOL    HW217939   2.049   2.566   1.258
 4405SOL    HW317940   1.921   2.605   1.186
 4405SOL    MW417941   1.986   2.549   1.199
 4406SOL     OW17942   3.403   3.204   0.045
 4406SOL    HW217943   3.350   3.253  -0.019
 4406SOL    HW317944   3.434   3.270   0.106
 4406SOL    MW417945   3.401   3.218   0.043
 4407SOL     OW17946   2.628   2.093   0.100
 4407SOL    HW217947   2.576   2.013   0.088
 4407SOL    HW317948   2.715   2.070   0.068
 4407SOL    MW417949   2.631   2.079   0.094
 4408SOL     OW17950   2.082   3.645   1.644
 4408SOL    HW217951   2.056   3.713   1.582
 4408SOL    HW317952   2.130   3.582   1.592
 4408SOL    MW417953   2.084   3.645   1.630
 4409SOL     OW17954   2.134   2.964   1.151
 4409SOL    HW217955   2.187   3.039   1.176
 4409SOL    HW317956   2.053   3.002   1.117
 4409SOL    MW417957   2.130   2.979   1.151
 4410SOL     OW17958   2.674   2.868   1.139
 4410SOL    HW217959   2.702   2.777   1.151
 4410SOL    HW317960   2.603   2.862   1.075
 4410SOL    MW417961   2.667   2.856   1.134
 4411SOL     OW17962   1.989   2.733   0.557
 4411SOL    HW217963   2.080   2.748   0.584
 4411SOL    HW317964   1.992   2.654   0.503
 4411SOL    MW417965   2.001   2.725   0.555
 4412SOL     OW17966   2.225   2.441   1.811
 4412SOL    HW217967   2.172   2.521   1.818
 4412SOL    HW317968   2.295   2.453   1.876
 4412SOL    MW417969   2.227   2.454   1.819
 4413SOL     OW17970   2.611   1.991   1.518
 4413SOL    HW217971   2.588   1.899   1.520
 4413SOL    HW317972   2.697   1.993   1.475
 4413SOL    MW417973   2.618   1.981   1.514
 4414SOL     OW17974   2.295   2.515   1.557
 4414SOL    HW217975   2.375   2.565   1.543
 4414SOL    HW317976   2.286   2.509   1.652
 4414SOL    MW417977   2.304   2.521   1.567
 4415SOL     OW17978   2.616   3.665   0.931
 4415SOL    HW217979   2.705   3.680   0.961
 4415SOL    HW317980   2.611   3.712   0.847
 4415SOL    MW417981   2.626   3.673   0.924
 4416SOL     OW17982   3.272   2.040   1.828
 4416SOL    HW217983   3.328   1.967   1.854
 4416SOL    HW317984   3.242   2.078   1.910
 4416SOL    MW417985   3.276   2.035   1.841
 4417SOL     OW17986   1.997   3.345   0.596
 4417SOL    HW217987   1.969   3.384   0.678
 4417SOL    HW317988   2.017   3.254   0.618
 4417SOL    MW417989   1.995   3.337   0.609
 4418SOL     OW17990   2.830   3.388   0.631
 4418SOL    HW217991   2.913   3.342   0.615
 4418SOL    HW317992   2.820   3.387   0.727
 4418SOL    MW417993   2.840   3.381   0.641
 4419SOL     OW17994   3.662   2.533   0.945
 4419SOL    HW217995   3.751   2.563   0.927
 4419SOL    HW317996   3.642   2.473   0.874
 4419SOL    MW417997   3.671   2.530   0.934
 4420SOL     OW17998   3.513   2.712   1.825
 4420SOL    HW217999   3.568   2.636   1.806
 4420SOL    HW318000   3.515   2.720   1.920
 4420SOL    MW418001   3.521   2.703   1.833
 4421SOL     OW18002   2.563   3.445   0.036
 4421SOL    HW218003   2.503   3.514   0.006
 4421SOL    HW318004   2.508   3.387   0.089
 4421SOL    MW418005   2.547   3.447   0.038
 4422SOL     OW18006   3.001   2.090   0.259
 4422SOL    HW218007   2.934   2.066   0.196
 4422SOL    HW318008   3.066   2.139   0.208
 4422SOL    MW418009   3.001   2.092   0.244
 4423SOL     OW18010   2.808   2.274   1.344
 4423SOL    HW218011   2.727   2.315   1.372
 4423SOL    HW318012   2.855   2.342   1.296
 4423SOL    MW418013   2.803   2.289   1.342
 4424SOL     OW18014   3.068   2.612   0.967
 4424SOL    HW218015   3.081   2.706   0.977
 4424SOL    HW318016   3.029   2.602   0.881
 4424SOL    MW418017   3.064   2.623   0.957
 4425SOL     OW18018   2.520   2.807   0.771
 4425SOL    HW218019   2.431   2.798   0.804
 4425SOL    HW318020   2.524   2.897   0.739
 4425SOL    MW418021   2.509   2.818   0.771
 4426SOL     OW18022   3.319   2.390   0.766
 4426SOL    HW218023   3.264   2.311   0.765
 4426SOL    HW318024   3.301   2.431   0.850
 4426SOL    MW418025   3.309   2.385   0.775
 4427SOL     OW18026   2.290   2.077   1.583
 4427SOL    HW218027   2.211   2.095   1.635
 4427SOL    HW318028   2.285   2.139   1.510
 4427SOL    MW418029   2.280   2.087   1.580
 4428SOL     OW18030   2.938   2.594   0.723
 4428SOL    HW218031   2.875   2.526   0.747
 4428SOL    HW318032   2.958   2.575   0.631
 4428SOL    MW418033   2.932   2.581   0.715
 4429SOL     OW18034   2.194   3.489   0.425
 4429SOL    HW218035   2.155   3.536   0.351
 4429SOL    HW318036   2.128   3.424   0.450
 4429SOL    MW418037   2.181   3.487   0.419
 4430SOL     OW18038   2.686   2.898   0.449
 4430SOL    HW218039   2.688   2.872   0.356
 4430SOL    HW318040   2.744   2.835   0.492
 4430SOL    MW418041   2.694   2.887   0.443
 4431SOL     OW18042   3.239   3.458   1.221
 4431SOL    HW218043   3.164   3.504   1.259
 4431SOL    HW318044   3.221   3.365   1.238
 4431SOL    MW418045   3.228   3.452   1.229
 4432SOL     OW18046   3.243   3.666   0.651
 4432SOL    HW218047   3.186   3.619   0.590
 4432SOL    HW318048   3.329   3.627   0.638
 4432SOL    MW418049   3.246   3.657   0.641
 4433SOL     OW18050   3.196   2.142   0.782
 4433SOL    HW218051   3.224   2.074   0.843
 4433SOL    HW318052   3.110   2.113   0.752
 4433SOL    MW418053   3.189   2.129   0.786
 4434SOL     OW18054   2.001   3.076   0.716
 4434SOL    HW218055   2.065   3.108   0.779
 4434SOL    HW318056   2.050   3.012   0.664
 4434SOL    MW418057   2.016   3.072   0.717
 4435SOL     OW18058   2.501   3.152   1.698
 4435SOL    HW218059   2.549   3.235   1.685
 4435SOL    HW318060   2.558   3.100   1.754
 4435SOL    MW418061   2.515   3.156   1.704
 4436SOL     OW18062   2.077   3.394   1.838
 4436SOL    HW218063   2.133   3.318   1.853
 4436SOL    HW318064   2.026   3.372   1.760
 4436SOL    MW418065   2.077   3.381   1.829
 4437SOL     OW18066   3.176   2.246   0.117
 4437SOL    HW218067   3.149   2.312   0.053
 4437SOL    HW318068   3.246   2.289   0.167
 4437SOL    MW418069   3.181   2.259   0.114
 4438SOL     OW18070   2.844   1.951   0.054
 4438SOL    HW218071   2.900   1.943  -0.024
 4438SOL    HW318072   2.821   1.861   0.076
 4438SOL    MW418073   2.849   1.938   0.047
 4439SOL     OW18074   3.349   2.802   0.259
 4439SOL    HW218075   3.316   2.891   0.249
 4439SOL    HW318076   3.314   2.773   0.344
 4439SOL    MW418077   3.339   2.811   0.270
 4440SOL     OW18078   2.962   3.231   1.447
 4440SOL    HW218079   2.873   3.237   1.415
 4440SOL    HW318080   3.006   3.310   1.415
 4440SOL    MW418081   2.957   3.241   1.439
 4441SOL     OW18082   2.255   1.899   1.789
 4441SOL    HW218083   2.183   1.864   1.737
 4441SOL    HW318084   2.313   1.940   1.724
 4441SOL    MW418085   2.253   1.900   1.774
 4442SOL     OW18086   2.279   3.389   1.088
 4442SOL    HW218087   2.324   3.451   1.145
 4442SOL    HW318088   2.186   3.408   1.101
 4442SOL    MW418089   2.272   3.399   1.095
 4443SOL     OW18090   3.719   2.918   1.442
 4443SOL    HW218091   3.634   2.931   1.401
 4443SOL    HW318092   3.699   2.882   1.529
 4443SOL    MW418093   3.706   2.914   1.447
 4444SOL     OW18094   2.701   3.457   1.196
 4444SOL    HW218095   2.725   3.446   1.105
 4444SOL    HW318096   2.624   3.514   1.194
 4444SOL    MW418097   2.693   3.462   1.185
 4445SOL     OW18098   2.343   2.840   0.051
 4445SOL    HW218099   2.266   2.853   0.107
 4445SOL    HW318100   2.307   2.804  -0.030
 4445SOL    MW418101   2.329   2.836   0.048
 4446SOL     OW18102   2.996   2.813   0.294
 4446SOL    HW218103   2.906   2.834   0.269
 4446SOL    HW318104   3.023   2.886   0.350
 4446SOL    MW418105   2.988   2.825   0.297
 4447SOL     OW18106   2.496   3.162   0.986
 4447SOL    HW218107   2.489   3.141   1.080
 4447SOL    HW318108   2.414   3.130   0.949
 4447SOL    MW418109   2.484   3.156   0.993
 4448SOL     OW18110   3.360   2.172   1.388
 4448SOL    HW218111   3.307   2.174   1.468
 4448SOL    HW318112   3.345   2.085   1.351
 4448SOL    MW418113   3.352   2.162   1.393
 4449SOL     OW18114   3.696   2.096   1.261
 4449SOL    HW218115   3.677   2.163   1.196
 4449SOL    HW318116   3.753   2.034   1.216
 4449SOL    MW418117   3.700   2.097   1.247
 4450SOL     OW18118   1.942   3.254   1.649
 4450SOL    HW218119   1.986   3.187   1.595
 4450SOL    HW318120   1.857   3.216   1.669
 4450SOL    MW418121   1.937   3.240   1.645
 4451SOL     OW18122   2.625   1.929   0.701
 4451SOL    HW218123   2.554   1.990   0.683
 4451SOL    HW318124   2.676   1.926   0.620
 4451SOL    MW418125   2.621   1.935   0.688
 4452SOL     OW18126   2.383   3.169   0.450
 4452SOL    HW218127   2.376   3.201   0.540
 4452SOL    HW318128   2.293   3.153   0.422
 4452SOL    MW418129   2.371   3.171   0.457
 4453SOL     OW18130   2.978   3.562   1.359
 4453SOL    HW218131   2.898   3.547   1.309
 4453SOL    HW318132   2.985   3.657   1.366
 4453SOL    MW418133   2.969   3.573   1.353
 4454SOL     OW18134   3.092   3.527   0.849
 4454SOL    HW218135   3.139   3.600   0.808
 4454SOL    HW318136   3.013   3.566   0.885
 4454SOL    MW418137   3.087   3.542   0.848
 4455SOL     OW18138   3.500   3.622   1.124
 4455SOL    HW218139   3.543   3.592   1.204
 4455SOL    HW318140   3.419   3.570   1.121
 4455SOL    MW418141   3.495   3.611   1.134
 4456SOL     OW18142   2.585   2.586   1.831
 4456SOL    HW218143   2.655   2.528   1.803
 4456SOL    HW318144   2.528   2.531   1.886
 4456SOL    MW418145   2.587   2.573   1.835
 4457SOL     OW18146   3.372   2.798   1.464
 4457SOL    HW218147   3.377   2.851   1.544
 4457SOL    HW318148   3.334   2.715   1.492
 4457SOL    MW418149   3.368   2.793   1.479
 4458SOL     OW18150   3.012   1.933   1.710
 4458SOL    HW218151   3.007   1.840   1.691
 4458SOL    HW318152   3.095   1.944   1.756
 4458SOL    MW418153   3.020   1.922   1.714
 4459SOL     OW18154   2.386   2.453   0.164
 4459SOL    HW218155   2.352   2.509   0.234
 4459SOL    HW318156   2.457   2.403   0.204
 4459SOL    MW418157   2.392   2.454   0.178
 4460SOL     OW18158   3.482   3.204   0.986
 4460SOL    HW218159   3.517   3.186   0.899
 4460SOL    HW318160   3.387   3.205   0.973
 4460SOL    MW418161   3.474   3.201   0.973
 4461SOL     OW18162   2.911   2.852   1.355
 4461SOL    HW218163   2.954   2.887   1.433
 4461SOL    HW318164   2.894   2.929   1.301
 4461SOL    MW418165   2.914   2.867   1.358
 4462SOL     OW18166   3.442   2.339   0.228
 4462SOL    HW218167   3.434   2.410   0.165
 4462SOL    HW318168   3.460   2.383   0.311
 4462SOL    MW418169   3.443   2.353   0.230
 4463SOL     OW18170   2.302   1.994   0.657
 4463SOL    HW218171   2.352   2.037   0.588
 4463SOL    HW318172   2.217   2.038   0.657
 4463SOL    MW418173   2.299   2.007   0.648
 4464SOL     OW18174   2.061   3.056   1.517
 4464SOL    HW218175   2.089   3.009   1.595
 4464SOL    HW318176   1.982   3.011   1.488
 4464SOL    MW418177   2.054   3.045   1.523
 4465SOL     OW18178   2.569   2.383   1.484
 4465SOL    HW218179   2.541   2.471   1.508
 4465SOL    HW318180   2.538   2.327   1.555
 4465SOL    MW418181   2.561   2.386   1.496
 4466SOL     OW18182   3.111   2.601   0.203
 4466SOL    HW218183   3.158   2.619   0.122
 4466SOL    HW318184   3.077   2.685   0.231
 4466SOL    MW418185   3.113   2.615   0.196
 4467SOL     OW18186   2.224   2.779   0.697
 4467SOL    HW218187   2.282   2.835   0.645
 4467SOL    HW318188   2.268   2.694   0.699
 4467SOL    MW418189   2.237   2.776   0.690
 4468SOL     OW18190   3.364   2.131   0.534
 4468SOL    HW218191   3.286   2.081   0.559
 4468SOL    HW318192   3.335   2.222   0.534
 4468SOL    MW418193   3.350   2.135   0.537
 4469SOL     OW18194   2.950   2.093   0.693
 4469SOL    HW218195   2.970   2.168   0.637
 4469SOL    HW318196   2.930   2.132   0.778
 4469SOL    MW418197   2.951   2.109   0.697
 4470SOL     OW18198   2.846   3.343   0.025
 4470SOL    HW218199   2.873   3.421  -0.023
 4470SOL    HW318200   2.753   3.358   0.044
 4470SOL    MW418201   2.837   3.356   0.021
 4471SOL     OW18202   3.710   2.866   1.712
 4471SOL    HW218203   3.623   2.846   1.748
 4471SOL    HW318204   3.764   2.792   1.737
 4471SOL    MW418205   3.705   2.855   1.720
 4472SOL     OW18206   1.931   3.379   0.869
 4472SOL    HW218207   1.963   3.383   0.960
 4472SOL    HW318208   1.836   3.387   0.877
 4472SOL    MW418209   1.923   3.382   0.882
 4473SOL     OW18210   1.886   2.505   0.416
 4473SOL    HW218211   1.826   2.477   0.486
 4473SOL    HW318212   1.960   2.445   0.422
 4473SOL    MW418213   1.888   2.494   0.425
 4474SOL     OW18214   3.454   3.717   1.850
 4474SOL    HW218215   3.499   3.641   1.815
 4474SOL    HW318216   3.492   3.730   1.937
 4474SOL    MW418217   3.464   3.710   1.856
 4475SOL     OW18218   3.054   3.236   0.576
 4475SOL    HW218219   3.077   3.187   0.654
 4475SOL    HW318220   3.135   3.278   0.548
 4475SOL    MW418221   3.067   3.236   0.583
 4476SOL     OW18222   2.312   2.244   1.305
 4476SOL    HW218223   2.345   2.325   1.345
 4476SOL    HW318224   2.285   2.270   1.217
 4476SOL    MW418225   2.311   2.258   1.299
 4477SOL     OW18226   2.266   2.211   1.041
 4477SOL    HW218227   2.296   2.125   1.012
 4477SOL    HW318228   2.171   2.204   1.044
 4477SOL    MW418229   2.258   2.200   1.039
 4478SOL     OW18230   3.095   2.420   1.732
 4478SOL    HW218231   3.147   2.355   1.685
 4478SOL    HW318232   3.053   2.471   1.662
 4478SOL    MW418233   3.096   2.417   1.715
 4479SOL     OW18234   3.194   2.215   1.593
 4479SOL    HW218235   3.101   2.199   1.580
 4479SOL    HW318236   3.220   2.153   1.661
 4479SOL    MW418237   3.184   2.205   1.600
 4480SOL     OW18238   2.409   1.989   0.932
 4480SOL    HW218239   2.419   1.898   0.958
 4480SOL    HW318240   2.365   1.985   0.847
 4480SOL    MW418241   2.405   1.977   0.924
 4481SOL     OW18242   2.503   3.604   1.478
 4481SOL    HW218243   2.420   3.589   1.523
 4481SOL    HW318244   2.562   3.537   1.513
 4481SOL    MW418245   2.501   3.594   1.488
 4482SOL     OW18246   3.560   2.311   1.103
 4482SOL    HW218247   3.493   2.344   1.163
 4482SOL    HW318248   3.603   2.389   1.069
 4482SOL    MW418249   3.558   2.326   1.107
 4483SOL     OW18250   3.738   3.031   1.073
 4483SOL    HW218251   3.731   2.971   0.998
 4483SOL    HW318252   3.664   3.091   1.062
 4483SOL    MW418253   3.728   3.031   1.062
 4484SOL     OW18254   3.120   2.893   0.991
 4484SOL    HW218255   3.134   2.865   1.082
 4484SOL    HW318256   3.206   2.924   0.963
 4484SOL    MW418257   3.133   2.894   1.000
 4485SOL     OW18258   3.203   2.388   1.270
 4485SOL    HW218259   3.224   2.389   1.177
 4485SOL    HW318260   3.248   2.310   1.303
 4485SOL    MW418261   3.210   2.378   1.262
 4486SOL     OW18262   3.696   2.519   1.812
 4486SOL    HW218263   3.733   2.464   1.881
 4486SOL    HW318264   3.721   2.476   1.730
 4486SOL    MW418265   3.703   2.507   1.811
 4487SOL     OW18266   3.243   2.817   1.863
 4487SOL    HW218267   3.309   2.765   1.817
 4487SOL    HW318268   3.263   2.804   1.956
 4487SOL    MW418269   3.254   2.808   1.870
 4488SOL     OW18270   3.194   1.903   0.212
 4488SOL    HW218271   3.268   1.947   0.255
 4488SOL    HW318272   3.118   1.957   0.234
 4488SOL    MW418273   3.194   1.915   0.220
 4489SOL     OW18274   3.254   2.678   0.490
 4489SOL    HW218275   3.169   2.648   0.460
 4489SOL    HW318276   3.246   2.685   0.585
 4489SOL    MW418277   3.242   2.676   0.499
 4490SOL     OW18278   2.330   3.141   1.221
 4490SOL    HW218279   2.342   3.168   1.312
 4490SOL    HW318280   2.311   3.222   1.174
 4490SOL    MW418281   2.329   3.156   1.226
 4491SOL     OW18282   2.614   2.121   1.044
 4491SOL    HW218283   2.587   2.123   1.135
 4491SOL    HW318284   2.544   2.073   0.999
 4491SOL    MW418285   2.602   2.117   1.051
 4492SOL     OW18286   2.468   3.613   1.206
 4492SOL    HW218287   2.520   3.690   1.183
 4492SOL    HW318288   2.477   3.605   1.301
 4492SOL    MW418289   2.477   3.620   1.217
 4493SOL     OW18290   3.370   3.198   1.438
 4493SOL    HW218291   3.355   3.127   1.501
 4493SOL    HW318292   3.416   3.156   1.366
 4493SOL    MW418293   3.376   3.182   1.438
 4494SOL     OW18294   2.444   2.929   1.555
 4494SOL    HW218295   2.481   2.934   1.467
 4494SOL    HW318296   2.483   3.002   1.602
 4494SOL    MW418297   2.454   2.939   1.550
 4495SOL     OW18298   2.624   2.972   1.367
 4495SOL    HW218299   2.683   2.918   1.420
 4495SOL    HW318300   2.639   2.944   1.277
 4495SOL    MW418301   2.634   2.961   1.363
 4496SOL     OW18302   2.627   2.344   0.216
 4496SOL    HW218303   2.700   2.393   0.179
 4496SOL    HW318304   2.643   2.253   0.190
 4496SOL    MW418305   2.639   2.339   0.209
 4497SOL     OW18306   3.435   3.461   1.539
 4497SOL    HW218307   3.477   3.446   1.624
 4497SOL    HW318308   3.426   3.374   1.501
 4497SOL    MW418309   3.439   3.449   1.546
 4498SOL     OW18310   3.095   1.940   1.130
 4498SOL    HW218311   3.150   1.949   1.052
 4498SOL    HW318312   3.150   1.974   1.201
 4498SOL    MW418313   3.109   1.945   1.129
 4499SOL     OW18314   2.102   2.853   0.314
 4499SOL    HW218315   2.039   2.869   0.243
 4499SOL    HW318316   2.049   2.816   0.385
 4499SOL    MW418317   2.087   2.850   0.314
 4500SOL     OW18318   2.458   3.207   0.173
 4500SOL    HW218319   2.473   3.183   0.265
 4500SOL    HW318320   2.366   3.185   0.157
 4500SOL    MW418321   2.448   3.200   0.183
 4501SOL     OW18322   2.997   3.438   0.325
 4501SOL    HW218323   3.005   3.356   0.276
 4501SOL    HW318324   2.916   3.477   0.292
 4501SOL    MW418325   2.987   3.433   0.315
 4502SOL     OW18326   2.256   3.596   0.894
 4502SOL    HW218327   2.260   3.507   0.929
 4502SOL    HW318328   2.282   3.587   0.803
 4502SOL    MW418329   2.259   3.584   0.886
 4503SOL     OW18330   2.873   3.074   1.137
 4503SOL    HW218331   2.805   3.008   1.153
 4503SOL    HW318332   2.891   3.068   1.044
 4503SOL    MW418333   2.866   3.065   1.128
 4504SOL     OW18334   1.962   3.349   1.388
 4504SOL    HW218335   1.952   3.307   1.474
 4504SOL    HW318336   1.883   3.402   1.378
 4504SOL    MW418337   1.951   3.350   1.399
 4505SOL     OW18338   2.866   2.213   0.958
 4505SOL    HW218339   2.796   2.165   1.003
 4505SOL    HW318340   2.898   2.276   1.022
 4505SOL    MW418341   2.861   2.215   0.972
 4506SOL     OW18342   2.517   2.649   1.578
 4506SOL    HW218343   2.510   2.744   1.566
 4506SOL    HW318344   2.526   2.638   1.673
 4506SOL    MW418345   2.518   2.661   1.588
 4507SOL     OW18346   2.238   3.164   1.836
 4507SOL    HW218347   2.310   3.166   1.773
 4507SOL    HW318348   2.208   3.073   1.835
 4507SOL    MW418349   2.243   3.153   1.828
 4508SOL     OW18350   3.322   1.927   1.303
 4508SOL    HW218351   3.393   1.873   1.267
 4508SOL    HW318352   3.321   1.906   1.396
 4508SOL    MW418353   3.331   1.918   1.311
 4509SOL     OW18354   3.522   3.457   1.787
 4509SOL    HW218355   3.495   3.454   1.878
 4509SOL    HW318356   3.618   3.461   1.790
 4509SOL    MW418357   3.532   3.457   1.799
 4510SOL     OW18358   2.333   2.319   0.771
 4510SOL    HW218359   2.404   2.267   0.734
 4510SOL    HW318360   2.319   2.284   0.858
 4510SOL    MW418361   2.341   2.308   0.778
 4511SOL     OW18362   1.888   3.654   1.843
 4511SOL    HW218363   1.938   3.632   1.765
 4511SOL    HW318364   1.896   3.749   1.851
 4511SOL    MW418365   1.896   3.663   1.834
 4512SOL     OW18366   2.649   3.412   0.847
 4512SOL    HW218367   2.577   3.349   0.860
 4512SOL    HW318368   2.610   3.497   0.865
 4512SOL    MW418369   2.633   3.415   0.850
 4513SOL     OW18370   2.969   2.260   0.495
 4513SOL    HW218371   2.991   2.197   0.427
 4513SOL    HW318372   2.874   2.252   0.506
 4513SOL    MW418373   2.959   2.251   0.487
 4514SOL     OW18374   2.054   1.950   0.427
 4514SOL    HW218375   2.125   1.971   0.366
 4514SOL    HW318376   2.008   1.878   0.385
 4514SOL    MW418377   2.058   1.944   0.413
 4515SOL     OW18378   1.885   2.417   1.570
 4515SOL    HW218379   1.949   2.483   1.545
 4515SOL    HW318380   1.804   2.444   1.527
 4515SOL    MW418381   1.883   2.429   1.562
 4516SOL     OW18382   3.623   3.324   0.527
 4516SOL    HW218383   3.593   3.257   0.588
 4516SOL    HW318384   3.717   3.330   0.541
 4516SOL    MW418385   3.631   3.316   0.537
 4517SOL     OW18386   3.179   3.001   0.457
 4517SOL    HW218387   3.151   3.087   0.490
 4517SOL    HW318388   3.207   3.017   0.367
 4517SOL    MW418389   3.179   3.015   0.449
 4518SOL     OW18390   2.841   1.921   0.510
 4518SOL    HW218391   2.878   1.980   0.575
 4518SOL    HW318392   2.818   1.977   0.436
 4518SOL    MW418393   2.842   1.936   0.509
 4519SOL     OW18394   3.694   2.803   0.932
 4519SOL    HW218395   3.685   2.835   0.843
 4519SOL    HW318396   3.647   2.719   0.932
 4519SOL    MW418397   3.687   2.796   0.922
 4520SOL     OW18398   2.070   2.643   1.511
 4520SOL    HW218399   2.091   2.712   1.449
 4520SOL    HW318400   2.150   2.590   1.516
 4520SOL    MW418401   2.083   2.644   1.505
 4521SOL     OW18402   3.606   2.734   0.633
 4521SOL    HW218403   3.700   2.723   0.621
 4521SOL    HW318404   3.582   2.806   0.574
 4521SOL    MW418405   3.616   2.742   0.624
 4522SOL     OW18406   2.055   2.658   1.778
 4522SOL    HW218407   1.981   2.602   1.804
 4522SOL    HW318408   2.050   2.661   1.683
 4522SOL    MW418409   2.044   2.651   1.768
 4523SOL     OW18410   2.221   1.945   1.228
 4523SOL    HW218411   2.264   2.029   1.248
 4523SOL    HW318412   2.294   1.883   1.221
 4523SOL    MW418413   2.236   1.948   1.229
 4524SOL     OW18414   2.262   2.612   0.406
 4524SOL    HW218415   2.262   2.707   0.391
 4524SOL    HW318416   2.339   2.596   0.460
 4524SOL    MW418417   2.272   2.623   0.411
 4525SOL     OW18418   3.038   2.471   1.470
 4525SOL    HW218419   3.074   2.444   1.386
 4525SOL    HW318420   2.951   2.505   1.449
 4525SOL    MW418421   3.032   2.472   1.457
 4526SOL     OW18422   2.021   2.343   0.695
 4526SOL    HW218423   2.083   2.350   0.768
 4526SOL    HW318424   2.021   2.250   0.672
 4526SOL    MW418425   2.029   2.332   0.702
 4527SOL     OW18426   3.568   3.683   0.227
 4527SOL    HW218427   3.635   3.716   0.167
 4527SOL    HW318428   3.525   3.762   0.261
 4527SOL    MW418429   3.570   3.698   0.223
 4528SOL     OW18430   2.703   2.604   1.179
 4528SOL    HW218431   2.661   2.522   1.155
 4528SOL    HW318432   2.704   2.603   1.275
 4528SOL    MW418433   2.696   2.593   1.188
 4529SOL     OW18434   3.374   3.737   1.578
 4529SOL    HW218435   3.377   3.643   1.561
 4529SOL    HW318436   3.397   3.745   1.670
 4529SOL    MW418437   3.377   3.725   1.588
 4530SOL     OW18438   2.507   2.074   1.284
 4530SOL    HW218439   2.438   2.137   1.305
 4530SOL    HW318440   2.534   2.038   1.369
 4530SOL    MW418441   2.501   2.077   1.297
 4531SOL     OW18442   1.890   2.915   0.153
 4531SOL    HW218443   1.859   2.980   0.216
 4531SOL    HW318444   1.839   2.837   0.172
 4531SOL    MW418445   1.880   2.912   0.163
 4532SOL     OW18446   3.302   1.927   0.901
 4532SOL    HW218447   3.390   1.936   0.938
 4532SOL    HW318448   3.312   1.868   0.827
 4532SOL    MW418449   3.316   1.921   0.895
 4533SOL     OW18450   3.334   2.666   0.745
 4533SOL    HW218451   3.414   2.681   0.694
 4533SOL    HW318452   3.327   2.571   0.751
 4533SOL    MW418453   3.343   2.655   0.740
 4534SOL     OW18454   2.474   3.715   0.095
 4534SOL    HW218455   2.379   3.715   0.087
 4534SOL    HW318456   2.490   3.661   0.173
 4534SOL    MW418457   2.464   3.709   0.104
 4535SOL     OW18458   2.784   2.592   1.442
 4535SOL    HW218459   2.853   2.659   1.439
 4535SOL    HW318460   2.717   2.630   1.498
 4535SOL    MW418461   2.785   2.605   1.449
 4536SOL     OW18462   2.202   2.892   1.690
 4536SOL    HW218463   2.156   2.808   1.692
 4536SOL    HW318464   2.259   2.886   1.614
 4536SOL    MW418465   2.204   2.880   1.682
 4537SOL     OW18466   3.319   2.535   0.011
 4537SOL    HW218467   3.247   2.511  -0.047
 4537SOL    HW318468   3.385   2.572  -0.047
 4537SOL    MW418469   3.318   2.537  -0.004
 4538SOL     OW18470   2.453   3.267   0.691
 4538SOL    HW218471   2.518   3.200   0.712
 4538SOL    HW318472   2.505   3.344   0.668
 4538SOL    MW418473   2.468   3.269   0.690
 4539SOL     OW18474   2.714   2.432   0.821
 4539SOL    HW218475   2.654   2.450   0.893
 4539SOL    HW318476   2.748   2.344   0.840
 4539SOL    MW418477   2.710   2.422   0.834
 4540SOL     OW18478   3.655   1.931   1.490
 4540SOL    HW218479   3.576   1.977   1.518
 4540SOL    HW318480   3.690   1.985   1.419
 4540SOL    MW418481   3.649   1.944   1.484
 4541SOL     OW18482   2.939   3.015   0.840
 4541SOL    HW218483   3.031   2.996   0.858
 4541SOL    HW318484   2.912   2.945   0.780
 4541SOL    MW418485   2.947   3.003   0.834
 4542SOL     OW18486   2.732   2.835   0.195
 4542SOL    HW218487   2.718   2.747   0.160
 4542SOL    HW318488   2.683   2.892   0.136
 4542SOL    MW418489   2.724   2.830   0.183
 4543SOL     OW18490   3.213   3.253   0.936
 4543SOL    HW218491   3.186   3.337   0.901
 4543SOL    HW318492   3.173   3.248   1.023
 4543SOL    MW418493   3.206   3.262   0.942
 4544SOL     OW18494   3.132   3.201   1.204
 4544SOL    HW218495   3.143   3.168   1.293
 4544SOL    HW318496   3.051   3.160   1.173
 4544SOL    MW418497   3.122   3.193   1.210
 4545SOL     OW18498   2.145   2.559   0.974
 4545SOL    HW218499   2.095   2.558   1.055
 4545SOL    HW318500   2.165   2.651   0.958
 4545SOL    MW418501   2.141   2.571   0.982
 4546SOL     OW18502   3.212   3.323   1.736
 4546SOL    HW218503   3.212   3.417   1.752
 4546SOL    HW318504   3.257   3.313   1.652
 4546SOL    MW418505   3.218   3.333   1.727
 4547SOL     OW18506   3.451   2.041   0.297
 4547SOL    HW218507   3.444   2.045   0.392
 4547SOL    HW318508   3.463   2.132   0.270
 4547SOL    MW418509   3.452   2.054   0.305
 4548SOL     OW18510   2.740   2.604   0.411
 4548SOL    HW218511   2.720   2.590   0.318
 4548SOL    HW318512   2.833   2.583   0.418
 4548SOL    MW418513   2.750   2.599   0.400
 4549SOL     OW18514   2.067   2.227   1.715
 4549SOL    HW218515   2.024   2.286   1.652
 4549SOL    HW318516   2.135   2.282   1.755
 4549SOL    MW418517   2.071   2.242   1.712
 4550SOL     OW18518   3.179   2.847   1.260
 4550SOL    HW218519   3.242   2.844   1.333
 4550SOL    HW318520   3.095   2.865   1.302
 4550SOL    MW418521   3.175   2.849   1.275
 4551SOL     OW18522   2.723   3.562   0.449
 4551SOL    HW218523   2.781   3.633   0.476
 4551SOL    HW318524   2.746   3.490   0.507
 4551SOL    MW418525   2.734   3.562   0.460
 4552SOL     OW18526   3.518   2.024   1.039
 4552SOL    HW218527   3.563   1.942   1.058
 4552SOL    HW318528   3.538   2.080   1.115
 4552SOL    MW418529   3.528   2.020   1.051
 4553SOL     OW18530   1.966   1.867   1.138
 4553SOL    HW218531   1.957   1.868   1.043
 4553SOL    HW318532   2.060   1.879   1.153
 4553SOL    MW418533   1.978   1.870   1.129
 4554SOL     OW18534   3.603   3.060   0.758
 4554SOL    HW218535   3.582   3.006   0.681
 4554SOL    HW318536   3.699   3.058   0.762
 4554SOL    MW418537   3.612   3.053   0.747
 4555SOL     OW18538   2.295   3.205   1.501
 4555SOL    HW218539   2.216   3.155   1.524
 4555SOL    HW318540   2.365   3.164   1.551
 4555SOL    MW418541   2.293   3.193   1.511
 4556SOL     OW18542   2.179   1.994   0.184
 4556SOL    HW218543   2.108   2.049   0.152
 4556SOL    HW318544   2.221   1.960   0.105
 4556SOL    MW418545   2.175   1.996   0.170
 4557SOL     OW18546   3.303   2.491   1.020
 4557SOL    HW218547   3.226   2.537   0.986
 4557SOL    HW318548   3.360   2.560   1.054
 4557SOL    MW418549   3.300   2.506   1.020
 4558SOL     OW18550   1.935   2.093   0.033
 4558SOL    HW218551   1.902   2.172   0.077
 4558SOL    HW318552   1.990   2.126  -0.038
 4558SOL    MW418553   1.938   2.107   0.030
 4559SOL     OW18554   1.969   3.350   0.222
 4559SOL    HW218555   1.986   3.434   0.264
 4559SOL    HW318556   2.004   3.359   0.134
 4559SOL    MW418557   1.974   3.363   0.216
 4560SOL     OW18558   3.241   3.439   0.439
 4560SOL    HW218559   3.304   3.429   0.368
 4560SOL    HW318560   3.158   3.459   0.394
 4560SOL    MW418561   3.238   3.440   0.424
 4561SOL     OW18562   3.604   2.707   2.125
 4561SOL    HW218563   3.645   2.649   2.190
 4561SOL    HW318564   3.511   2.699   2.142
 4561SOL    MW418565   3.598   2.699   2.135
 4562SOL     OW18566   3.470   2.639   3.120
 4562SOL    HW218567   3.425   2.706   3.171
 4562SOL    HW318568   3.558   2.675   3.106
 4562SOL    MW418569   3.476   2.652   3.124
 4563SOL     OW18570   2.398   2.890   2.354
 4563SOL    HW218571   2.488   2.865   2.338
 4563SOL    HW318572   2.394   2.983   2.331
 4563SOL    MW418573   2.410   2.899   2.349
 4564SOL     OW18574   3.514   3.593   2.496
 4564SOL    HW218575   3.526   3.539   2.574
 4564SOL    HW318576   3.551   3.541   2.425
 4564SOL    MW418577   3.520   3.578   2.497
 4565SOL     OW18578   2.893   3.478   3.497
 4565SOL    HW218579   2.934   3.514   3.418
 4565SOL    HW318580   2.928   3.389   3.504
 4565SOL    MW418581   2.904   3.471   3.488
 4566SOL     OW18582   3.450   3.033   3.101
 4566SOL    HW218583   3.371   2.998   3.059
 4566SOL    HW318584   3.477   3.105   3.045
 4566SOL    MW418585   3.443   3.038   3.088
 4567SOL     OW18586   2.682   2.346   2.367
 4567SOL    HW218587   2.657   2.434   2.395
 4567SOL    HW318588   2.679   2.349   2.271
 4567SOL    MW418589   2.678   2.358   2.359
 4568SOL     OW18590   2.124   2.374   2.295
 4568SOL    HW218591   2.156   2.462   2.277
 4568SOL    HW318592   2.112   2.372   2.390
 4568SOL    MW418593   2.127   2.386   2.307
 4569SOL     OW18594   2.202   2.787   3.196
 4569SOL    HW218595   2.265   2.734   3.147
 4569SOL    HW318596   2.183   2.861   3.139
 4569SOL    MW418597   2.208   2.789   3.183
 4570SOL     OW18598   2.523   2.129   2.382
 4570SOL    HW218599   2.581   2.205   2.384
 4570SOL    HW318600   2.458   2.150   2.315
 4570SOL    MW418601   2.522   2.141   2.373
 4571SOL     OW18602   2.610   3.056   2.557
 4571SOL    HW218603   2.690   3.059   2.609
 4571SOL    HW318604   2.638   3.023   2.471
 4571SOL    MW418605   2.624   3.052   2.552
 4572SOL     OW18606   2.635   3.397   3.460
 4572SOL    HW218607   2.719   3.423   3.499
 4572SOL    HW318608   2.659   3.341   3.386
 4572SOL    MW418609   2.649   3.393   3.455
 4573SOL     OW18610   2.387   2.560   2.548
 4573SOL    HW218611   2.372   2.480   2.599
 4573SOL    HW318612   2.469   2.595   2.582
 4573SOL    MW418613   2.395   2.552   2.560
 4574SOL     OW18614   2.724   3.246   3.233
 4574SOL    HW218615   2.688   3.312   3.173
 4574SOL    HW318616   2.652   3.184   3.246
 4574SOL    MW418617   2.710   3.246   3.227
 4575SOL     OW18618   2.529   2.386   2.925
 4575SOL    HW218619   2.435   2.382   2.943
 4575SOL    HW318620   2.559   2.295   2.934
 4575SOL    MW418621   2.520   2.374   2.928
 4576SOL     OW18622   2.275   2.800   2.829
 4576SOL    HW218623   2.230   2.807   2.745
 4576SOL    HW318624   2.255   2.883   2.873
 4576SOL    MW418625   2.267   2.812   2.823
 4577SOL     OW18626   1.972   3.646   2.704
 4577SOL    HW218627   2.061   3.638   2.739
 4577SOL    HW318628   1.936   3.558   2.709
 4577SOL    MW418629   1.979   3.633   2.709
 4578SOL     OW18630   3.237   3.038   2.073
 4578SOL    HW218631   3.155   3.074   2.039
 4578SOL    HW318632   3.305   3.081   2.022
 4578SOL    MW418633   3.235   3.048   2.061
 4579SOL     OW18634   2.236   3.173   2.739
 4579SOL    HW218635   2.212   3.226   2.815
 4579SOL    HW318636   2.292   3.231   2.687
 4579SOL    MW418637   2.240   3.188   2.742
 4580SOL     OW18638   2.798   2.817   2.549
 4580SOL    HW218639   2.712   2.804   2.589
 4580SOL    HW318640   2.851   2.744   2.581
 4580SOL    MW418641   2.794   2.806   2.558
 4581SOL     OW18642   2.206   3.469   3.334
 4581SOL    HW218643   2.114   3.445   3.319
 4581SOL    HW318644   2.250   3.386   3.351
 4581SOL    MW418645   2.200   3.454   3.333
 4582SOL     OW18646   2.789   3.179   2.266
 4582SOL    HW218647   2.766   3.241   2.334
 4582SOL    HW318648   2.746   3.097   2.292
 4582SOL    MW418649   2.781   3.175   2.277
 4583SOL     OW18650   3.662   2.180   2.722
 4583SOL    HW218651   3.599   2.160   2.791
 4583SOL    HW318652   3.652   2.109   2.659
 4583SOL    MW418653   3.652   2.167   2.723
 4584SOL     OW18654   2.286   2.152   2.234
 4584SOL    HW218655   2.260   2.114   2.150
 4584SOL    HW318656   2.223   2.222   2.250
 4584SOL    MW418657   2.275   2.155   2.225
 4585SOL     OW18658   2.121   3.113   2.271
 4585SOL    HW218659   2.069   3.181   2.227
 4585SOL    HW318660   2.118   3.039   2.211
 4585SOL    MW418661   2.113   3.112   2.258
 4586SOL     OW18662   2.783   3.576   2.049
 4586SOL    HW218663   2.738   3.592   2.132
 4586SOL    HW318664   2.714   3.541   1.991
 4586SOL    MW418665   2.769   3.573   2.051
 4587SOL     OW18666   3.718   2.349   2.024
 4587SOL    HW218667   3.627   2.351   2.052
 4587SOL    HW318668   3.763   2.411   2.082
 4587SOL    MW418669   3.711   2.357   2.034
 4588SOL     OW18670   3.463   2.952   2.374
 4588SOL    HW218671   3.373   2.952   2.409
 4588SOL    HW318672   3.456   2.998   2.291
 4588SOL    MW418673   3.450   2.958   2.368
 4589SOL     OW18674   3.263   2.587   3.446
 4589SOL    HW218675   3.332   2.525   3.423
 4589SOL    HW318676   3.188   2.561   3.393
 4589SOL    MW418677   3.263   2.574   3.437
 4590SOL     OW18678   2.004   3.467   2.998
 4590SOL    HW218679   1.987   3.413   3.075
 4590SOL    HW318680   1.992   3.557   3.028
 4590SOL    MW418681   2.001   3.471   3.012
 4591SOL     OW18682   2.999   2.974   3.438
 4591SOL    HW218683   2.984   3.067   3.423
 4591SOL    HW318684   3.094   2.964   3.438
 4591SOL    MW418685   3.008   2.984   3.435
 4592SOL     OW18686   2.795   2.398   3.639
 4592SOL    HW218687   2.885   2.399   3.606
 4592SOL    HW318688   2.754   2.323   3.597
 4592SOL    MW418689   2.801   2.388   3.630
 4593SOL     OW18690   3.370   2.930   2.766
 4593SOL    HW218691   3.373   2.864   2.697
 4593SOL    HW318692   3.455   2.973   2.762
 4593SOL    MW418693   3.382   2.926   2.757
 4594SOL     OW18694   2.990   2.533   2.335
 4594SOL    HW218695   3.016   2.557   2.246
 4594SOL    HW318696   2.972   2.440   2.331
 4594SOL    MW418697   2.992   2.525   2.322
 4595SOL     OW18698   3.655   3.153   2.186
 4595SOL    HW218699   3.611   3.194   2.261
 4595SOL    HW318700   3.712   3.221   2.151
 4595SOL    MW418701   3.657   3.167   2.191
 4596SOL     OW18702   2.575   2.202   3.589
 4596SOL    HW218703   2.585   2.128   3.529
 4596SOL    HW318704   2.611   2.171   3.672
 4596SOL    MW418705   2.581   2.188   3.591
 4597SOL     OW18706   2.311   3.569   2.504
 4597SOL    HW218707   2.343   3.657   2.482
 4597SOL    HW318708   2.264   3.541   2.426
 4597SOL    MW418709   2.310   3.577   2.491
 4598SOL     OW18710   3.695   1.931   2.553
 4598SOL    HW218711   3.749   1.882   2.615
 4598SOL    HW318712   3.638   1.865   2.514
 4598SOL    MW418713   3.695   1.915   2.555
 4599SOL     OW18714   2.027   3.629   2.081
 4599SOL    HW218715   2.056   3.719   2.073
 4599SOL    HW318716   1.977   3.612   2.002
 4599SOL    MW418717   2.025   3.637   2.070
 4600SOL     OW18718   2.814   1.884   2.966
 4600SOL    HW218719   2.773   1.962   2.928
 4600SOL    HW318720   2.908   1.902   2.961
 4600SOL    MW418721   2.820   1.896   2.961
 4601SOL     OW18722   3.431   3.437   2.052
 4601SOL    HW218723   3.479   3.506   2.098
 4601SOL    HW318724   3.352   3.481   2.021
 4601SOL    MW418725   3.426   3.451   2.055
 4602SOL     OW18726   2.829   2.562   1.996
 4602SOL    HW218727   2.831   2.509   1.917
 4602SOL    HW318728   2.917   2.599   2.002
 4602SOL    MW418729   2.841   2.561   1.985
 4603SOL     OW18730   3.443   2.488   2.332
 4603SOL    HW218731   3.482   2.488   2.419
 4603SOL    HW318732   3.384   2.564   2.332
 4603SOL    MW418733   3.440   2.499   2.343
 4604SOL     OW18734   2.760   2.855   3.461
 4604SOL    HW218735   2.737   2.835   3.551
 4604SOL    HW318736   2.845   2.899   3.466
 4604SOL    MW418737   2.767   2.858   3.473
 4605SOL     OW18738   2.840   1.992   3.221
 4605SOL    HW218739   2.846   1.954   3.134
 4605SOL    HW318740   2.829   2.086   3.206
 4605SOL    MW418741   2.841   2.000   3.209
 4606SOL     OW18742   2.929   2.481   3.055
 4606SOL    HW218743   3.004   2.510   3.002
 4606SOL    HW318744   2.861   2.546   3.039
 4606SOL    MW418745   2.930   2.493   3.045
 4607SOL     OW18746   3.479   2.449   3.332
 4607SOL    HW218747   3.460   2.358   3.311
 4607SOL    HW318748   3.457   2.498   3.253
 4607SOL    MW418749   3.474   2.442   3.319
 4608SOL     OW18750   3.621   3.543   3.236
 4608SOL    HW218751   3.549   3.505   3.287
 4608SOL    HW318752   3.638   3.628   3.277
 4608SOL    MW418753   3.615   3.548   3.248
 4609SOL     OW18754   2.926   2.187   3.438
 4609SOL    HW218755   2.892   2.226   3.357
 4609SOL    HW318756   2.904   2.095   3.431
 4609SOL    MW418757   2.919   2.180   3.428
 4610SOL     OW18758   3.335   3.001   3.514
 4610SOL    HW218759   3.417   3.042   3.544
 4610SOL    HW318760   3.298   2.963   3.594
 4610SOL    MW418761   3.341   3.002   3.529
 4611SOL     OW18762   3.630   2.374   2.498
 4611SOL    HW218763   3.719   2.343   2.515
 4611SOL    HW318764   3.573   2.314   2.546
 4611SOL    MW418765   3.633   2.362   2.507
 4612SOL     OW18766   2.056   2.088   2.527
 4612SOL    HW218767   2.047   2.028   2.453
 4612SOL    HW318768   1.989   2.059   2.590
 4612SOL    MW418769   2.046   2.075   2.525
 4613SOL     OW18770   2.999   3.181   2.088
 4613SOL    HW218771   2.949   3.183   2.170
 4613SOL    HW318772   2.933   3.199   2.020
 4613SOL    MW418773   2.985   3.183   2.090
 4614SOL     OW18774   2.003   2.261   2.890
 4614SOL    HW218775   1.975   2.352   2.899
 4614SOL    HW318776   1.940   2.222   2.829
 4614SOL    MW418777   1.990   2.267   2.884
 4615SOL     OW18778   2.462   3.599   2.196
 4615SOL    HW218779   2.383   3.557   2.229
 4615SOL    HW318780   2.528   3.582   2.263
 4615SOL    MW418781   2.461   3.591   2.209
 4616SOL     OW18782   3.590   3.119   3.593
 4616SOL    HW218783   3.640   3.045   3.625
 4616SOL    HW318784   3.536   3.146   3.668
 4616SOL    MW418785   3.590   3.113   3.606
 4617SOL     OW18786   2.598   3.014   1.903
 4617SOL    HW218787   2.520   2.960   1.890
 4617SOL    HW318788   2.569   3.087   1.956
 4617SOL    MW418789   2.584   3.016   1.908
 4618SOL     OW18790   3.724   2.754   3.095
 4618SOL    HW218791   3.740   2.792   3.008
 4618SOL    HW318792   3.758   2.820   3.156
 4618SOL    MW418793   3.731   2.767   3.091
 4619SOL     OW18794   3.516   3.463   2.764
 4619SOL    HW218795   3.545   3.530   2.825
 4619SOL    HW318796   3.497   3.387   2.819
 4619SOL    MW418797   3.518   3.463   2.779
 4620SOL     OW18798   3.179   3.530   1.971
 4620SOL    HW218799   3.105   3.493   2.021
 4620SOL    HW318800   3.187   3.620   2.004
 4620SOL    MW418801   3.170   3.537   1.983
 4621SOL     OW18802   1.987   2.536   3.060
 4621SOL    HW218803   2.049   2.566   3.126
 4621SOL    HW318804   1.921   2.605   3.054
 4621SOL    MW418805   1.986   2.549   3.067
 4622SOL     OW18806   3.403   3.204   1.913
 4622SOL    HW218807   3.350   3.253   1.849
 4622SOL    HW318808   3.434   3.270   1.974
 4622SOL    MW418809   3.401   3.218   1.911
 4623SOL     OW18810   2.628   2.093   1.968
 4623SOL    HW218811   2.576   2.013   1.956
 4623SOL    HW318812   2.715   2.070   1.936
 4623SOL    MW418813   2.631   2.079   1.962
 4624SOL     OW18814   2.082   3.645   3.512
 4624SOL    HW218815   2.056   3.713   3.450
 4624SOL    HW318816   2.130   3.582   3.460
 4624SOL    MW418817   2.084   3.645   3.498
 4625SOL     OW18818   2.134   2.964   3.019
 4625SOL    HW218819   2.187   3.039   3.044
 4625SOL    HW318820   2.053   3.002   2.985
 4625SOL    MW418821   2.130   2.979   3.019
 4626SOL     OW18822   2.674   2.868   3.007
 4626SOL    HW218823   2.702   2.777   3.019
 4626SOL    HW318824   2.603   2.862   2.943
 4626SOL    MW418825   2.667   2.856   3.002
 4627SOL     OW18826   1.989   2.733   2.425
 4627SOL    HW218827   2.080   2.748   2.452
 4627SOL    HW318828   1.992   2.654   2.371
 4627SOL    MW418829   2.001   2.725   2.423
 4628SOL     OW18830   2.225   2.441   3.679
 4628SOL    HW218831   2.172   2.521   3.686
 4628SOL    HW318832   2.295   2.453   3.744
 4628SOL    MW418833   2.227   2.454   3.687
 4629SOL     OW18834   2.611   1.991   3.386
 4629SOL    HW218835   2.588   1.899   3.388
 4629SOL    HW318836   2.697   1.993   3.343
 4629SOL    MW418837   2.618   1.981   3.382
 4630SOL     OW18838   2.295   2.515   3.425
 4630SOL    HW218839   2.375   2.565   3.411
 4630SOL    HW318840   2.286   2.509   3.520
 4630SOL    MW418841   2.304   2.521   3.435
 4631SOL     OW18842   2.616   3.665   2.799
 4631SOL    HW218843   2.705   3.680   2.829
 4631SOL    HW318844   2.611   3.712   2.715
 4631SOL    MW418845   2.626   3.673   2.792
 4632SOL     OW18846   3.272   2.040   3.696
 4632SOL    HW218847   3.328   1.967   3.722
 4632SOL    HW318848   3.242   2.078   3.778
 4632SOL    MW418849   3.276   2.035   3.709
 4633SOL     OW18850   1.997   3.345   2.464
 4633SOL    HW218851   1.969   3.384   2.546
 4633SOL    HW318852   2.017   3.254   2.486
 4633SOL    MW418853   1.995   3.337   2.477
 4634SOL     OW18854   2.830   3.388   2.499
 4634SOL    HW218855   2.913   3.342   2.483
 4634SOL    HW318856   2.820   3.387   2.595
 4634SOL    MW418857   2.840   3.381   2.509
 4635SOL     OW18858   3.662   2.533   2.813
 4635SOL    HW218859   3.751   2.563   2.795
 4635SOL    HW318860   3.642   2.473   2.742
 4635SOL    MW418861   3.671   2.530   2.802
 4636SOL     OW18862   3.513   2.712   3.693
 4636SOL    HW218863   3.568   2.636   3.674
 4636SOL    HW318864   3.515   2.720   3.788
 4636SOL    MW418865   3.521   2.703   3.701
 4637SOL     OW18866   2.563   3.445   1.904
 4637SOL    HW218867   2.503   3.514   1.874
 4637SOL    HW318868   2.508   3.387   1.957
 4637SOL    MW418869   2.547   3.447   1.906
 4638SOL     OW18870   3.001   2.090   2.127
 4638SOL    HW218871   2.934   2.066   2.064
 4638SOL    HW318872   3.066   2.139   2.076
 4638SOL    MW418873   3.001   2.092   2.112
 4639SOL     OW18874   2.808   2.274   3.212
 4639SOL    HW218875   2.727   2.315   3.240
 4639SOL    HW318876   2.855   2.342   3.164
 4639SOL    MW418877   2.803   2.289   3.210
 4640SOL     OW18878   3.068   2.612   2.835
 4640SOL    HW218879   3.081   2.706   2.845
 4640SOL    HW318880   3.029   2.602   2.749
 4640SOL    MW418881   3.064   2.623   2.825
 4641SOL     OW18882   2.520   2.807   2.639
 4641SOL    HW218883   2.431   2.798   2.672
 4641SOL    HW318884   2.524   2.897   2.607
 4641SOL    MW418885   2.509   2.818   2.639
 4642SOL     OW18886   3.319   2.390   2.634
 4642SOL    HW218887   3.264   2.311   2.633
 4642SOL    HW318888   3.301   2.431   2.718
 4642SOL    MW418889   3.309   2.385   2.643
 4643SOL     OW18890   2.290   2.077   3.451
 4643SOL    HW218891   2.211   2.095   3.503
 4643SOL    HW318892   2.285   2.139   3.378
 4643SOL    MW418893   2.280   2.087   3.448
 4644SOL     OW18894   2.938   2.594   2.591
 4644SOL    HW218895   2.875   2.526   2.615
 4644SOL    HW318896   2.958   2.575   2.499
 4644SOL    MW418897   2.932   2.581   2.583
 4645SOL     OW18898   2.194   3.489   2.293
 4645SOL    HW218899   2.155   3.536   2.219
 4645SOL    HW318900   2.128   3.424   2.318
 4645SOL    MW418901   2.181   3.487   2.287
 4646SOL     OW18902   2.686   2.898   2.317
 4646SOL    HW218903   2.688   2.872   2.224
 4646SOL    HW318904   2.744   2.835   2.360
 4646SOL    MW418905   2.694   2.887   2.311
 4647SOL     OW18906   3.239   3.458   3.089
 4647SOL    HW218907   3.164   3.504   3.127
 4647SOL    HW318908   3.221   3.365   3.106
 4647SOL    MW418909   3.228   3.452   3.097
 4648SOL     OW18910   3.243   3.666   2.519
 4648SOL    HW218911   3.186   3.619   2.458
 4648SOL    HW318912   3.329   3.627   2.506
 4648SOL    MW418913   3.246   3.657   2.509
 4649SOL     OW18914   3.196   2.142   2.650
 4649SOL    HW218915   3.224   2.074   2.711
 4649SOL    HW318916   3.110   2.113   2.620
 4649SOL    MW418917   3.189   2.129   2.654
 4650SOL     OW18918   2.001   3.076   2.584
 4650SOL    HW218919   2.065   3.108   2.647
 4650SOL    HW318920   2.050   3.012   2.532
 4650SOL    MW418921   2.016   3.072   2.585
 4651SOL     OW18922   2.501   3.152   3.566
 4651SOL    HW218923   2.549   3.235   3.553
 4651SOL    HW318924   2.558   3.100   3.622
 4651SOL    MW418925   2.515   3.156   3.572
 4652SOL     OW18926   2.077   3.394   3.706
 4652SOL    HW218927   2.133   3.318   3.721
 4652SOL    HW318928   2.026   3.372   3.628
 4652SOL    MW418929   2.077   3.381   3.697
 4653SOL     OW18930   3.176   2.246   1.985
 4653SOL    HW218931   3.149   2.312   1.921
 4653SOL    HW318932   3.246   2.289   2.035
 4653SOL    MW418933   3.181   2.259   1.982
 4654SOL     OW18934   2.844   1.951   1.922
 4654SOL    HW218935   2.900   1.943   1.844
 4654SOL    HW318936   2.821   1.861   1.944
 4654SOL    MW418937   2.849   1.938   1.915
 4655SOL     OW18938   3.349   2.802   2.127
 4655SOL    HW218939   3.316   2.891   2.117
 4655SOL    HW318940   3.314   2.773   2.212
 4655SOL    MW418941   3.339   2.811   2.138
 4656SOL     OW18942   2.962   3.231   3.315
 4656SOL    HW218943   2.873   3.237   3.283
 4656SOL    HW318944   3.006   3.310   3.283
 4656SOL    MW418945   2.957   3.241   3.307
 4657SOL     OW18946   2.255   1.899   3.657
 4657SOL    HW218947   2.183   1.864   3.605
 4657SOL    HW318948   2.313   1.940   3.592
 4657SOL    MW418949   2.253   1.900   3.642
 4658SOL     OW18950   2.279   3.389   2.956
 4658SOL    HW218951   2.324   3.451   3.013
 4658SOL    HW318952   2.186   3.408   2.969
 4658SOL    MW418953   2.272   3.399   2.963
 4659SOL     OW18954   3.719   2.918   3.310
 4659SOL    HW218955   3.634   2.931   3.269
 4659SOL    HW318956   3.699   2.882   3.397
 4659SOL    MW418957   3.706   2.914   3.315
 4660SOL     OW18958   2.701   3.457   3.064
 4660SOL    HW218959   2.725   3.446   2.973
 4660SOL    HW318960   2.624   3.514   3.062
 4660SOL    MW418961   2.693   3.462   3.053
 4661SOL     OW18962   2.343   2.840   1.919
 4661SOL    HW218963   2.266   2.853   1.975
 4661SOL    HW318964   2.307   2.804   1.838
 4661SOL    MW418965   2.329   2.836   1.916
 4662SOL     OW18966   2.996   2.813   2.162
 4662SOL    HW218967   2.906   2.834   2.137
 4662SOL    HW318968   3.023   2.886   2.218
 4662SOL    MW418969   2.988   2.825   2.165
 4663SOL     OW18970   2.496   3.162   2.854
 4663SOL    HW218971   2.489   3.141   2.948
 4663SOL    HW318972   2.414   3.130   2.817
 4663SOL    MW418973   2.484   3.156   2.861
 4664SOL     OW18974   3.360   2.172   3.256
 4664SOL    HW218975   3.307   2.174   3.336
 4664SOL    HW318976   3.345   2.085   3.219
 4664SOL    MW418977   3.352   2.162   3.261
 4665SOL     OW18978   3.696   2.096   3.129
 4665SOL    HW218979   3.677   2.163   3.064
 4665SOL    HW318980   3.753   2.034   3.084
 4665SOL    MW418981   3.700   2.097   3.115
 4666SOL     OW18982   1.942   3.254   3.517
 4666SOL    HW218983   1.986   3.187   3.463
 4666SOL    HW318984   1.857   3.216   3.537
 4666SOL    MW418985   1.937   3.240   3.513
 4667SOL     OW18986   2.625   1.929   2.569
 4667SOL    HW218987   2.554   1.990   2.551
 4667SOL    HW318988   2.676   1.926   2.488
 4667SOL    MW418989   2.621   1.935   2.556
 4668SOL     OW18990   2.383   3.169   2.318
 4668SOL    HW218991   2.376   3.201   2.408
 4668SOL    HW318992   2.293   3.153   2.290
 4668SOL    MW418993   2.371   3.171   2.325
 4669SOL     OW18994   2.978   3.562   3.227
 4669SOL    HW218995   2.898   3.547   3.177
 4669SOL    HW318996   2.985   3.657   3.234
 4669SOL    MW418997   2.969   3.573   3.221
 4670SOL     OW18998   3.092   3.527   2.717
 4670SOL    HW218999   3.139   3.600   2.676
 4670SOL    HW319000   3.013   3.566   2.753
 4670SOL    MW419001   3.087   3.542   2.716
 4671SOL     OW19002   3.500   3.622   2.992
 4671SOL    HW219003   3.543   3.592   3.072
 4671SOL    HW319004   3.419   3.570   2.989
 4671SOL    MW419005   3.495   3.611   3.002
 4672SOL     OW19006   2.585   2.586   3.699
 4672SOL    HW219007   2.655   2.528   3.671
 4672SOL    HW319008   2.528   2.531   3.754
 4672SOL    MW419009   2.587   2.573   3.703
 4673SOL     OW19010   3.372   2.798   3.332
 4673SOL    HW219011   3.377   2.851   3.412
 4673SOL    HW319012   3.334   2.715   3.360
 4673SOL    MW419013   3.368   2.793   3.347
 4674SOL     OW19014   3.012   1.933   3.578
 4674SOL    HW219015   3.007   1.840   3.559
 4674SOL    HW319016   3.095   1.944   3.624
 4674SOL    MW419017   3.020   1.922   3.582
 4675SOL     OW19018   2.386   2.453   2.032
 4675SOL    HW219019   2.352   2.509   2.102
 4675SOL    HW319020   2.457   2.403   2.072
 4675SOL    MW419021   2.392   2.454   2.046
 4676SOL     OW19022   3.482   3.204   2.854
 4676SOL    HW219023   3.517   3.186   2.767
 4676SOL    HW319024   3.387   3.205   2.841
 4676SOL    MW419025   3.474   3.201   2.841
 4677SOL     OW19026   2.911   2.852   3.223
 4677SOL    HW219027   2.954   2.887   3.301
 4677SOL    HW319028   2.894   2.929   3.169
 4677SOL    MW419029   2.914   2.867   3.226
 4678SOL     OW19030   3.442   2.339   2.096
 4678SOL    HW219031   3.434   2.410   2.033
 4678SOL    HW319032   3.460   2.383   2.179
 4678SOL    MW419033   3.443   2.353   2.098
 4679SOL     OW19034   2.302   1.994   2.525
 4679SOL    HW219035   2.352   2.037   2.456
 4679SOL    HW319036   2.217   2.038   2.525
 4679SOL    MW419037   2.299   2.007   2.516
 4680SOL     OW19038   2.061   3.056   3.385
 4680SOL    HW219039   2.089   3.009   3.463
 4680SOL    HW319040   1.982   3.011   3.356
 4680SOL    MW419041   2.054   3.045   3.391
 4681SOL     OW19042   2.569   2.383   3.352
 4681SOL    HW219043   2.541   2.471   3.376
 4681SOL    HW319044   2.538   2.327   3.423
 4681SOL    MW419045   2.561   2.386   3.364
 4682SOL     OW19046   3.111   2.601   2.071
 4682SOL    HW219047   3.158   2.619   1.990
 4682SOL    HW319048   3.077   2.685   2.099
 4682SOL    MW419049   3.113   2.615   2.064
 4683SOL     OW19050   2.224   2.779   2.565
 4683SOL    HW219051   2.282   2.835   2.513
 4683SOL    HW319052   2.268   2.694   2.567
 4683SOL    MW419053   2.237   2.776   2.558
 4684SOL     OW19054   3.364   2.131   2.402
 4684SOL    HW219055   3.286   2.081   2.427
 4684SOL    HW319056   3.335   2.222   2.402
 4684SOL    MW419057   3.350   2.135   2.405
 4685SOL     OW19058   2.950   2.093   2.561
 4685SOL    HW219059   2.970   2.168   2.505
 4685SOL    HW319060   2.930   2.132   2.646
 4685SOL    MW419061   2.951   2.109   2.565
 4686SOL     OW19062   2.846   3.343   1.893
 4686SOL    HW219063   2.873   3.421   1.845
 4686SOL    HW319064   2.753   3.358   1.912
 4686SOL    MW419065   2.837   3.356   1.889
 4687SOL     OW19066   3.710   2.866   3.580
 4687SOL    HW219067   3.623   2.846   3.616
 4687SOL    HW319068   3.764   2.792   3.605
 4687SOL    MW419069   3.705   2.855   3.588
 4688SOL     OW19070   1.931   3.379   2.737
 4688SOL    HW219071   1.963   3.383   2.828
 4688SOL    HW319072   1.836   3.387   2.745
 4688SOL    MW419073   1.923   3.382   2.750
 4689SOL     OW19074   1.886   2.505   2.284
 4689SOL    HW219075   1.826   2.477   2.354
 4689SOL    HW319076   1.960   2.445   2.290
 4689SOL    MW419077   1.888   2.494   2.293
 4690SOL     OW19078   3.454   3.717   3.718
 4690SOL    HW219079   3.499   3.641   3.683
 4690SOL    HW319080   3.492   3.730   3.805
 4690SOL    MW419081   3.464   3.710   3.724
 4691SOL     OW19082   3.054   3.236   2.444
 4691SOL    HW219083   3.077   3.187   2.522
 4691SOL    HW319084   3.135   3.278   2.416
 4691SOL    MW419085   3.067   3.236   2.451
 4692SOL     OW19086   2.312   2.244   3.173
 4692SOL    HW219087   2.345   2.325   3.213
 4692SOL    HW319088   2.285   2.270   3.085
 4692SOL    MW419089   2.311   2.258   3.167
 4693SOL     OW19090   2.266   2.211   2.909
 4693SOL    HW219091   2.296   2.125   2.880
 4693SOL    HW319092   2.171   2.204   2.912
 4693SOL    MW419093   2.258   2.200   2.907
 4694SOL     OW19094   3.095   2.420   3.600
 4694SOL    HW219095   3.147   2.355   3.553
 4694SOL    HW319096   3.053   2.471   3.530
 4694SOL    MW419097   3.096   2.417   3.583
 4695SOL     OW19098   3.194   2.215   3.461
 4695SOL    HW219099   3.101   2.199   3.448
 4695SOL    HW319100   3.220   2.153   3.529
 4695SOL    MW419101   3.184   2.205   3.468
 4696SOL     OW19102   2.409   1.989   2.800
 4696SOL    HW219103   2.419   1.898   2.826
 4696SOL    HW319104   2.365   1.985   2.715
 4696SOL    MW419105   2.405   1.977   2.792
 4697SOL     OW19106   2.503   3.604   3.346
 4697SOL    HW219107   2.420   3.589   3.391
 4697SOL    HW319108   2.562   3.537   3.381
 4697SOL    MW419109   2.501   3.594   3.356
 4698SOL     OW19110   3.560   2.311   2.971
 4698SOL    HW219111   3.493   2.344   3.031
 4698SOL    HW319112   3.603   2.389   2.937
 4698SOL    MW419113   3.558   2.326   2.975
 4699SOL     OW19114   3.738   3.031   2.941
 4699SOL    HW219115   3.731   2.971   2.866
 4699SOL    HW319116   3.664   3.091   2.930
 4699SOL    MW419117   3.728   3.031   2.930
 4700SOL     OW19118   3.120   2.893   2.859
 4700SOL    HW219119   3.134   2.865   2.950
 4700SOL    HW319120   3.206   2.924   2.831
 4700SOL    MW419121   3.133   2.894   2.868
 4701SOL     OW19122   3.203   2.388   3.138
 4701SOL    HW219123   3.224   2.389   3.045
 4701SOL    HW319124   3.248   2.310   3.171
 4701SOL    MW419125   3.210   2.378   3.130
 4702SOL     OW19126   3.696   2.519   3.680
 4702SOL    HW219127   3.733   2.464   3.749
 4702SOL    HW319128   3.721   2.476   3.598
 4702SOL    MW419129   3.703   2.507   3.679
 4703SOL     OW19130   3.243   2.817   3.731
 4703SOL    HW219131   3.309   2.765   3.685
 4703SOL    HW319132   3.263   2.804   3.824
 4703SOL    MW419133   3.254   2.808   3.738
 4704SOL     OW19134   3.194   1.903   2.080
 4704SOL    HW219135   3.268   1.947   2.123
 4704SOL    HW319136   3.118   1.957   2.102
 4704SOL    MW419137   3.194   1.915   2.088
 4705SOL     OW19138   3.254   2.678   2.358
 4705SOL    HW219139   3.169   2.648   2.328
 4705SOL    HW319140   3.246   2.685   2.453
 4705SOL    MW419141   3.242   2.676   2.367
 4706SOL     OW19142   2.330   3.141   3.089
 4706SOL    HW219143   2.342   3.168   3.180
 4706SOL    HW319144   2.311   3.222   3.042
 4706SOL    MW419145   2.329   3.156   3.094
 4707SOL     OW19146   2.614   2.121   2.912
 4707SOL    HW219147   2.587   2.123   3.003
 4707SOL    HW319148   2.544   2.073   2.867
 4707SOL    MW419149   2.602   2.117   2.919
 4708SOL     OW19150   2.468   3.613   3.074
 4708SOL    HW219151   2.520   3.690   3.051
 4708SOL    HW319152   2.477   3.605   3.169
 4708SOL    MW419153   2.477   3.620   3.085
 4709SOL     OW19154   3.370   3.198   3.306
 4709SOL    HW219155   3.355   3.127   3.369
 4709SOL    HW319156   3.416   3.156   3.234
 4709SOL    MW419157   3.376   3.182   3.306
 4710SOL     OW19158   2.444   2.929   3.423
 4710SOL    HW219159   2.481   2.934   3.335
 4710SOL    HW319160   2.483   3.002   3.470
 4710SOL    MW419161   2.454   2.939   3.418
 4711SOL     OW19162   2.624   2.972   3.235
 4711SOL    HW219163   2.683   2.918   3.288
 4711SOL    HW319164   2.639   2.944   3.145
 4711SOL    MW419165   2.634   2.961   3.231
 4712SOL     OW19166   2.627   2.344   2.084
 4712SOL    HW219167   2.700   2.393   2.047
 4712SOL    HW319168   2.643   2.253   2.058
 4712SOL    MW419169   2.639   2.339   2.077
 4713SOL     OW19170   3.435   3.461   3.407
 4713SOL    HW219171   3.477   3.446   3.492
 4713SOL    HW319172   3.426   3.374   3.369
 4713SOL    MW419173   3.439   3.449   3.414
 4714SOL     OW19174   3.095   1.940   2.998
 4714SOL    HW219175   3.150   1.949   2.920
 4714SOL    HW319176   3.150   1.974   3.069
 4714SOL    MW419177   3.109   1.945   2.997
 4715SOL     OW19178   2.102   2.853   2.182
 4715SOL    HW219179   2.039   2.869   2.111
 4715SOL    HW319180   2.049   2.816   2.253
 4715SOL    MW419181   2.087   2.850   2.182
 4716SOL     OW19182   2.458   3.207   2.041
 4716SOL    HW219183   2.473   3.183   2.133
 4716SOL    HW319184   2.366   3.185   2.025
 4716SOL    MW419185   2.448   3.200   2.051
 4717SOL     OW19186   2.997   3.438   2.193
 4717SOL    HW219187   3.005   3.356   2.144
 4717SOL    HW319188   2.916   3.477   2.160
 4717SOL    MW419189   2.987   3.433   2.183
 4718SOL     OW19190   2.256   3.596   2.762
 4718SOL    HW219191   2.260   3.507   2.797
 4718SOL    HW319192   2.282   3.587   2.671
 4718SOL    MW419193   2.259   3.584   2.754
 4719SOL     OW19194   2.873   3.074   3.005
 4719SOL    HW219195   2.805   3.008   3.021
 4719SOL    HW319196   2.891   3.068   2.912
 4719SOL    MW419197   2.866   3.065   2.996
 4720SOL     OW19198   1.962   3.349   3.256
 4720SOL    HW219199   1.952   3.307   3.342
 4720SOL    HW319200   1.883   3.402   3.246
 4720SOL    MW419201   1.951   3.350   3.267
 4721SOL     OW19202   2.866   2.213   2.826
 4721SOL    HW219203   2.796   2.165   2.871
 4721SOL    HW319204   2.898   2.276   2.890
 4721SOL    MW419205   2.861   2.215   2.840
 4722SOL     OW19206   2.517   2.649   3.446
 4722SOL    HW219207   2.510   2.744   3.434
 4722SOL    HW319208   2.526   2.638   3.541
 4722SOL    MW419209   2.518   2.661   3.456
 4723SOL     OW19210   2.238   3.164   3.704
 4723SOL    HW219211   2.310   3.166   3.641
 4723SOL    HW319212   2.208   3.073   3.703
 4723SOL    MW419213   2.243   3.153   3.696
 4724SOL     OW19214   3.322   1.927   3.171
 4724SOL    HW219215   3.393   1.873   3.135
 4724SOL    HW319216   3.321   1.906   3.264
 4724SOL    MW419217   3.331   1.918   3.179
 4725SOL     OW19218   3.522   3.457   3.655
 4725SOL    HW219219   3.495   3.454   3.746
 4725SOL    HW319220   3.618   3.461   3.658
 4725SOL    MW419221   3.532   3.457   3.667
 4726SOL     OW19222   2.333   2.319   2.639
 4726SOL    HW219223   2.404   2.267   2.602
 4726SOL    HW319224   2.319   2.284   2.726
 4726SOL    MW419225   2.341   2.308   2.646
 4727SOL     OW19226   1.888   3.654   3.711
 4727SOL    HW219227   1.938   3.632   3.633
 4727SOL    HW319228   1.896   3.749   3.719
 4727SOL    MW419229   1.896   3.663   3.702
 4728SOL     OW19230   2.649   3.412   2.715
 4728SOL    HW219231   2.577   3.349   2.728
 4728SOL    HW319232   2.610   3.497   2.733
 4728SOL    MW419233   2.633   3.415   2.718
 4729SOL     OW19234   2.969   2.260   2.363
 4729SOL    HW219235   2.991   2.197   2.295
 4729SOL    HW319236   2.874   2.252   2.374
 4729SOL    MW419237   2.959   2.251   2.355
 4730SOL     OW19238   2.054   1.950   2.295
 4730SOL    HW219239   2.125   1.971   2.234
 4730SOL    HW319240   2.008   1.878   2.253
 4730SOL    MW419241   2.058   1.944   2.281
 4731SOL     OW19242   1.885   2.417   3.438
 4731SOL    HW219243   1.949   2.483   3.413
 4731SOL    HW319244   1.804   2.444   3.395
 4731SOL    MW419245   1.883   2.429   3.430
 4732SOL     OW19246   3.623   3.324   2.395
 4732SOL    HW219247   3.593   3.257   2.456
 4732SOL    HW319248   3.717   3.330   2.409
 4732SOL    MW419249   3.631   3.316   2.405
 4733SOL     OW19250   3.179   3.001   2.325
 4733SOL    HW219251   3.151   3.087   2.358
 4733SOL    HW319252   3.207   3.017   2.235
 4733SOL    MW419253   3.179   3.015   2.317
 4734SOL     OW19254   2.841   1.921   2.378
 4734SOL    HW219255   2.878   1.980   2.443
 4734SOL    HW319256   2.818   1.977   2.304
 4734SOL    MW419257   2.842   1.936   2.377
 4735SOL     OW19258   3.694   2.803   2.800
 4735SOL    HW219259   3.685   2.835   2.711
 4735SOL    HW319260   3.647   2.719   2.800
 4735SOL    MW419261   3.687   2.796   2.790
 4736SOL     OW19262   2.070   2.643   3.379
 4736SOL    HW219263   2.091   2.712   3.317
 4736SOL    HW319264   2.150   2.590   3.384
 4736SOL    MW419265   2.083   2.644   3.373
 4737SOL     OW19266   3.606   2.734   2.501
 4737SOL    HW219267   3.700   2.723   2.489
 4737SOL    HW319268   3.582   2.806   2.442
 4737SOL    MW419269   3.616   2.742   2.492
 4738SOL     OW19270   2.055   2.658   3.646
 4738SOL    HW219271   1.981   2.602   3.672
 4738SOL    HW319272   2.050   2.661   3.551
 4738SOL    MW419273   2.044   2.651   3.636
 4739SOL     OW19274   2.221   1.945   3.096
 4739SOL    HW219275   2.264   2.029   3.116
 4739SOL    HW319276   2.294   1.883   3.089
 4739SOL    MW419277   2.236   1.948   3.097
 4740SOL     OW19278   2.262   2.612   2.274
 4740SOL    HW219279   2.262   2.707   2.259
 4740SOL    HW319280   2.339   2.596   2.328
 4740SOL    MW419281   2.272   2.623   2.279
 4741SOL     OW19282   3.038   2.471   3.338
 4741SOL    HW219283   3.074   2.444   3.254
 4741SOL    HW319284   2.951   2.505   3.317
 4741SOL    MW419285   3.032   2.472   3.325
 4742SOL     OW19286   2.021   2.343   2.563
 4742SOL    HW219287   2.083   2.350   2.636
 4742SOL    HW319288   2.021   2.250   2.540
 4742SOL    MW419289   2.029   2.332   2.570
 4743SOL     OW19290   3.568   3.683   2.095
 4743SOL    HW219291   3.635   3.716   2.035
 4743SOL    HW319292   3.525   3.762   2.129
 4743SOL    MW419293   3.570   3.698   2.091
 4744SOL     OW19294   2.703   2.604   3.047
 4744SOL    HW219295   2.661   2.522   3.023
 4744SOL    HW319296   2.704   2.603   3.143
 4744SOL    MW419297   2.696   2.593   3.056
 4745SOL     OW19298   3.374   3.737   3.446
 4745SOL    HW219299   3.377   3.643   3.429
 4745SOL    HW319300   3.397   3.745   3.538
 4745SOL    MW419301   3.377   3.725   3.456
 4746SOL     OW19302   2.507   2.074   3.152
 4746SOL    HW219303   2.438   2.137   3.173
 4746SOL    HW319304   2.534   2.038   3.237
 4746SOL    MW419305   2.501   2.077   3.165
 4747SOL     OW19306   1.890   2.915   2.021
 4747SOL    HW219307   1.859   2.980   2.084
 4747SOL    HW319308   1.839   2.837   2.040
 4747SOL    MW419309   1.880   2.912   2.031
 4748SOL     OW19310   3.302   1.927   2.769
 4748SOL    HW219311   3.390   1.936   2.806
 4748SOL    HW319312   3.312   1.868   2.695
 4748SOL    MW419313   3.316   1.921   2.763
 4749SOL     OW19314   3.334   2.666   2.613
 4749SOL    HW219315   3.414   2.681   2.562
 4749SOL    HW319316   3.327   2.571   2.619
 4749SOL    MW419317   3.343   2.655   2.608
 4750SOL     OW19318   2.474   3.715   1.963
 4750SOL    HW219319   2.379   3.715   1.955
 4750SOL    HW319320   2.490   3.661   2.041
 4750SOL    MW419321   2.464   3.709   1.972
 4751SOL     OW19322   2.784   2.592   3.310
 4751SOL    HW219323   2.853   2.659   3.307
 4751SOL    HW319324   2.717   2.630   3.366
 4751SOL    MW419325   2.785   2.605   3.317
 4752SOL     OW19326   2.202   2.892   3.558
 4752SOL    HW219327   2.156   2.808   3.560
 4752SOL    HW319328   2.259   2.886   3.482
 4752SOL    MW419329   2.204   2.880   3.550
 4753SOL     OW19330   3.319   2.535   1.879
 4753SOL    HW219331   3.247   2.511   1.821
 4753SOL    HW319332   3.385   2.572   1.821
 4753SOL    MW419333   3.318   2.537   1.864
 4754SOL     OW19334   2.453   3.267   2.559
 4754SOL    HW219335   2.518   3.200   2.580
 4754SOL    HW319336   2.505   3.344   2.536
 4754SOL    MW419337   2.468   3.269   2.558
 4755SOL     OW19338   2.714   2.432   2.689
 4755SOL    HW219339   2.654   2.450   2.761
 4755SOL    HW319340   2.748   2.344   2.708
 4755SOL    MW419341   2.710   2.422   2.702
 4756SOL     OW19342   3.655   1.931   3.358
 4756SOL    HW219343   3.576   1.977   3.386
 4756SOL    HW319344   3.690   1.985   3.287
 4756SOL    MW419345   3.649   1.944   3.352
 4757SOL     OW19346   2.939   3.015   2.708
 4757SOL    HW219347   3.031   2.996   2.726
 4757SOL    HW319348   2.912   2.945   2.648
 4757SOL    MW419349   2.947   3.003   2.702
 4758SOL     OW19350   2.732   2.835   2.063
 4758SOL    HW219351   2.718   2.747   2.028
 4758SOL    HW319352   2.683   2.892   2.004
 4758SOL    MW419353   2.724   2.830   2.051
 4759SOL     OW19354   3.213   3.253   2.804
 4759SOL    HW219355   3.186   3.337   2.769
 4759SOL    HW319356   3.173   3.248   2.891
 4759SOL    MW419357   3.206   3.262   2.810
 4760SOL     OW19358   3.132   3.201   3.072
 4760SOL    HW219359   3.143   3.168   3.161
 4760SOL    HW319360   3.051   3.160   3.041
 4760SOL    MW419361   3.122   3.193   3.078
 4761SOL     OW19362   2.145   2.559   2.842
 4761SOL    HW219363   2.095   2.558   2.923
 4761SOL    HW319364   2.165   2.651   2.826
 4761SOL    MW419365   2.141   2.571   2.850
 4762SOL     OW19366   3.212   3.323   3.604
 4762SOL    HW219367   3.212   3.417   3.620
 4762SOL    HW319368   3.257   3.313   3.520
 4762SOL    MW419369   3.218   3.333   3.595
 4763SOL     OW19370   3.451   2.041   2.165
 4763SOL    HW219371   3.444   2.045   2.260
 4763SOL    HW319372   3.463   2.132   2.138
 4763SOL    MW419373   3.452   2.054   2.173
 4764SOL     OW19374   2.740   2.604   2.279
 4764SOL    HW219375   2.720   2.590   2.186
 4764SOL    HW319376   2.833   2.583   2.286
 4764SOL    MW419377   2.750   2.599   2.268
 4765SOL     OW19378   2.067   2.227   3.583
 4765SOL    HW219379   2.024   2.286   3.520
 4765SOL    HW319380   2.135   2.282   3.623
 4765SOL    MW419381   2.071   2.242   3.580
 4766SOL     OW19382   3.179   2.847   3.128
 4766SOL    HW219383   3.242   2.844   3.201
 4766SOL    HW319384   3.095   2.865   3.170
 4766SOL    MW419385   3.175   2.849   3.143
 4767SOL     OW19386   2.723   3.562   2.317
 4767SOL    HW219387   2.781   3.633   2.344
 4767SOL    HW319388   2.746   3.490   2.375
 4767SOL    MW419389   2.734   3.562   2.328
 4768SOL     OW19390   3.518   2.024   2.907
 4768SOL    HW219391   3.563   1.942   2.926
 4768SOL    HW319392   3.538   2.080   2.983
 4768SOL    MW419393   3.528   2.020   2.919
 4769SOL     OW19394   1.966   1.867   3.006
 4769SOL    HW219395   1.957   1.868   2.911
 4769SOL    HW319396   2.060   1.879   3.021
 4769SOL    MW419397   1.978   1.870   2.997
 4770SOL     OW19398   3.603   3.060   2.626
 4770SOL    HW219399   3.582   3.006   2.549
 4770SOL    HW319400   3.699   3.058   2.630
 4770SOL    MW419401   3.612   3.053   2.615
 4771SOL     OW19402   2.295   3.205   3.369
 4771SOL    HW219403   2.216   3.155   3.392
 4771SOL    HW319404   2.365   3.164   3.419
 4771SOL    MW419405   2.293   3.193   3.379
 4772SOL     OW19406   2.179   1.994   2.052
 4772SOL    HW219407   2.108   2.049   2.020
 4772SOL    HW319408   2.221   1.960   1.973
 4772SOL    MW419409   2.175   1.996   2.038
 4773SOL     OW19410   3.303   2.491   2.888
 4773SOL    HW219411   3.226   2.537   2.854
 4773SOL    HW319412   3.360   2.560   2.922
 4773SOL    MW419413   3.300   2.506   2.888
 4774SOL     OW19414   1.935   2.093   1.901
 4774SOL    HW219415   1.902   2.172   1.945
 4774SOL    HW319416   1.990   2.126   1.830
 4774SOL    MW419417   1.938   2.107   1.898
 4775SOL     OW19418   1.969   3.350   2.090
 4775SOL    HW219419   1.986   3.434   2.132
 4775SOL    HW319420   2.004   3.359   2.002
 4775SOL    MW419421   1.974   3.363   2.084
 4776SOL     OW19422   3.241   3.439   2.307
 4776SOL    HW219423   3.304   3.429   2.236
 4776SOL    HW319424   3.158   3.459   2.262
 4776SOL    MW419425   3.238   3.440   2.292
 4777SOL     OW19426   3.604   2.707   3.993
 4777SOL    HW219427   3.645   2.649   4.058
 4777SOL    HW319428   3.511   2.699   4.010
 4777SOL    MW419429   3.598   2.699   4.003
 4778SOL     OW19430   3.470   2.639   4.988
 4778SOL    HW219431   3.425   2.706   5.039
 4778SOL    HW319432   3.558   2.675   4.974
 4778SOL    MW419433   3.476   2.652   4.992
 4779SOL     OW19434   2.398   2.890   4.222
 4779SOL    HW219435   2.488   2.865   4.206
 4779SOL    HW319436   2.394   2.983   4.199
 4779SOL    MW419437   2.410   2.899   4.217
 4780SOL     OW19438   3.514   3.593   4.364
 4780SOL    HW219439   3.526   3.539   4.442
 4780SOL    HW319440   3.551   3.541   4.293
 4780SOL    MW419441   3.520   3.578   4.365
 4781SOL     OW19442   2.893   3.478   5.365
 4781SOL    HW219443   2.934   3.514   5.286
 4781SOL    HW319444   2.928   3.389   5.372
 4781SOL    MW419445   2.904   3.471   5.356
 4782SOL     OW19446   3.450   3.033   4.969
 4782SOL    HW219447   3.371   2.998   4.927
 4782SOL    HW319448   3.477   3.105   4.913
 4782SOL    MW419449   3.443   3.038   4.956
 4783SOL     OW19450   2.682   2.346   4.235
 4783SOL    HW219451   2.657   2.434   4.263
 4783SOL    HW319452   2.679   2.349   4.139
 4783SOL    MW419453   2.678   2.358   4.227
 4784SOL     OW19454   2.124   2.374   4.163
 4784SOL    HW219455   2.156   2.462   4.145
 4784SOL    HW319456   2.112   2.372   4.258
 4784SOL    MW419457   2.127   2.386   4.175
 4785SOL     OW19458   2.202   2.787   5.064
 4785SOL    HW219459   2.265   2.734   5.015
 4785SOL    HW319460   2.183   2.861   5.007
 4785SOL    MW419461   2.208   2.789   5.051
 4786SOL     OW19462   2.523   2.129   4.250
 4786SOL    HW219463   2.581   2.205   4.252
 4786SOL    HW319464   2.458   2.150   4.183
 4786SOL    MW419465   2.522   2.141   4.241
 4787SOL     OW19466   2.610   3.056   4.425
 4787SOL    HW219467   2.690   3.059   4.477
 4787SOL    HW319468   2.638   3.023   4.339
 4787SOL    MW419469   2.624   3.052   4.420
 4788SOL     OW19470   2.635   3.397   5.328
 4788SOL    HW219471   2.719   3.423   5.367
 4788SOL    HW319472   2.659   3.341   5.254
 4788SOL    MW419473   2.649   3.393   5.323
 4789SOL     OW19474   2.387   2.560   4.416
 4789SOL    HW219475   2.372   2.480   4.467
 4789SOL    HW319476   2.469   2.595   4.450
 4789SOL    MW419477   2.395   2.552   4.428
 4790SOL     OW19478   2.724   3.246   5.101
 4790SOL    HW219479   2.688   3.312   5.041
 4790SOL    HW319480   2.652   3.184   5.114
 4790SOL    MW419481   2.710   3.246   5.095
 4791SOL     OW19482   2.529   2.386   4.793
 4791SOL    HW219483   2.435   2.382   4.811
 4791SOL    HW319484   2.559   2.295   4.802
 4791SOL    MW419485   2.520   2.374   4.796
 4792SOL     OW19486   2.275   2.800   4.697
 4792SOL    HW219487   2.230   2.807   4.613
 4792SOL    HW319488   2.255   2.883   4.741
 4792SOL    MW419489   2.267   2.812   4.691
 4793SOL     OW19490   1.972   3.646   4.572
 4793SOL    HW219491   2.061   3.638   4.607
 4793SOL    HW319492   1.936   3.558   4.577
 4793SOL    MW419493   1.979   3.633   4.577
 4794SOL     OW19494   3.237   3.038   3.941
 4794SOL    HW219495   3.155   3.074   3.907
 4794SOL    HW319496   3.305   3.081   3.890
 4794SOL    MW419497   3.235   3.048   3.929
 4795SOL     OW19498   2.236   3.173   4.607
 4795SOL    HW219499   2.212   3.226   4.683
 4795SOL    HW319500   2.292   3.231   4.555
 4795SOL    MW419501   2.240   3.188   4.610
 4796SOL     OW19502   2.798   2.817   4.417
 4796SOL    HW219503   2.712   2.804   4.457
 4796SOL    HW319504   2.851   2.744   4.449
 4796SOL    MW419505   2.794   2.806   4.426
 4797SOL     OW19506   2.206   3.469   5.202
 4797SOL    HW219507   2.114   3.445   5.187
 4797SOL    HW319508   2.250   3.386   5.219
 4797SOL    MW419509   2.200   3.454   5.201
 4798SOL     OW19510   2.789   3.179   4.134
 4798SOL    HW219511   2.766   3.241   4.202
 4798SOL    HW319512   2.746   3.097   4.160
 4798SOL    MW419513   2.781   3.175   4.145
 4799SOL     OW19514   3.662   2.180   4.590
 4799SOL    HW219515   3.599   2.160   4.659
 4799SOL    HW319516   3.652   2.109   4.527
 4799SOL    MW419517   3.652   2.167   4.591
 4800SOL     OW19518   2.286   2.152   4.102
 4800SOL    HW219519   2.260   2.114   4.018
 4800SOL    HW319520   2.223   2.222   4.118
 4800SOL    MW419521   2.275   2.155   4.093
 4801SOL     OW19522   2.121   3.113   4.139
 4801SOL    HW219523   2.069   3.181   4.095
 4801SOL    HW319524   2.118   3.039   4.079
 4801SOL    MW419525   2.113   3.112   4.126
 4802SOL     OW19526   2.783   3.576   3.917
 4802SOL    HW219527   2.738   3.592   4.000
 4802SOL    HW319528   2.714   3.541   3.859
 4802SOL    MW419529   2.769   3.573   3.919
 4803SOL     OW19530   3.718   2.349   3.892
 4803SOL    HW219531   3.627   2.351   3.920
 4803SOL    HW319532   3.763   2.411   3.950
 4803SOL    MW419533   3.711   2.357   3.902
 4804SOL     OW19534   3.463   2.952   4.242
 4804SOL    HW219535   3.373   2.952   4.277
 4804SOL    HW319536   3.456   2.998   4.159
 4804SOL    MW419537   3.450   2.958   4.236
 4805SOL     OW19538   3.263   2.587   5.314
 4805SOL    HW219539   3.332   2.525   5.291
 4805SOL    HW319540   3.188   2.561   5.261
 4805SOL    MW419541   3.263   2.574   5.305
 4806SOL     OW19542   2.004   3.467   4.866
 4806SOL    HW219543   1.987   3.413   4.943
 4806SOL    HW319544   1.992   3.557   4.896
 4806SOL    MW419545   2.001   3.471   4.880
 4807SOL     OW19546   2.999   2.974   5.306
 4807SOL    HW219547   2.984   3.067   5.291
 4807SOL    HW319548   3.094   2.964   5.306
 4807SOL    MW419549   3.008   2.984   5.303
 4808SOL     OW19550   2.795   2.398   5.507
 4808SOL    HW219551   2.885   2.399   5.474
 4808SOL    HW319552   2.754   2.323   5.465
 4808SOL    MW419553   2.801   2.388   5.498
 4809SOL     OW19554   3.370   2.930   4.634
 4809SOL    HW219555   3.373   2.864   4.565
 4809SOL    HW319556   3.455   2.973   4.630
 4809SOL    MW419557   3.382   2.926   4.625
 4810SOL     OW19558   2.990   2.533   4.203
 4810SOL    HW219559   3.016   2.557   4.114
 4810SOL    HW319560   2.972   2.440   4.199
 4810SOL    MW419561   2.992   2.525   4.190
 4811SOL     OW19562   3.655   3.153   4.054
 4811SOL    HW219563   3.611   3.194   4.129
 4811SOL    HW319564   3.712   3.221   4.019
 4811SOL    MW419565   3.657   3.167   4.059
 4812SOL     OW19566   2.575   2.202   5.457
 4812SOL    HW219567   2.585   2.128   5.397
 4812SOL    HW319568   2.611   2.171   5.540
 4812SOL    MW419569   2.581   2.188   5.459
 4813SOL     OW19570   2.311   3.569   4.372
 4813SOL    HW219571   2.343   3.657   4.350
 4813SOL    HW319572   2.264   3.541   4.294
 4813SOL    MW419573   2.310   3.577   4.359
 4814SOL     OW19574   3.695   1.931   4.421
 4814SOL    HW219575   3.749   1.882   4.483
 4814SOL    HW319576   3.638   1.865   4.382
 4814SOL    MW419577   3.695   1.915   4.423
 4815SOL     OW19578   2.027   3.629   3.949
 4815SOL    HW219579   2.056   3.719   3.941
 4815SOL    HW319580   1.977   3.612   3.870
 4815SOL    MW419581   2.025   3.637   3.938
 4816SOL     OW19582   2.814   1.884   4.834
 4816SOL    HW219583   2.773   1.962   4.796
 4816SOL    HW319584   2.908   1.902   4.829
 4816SOL    MW419585   2.820   1.896   4.829
 4817SOL     OW19586   3.431   3.437   3.920
 4817SOL    HW219587   3.479   3.506   3.966
 4817SOL    HW319588   3.352   3.481   3.889
 4817SOL    MW419589   3.426   3.451   3.923
 4818SOL     OW19590   2.829   2.562   3.864
 4818SOL    HW219591   2.831   2.509   3.785
 4818SOL    HW319592   2.917   2.599   3.870
 4818SOL    MW419593   2.841   2.561   3.853
 4819SOL     OW19594   3.443   2.488   4.200
 4819SOL    HW219595   3.482   2.488   4.287
 4819SOL    HW319596   3.384   2.564   4.200
 4819SOL    MW419597   3.440   2.499   4.211
 4820SOL     OW19598   2.760   2.855   5.329
 4820SOL    HW219599   2.737   2.835   5.419
 4820SOL    HW319600   2.845   2.899   5.334
 4820SOL    MW419601   2.767   2.858   5.341
 4821SOL     OW19602   2.840   1.992   5.089
 4821SOL    HW219603   2.846   1.954   5.002
 4821SOL    HW319604   2.829   2.086   5.074
 4821SOL    MW419605   2.841   2.000   5.077
 4822SOL     OW19606   2.929   2.481   4.923
 4822SOL    HW219607   3.004   2.510   4.870
 4822SOL    HW319608   2.861   2.546   4.907
 4822SOL    MW419609   2.930   2.493   4.913
 4823SOL     OW19610   3.479   2.449   5.200
 4823SOL    HW219611   3.460   2.358   5.179
 4823SOL    HW319612   3.457   2.498   5.121
 4823SOL    MW419613   3.474   2.442   5.187
 4824SOL     OW19614   3.621   3.543   5.104
 4824SOL    HW219615   3.549   3.505   5.155
 4824SOL    HW319616   3.638   3.628   5.145
 4824SOL    MW419617   3.615   3.548   5.116
 4825SOL     OW19618   2.926   2.187   5.306
 4825SOL    HW219619   2.892   2.226   5.225
 4825SOL    HW319620   2.904   2.095   5.299
 4825SOL    MW419621   2.919   2.180   5.296
 4826SOL     OW19622   3.335   3.001   5.382
 4826SOL    HW219623   3.417   3.042   5.412
 4826SOL    HW319624   3.298   2.963   5.462
 4826SOL    MW419625   3.341   3.002   5.397
 4827SOL     OW19626   3.630   2.374   4.366
 4827SOL    HW219627   3.719   2.343   4.383
 4827SOL    HW319628   3.573   2.314   4.414
 4827SOL    MW419629   3.633   2.362   4.375
 4828SOL     OW19630   2.056   2.088   4.395
 4828SOL    HW219631   2.047   2.028   4.321
 4828SOL    HW319632   1.989   2.059   4.458
 4828SOL    MW419633   2.046   2.075   4.393
 4829SOL     OW19634   2.999   3.181   3.956
 4829SOL    HW219635   2.949   3.183   4.038
 4829SOL    HW319636   2.933   3.199   3.888
 4829SOL    MW419637   2.985   3.183   3.958
 4830SOL     OW19638   2.003   2.261   4.758
 4830SOL    HW219639   1.975   2.352   4.767
 4830SOL    HW319640   1.940   2.222   4.697
 4830SOL    MW419641   1.990   2.267   4.752
 4831SOL     OW19642   2.462   3.599   4.064
 4831SOL    HW219643   2.383   3.557   4.097
 4831SOL    HW319644   2.528   3.582   4.131
 4831SOL    MW419645   2.461   3.591   4.077
 4832SOL     OW19646   3.590   3.119   5.461
 4832SOL    HW219647   3.640   3.045   5.493
 4832SOL    HW319648   3.536   3.146   5.536
 4832SOL    MW419649   3.590   3.113   5.474
 4833SOL     OW19650   2.598   3.014   3.771
 4833SOL    HW219651   2.520   2.960   3.758
 4833SOL    HW319652   2.569   3.087   3.824
 4833SOL    MW419653   2.584   3.016   3.776
 4834SOL     OW19654   3.724   2.754   4.963
 4834SOL    HW219655   3.740   2.792   4.876
 4834SOL    HW319656   3.758   2.820   5.024
 4834SOL    MW419657   3.731   2.767   4.959
 4835SOL     OW19658   3.516   3.463   4.632
 4835SOL    HW219659   3.545   3.530   4.693
 4835SOL    HW319660   3.497   3.387   4.687
 4835SOL    MW419661   3.518   3.463   4.647
 4836SOL     OW19662   3.179   3.530   3.839
 4836SOL    HW219663   3.105   3.493   3.889
 4836SOL    HW319664   3.187   3.620   3.872
 4836SOL    MW419665   3.170   3.537   3.851
 4837SOL     OW19666   1.987   2.536   4.928
 4837SOL    HW219667   2.049   2.566   4.994
 4837SOL    HW319668   1.921   2.605   4.922
 4837SOL    MW419669   1.986   2.549   4.935
 4838SOL     OW19670   3.403   3.204   3.781
 4838SOL    HW219671   3.350   3.253   3.717
 4838SOL    HW319672   3.434   3.270   3.842
 4838SOL    MW419673   3.401   3.218   3.779
 4839SOL     OW19674   2.628   2.093   3.836
 4839SOL    HW219675   2.576   2.013   3.824
 4839SOL    HW319676   2.715   2.070   3.804
 4839SOL    MW419677   2.631   2.079   3.830
 4840SOL     OW19678   2.082   3.645   5.380
 4840SOL    HW219679   2.056   3.713   5.318
 4840SOL    HW319680   2.130   3.582   5.328
 4840SOL    MW419681   2.084   3.645   5.366
 4841SOL     OW19682   2.134   2.964   4.887
 4841SOL    HW219683   2.187   3.039   4.912
 4841SOL    HW319684   2.053   3.002   4.853
 4841SOL    MW419685   2.130   2.979   4.887
 4842SOL     OW19686   2.674   2.868   4.875
 4842SOL    HW219687   2.702   2.777   4.887
 4842SOL    HW319688   2.603   2.862   4.811
 4842SOL    MW419689   2.667   2.856   4.870
 4843SOL     OW19690   1.989   2.733   4.293
 4843SOL    HW219691   2.080   2.748   4.320
 4843SOL    HW319692   1.992   2.654   4.239
 4843SOL    MW419693   2.001   2.725   4.291
 4844SOL     OW19694   2.225   2.441   5.547
 4844SOL    HW219695   2.172   2.521   5.554
 4844SOL    HW319696   2.295   2.453   5.612
 4844SOL    MW419697   2.227   2.454   5.555
 4845SOL     OW19698   2.611   1.991   5.254
 4845SOL    HW219699   2.588   1.899   5.256
 4845SOL    HW319700   2.697   1.993   5.211
 4845SOL    MW419701   2.618   1.981   5.250
 4846SOL     OW19702   2.295   2.515   5.293
 4846SOL    HW219703   2.375   2.565   5.279
 4846SOL    HW319704   2.286   2.509   5.388
 4846SOL    MW419705   2.304   2.521   5.303
 4847SOL     OW19706   2.616   3.665   4.667
 4847SOL    HW219707   2.705   3.680   4.697
 4847SOL    HW319708   2.611   3.712   4.583
 4847SOL    MW419709   2.626   3.673   4.660
 4848SOL     OW19710   3.272   2.040   5.564
 4848SOL    HW219711   3.328   1.967   5.590
 4848SOL    HW319712   3.242   2.078   5.646
 4848SOL    MW419713   3.276   2.035   5.577
 4849SOL     OW19714   1.997   3.345   4.332
 4849SOL    HW219715   1.969   3.384   4.414
 4849SOL    HW319716   2.017   3.254   4.354
 4849SOL    MW419717   1.995   3.337   4.345
 4850SOL     OW19718   2.830   3.388   4.367
 4850SOL    HW219719   2.913   3.342   4.351
 4850SOL    HW319720   2.820   3.387   4.463
 4850SOL    MW419721   2.840   3.381   4.377
 4851SOL     OW19722   3.662   2.533   4.681
 4851SOL    HW219723   3.751   2.563   4.663
 4851SOL    HW319724   3.642   2.473   4.610
 4851SOL    MW419725   3.671   2.530   4.670
 4852SOL     OW19726   3.513   2.712   5.561
 4852SOL    HW219727   3.568   2.636   5.542
 4852SOL    HW319728   3.515   2.720   5.656
 4852SOL    MW419729   3.521   2.703   5.569
 4853SOL     OW19730   2.563   3.445   3.772
 4853SOL    HW219731   2.503   3.514   3.742
 4853SOL    HW319732   2.508   3.387   3.825
 4853SOL    MW419733   2.547   3.447   3.774
 4854SOL     OW19734   3.001   2.090   3.995
 4854SOL    HW219735   2.934   2.066   3.932
 4854SOL    HW319736   3.066   2.139   3.944
 4854SOL    MW419737   3.001   2.092   3.980
 4855SOL     OW19738   2.808   2.274   5.080
 4855SOL    HW219739   2.727   2.315   5.108
 4855SOL    HW319740   2.855   2.342   5.032
 4855SOL    MW419741   2.803   2.289   5.078
 4856SOL     OW19742   3.068   2.612   4.703
 4856SOL    HW219743   3.081   2.706   4.713
 4856SOL    HW319744   3.029   2.602   4.617
 4856SOL    MW419745   3.064   2.623   4.693
 4857SOL     OW19746   2.520   2.807   4.507
 4857SOL    HW219747   2.431   2.798   4.540
 4857SOL    HW319748   2.524   2.897   4.475
 4857SOL    MW419749   2.509   2.818   4.507
 4858SOL     OW19750   3.319   2.390   4.502
 4858SOL    HW219751   3.264   2.311   4.501
 4858SOL    HW319752   3.301   2.431   4.586
 4858SOL    MW419753   3.309   2.385   4.511
 4859SOL     OW19754   2.290   2.077   5.319
 4859SOL    HW219755   2.211   2.095   5.371
 4859SOL    HW319756   2.285   2.139   5.246
 4859SOL    MW419757   2.280   2.087   5.316
 4860SOL     OW19758   2.938   2.594   4.459
 4860SOL    HW219759   2.875   2.526   4.483
 4860SOL    HW319760   2.958   2.575   4.367
 4860SOL    MW419761   2.932   2.581   4.451
 4861SOL     OW19762   2.194   3.489   4.161
 4861SOL    HW219763   2.155   3.536   4.087
 4861SOL    HW319764   2.128   3.424   4.186
 4861SOL    MW419765   2.181   3.487   4.155
 4862SOL     OW19766   2.686   2.898   4.185
 4862SOL    HW219767   2.688   2.872   4.092
 4862SOL    HW319768   2.744   2.835   4.228
 4862SOL    MW419769   2.694   2.887   4.179
 4863SOL     OW19770   3.239   3.458   4.957
 4863SOL    HW219771   3.164   3.504   4.995
 4863SOL    HW319772   3.221   3.365   4.974
 4863SOL    MW419773   3.228   3.452   4.965
 4864SOL     OW19774   3.243   3.666   4.387
 4864SOL    HW219775   3.186   3.619   4.326
 4864SOL    HW319776   3.329   3.627   4.374
 4864SOL    MW419777   3.246   3.657   4.377
 4865SOL     OW19778   3.196   2.142   4.518
 4865SOL    HW219779   3.224   2.074   4.579
 4865SOL    HW319780   3.110   2.113   4.488
 4865SOL    MW419781   3.189   2.129   4.522
 4866SOL     OW19782   2.001   3.076   4.452
 4866SOL    HW219783   2.065   3.108   4.515
 4866SOL    HW319784   2.050   3.012   4.400
 4866SOL    MW419785   2.016   3.072   4.453
 4867SOL     OW19786   2.501   3.152   5.434
 4867SOL    HW219787   2.549   3.235   5.421
 4867SOL    HW319788   2.558   3.100   5.490
 4867SOL    MW419789   2.515   3.156   5.440
 4868SOL     OW19790   2.077   3.394   5.574
 4868SOL    HW219791   2.133   3.318   5.589
 4868SOL    HW319792   2.026   3.372   5.496
 4868SOL    MW419793   2.077   3.381   5.565
 4869SOL     OW19794   3.176   2.246   3.853
 4869SOL    HW219795   3.149   2.312   3.789
 4869SOL    HW319796   3.246   2.289   3.903
 4869SOL    MW419797   3.181   2.259   3.850
 4870SOL     OW19798   2.844   1.951   3.790
 4870SOL    HW219799   2.900   1.943   3.712
 4870SOL    HW319800   2.821   1.861   3.812
 4870SOL    MW419801   2.849   1.938   3.783
 4871SOL     OW19802   3.349   2.802   3.995
 4871SOL    HW219803   3.316   2.891   3.985
 4871SOL    HW319804   3.314   2.773   4.080
 4871SOL    MW419805   3.339   2.811   4.006
 4872SOL     OW19806   2.962   3.231   5.183
 4872SOL    HW219807   2.873   3.237   5.151
 4872SOL    HW319808   3.006   3.310   5.151
 4872SOL    MW419809   2.957   3.241   5.175
 4873SOL     OW19810   2.255   1.899   5.525
 4873SOL    HW219811   2.183   1.864   5.473
 4873SOL    HW319812   2.313   1.940   5.460
 4873SOL    MW419813   2.253   1.900   5.510
 4874SOL     OW19814   2.279   3.389   4.824
 4874SOL    HW219815   2.324   3.451   4.881
 4874SOL    HW319816   2.186   3.408   4.837
 4874SOL    MW419817   2.272   3.399   4.831
 4875SOL     OW19818   3.719   2.918   5.178
 4875SOL    HW219819   3.634   2.931   5.137
 4875SOL    HW319820   3.699   2.882   5.265
 4875SOL    MW419821   3.706   2.914   5.183
 4876SOL     OW19822   2.701   3.457   4.932
 4876SOL    HW219823   2.725   3.446   4.841
 4876SOL    HW319824   2.624   3.514   4.930
 4876SOL    MW419825   2.693   3.462   4.921
 4877SOL     OW19826   2.343   2.840   3.787
 4877SOL    HW219827   2.266   2.853   3.843
 4877SOL    HW319828   2.307   2.804   3.706
 4877SOL    MW419829   2.329   2.836   3.784
 4878SOL     OW19830   2.996   2.813   4.030
 4878SOL    HW219831   2.906   2.834   4.005
 4878SOL    HW319832   3.023   2.886   4.086
 4878SOL    MW419833   2.988   2.825   4.033
 4879SOL     OW19834   2.496   3.162   4.722
 4879SOL    HW219835   2.489   3.141   4.816
 4879SOL    HW319836   2.414   3.130   4.685
 4879SOL    MW419837   2.484   3.156   4.729
 4880SOL     OW19838   3.360   2.172   5.124
 4880SOL    HW219839   3.307   2.174   5.204
 4880SOL    HW319840   3.345   2.085   5.087
 4880SOL    MW419841   3.352   2.162   5.129
 4881SOL     OW19842   3.696   2.096   4.997
 4881SOL    HW219843   3.677   2.163   4.932
 4881SOL    HW319844   3.753   2.034   4.952
 4881SOL    MW419845   3.700   2.097   4.983
 4882SOL     OW19846   1.942   3.254   5.385
 4882SOL    HW219847   1.986   3.187   5.331
 4882SOL    HW319848   1.857   3.216   5.405
 4882SOL    MW419849   1.937   3.240   5.381
 4883SOL     OW19850   2.625   1.929   4.437
 4883SOL    HW219851   2.554   1.990   4.419
 4883SOL    HW319852   2.676   1.926   4.356
 4883SOL    MW419853   2.621   1.935   4.424
 4884SOL     OW19854   2.383   3.169   4.186
 4884SOL    HW219855   2.376   3.201   4.276
 4884SOL    HW319856   2.293   3.153   4.158
 4884SOL    MW419857   2.371   3.171   4.193
 4885SOL     OW19858   2.978   3.562   5.095
 4885SOL    HW219859   2.898   3.547   5.045
 4885SOL    HW319860   2.985   3.657   5.102
 4885SOL    MW419861   2.969   3.573   5.089
 4886SOL     OW19862   3.092   3.527   4.585
 4886SOL    HW219863   3.139   3.600   4.544
 4886SOL    HW319864   3.013   3.566   4.621
 4886SOL    MW419865   3.087   3.542   4.584
 4887SOL     OW19866   3.500   3.622   4.860
 4887SOL    HW219867   3.543   3.592   4.940
 4887SOL    HW319868   3.419   3.570   4.857
 4887SOL    MW419869   3.495   3.611   4.870
 4888SOL     OW19870   2.585   2.586   5.567
 4888SOL    HW219871   2.655   2.528   5.539
 4888SOL    HW319872   2.528   2.531   5.622
 4888SOL    MW419873   2.587   2.573   5.571
 4889SOL     OW19874   3.372   2.798   5.200
 4889SOL    HW219875   3.377   2.851   5.280
 4889SOL    HW319876   3.334   2.715   5.228
 4889SOL    MW419877   3.368   2.793   5.215
 4890SOL     OW19878   3.012   1.933   5.446
 4890SOL    HW219879   3.007   1.840   5.427
 4890SOL    HW319880   3.095   1.944   5.492
 4890SOL    MW419881   3.020   1.922   5.450
 4891SOL     OW19882   2.386   2.453   3.900
 4891SOL    HW219883   2.352   2.509   3.970
 4891SOL    HW319884   2.457   2.403   3.940
 4891SOL    MW419885   2.392   2.454   3.914
 4892SOL     OW19886   3.482   3.204   4.722
 4892SOL    HW219887   3.517   3.186   4.635
 4892SOL    HW319888   3.387   3.205   4.709
 4892SOL    MW419889   3.474   3.201   4.709
 4893SOL     OW19890   2.911   2.852   5.091
 4893SOL    HW219891   2.954   2.887   5.169
 4893SOL    HW319892   2.894   2.929   5.037
 4893SOL    MW419893   2.914   2.867   5.094
 4894SOL     OW19894   3.442   2.339   3.964
 4894SOL    HW219895   3.434   2.410   3.901
 4894SOL    HW319896   3.460   2.383   4.047
 4894SOL    MW419897   3.443   2.353   3.966
 4895SOL     OW19898   2.302   1.994   4.393
 4895SOL    HW219899   2.352   2.037   4.324
 4895SOL    HW319900   2.217   2.038   4.393
 4895SOL    MW419901   2.299   2.007   4.384
 4896SOL     OW19902   2.061   3.056   5.253
 4896SOL    HW219903   2.089   3.009   5.331
 4896SOL    HW319904   1.982   3.011   5.224
 4896SOL    MW419905   2.054   3.045   5.259
 4897SOL     OW19906   2.569   2.383   5.220
 4897SOL    HW219907   2.541   2.471   5.244
 4897SOL    HW319908   2.538   2.327   5.291
 4897SOL    MW419909   2.561   2.386   5.232
 4898SOL     OW19910   3.111   2.601   3.939
 4898SOL    HW219911   3.158   2.619   3.858
 4898SOL    HW319912   3.077   2.685   3.967
 4898SOL    MW419913   3.113   2.615   3.932
 4899SOL     OW19914   2.224   2.779   4.433
 4899SOL    HW219915   2.282   2.835   4.381
 4899SOL    HW319916   2.268   2.694   4.435
 4899SOL    MW419917   2.237   2.776   4.426
 4900SOL     OW19918   3.364   2.131   4.270
 4900SOL    HW219919   3.286   2.081   4.295
 4900SOL    HW319920   3.335   2.222   4.270
 4900SOL    MW419921   3.350   2.135   4.273
 4901SOL     OW19922   2.950   2.093   4.429
 4901SOL    HW219923   2.970   2.168   4.373
 4901SOL    HW319924   2.930   2.132   4.514
 4901SOL    MW419925   2.951   2.109   4.433
 4902SOL     OW19926   2.846   3.343   3.761
 4902SOL    HW219927   2.873   3.421   3.713
 4902SOL    HW319928   2.753   3.358   3.780
 4902SOL    MW419929   2.837   3.356   3.757
 4903SOL     OW19930   3.710   2.866   5.448
 4903SOL    HW219931   3.623   2.846   5.484
 4903SOL    HW319932   3.764   2.792   5.473
 4903SOL    MW419933   3.705   2.855   5.456
 4904SOL     OW19934   1.931   3.379   4.605
 4904SOL    HW219935   1.963   3.383   4.696
 4904SOL    HW319936   1.836   3.387   4.613
 4904SOL    MW419937   1.923   3.382   4.618
 4905SOL     OW19938   1.886   2.505   4.152
 4905SOL    HW219939   1.826   2.477   4.222
 4905SOL    HW319940   1.960   2.445   4.158
 4905SOL    MW419941   1.888   2.494   4.161
 4906SOL     OW19942   3.454   3.717   5.586
 4906SOL    HW219943   3.499   3.641   5.551
 4906SOL    HW319944   3.492   3.730   5.673
 4906SOL    MW419945   3.464   3.710   5.592
 4907SOL     OW19946   3.054   3.236   4.312
 4907SOL    HW219947   3.077   3.187   4.390
 4907SOL    HW319948   3.135   3.278   4.284
 4907SOL    MW419949   3.067   3.236   4.319
 4908SOL     OW19950   2.312   2.244   5.041
 4908SOL    HW219951   2.345   2.325   5.081
 4908SOL    HW319952   2.285   2.270   4.953
 4908SOL    MW419953   2.311   2.258   5.035
 4909SOL     OW19954   2.266   2.211   4.777
 4909SOL    HW219955   2.296   2.125   4.748
 4909SOL    HW319956   2.171   2.204   4.780
 4909SOL    MW419957   2.258   2.200   4.775
 4910SOL     OW19958   3.095   2.420   5.468
 4910SOL    HW219959   3.147   2.355   5.421
 4910SOL    HW319960   3.053   2.471   5.398
 4910SOL    MW419961   3.096   2.417   5.451
 4911SOL     OW19962   3.194   2.215   5.329
 4911SOL    HW219963   3.101   2.199   5.316
 4911SOL    HW319964   3.220   2.153   5.397
 4911SOL    MW419965   3.184   2.205   5.336
 4912SOL     OW19966   2.409   1.989   4.668
 4912SOL    HW219967   2.419   1.898   4.694
 4912SOL    HW319968   2.365   1.985   4.583
 4912SOL    MW419969   2.405   1.977   4.660
 4913SOL     OW19970   2.503   3.604   5.214
 4913SOL    HW219971   2.420   3.589   5.259
 4913SOL    HW319972   2.562   3.537   5.249
 4913SOL    MW419973   2.501   3.594   5.224
 4914SOL     OW19974   3.560   2.311   4.839
 4914SOL    HW219975   3.493   2.344   4.899
 4914SOL    HW319976   3.603   2.389   4.805
 4914SOL    MW419977   3.558   2.326   4.843
 4915SOL     OW19978   3.738   3.031   4.809
 4915SOL    HW219979   3.731   2.971   4.734
 4915SOL    HW319980   3.664   3.091   4.798
 4915SOL    MW419981   3.728   3.031   4.798
 4916SOL     OW19982   3.120   2.893   4.727
 4916SOL    HW219983   3.134   2.865   4.818
 4916SOL    HW319984   3.206   2.924   4.699
 4916SOL    MW419985   3.133   2.894   4.736
 4917SOL     OW19986   3.203   2.388   5.006
 4917SOL    HW219987   3.224   2.389   4.913
 4917SOL    HW319988   3.248   2.310   5.039
 4917SOL    MW419989   3.210   2.378   4.998
 4918SOL     OW19990   3.696   2.519   5.548
 4918SOL    HW219991   3.733   2.464   5.617
 4918SOL    HW319992   3.721   2.476   5.466
 4918SOL    MW419993   3.703   2.507   5.547
 4919SOL     OW19994   3.243   2.817   5.600
 4919SOL    HW219995   3.309   2.765   5.554
 4919SOL    HW319996   3.263   2.804   5.693
 4919SOL    MW419997   3.254   2.808   5.607
 4920SOL     OW19998   3.194   1.903   3.948
 4920SOL    HW219999   3.268   1.947   3.991
 4920SOL    HW320000   3.118   1.957   3.970
 4920SOL    MW420001   3.194   1.915   3.956
 4921SOL     OW20002   3.254   2.678   4.226
 4921SOL    HW220003   3.169   2.648   4.196
 4921SOL    HW320004   3.246   2.685   4.321
 4921SOL    MW420005   3.242   2.676   4.235
 4922SOL     OW20006   2.330   3.141   4.957
 4922SOL    HW220007   2.342   3.168   5.048
 4922SOL    HW320008   2.311   3.222   4.910
 4922SOL    MW420009   2.329   3.156   4.962
 4923SOL     OW20010   2.614   2.121   4.780
 4923SOL    HW220011   2.587   2.123   4.871
 4923SOL    HW320012   2.544   2.073   4.735
 4923SOL    MW420013   2.602   2.117   4.787
 4924SOL     OW20014   2.468   3.613   4.942
 4924SOL    HW220015   2.520   3.690   4.919
 4924SOL    HW320016   2.477   3.605   5.037
 4924SOL    MW420017   2.477   3.620   4.953
 4925SOL     OW20018   3.370   3.198   5.174
 4925SOL    HW220019   3.355   3.127   5.237
 4925SOL    HW320020   3.416   3.156   5.102
 4925SOL    MW420021   3.376   3.182   5.174
 4926SOL     OW20022   2.444   2.929   5.291
 4926SOL    HW220023   2.481   2.934   5.203
 4926SOL    HW320024   2.483   3.002   5.338
 4926SOL    MW420025   2.454   2.939   5.286
 4927SOL     OW20026   2.624   2.972   5.103
 4927SOL    HW220027   2.683   2.918   5.156
 4927SOL    HW320028   2.639   2.944   5.013
 4927SOL    MW420029   2.634   2.961   5.099
 4928SOL     OW20030   2.627   2.344   3.952
 4928SOL    HW220031   2.700   2.393   3.915
 4928SOL    HW320032   2.643   2.253   3.926
 4928SOL    MW420033   2.639   2.339   3.945
 4929SOL     OW20034   3.435   3.461   5.275
 4929SOL    HW220035   3.477   3.446   5.360
 4929SOL    HW320036   3.426   3.374   5.237
 4929SOL    MW420037   3.439   3.449   5.282
 4930SOL     OW20038   3.095   1.940   4.866
 4930SOL    HW220039   3.150   1.949   4.788
 4930SOL    HW320040   3.150   1.974   4.937
 4930SOL    MW420041   3.109   1.945   4.865
 4931SOL     OW20042   2.102   2.853   4.050
 4931SOL    HW220043   2.039   2.869   3.979
 4931SOL    HW320044   2.049   2.816   4.121
 4931SOL    MW420045   2.087   2.850   4.050
 4932SOL     OW20046   2.458   3.207   3.909
 4932SOL    HW220047   2.473   3.183   4.001
 4932SOL    HW320048   2.366   3.185   3.893
 4932SOL    MW420049   2.448   3.200   3.919
 4933SOL     OW20050   2.997   3.438   4.061
 4933SOL    HW220051   3.005   3.356   4.012
 4933SOL    HW320052   2.916   3.477   4.028
 4933SOL    MW420053   2.987   3.433   4.051
 4934SOL     OW20054   2.256   3.596   4.630
 4934SOL    HW220055   2.260   3.507   4.665
 4934SOL    HW320056   2.282   3.587   4.539
 4934SOL    MW420057   2.259   3.584   4.622
 4935SOL     OW20058   2.873   3.074   4.873
 4935SOL    HW220059   2.805   3.008   4.889
 4935SOL    HW320060   2.891   3.068   4.780
 4935SOL    MW420061   2.866   3.065   4.864
 4936SOL     OW20062   1.962   3.349   5.124
 4936SOL    HW220063   1.952   3.307   5.210
 4936SOL    HW320064   1.883   3.402   5.114
 4936SOL    MW420065   1.951   3.350   5.135
 4937SOL     OW20066   2.866   2.213   4.694
 4937SOL    HW220067   2.796   2.165   4.739
 4937SOL    HW320068   2.898   2.276   4.758
 4937SOL    MW420069   2.861   2.215   4.708
 4938SOL     OW20070   2.517   2.649   5.314
 4938SOL    HW220071   2.510   2.744   5.302
 4938SOL    HW320072   2.526   2.638   5.409
 4938SOL    MW420073   2.518   2.661   5.324
 4939SOL     OW20074   2.238   3.164   5.572
 4939SOL    HW220075   2.310   3.166   5.509
 4939SOL    HW320076   2.208   3.073   5.571
 4939SOL    MW420077   2.243   3.153   5.564
 4940SOL     OW20078   3.322   1.927   5.039
 4940SOL    HW220079   3.393   1.873   5.003
 4940SOL    HW320080   3.321   1.906   5.132
 4940SOL    MW420081   3.331   1.918   5.047
 4941SOL     OW20082   3.522   3.457   5.523
 4941SOL    HW220083   3.495   3.454   5.614
 4941SOL    HW320084   3.618   3.461   5.526
 4941SOL    MW420085   3.532   3.457   5.535
 4942SOL     OW20086   2.333   2.319   4.507
 4942SOL    HW220087   2.404   2.267   4.470
 4942SOL    HW320088   2.319   2.284   4.594
 4942SOL    MW420089   2.341   2.308   4.514
 4943SOL     OW20090   1.888   3.654   5.579
 4943SOL    HW220091   1.938   3.632   5.501
 4943SOL    HW320092   1.896   3.749   5.587
 4943SOL    MW420093   1.896   3.663   5.570
 4944SOL     OW20094   2.649   3.412   4.583
 4944SOL    HW220095   2.577   3.349   4.596
 4944SOL    HW320096   2.610   3.497   4.601
 4944SOL    MW420097   2.633   3.415   4.586
 4945SOL     OW20098   2.969   2.260   4.231
 4945SOL    HW220099   2.991   2.197   4.163
 4945SOL    HW320100   2.874   2.252   4.242
 4945SOL    MW420101   2.959   2.251   4.223
 4946SOL     OW20102   2.054   1.950   4.163
 4946SOL    HW220103   2.125   1.971   4.102
 4946SOL    HW320104   2.008   1.878   4.121
 4946SOL    MW420105   2.058   1.944   4.149
 4947SOL     OW20106   1.885   2.417   5.306
 4947SOL    HW220107   1.949   2.483   5.281
 4947SOL    HW320108   1.804   2.444   5.263
 4947SOL    MW420109   1.883   2.429   5.298
 4948SOL     OW20110   3.623   3.324   4.263
 4948SOL    HW220111   3.593   3.257   4.324
 4948SOL    HW320112   3.717   3.330   4.277
 4948SOL    MW420113   3.631   3.316   4.273
 4949SOL     OW20114   3.179   3.001   4.193
 4949SOL    HW220115   3.151   3.087   4.226
 4949SOL    HW320116   3.207   3.017   4.103
 4949SOL    MW420117   3.179   3.015   4.185
 4950SOL     OW20118   2.841   1.921   4.246
 4950SOL    HW220119   2.878   1.980   4.311
 4950SOL    HW320120   2.818   1.977   4.172
 4950SOL    MW420121   2.842   1.936   4.245
 4951SOL     OW20122   3.694   2.803   4.668
 4951SOL    HW220123   3.685   2.835   4.579
 4951SOL    HW320124   3.647   2.719   4.668
 4951SOL    MW420125   3.687   2.796   4.658
 4952SOL     OW20126   2.070   2.643   5.247
 4952SOL    HW220127   2.091   2.712   5.185
 4952SOL    HW320128   2.150   2.590   5.252
 4952SOL    MW420129   2.083   2.644   5.241
 4953SOL     OW20130   3.606   2.734   4.369
 4953SOL    HW220131   3.700   2.723   4.357
 4953SOL    HW320132   3.582   2.806   4.310
 4953SOL    MW420133   3.616   2.742   4.360
 4954SOL     OW20134   2.055   2.658   5.514
 4954SOL    HW220135   1.981   2.602   5.540
 4954SOL    HW320136   2.050   2.661   5.419
 4954SOL    MW420137   2.044   2.651   5.504
 4955SOL     OW20138   2.221   1.945   4.964
 4955SOL    HW220139   2.264   2.029   4.984
 4955SOL    HW320140   2.294   1.883   4.957
 4955SOL    MW420141   2.236   1.948   4.965
 4956SOL     OW20142   2.262   2.612   4.142
 4956SOL    HW220143   2.262   2.707   4.127
 4956SOL    HW320144   2.339   2.596   4.196
 4956SOL    MW420145   2.272   2.623   4.147
 4957SOL     OW20146   3.038   2.471   5.206
 4957SOL    HW220147   3.074   2.444   5.122
 4957SOL    HW320148   2.951   2.505   5.185
 4957SOL    MW420149   3.032   2.472   5.193
 4958SOL     OW20150   2.021   2.343   4.431
 4958SOL    HW220151   2.083   2.350   4.504
 4958SOL    HW320152   2.021   2.250   4.408
 4958SOL    MW420153   2.029   2.332   4.438
 4959SOL     OW20154   3.568   3.683   3.963
 4959SOL    HW220155   3.635   3.716   3.903
 4959SOL    HW320156   3.525   3.762   3.997
 4959SOL    MW420157   3.570   3.698   3.959
 4960SOL     OW20158   2.703   2.604   4.915
 4960SOL    HW220159   2.661   2.522   4.891
 4960SOL    HW320160   2.704   2.603   5.011
 4960SOL    MW420161   2.696   2.593   4.924
 4961SOL     OW20162   3.374   3.737   5.314
 4961SOL    HW220163   3.377   3.643   5.297
 4961SOL    HW320164   3.397   3.745   5.406
 4961SOL    MW420165   3.377   3.725   5.324
 4962SOL     OW20166   2.507   2.074   5.020
 4962SOL    HW220167   2.438   2.137   5.041
 4962SOL    HW320168   2.534   2.038   5.105
 4962SOL    MW420169   2.501   2.077   5.033
 4963SOL     OW20170   1.890   2.915   3.889
 4963SOL    HW220171   1.859   2.980   3.952
 4963SOL    HW320172   1.839   2.837   3.908
 4963SOL    MW420173   1.880   2.912   3.899
 4964SOL     OW20174   3.302   1.927   4.637
 4964SOL    HW220175   3.390   1.936   4.674
 4964SOL    HW320176   3.312   1.868   4.563
 4964SOL    MW420177   3.316   1.921   4.631
 4965SOL     OW20178   3.334   2.666   4.481
 4965SOL    HW220179   3.414   2.681   4.430
 4965SOL    HW320180   3.327   2.571   4.487
 4965SOL    MW420181   3.343   2.655   4.476
 4966SOL     OW20182   2.474   3.715   3.831
 4966SOL    HW220183   2.379   3.715   3.823
 4966SOL    HW320184   2.490   3.661   3.909
 4966SOL    MW420185   2.464   3.709   3.840
 4967SOL     OW20186   2.784   2.592   5.178
 4967SOL    HW220187   2.853   2.659   5.175
 4967SOL    HW320188   2.717   2.630   5.234
 4967SOL    MW420189   2.785   2.605   5.185
 4968SOL     OW20190   2.202   2.892   5.426
 4968SOL    HW220191   2.156   2.808   5.428
 4968SOL    HW320192   2.259   2.886   5.350
 4968SOL    MW420193   2.204   2.880   5.418
 4969SOL     OW20194   3.319   2.535   3.747
 4969SOL    HW220195   3.247   2.511   3.689
 4969SOL    HW320196   3.385   2.572   3.689
 4969SOL    MW420197   3.318   2.537   3.732
 4970SOL     OW20198   2.453   3.267   4.427
 4970SOL    HW220199   2.518   3.200   4.448
 4970SOL    HW320200   2.505   3.344   4.404
 4970SOL    MW420201   2.468   3.269   4.426
 4971SOL     OW20202   2.714   2.432   4.557
 4971SOL    HW220203   2.654   2.450   4.629
 4971SOL    HW320204   2.748   2.344   4.576
 4971SOL    MW420205   2.710   2.422   4.570
 4972SOL     OW20206   3.655   1.931   5.226
 4972SOL    HW220207   3.576   1.977   5.254
 4972SOL    HW320208   3.690   1.985   5.155
 4972SOL    MW420209   3.649   1.944   5.220
 4973SOL     OW20210   2.939   3.015   4.576
 4973SOL    HW220211   3.031   2.996   4.594
 4973SOL    HW320212   2.912   2.945   4.516
 4973SOL    MW420213   2.947   3.003   4.570
 4974SOL     OW20214   2.732   2.835   3.931
 4974SOL    HW220215   2.718   2.747   3.896
 4974SOL    HW320216   2.683   2.892   3.872
 4974SOL    MW420217   2.724   2.830   3.919
 4975SOL     OW20218   3.213   3.253   4.672
 4975SOL    HW220219   3.186   3.337   4.637
 4975SOL    HW320220   3.173   3.248   4.759
 4975SOL    MW420221   3.206   3.262   4.678
 4976SOL     OW20222   3.132   3.201   4.940
 4976SOL    HW220223   3.143   3.168   5.029
 4976SOL    HW320224   3.051   3.160   4.909
 4976SOL    MW420225   3.122   3.193   4.946
 4977SOL     OW20226   2.145   2.559   4.710
 4977SOL    HW220227   2.095   2.558   4.791
 4977SOL    HW320228   2.165   2.651   4.694
 4977SOL    MW420229   2.141   2.571   4.718
 4978SOL     OW20230   3.212   3.323   5.472
 4978SOL    HW220231   3.212   3.417   5.488
 4978SOL    HW320232   3.257   3.313   5.388
 4978SOL    MW420233   3.218   3.333   5.463
 4979SOL     OW20234   3.451   2.041   4.033
 4979SOL    HW220235   3.444   2.045   4.128
 4979SOL    HW320236   3.463   2.132   4.006
 4979SOL    MW420237   3.452   2.054   4.041
 4980SOL     OW20238   2.740   2.604   4.147
 4980SOL    HW220239   2.720   2.590   4.054
 4980SOL    HW320240   2.833   2.583   4.154
 4980SOL    MW420241   2.750   2.599   4.136
 4981SOL     OW20242   2.067   2.227   5.451
 4981SOL    HW220243   2.024   2.286   5.388
 4981SOL    HW320244   2.135   2.282   5.491
 4981SOL    MW420245   2.071   2.242   5.448
 4982SOL     OW20246   3.179   2.847   4.996
 4982SOL    HW220247   3.242   2.844   5.069
 4982SOL    HW320248   3.095   2.865   5.038
 4982SOL    MW420249   3.175   2.849   5.011
 4983SOL     OW20250   2.723   3.562   4.185
 4983SOL    HW220251   2.781   3.633   4.212
 4983SOL    HW320252   2.746   3.490   4.243
 4983SOL    MW420253   2.734   3.562   4.196
 4984SOL     OW20254   3.518   2.024   4.775
 4984SOL    HW220255   3.563   1.942   4.794
 4984SOL    HW320256   3.538   2.080   4.851
 4984SOL    MW420257   3.528   2.020   4.787
 4985SOL     OW20258   1.966   1.867   4.874
 4985SOL    HW220259   1.957   1.868   4.779
 4985SOL    HW320260   2.060   1.879   4.889
 4985SOL    MW420261   1.978   1.870   4.865
 4986SOL     OW20262   3.603   3.060   4.494
 4986SOL    HW220263   3.582   3.006   4.417
 4986SOL    HW320264   3.699   3.058   4.498
 4986SOL    MW420265   3.612   3.053   4.483
 4987SOL     OW20266   2.295   3.205   5.237
 4987SOL    HW220267   2.216   3.155   5.260
 4987SOL    HW320268   2.365   3.164   5.287
 4987SOL    MW420269   2.293   3.193   5.247
 4988SOL     OW20270   2.179   1.994   3.920
 4988SOL    HW220271   2.108   2.049   3.888
 4988SOL    HW320272   2.221   1.960   3.841
 4988SOL    MW420273   2.175   1.996   3.906
 4989SOL     OW20274   3.303   2.491   4.756
 4989SOL    HW220275   3.226   2.537   4.722
 4989SOL    HW320276   3.360   2.560   4.790
 4989SOL    MW420277   3.300   2.506   4.756
 4990SOL     OW20278   1.935   2.093   3.769
 4990SOL    HW220279   1.902   2.172   3.813
 4990SOL    HW320280   1.990   2.126   3.698
 4990SOL    MW420281   1.938   2.107   3.766
 4991SOL     OW20282   1.969   3.350   3.958
 4991SOL    HW220283   1.986   3.434   4.000
 4991SOL    HW320284   2.004   3.359   3.870
 4991SOL    MW420285   1.974   3.363   3.952
 4992SOL     OW20286   3.241   3.439   4.175
 4992SOL    HW220287   3.304   3.429   4.104
 4992SOL    HW320288   3.158   3.459   4.130
 4992SOL    MW420289   3.238   3.440   4.160
 4993SOL     OW20290   3.604   2.707   5.862
 4993SOL    HW220291   3.645   2.649   5.927
 4993SOL    HW320292   3.511   2.699   5.879
 4993SOL    MW420293   3.598   2.699   5.872
 4994SOL     OW20294   3.470   2.639   6.857
 4994SOL    HW220295   3.425   2.706   6.908
 4994SOL    HW320296   3.558   2.675   6.843
 4994SOL    MW420297   3.476   2.652   6.861
 4995SOL     OW20298   2.398   2.890   6.091
 4995SOL    HW220299   2.488   2.865   6.075
 4995SOL    HW320300   2.394   2.983   6.068
 4995SOL    MW420301   2.410   2.899   6.086
 4996SOL     OW20302   3.514   3.593   6.233
 4996SOL    HW220303   3.526   3.539   6.311
 4996SOL    HW320304   3.551   3.541   6.162
 4996SOL    MW420305   3.520   3.578   6.234
 4997SOL     OW20306   2.893   3.478   7.234
 4997SOL    HW220307   2.934   3.514   7.155
 4997SOL    HW320308   2.928   3.389   7.241
 4997SOL    MW420309   2.904   3.471   7.225
 4998SOL     OW20310   3.450   3.033   6.838
 4998SOL    HW220311   3.371   2.998   6.796
 4998SOL    HW320312   3.477   3.105   6.782
 4998SOL    MW420313   3.443   3.038   6.825
 4999SOL     OW20314   2.682   2.346   6.104
 4999SOL    HW220315   2.657   2.434   6.132
 4999SOL    HW320316   2.679   2.349   6.008
 4999SOL    MW420317   2.678   2.358   6.096
 5000SOL     OW20318   2.124   2.374   6.032
 5000SOL    HW220319   2.156   2.462   6.014
 5000SOL    HW320320   2.112   2.372   6.127
 5000SOL    MW420321   2.127   2.386   6.044
 5001SOL     OW20322   2.202   2.787   6.933
 5001SOL    HW220323   2.265   2.734   6.884
 5001SOL    HW320324   2.183   2.861   6.876
 5001SOL    MW420325   2.208   2.789   6.920
 5002SOL     OW20326   2.523   2.129   6.119
 5002SOL    HW220327   2.581   2.205   6.121
 5002SOL    HW320328   2.458   2.150   6.052
 5002SOL    MW420329   2.522   2.141   6.110
 5003SOL     OW20330   2.610   3.056   6.294
 5003SOL    HW220331   2.690   3.059   6.346
 5003SOL    HW320332   2.638   3.023   6.208
 5003SOL    MW420333   2.624   3.052   6.289
 5004SOL     OW20334   2.635   3.397   7.197
 5004SOL    HW220335   2.719   3.423   7.236
 5004SOL    HW320336   2.659   3.341   7.123
 5004SOL    MW420337   2.649   3.393   7.192
 5005SOL     OW20338   2.387   2.560   6.285
 5005SOL    HW220339   2.372   2.480   6.336
 5005SOL    HW320340   2.469   2.595   6.319
 5005SOL    MW420341   2.395   2.552   6.297
 5006SOL     OW20342   2.724   3.246   6.970
 5006SOL    HW220343   2.688   3.312   6.910
 5006SOL    HW320344   2.652   3.184   6.983
 5006SOL    MW420345   2.710   3.246   6.964
 5007SOL     OW20346   2.529   2.386   6.662
 5007SOL    HW220347   2.435   2.382   6.680
 5007SOL    HW320348   2.559   2.295   6.671
 5007SOL    MW420349   2.520   2.374   6.665
 5008SOL     OW20350   2.275   2.800   6.566
 5008SOL    HW220351   2.230   2.807   6.482
 5008SOL    HW320352   2.255   2.883   6.610
 5008SOL    MW420353   2.267   2.812   6.560
 5009SOL     OW20354   1.972   3.646   6.441
 5009SOL    HW220355   2.061   3.638   6.476
 5009SOL    HW320356   1.936   3.558   6.446
 5009SOL    MW420357   1.979   3.633   6.446
 5010SOL     OW20358   3.237   3.038   5.810
 5010SOL    HW220359   3.155   3.074   5.776
 5010SOL    HW320360   3.305   3.081   5.759
 5010SOL    MW420361   3.235   3.048   5.798
 5011SOL     OW20362   2.236   3.173   6.476
 5011SOL    HW220363   2.212   3.226   6.552
 5011SOL    HW320364   2.292   3.231   6.424
 5011SOL    MW420365   2.240   3.188   6.479
 5012SOL     OW20366   2.798   2.817   6.286
 5012SOL    HW220367   2.712   2.804   6.326
 5012SOL    HW320368   2.851   2.744   6.318
 5012SOL    MW420369   2.794   2.806   6.295
 5013SOL     OW20370   2.206   3.469   7.071
 5013SOL    HW220371   2.114   3.445   7.056
 5013SOL    HW320372   2.250   3.386   7.088
 5013SOL    MW420373   2.200   3.454   7.070
 5014SOL     OW20374   2.789   3.179   6.003
 5014SOL    HW220375   2.766   3.241   6.071
 5014SOL    HW320376   2.746   3.097   6.029
 5014SOL    MW420377   2.781   3.175   6.014
 5015SOL     OW20378   3.662   2.180   6.459
 5015SOL    HW220379   3.599   2.160   6.528
 5015SOL    HW320380   3.652   2.109   6.396
 5015SOL    MW420381   3.652   2.167   6.460
 5016SOL     OW20382   2.286   2.152   5.971
 5016SOL    HW220383   2.260   2.114   5.887
 5016SOL    HW320384   2.223   2.222   5.987
 5016SOL    MW420385   2.275   2.155   5.962
 5017SOL     OW20386   2.121   3.113   6.008
 5017SOL    HW220387   2.069   3.181   5.964
 5017SOL    HW320388   2.118   3.039   5.948
 5017SOL    MW420389   2.113   3.112   5.995
 5018SOL     OW20390   2.783   3.576   5.786
 5018SOL    HW220391   2.738   3.592   5.869
 5018SOL    HW320392   2.714   3.541   5.728
 5018SOL    MW420393   2.769   3.573   5.788
 5019SOL     OW20394   3.718   2.349   5.761
 5019SOL    HW220395   3.627   2.351   5.789
 5019SOL    HW320396   3.763   2.411   5.819
 5019SOL    MW420397   3.711   2.357   5.771
 5020SOL     OW20398   3.463   2.952   6.111
 5020SOL    HW220399   3.373   2.952   6.146
 5020SOL    HW320400   3.456   2.998   6.028
 5020SOL    MW420401   3.450   2.958   6.105
 5021SOL     OW20402   3.263   2.587   7.183
 5021SOL    HW220403   3.332   2.525   7.160
 5021SOL    HW320404   3.188   2.561   7.130
 5021SOL    MW420405   3.263   2.574   7.174
 5022SOL     OW20406   2.004   3.467   6.735
 5022SOL    HW220407   1.987   3.413   6.812
 5022SOL    HW320408   1.992   3.557   6.765
 5022SOL    MW420409   2.001   3.471   6.749
 5023SOL     OW20410   2.999   2.974   7.175
 5023SOL    HW220411   2.984   3.067   7.160
 5023SOL    HW320412   3.094   2.964   7.175
 5023SOL    MW420413   3.008   2.984   7.172
 5024SOL     OW20414   2.795   2.398   7.376
 5024SOL    HW220415   2.885   2.399   7.343
 5024SOL    HW320416   2.754   2.323   7.334
 5024SOL    MW420417   2.801   2.388   7.367
 5025SOL     OW20418   3.370   2.930   6.503
 5025SOL    HW220419   3.373   2.864   6.434
 5025SOL    HW320420   3.455   2.973   6.499
 5025SOL    MW420421   3.382   2.926   6.494
 5026SOL     OW20422   2.990   2.533   6.072
 5026SOL    HW220423   3.016   2.557   5.983
 5026SOL    HW320424   2.972   2.440   6.068
 5026SOL    MW420425   2.992   2.525   6.059
 5027SOL     OW20426   3.655   3.153   5.923
 5027SOL    HW220427   3.611   3.194   5.998
 5027SOL    HW320428   3.712   3.221   5.888
 5027SOL    MW420429   3.657   3.167   5.928
 5028SOL     OW20430   2.575   2.202   7.326
 5028SOL    HW220431   2.585   2.128   7.266
 5028SOL    HW320432   2.611   2.171   7.409
 5028SOL    MW420433   2.581   2.188   7.328
 5029SOL     OW20434   2.311   3.569   6.241
 5029SOL    HW220435   2.343   3.657   6.219
 5029SOL    HW320436   2.264   3.541   6.163
 5029SOL    MW420437   2.310   3.577   6.228
 5030SOL     OW20438   3.695   1.931   6.290
 5030SOL    HW220439   3.749   1.882   6.352
 5030SOL    HW320440   3.638   1.865   6.251
 5030SOL    MW420441   3.695   1.915   6.292
 5031SOL     OW20442   2.027   3.629   5.818
 5031SOL    HW220443   2.056   3.719   5.810
 5031SOL    HW320444   1.977   3.612   5.739
 5031SOL    MW420445   2.025   3.637   5.807
 5032SOL     OW20446   2.814   1.884   6.703
 5032SOL    HW220447   2.773   1.962   6.665
 5032SOL    HW320448   2.908   1.902   6.698
 5032SOL    MW420449   2.820   1.896   6.698
 5033SOL     OW20450   3.431   3.437   5.789
 5033SOL    HW220451   3.479   3.506   5.835
 5033SOL    HW320452   3.352   3.481   5.758
 5033SOL    MW420453   3.426   3.451   5.792
 5034SOL     OW20454   2.829   2.562   5.733
 5034SOL    HW220455   2.831   2.509   5.654
 5034SOL    HW320456   2.917   2.599   5.739
 5034SOL    MW420457   2.841   2.561   5.722
 5035SOL     OW20458   3.443   2.488   6.069
 5035SOL    HW220459   3.482   2.488   6.156
 5035SOL    HW320460   3.384   2.564   6.069
 5035SOL    MW420461   3.440   2.499   6.080
 5036SOL     OW20462   2.760   2.855   7.198
 5036SOL    HW220463   2.737   2.835   7.288
 5036SOL    HW320464   2.845   2.899   7.203
 5036SOL    MW420465   2.767   2.858   7.210
 5037SOL     OW20466   2.840   1.992   6.958
 5037SOL    HW220467   2.846   1.954   6.871
 5037SOL    HW320468   2.829   2.086   6.943
 5037SOL    MW420469   2.841   2.000   6.946
 5038SOL     OW20470   2.929   2.481   6.792
 5038SOL    HW220471   3.004   2.510   6.739
 5038SOL    HW320472   2.861   2.546   6.776
 5038SOL    MW420473   2.930   2.493   6.782
 5039SOL     OW20474   3.479   2.449   7.069
 5039SOL    HW220475   3.460   2.358   7.048
 5039SOL    HW320476   3.457   2.498   6.990
 5039SOL    MW420477   3.474   2.442   7.056
 5040SOL     OW20478   3.621   3.543   6.973
 5040SOL    HW220479   3.549   3.505   7.024
 5040SOL    HW320480   3.638   3.628   7.014
 5040SOL    MW420481   3.615   3.548   6.985
 5041SOL     OW20482   2.926   2.187   7.175
 5041SOL    HW220483   2.892   2.226   7.094
 5041SOL    HW320484   2.904   2.095   7.168
 5041SOL    MW420485   2.919   2.180   7.165
 5042SOL     OW20486   3.335   3.001   7.251
 5042SOL    HW220487   3.417   3.042   7.281
 5042SOL    HW320488   3.298   2.963   7.331
 5042SOL    MW420489   3.341   3.002   7.266
 5043SOL     OW20490   3.630   2.374   6.235
 5043SOL    HW220491   3.719   2.343   6.252
 5043SOL    HW320492   3.573   2.314   6.283
 5043SOL    MW420493   3.633   2.362   6.244
 5044SOL     OW20494   2.056   2.088   6.264
 5044SOL    HW220495   2.047   2.028   6.190
 5044SOL    HW320496   1.989   2.059   6.327
 5044SOL    MW420497   2.046   2.075   6.262
 5045SOL     OW20498   2.999   3.181   5.825
 5045SOL    HW220499   2.949   3.183   5.907
 5045SOL    HW320500   2.933   3.199   5.757
 5045SOL    MW420501   2.985   3.183   5.827
 5046SOL     OW20502   2.003   2.261   6.627
 5046SOL    HW220503   1.975   2.352   6.636
 5046SOL    HW320504   1.940   2.222   6.566
 5046SOL    MW420505   1.990   2.267   6.621
 5047SOL     OW20506   2.462   3.599   5.933
 5047SOL    HW220507   2.383   3.557   5.966
 5047SOL    HW320508   2.528   3.582   6.000
 5047SOL    MW420509   2.461   3.591   5.946
 5048SOL     OW20510   3.590   3.119   7.330
 5048SOL    HW220511   3.640   3.045   7.362
 5048SOL    HW320512   3.536   3.146   7.405
 5048SOL    MW420513   3.590   3.113   7.343
 5049SOL     OW20514   2.598   3.014   5.640
 5049SOL    HW220515   2.520   2.960   5.627
 5049SOL    HW320516   2.569   3.087   5.693
 5049SOL    MW420517   2.584   3.016   5.645
 5050SOL     OW20518   3.724   2.754   6.832
 5050SOL    HW220519   3.740   2.792   6.745
 5050SOL    HW320520   3.758   2.820   6.893
 5050SOL    MW420521   3.731   2.767   6.828
 5051SOL     OW20522   3.516   3.463   6.501
 5051SOL    HW220523   3.545   3.530   6.562
 5051SOL    HW320524   3.497   3.387   6.556
 5051SOL    MW420525   3.518   3.463   6.516
 5052SOL     OW20526   3.179   3.530   5.708
 5052SOL    HW220527   3.105   3.493   5.758
 5052SOL    HW320528   3.187   3.620   5.741
 5052SOL    MW420529   3.170   3.537   5.720
 5053SOL     OW20530   1.987   2.536   6.797
 5053SOL    HW220531   2.049   2.566   6.863
 5053SOL    HW320532   1.921   2.605   6.791
 5053SOL    MW420533   1.986   2.549   6.804
 5054SOL     OW20534   3.403   3.204   5.650
 5054SOL    HW220535   3.350   3.253   5.586
 5054SOL    HW320536   3.434   3.270   5.711
 5054SOL    MW420537   3.401   3.218   5.648
 5055SOL     OW20538   2.628   2.093   5.705
 5055SOL    HW220539   2.576   2.013   5.693
 5055SOL    HW320540   2.715   2.070   5.673
 5055SOL    MW420541   2.631   2.079   5.699
 5056SOL     OW20542   2.082   3.645   7.249
 5056SOL    HW220543   2.056   3.713   7.187
 5056SOL    HW320544   2.130   3.582   7.197
 5056SOL    MW420545   2.084   3.645   7.235
 5057SOL     OW20546   2.134   2.964   6.756
 5057SOL    HW220547   2.187   3.039   6.781
 5057SOL    HW320548   2.053   3.002   6.722
 5057SOL    MW420549   2.130   2.979   6.756
 5058SOL     OW20550   2.674   2.868   6.744
 5058SOL    HW220551   2.702   2.777   6.756
 5058SOL    HW320552   2.603   2.862   6.680
 5058SOL    MW420553   2.667   2.856   6.739
 5059SOL     OW20554   1.989   2.733   6.162
 5059SOL    HW220555   2.080   2.748   6.189
 5059SOL    HW320556   1.992   2.654   6.108
 5059SOL    MW420557   2.001   2.725   6.160
 5060SOL     OW20558   2.225   2.441   7.416
 5060SOL    HW220559   2.172   2.521   7.423
 5060SOL    HW320560   2.295   2.453   7.481
 5060SOL    MW420561   2.227   2.454   7.424
 5061SOL     OW20562   2.611   1.991   7.123
 5061SOL    HW220563   2.588   1.899   7.125
 5061SOL    HW320564   2.697   1.993   7.080
 5061SOL    MW420565   2.618   1.981   7.119
 5062SOL     OW20566   2.295   2.515   7.162
 5062SOL    HW220567   2.375   2.565   7.148
 5062SOL    HW320568   2.286   2.509   7.257
 5062SOL    MW420569   2.304   2.521   7.172
 5063SOL     OW20570   2.616   3.665   6.536
 5063SOL    HW220571   2.705   3.680   6.566
 5063SOL    HW320572   2.611   3.712   6.452
 5063SOL    MW420573   2.626   3.673   6.529
 5064SOL     OW20574   3.272   2.040   7.433
 5064SOL    HW220575   3.328   1.967   7.459
 5064SOL    HW320576   3.242   2.078   7.515
 5064SOL    MW420577   3.276   2.035   7.446
 5065SOL     OW20578   1.997   3.345   6.201
 5065SOL    HW220579   1.969   3.384   6.283
 5065SOL    HW320580   2.017   3.254   6.223
 5065SOL    MW420581   1.995   3.337   6.214
 5066SOL     OW20582   2.830   3.388   6.236
 5066SOL    HW220583   2.913   3.342   6.220
 5066SOL    HW320584   2.820   3.387   6.332
 5066SOL    MW420585   2.840   3.381   6.246
 5067SOL     OW20586   3.662   2.533   6.550
 5067SOL    HW220587   3.751   2.563   6.532
 5067SOL    HW320588   3.642   2.473   6.479
 5067SOL    MW420589   3.671   2.530   6.539
 5068SOL     OW20590   3.513   2.712   7.430
 5068SOL    HW220591   3.568   2.636   7.411
 5068SOL    HW320592   3.515   2.720   7.525
 5068SOL    MW420593   3.521   2.703   7.438
 5069SOL     OW20594   2.563   3.445   5.641
 5069SOL    HW220595   2.503   3.514   5.611
 5069SOL    HW320596   2.508   3.387   5.694
 5069SOL    MW420597   2.547   3.447   5.643
 5070SOL     OW20598   3.001   2.090   5.864
 5070SOL    HW220599   2.934   2.066   5.801
 5070SOL    HW320600   3.066   2.139   5.813
 5070SOL    MW420601   3.001   2.092   5.849
 5071SOL     OW20602   2.808   2.274   6.949
 5071SOL    HW220603   2.727   2.315   6.977
 5071SOL    HW320604   2.855   2.342   6.901
 5071SOL    MW420605   2.803   2.289   6.947
 5072SOL     OW20606   3.068   2.612   6.572
 5072SOL    HW220607   3.081   2.706   6.582
 5072SOL    HW320608   3.029   2.602   6.486
 5072SOL    MW420609   3.064   2.623   6.562
 5073SOL     OW20610   2.520   2.807   6.376
 5073SOL    HW220611   2.431   2.798   6.409
 5073SOL    HW320612   2.524   2.897   6.344
 5073SOL    MW420613   2.509   2.818   6.376
 5074SOL     OW20614   3.319   2.390   6.371
 5074SOL    HW220615   3.264   2.311   6.370
 5074SOL    HW320616   3.301   2.431   6.455
 5074SOL    MW420617   3.309   2.385   6.380
 5075SOL     OW20618   2.290   2.077   7.188
 5075SOL    HW220619   2.211   2.095   7.240
 5075SOL    HW320620   2.285   2.139   7.115
 5075SOL    MW420621   2.280   2.087   7.185
 5076SOL     OW20622   2.938   2.594   6.328
 5076SOL    HW220623   2.875   2.526   6.352
 5076SOL    HW320624   2.958   2.575   6.236
 5076SOL    MW420625   2.932   2.581   6.320
 5077SOL     OW20626   2.194   3.489   6.030
 5077SOL    HW220627   2.155   3.536   5.956
 5077SOL    HW320628   2.128   3.424   6.055
 5077SOL    MW420629   2.181   3.487   6.024
 5078SOL     OW20630   2.686   2.898   6.054
 5078SOL    HW220631   2.688   2.872   5.961
 5078SOL    HW320632   2.744   2.835   6.097
 5078SOL    MW420633   2.694   2.887   6.048
 5079SOL     OW20634   3.239   3.458   6.826
 5079SOL    HW220635   3.164   3.504   6.864
 5079SOL    HW320636   3.221   3.365   6.843
 5079SOL    MW420637   3.228   3.452   6.834
 5080SOL     OW20638   3.243   3.666   6.256
 5080SOL    HW220639   3.186   3.619   6.195
 5080SOL    HW320640   3.329   3.627   6.243
 5080SOL    MW420641   3.246   3.657   6.246
 5081SOL     OW20642   3.196   2.142   6.387
 5081SOL    HW220643   3.224   2.074   6.448
 5081SOL    HW320644   3.110   2.113   6.357
 5081SOL    MW420645   3.189   2.129   6.391
 5082SOL     OW20646   2.001   3.076   6.321
 5082SOL    HW220647   2.065   3.108   6.384
 5082SOL    HW320648   2.050   3.012   6.269
 5082SOL    MW420649   2.016   3.072   6.322
 5083SOL     OW20650   2.501   3.152   7.303
 5083SOL    HW220651   2.549   3.235   7.290
 5083SOL    HW320652   2.558   3.100   7.359
 5083SOL    MW420653   2.515   3.156   7.309
 5084SOL     OW20654   2.077   3.394   7.443
 5084SOL    HW220655   2.133   3.318   7.458
 5084SOL    HW320656   2.026   3.372   7.365
 5084SOL    MW420657   2.077   3.381   7.434
 5085SOL     OW20658   3.176   2.246   5.722
 5085SOL    HW220659   3.149   2.312   5.658
 5085SOL    HW320660   3.246   2.289   5.772
 5085SOL    MW420661   3.181   2.259   5.719
 5086SOL     OW20662   2.844   1.951   5.659
 5086SOL    HW220663   2.900   1.943   5.581
 5086SOL    HW320664   2.821   1.861   5.681
 5086SOL    MW420665   2.849   1.938   5.652
 5087SOL     OW20666   3.349   2.802   5.864
 5087SOL    HW220667   3.316   2.891   5.854
 5087SOL    HW320668   3.314   2.773   5.949
 5087SOL    MW420669   3.339   2.811   5.875
 5088SOL     OW20670   2.962   3.231   7.052
 5088SOL    HW220671   2.873   3.237   7.020
 5088SOL    HW320672   3.006   3.310   7.020
 5088SOL    MW420673   2.957   3.241   7.044
 5089SOL     OW20674   2.255   1.899   7.394
 5089SOL    HW220675   2.183   1.864   7.342
 5089SOL    HW320676   2.313   1.940   7.329
 5089SOL    MW420677   2.253   1.900   7.379
 5090SOL     OW20678   2.279   3.389   6.693
 5090SOL    HW220679   2.324   3.451   6.750
 5090SOL    HW320680   2.186   3.408   6.706
 5090SOL    MW420681   2.272   3.399   6.700
 5091SOL     OW20682   3.719   2.918   7.047
 5091SOL    HW220683   3.634   2.931   7.006
 5091SOL    HW320684   3.699   2.882   7.134
 5091SOL    MW420685   3.706   2.914   7.052
 5092SOL     OW20686   2.701   3.457   6.801
 5092SOL    HW220687   2.725   3.446   6.710
 5092SOL    HW320688   2.624   3.514   6.799
 5092SOL    MW420689   2.693   3.462   6.790
 5093SOL     OW20690   2.343   2.840   5.656
 5093SOL    HW220691   2.266   2.853   5.712
 5093SOL    HW320692   2.307   2.804   5.575
 5093SOL    MW420693   2.329   2.836   5.653
 5094SOL     OW20694   2.996   2.813   5.899
 5094SOL    HW220695   2.906   2.834   5.874
 5094SOL    HW320696   3.023   2.886   5.955
 5094SOL    MW420697   2.988   2.825   5.902
 5095SOL     OW20698   2.496   3.162   6.591
 5095SOL    HW220699   2.489   3.141   6.685
 5095SOL    HW320700   2.414   3.130   6.554
 5095SOL    MW420701   2.484   3.156   6.598
 5096SOL     OW20702   3.360   2.172   6.993
 5096SOL    HW220703   3.307   2.174   7.073
 5096SOL    HW320704   3.345   2.085   6.956
 5096SOL    MW420705   3.352   2.162   6.998
 5097SOL     OW20706   3.696   2.096   6.866
 5097SOL    HW220707   3.677   2.163   6.801
 5097SOL    HW320708   3.753   2.034   6.821
 5097SOL    MW420709   3.700   2.097   6.852
 5098SOL     OW20710   1.942   3.254   7.254
 5098SOL    HW220711   1.986   3.187   7.200
 5098SOL    HW320712   1.857   3.216   7.274
 5098SOL    MW420713   1.937   3.240   7.250
 5099SOL     OW20714   2.625   1.929   6.306
 5099SOL    HW220715   2.554   1.990   6.288
 5099SOL    HW320716   2.676   1.926   6.225
 5099SOL    MW420717   2.621   1.935   6.293
 5100SOL     OW20718   2.383   3.169   6.055
 5100SOL    HW220719   2.376   3.201   6.145
 5100SOL    HW320720   2.293   3.153   6.027
 5100SOL    MW420721   2.371   3.171   6.062
 5101SOL     OW20722   2.978   3.562   6.964
 5101SOL    HW220723   2.898   3.547   6.914
 5101SOL    HW320724   2.985   3.657   6.971
 5101SOL    MW420725   2.969   3.573   6.958
 5102SOL     OW20726   3.092   3.527   6.454
 5102SOL    HW220727   3.139   3.600   6.413
 5102SOL    HW320728   3.013   3.566   6.490
 5102SOL    MW420729   3.087   3.542   6.453
 5103SOL     OW20730   3.500   3.622   6.729
 5103SOL    HW220731   3.543   3.592   6.809
 5103SOL    HW320732   3.419   3.570   6.726
 5103SOL    MW420733   3.495   3.611   6.739
 5104SOL     OW20734   2.585   2.586   7.436
 5104SOL    HW220735   2.655   2.528   7.408
 5104SOL    HW320736   2.528   2.531   7.491
 5104SOL    MW420737   2.587   2.573   7.440
 5105SOL     OW20738   3.372   2.798   7.069
 5105SOL    HW220739   3.377   2.851   7.149
 5105SOL    HW320740   3.334   2.715   7.097
 5105SOL    MW420741   3.368   2.793   7.084
 5106SOL     OW20742   3.012   1.933   7.315
 5106SOL    HW220743   3.007   1.840   7.296
 5106SOL    HW320744   3.095   1.944   7.361
 5106SOL    MW420745   3.020   1.922   7.319
 5107SOL     OW20746   2.386   2.453   5.769
 5107SOL    HW220747   2.352   2.509   5.839
 5107SOL    HW320748   2.457   2.403   5.809
 5107SOL    MW420749   2.392   2.454   5.783
 5108SOL     OW20750   3.482   3.204   6.591
 5108SOL    HW220751   3.517   3.186   6.504
 5108SOL    HW320752   3.387   3.205   6.578
 5108SOL    MW420753   3.474   3.201   6.578
 5109SOL     OW20754   2.911   2.852   6.960
 5109SOL    HW220755   2.954   2.887   7.038
 5109SOL    HW320756   2.894   2.929   6.906
 5109SOL    MW420757   2.914   2.867   6.963
 5110SOL     OW20758   3.442   2.339   5.833
 5110SOL    HW220759   3.434   2.410   5.770
 5110SOL    HW320760   3.460   2.383   5.916
 5110SOL    MW420761   3.443   2.353   5.835
 5111SOL     OW20762   2.302   1.994   6.262
 5111SOL    HW220763   2.352   2.037   6.193
 5111SOL    HW320764   2.217   2.038   6.262
 5111SOL    MW420765   2.299   2.007   6.253
 5112SOL     OW20766   2.061   3.056   7.122
 5112SOL    HW220767   2.089   3.009   7.200
 5112SOL    HW320768   1.982   3.011   7.093
 5112SOL    MW420769   2.054   3.045   7.128
 5113SOL     OW20770   2.569   2.383   7.089
 5113SOL    HW220771   2.541   2.471   7.113
 5113SOL    HW320772   2.538   2.327   7.160
 5113SOL    MW420773   2.561   2.386   7.101
 5114SOL     OW20774   3.111   2.601   5.808
 5114SOL    HW220775   3.158   2.619   5.727
 5114SOL    HW320776   3.077   2.685   5.836
 5114SOL    MW420777   3.113   2.615   5.801
 5115SOL     OW20778   2.224   2.779   6.302
 5115SOL    HW220779   2.282   2.835   6.250
 5115SOL    HW320780   2.268   2.694   6.304
 5115SOL    MW420781   2.237   2.776   6.295
 5116SOL     OW20782   3.364   2.131   6.139
 5116SOL    HW220783   3.286   2.081   6.164
 5116SOL    HW320784   3.335   2.222   6.139
 5116SOL    MW420785   3.350   2.135   6.142
 5117SOL     OW20786   2.950   2.093   6.298
 5117SOL    HW220787   2.970   2.168   6.242
 5117SOL    HW320788   2.930   2.132   6.383
 5117SOL    MW420789   2.951   2.109   6.302
 5118SOL     OW20790   2.846   3.343   5.630
 5118SOL    HW220791   2.873   3.421   5.582
 5118SOL    HW320792   2.753   3.358   5.649
 5118SOL    MW420793   2.837   3.356   5.626
 5119SOL     OW20794   3.710   2.866   7.317
 5119SOL    HW220795   3.623   2.846   7.353
 5119SOL    HW320796   3.764   2.792   7.342
 5119SOL    MW420797   3.705   2.855   7.325
 5120SOL     OW20798   1.931   3.379   6.474
 5120SOL    HW220799   1.963   3.383   6.565
 5120SOL    HW320800   1.836   3.387   6.482
 5120SOL    MW420801   1.923   3.382   6.487
 5121SOL     OW20802   1.886   2.505   6.021
 5121SOL    HW220803   1.826   2.477   6.091
 5121SOL    HW320804   1.960   2.445   6.027
 5121SOL    MW420805   1.888   2.494   6.030
 5122SOL     OW20806   3.454   3.717   7.455
 5122SOL    HW220807   3.499   3.641   7.420
 5122SOL    HW320808   3.492   3.730   7.542
 5122SOL    MW420809   3.464   3.710   7.461
 5123SOL     OW20810   3.054   3.236   6.181
 5123SOL    HW220811   3.077   3.187   6.259
 5123SOL    HW320812   3.135   3.278   6.153
 5123SOL    MW420813   3.067   3.236   6.188
 5124SOL     OW20814   2.312   2.244   6.910
 5124SOL    HW220815   2.345   2.325   6.950
 5124SOL    HW320816   2.285   2.270   6.822
 5124SOL    MW420817   2.311   2.258   6.904
 5125SOL     OW20818   2.266   2.211   6.646
 5125SOL    HW220819   2.296   2.125   6.617
 5125SOL    HW320820   2.171   2.204   6.649
 5125SOL    MW420821   2.258   2.200   6.644
 5126SOL     OW20822   3.095   2.420   7.337
 5126SOL    HW220823   3.147   2.355   7.290
 5126SOL    HW320824   3.053   2.471   7.267
 5126SOL    MW420825   3.096   2.417   7.320
 5127SOL     OW20826   3.194   2.215   7.198
 5127SOL    HW220827   3.101   2.199   7.185
 5127SOL    HW320828   3.220   2.153   7.266
 5127SOL    MW420829   3.184   2.205   7.205
 5128SOL     OW20830   2.409   1.989   6.537
 5128SOL    HW220831   2.419   1.898   6.563
 5128SOL    HW320832   2.365   1.985   6.452
 5128SOL    MW420833   2.405   1.977   6.529
 5129SOL     OW20834   2.503   3.604   7.083
 5129SOL    HW220835   2.420   3.589   7.128
 5129SOL    HW320836   2.562   3.537   7.118
 5129SOL    MW420837   2.501   3.594   7.093
 5130SOL     OW20838   3.560   2.311   6.708
 5130SOL    HW220839   3.493   2.344   6.768
 5130SOL    HW320840   3.603   2.389   6.674
 5130SOL    MW420841   3.558   2.326   6.712
 5131SOL     OW20842   3.738   3.031   6.678
 5131SOL    HW220843   3.731   2.971   6.603
 5131SOL    HW320844   3.664   3.091   6.667
 5131SOL    MW420845   3.728   3.031   6.667
 5132SOL     OW20846   3.120   2.893   6.596
 5132SOL    HW220847   3.134   2.865   6.687
 5132SOL    HW320848   3.206   2.924   6.568
 5132SOL    MW420849   3.133   2.894   6.605
 5133SOL     OW20850   3.203   2.388   6.875
 5133SOL    HW220851   3.224   2.389   6.782
 5133SOL    HW320852   3.248   2.310   6.908
 5133SOL    MW420853   3.210   2.378   6.867
 5134SOL     OW20854   3.696   2.519   7.417
 5134SOL    HW220855   3.733   2.464   7.486
 5134SOL    HW320856   3.721   2.476   7.335
 5134SOL    MW420857   3.703   2.507   7.416
 5135SOL     OW20858   3.243   2.817   7.468
 5135SOL    HW220859   3.309   2.765   7.422
 5135SOL    HW320860   3.263   2.804   7.561
 5135SOL    MW420861   3.254   2.808   7.475
 5136SOL     OW20862   3.194   1.903   5.817
 5136SOL    HW220863   3.268   1.947   5.860
 5136SOL    HW320864   3.118   1.957   5.839
 5136SOL    MW420865   3.194   1.915   5.825
 5137SOL     OW20866   3.254   2.678   6.095
 5137SOL    HW220867   3.169   2.648   6.065
 5137SOL    HW320868   3.246   2.685   6.190
 5137SOL    MW420869   3.242   2.676   6.104
 5138SOL     OW20870   2.330   3.141   6.826
 5138SOL    HW220871   2.342   3.168   6.917
 5138SOL    HW320872   2.311   3.222   6.779
 5138SOL    MW420873   2.329   3.156   6.831
 5139SOL     OW20874   2.614   2.121   6.649
 5139SOL    HW220875   2.587   2.123   6.740
 5139SOL    HW320876   2.544   2.073   6.604
 5139SOL    MW420877   2.602   2.117   6.656
 5140SOL     OW20878   2.468   3.613   6.811
 5140SOL    HW220879   2.520   3.690   6.788
 5140SOL    HW320880   2.477   3.605   6.906
 5140SOL    MW420881   2.477   3.620   6.822
 5141SOL     OW20882   3.370   3.198   7.043
 5141SOL    HW220883   3.355   3.127   7.106
 5141SOL    HW320884   3.416   3.156   6.971
 5141SOL    MW420885   3.376   3.182   7.043
 5142SOL     OW20886   2.444   2.929   7.160
 5142SOL    HW220887   2.481   2.934   7.072
 5142SOL    HW320888   2.483   3.002   7.207
 5142SOL    MW420889   2.454   2.939   7.155
 5143SOL     OW20890   2.624   2.972   6.972
 5143SOL    HW220891   2.683   2.918   7.025
 5143SOL    HW320892   2.639   2.944   6.882
 5143SOL    MW420893   2.634   2.961   6.968
 5144SOL     OW20894   2.627   2.344   5.821
 5144SOL    HW220895   2.700   2.393   5.784
 5144SOL    HW320896   2.643   2.253   5.795
 5144SOL    MW420897   2.639   2.339   5.814
 5145SOL     OW20898   3.435   3.461   7.144
 5145SOL    HW220899   3.477   3.446   7.229
 5145SOL    HW320900   3.426   3.374   7.106
 5145SOL    MW420901   3.439   3.449   7.151
 5146SOL     OW20902   3.095   1.940   6.735
 5146SOL    HW220903   3.150   1.949   6.657
 5146SOL    HW320904   3.150   1.974   6.806
 5146SOL    MW420905   3.109   1.945   6.734
 5147SOL     OW20906   2.102   2.853   5.919
 5147SOL    HW220907   2.039   2.869   5.848
 5147SOL    HW320908   2.049   2.816   5.990
 5147SOL    MW420909   2.087   2.850   5.919
 5148SOL     OW20910   2.458   3.207   5.778
 5148SOL    HW220911   2.473   3.183   5.870
 5148SOL    HW320912   2.366   3.185   5.762
 5148SOL    MW420913   2.448   3.200   5.788
 5149SOL     OW20914   2.997   3.438   5.930
 5149SOL    HW220915   3.005   3.356   5.881
 5149SOL    HW320916   2.916   3.477   5.897
 5149SOL    MW420917   2.987   3.433   5.920
 5150SOL     OW20918   2.256   3.596   6.499
 5150SOL    HW220919   2.260   3.507   6.534
 5150SOL    HW320920   2.282   3.587   6.408
 5150SOL    MW420921   2.259   3.584   6.491
 5151SOL     OW20922   2.873   3.074   6.742
 5151SOL    HW220923   2.805   3.008   6.758
 5151SOL    HW320924   2.891   3.068   6.649
 5151SOL    MW420925   2.866   3.065   6.733
 5152SOL     OW20926   1.962   3.349   6.993
 5152SOL    HW220927   1.952   3.307   7.079
 5152SOL    HW320928   1.883   3.402   6.983
 5152SOL    MW420929   1.951   3.350   7.004
 5153SOL     OW20930   2.866   2.213   6.563
 5153SOL    HW220931   2.796   2.165   6.608
 5153SOL    HW320932   2.898   2.276   6.627
 5153SOL    MW420933   2.861   2.215   6.577
 5154SOL     OW20934   2.517   2.649   7.183
 5154SOL    HW220935   2.510   2.744   7.171
 5154SOL    HW320936   2.526   2.638   7.278
 5154SOL    MW420937   2.518   2.661   7.193
 5155SOL     OW20938   2.238   3.164   7.441
 5155SOL    HW220939   2.310   3.166   7.378
 5155SOL    HW320940   2.208   3.073   7.440
 5155SOL    MW420941   2.243   3.153   7.433
 5156SOL     OW20942   3.322   1.927   6.908
 5156SOL    HW220943   3.393   1.873   6.872
 5156SOL    HW320944   3.321   1.906   7.001
 5156SOL    MW420945   3.331   1.918   6.916
 5157SOL     OW20946   3.522   3.457   7.392
 5157SOL    HW220947   3.495   3.454   7.483
 5157SOL    HW320948   3.618   3.461   7.395
 5157SOL    MW420949   3.532   3.457   7.404
 5158SOL     OW20950   2.333   2.319   6.376
 5158SOL    HW220951   2.404   2.267   6.339
 5158SOL    HW320952   2.319   2.284   6.463
 5158SOL    MW420953   2.341   2.308   6.383
 5159SOL     OW20954   1.888   3.654   7.448
 5159SOL    HW220955   1.938   3.632   7.370
 5159SOL    HW320956   1.896   3.749   7.456
 5159SOL    MW420957   1.896   3.663   7.439
 5160SOL     OW20958   2.649   3.412   6.452
 5160SOL    HW220959   2.577   3.349   6.465
 5160SOL    HW320960   2.610   3.497   6.470
 5160SOL    MW420961   2.633   3.415   6.455
 5161SOL     OW20962   2.969   2.260   6.100
 5161SOL    HW220963   2.991   2.197   6.032
 5161SOL    HW320964   2.874   2.252   6.111
 5161SOL    MW420965   2.959   2.251   6.092
 5162SOL     OW20966   2.054   1.950   6.032
 5162SOL    HW220967   2.125   1.971   5.971
 5162SOL    HW320968   2.008   1.878   5.990
 5162SOL    MW420969   2.058   1.944   6.018
 5163SOL     OW20970   1.885   2.417   7.175
 5163SOL    HW220971   1.949   2.483   7.150
 5163SOL    HW320972   1.804   2.444   7.132
 5163SOL    MW420973   1.883   2.429   7.167
 5164SOL     OW20974   3.623   3.324   6.132
 5164SOL    HW220975   3.593   3.257   6.193
 5164SOL    HW320976   3.717   3.330   6.146
 5164SOL    MW420977   3.631   3.316   6.142
 5165SOL     OW20978   3.179   3.001   6.062
 5165SOL    HW220979   3.151   3.087   6.095
 5165SOL    HW320980   3.207   3.017   5.972
 5165SOL    MW420981   3.179   3.015   6.054
 5166SOL     OW20982   2.841   1.921   6.115
 5166SOL    HW220983   2.878   1.980   6.180
 5166SOL    HW320984   2.818   1.977   6.041
 5166SOL    MW420985   2.842   1.936   6.114
 5167SOL     OW20986   3.694   2.803   6.537
 5167SOL    HW220987   3.685   2.835   6.448
 5167SOL    HW320988   3.647   2.719   6.537
 5167SOL    MW420989   3.687   2.796   6.527
 5168SOL     OW20990   2.070   2.643   7.116
 5168SOL    HW220991   2.091   2.712   7.054
 5168SOL    HW320992   2.150   2.590   7.121
 5168SOL    MW420993   2.083   2.644   7.110
 5169SOL     OW20994   3.606   2.734   6.238
 5169SOL    HW220995   3.700   2.723   6.226
 5169SOL    HW320996   3.582   2.806   6.179
 5169SOL    MW420997   3.616   2.742   6.229
 5170SOL     OW20998   2.055   2.658   7.383
 5170SOL    HW220999   1.981   2.602   7.409
 5170SOL    HW321000   2.050   2.661   7.288
 5170SOL    MW421001   2.044   2.651   7.373
 5171SOL     OW21002   2.221   1.945   6.833
 5171SOL    HW221003   2.264   2.029   6.853
 5171SOL    HW321004   2.294   1.883   6.826
 5171SOL    MW421005   2.236   1.948   6.834
 5172SOL     OW21006   2.262   2.612   6.011
 5172SOL    HW221007   2.262   2.707   5.996
 5172SOL    HW321008   2.339   2.596   6.065
 5172SOL    MW421009   2.272   2.623   6.016
 5173SOL     OW21010   3.038   2.471   7.075
 5173SOL    HW221011   3.074   2.444   6.991
 5173SOL    HW321012   2.951   2.505   7.054
 5173SOL    MW421013   3.032   2.472   7.062
 5174SOL     OW21014   2.021   2.343   6.300
 5174SOL    HW221015   2.083   2.350   6.373
 5174SOL    HW321016   2.021   2.250   6.277
 5174SOL    MW421017   2.029   2.332   6.307
 5175SOL     OW21018   3.568   3.683   5.832
 5175SOL    HW221019   3.635   3.716   5.772
 5175SOL    HW321020   3.525   3.762   5.866
 5175SOL    MW421021   3.570   3.698   5.828
 5176SOL     OW21022   2.703   2.604   6.784
 5176SOL    HW221023   2.661   2.522   6.760
 5176SOL    HW321024   2.704   2.603   6.880
 5176SOL    MW421025   2.696   2.593   6.793
 5177SOL     OW21026   3.374   3.737   7.183
 5177SOL    HW221027   3.377   3.643   7.166
 5177SOL    HW321028   3.397   3.745   7.275
 5177SOL    MW421029   3.377   3.725   7.193
 5178SOL     OW21030   2.507   2.074   6.889
 5178SOL    HW221031   2.438   2.137   6.910
 5178SOL    HW321032   2.534   2.038   6.974
 5178SOL    MW421033   2.501   2.077   6.902
 5179SOL     OW21034   1.890   2.915   5.758
 5179SOL    HW221035   1.859   2.980   5.821
 5179SOL    HW321036   1.839   2.837   5.777
 5179SOL    MW421037   1.880   2.912   5.768
 5180SOL     OW21038   3.302   1.927   6.506
 5180SOL    HW221039   3.390   1.936   6.543
 5180SOL    HW321040   3.312   1.868   6.432
 5180SOL    MW421041   3.316   1.921   6.500
 5181SOL     OW21042   3.334   2.666   6.350
 5181SOL    HW221043   3.414   2.681   6.299
 5181SOL    HW321044   3.327   2.571   6.356
 5181SOL    MW421045   3.343   2.655   6.345
 5182SOL     OW21046   2.474   3.715   5.700
 5182SOL    HW221047   2.379   3.715   5.692
 5182SOL    HW321048   2.490   3.661   5.778
 5182SOL    MW421049   2.464   3.709   5.709
 5183SOL     OW21050   2.784   2.592   7.047
 5183SOL    HW221051   2.853   2.659   7.044
 5183SOL    HW321052   2.717   2.630   7.103
 5183SOL    MW421053   2.785   2.605   7.054
 5184SOL     OW21054   2.202   2.892   7.295
 5184SOL    HW221055   2.156   2.808   7.297
 5184SOL    HW321056   2.259   2.886   7.219
 5184SOL    MW421057   2.204   2.880   7.287
 5185SOL     OW21058   3.319   2.535   5.615
 5185SOL    HW221059   3.247   2.511   5.557
 5185SOL    HW321060   3.385   2.572   5.557
 5185SOL    MW421061   3.318   2.537   5.600
 5186SOL     OW21062   2.453   3.267   6.296
 5186SOL    HW221063   2.518   3.200   6.317
 5186SOL    HW321064   2.505   3.344   6.273
 5186SOL    MW421065   2.468   3.269   6.295
 5187SOL     OW21066   2.714   2.432   6.426
 5187SOL    HW221067   2.654   2.450   6.498
 5187SOL    HW321068   2.748   2.344   6.445
 5187SOL    MW421069   2.710   2.422   6.439
 5188SOL     OW21070   3.655   1.931   7.095
 5188SOL    HW221071   3.576   1.977   7.123
 5188SOL    HW321072   3.690   1.985   7.024
 5188SOL    MW421073   3.649   1.944   7.089
 5189SOL     OW21074   2.939   3.015   6.445
 5189SOL    HW221075   3.031   2.996   6.463
 5189SOL    HW321076   2.912   2.945   6.385
 5189SOL    MW421077   2.947   3.003   6.439
 5190SOL     OW21078   2.732   2.835   5.800
 5190SOL    HW221079   2.718   2.747   5.765
 5190SOL    HW321080   2.683   2.892   5.741
 5190SOL    MW421081   2.724   2.830   5.788
 5191SOL     OW21082   3.213   3.253   6.541
 5191SOL    HW221083   3.186   3.337   6.506
 5191SOL    HW321084   3.173   3.248   6.628
 5191SOL    MW421085   3.206   3.262   6.547
 5192SOL     OW21086   3.132   3.201   6.809
 5192SOL    HW221087   3.143   3.168   6.898
 5192SOL    HW321088   3.051   3.160   6.778
 5192SOL    MW421089   3.122   3.193   6.815
 5193SOL     OW21090   2.145   2.559   6.579
 5193SOL    HW221091   2.095   2.558   6.660
 5193SOL    HW321092   2.165   2.651   6.563
 5193SOL    MW421093   2.141   2.571   6.587
 5194SOL     OW21094   3.212   3.323   7.341
 5194SOL    HW221095   3.212   3.417   7.357
 5194SOL    HW321096   3.257   3.313   7.257
 5194SOL    MW421097   3.218   3.333   7.332
 5195SOL     OW21098   3.451   2.041   5.902
 5195SOL    HW221099   3.444   2.045   5.997
 5195SOL    HW321100   3.463   2.132   5.875
 5195SOL    MW421101   3.452   2.054   5.910
 5196SOL     OW21102   2.740   2.604   6.016
 5196SOL    HW221103   2.720   2.590   5.923
 5196SOL    HW321104   2.833   2.583   6.023
 5196SOL    MW421105   2.750   2.599   6.005
 5197SOL     OW21106   2.067   2.227   7.320
 5197SOL    HW221107   2.024   2.286   7.257
 5197SOL    HW321108   2.135   2.282   7.360
 5197SOL    MW421109   2.071   2.242   7.317
 5198SOL     OW21110   3.179   2.847   6.865
 5198SOL    HW221111   3.242   2.844   6.938
 5198SOL    HW321112   3.095   2.865   6.907
 5198SOL    MW421113   3.175   2.849   6.880
 5199SOL     OW21114   2.723   3.562   6.054
 5199SOL    HW221115   2.781   3.633   6.081
 5199SOL    HW321116   2.746   3.490   6.112
 5199SOL    MW421117   2.734   3.562   6.065
 5200SOL     OW21118   3.518   2.024   6.644
 5200SOL    HW221119   3.563   1.942   6.663
 5200SOL    HW321120   3.538   2.080   6.720
 5200SOL    MW421121   3.528   2.020   6.656
 5201SOL     OW21122   1.966   1.867   6.743
 5201SOL    HW221123   1.957   1.868   6.648
 5201SOL    HW321124   2.060   1.879   6.758
 5201SOL    MW421125   1.978   1.870   6.734
 5202SOL     OW21126   3.603   3.060   6.363
 5202SOL    HW221127   3.582   3.006   6.286
 5202SOL    HW321128   3.699   3.058   6.367
 5202SOL    MW421129   3.612   3.053   6.352
 5203SOL     OW21130   2.295   3.205   7.106
 5203SOL    HW221131   2.216   3.155   7.129
 5203SOL    HW321132   2.365   3.164   7.156
 5203SOL    MW421133   2.293   3.193   7.116
 5204SOL     OW21134   2.179   1.994   5.789
 5204SOL    HW221135   2.108   2.049   5.757
 5204SOL    HW321136   2.221   1.960   5.710
 5204SOL    MW421137   2.175   1.996   5.775
 5205SOL     OW21138   3.303   2.491   6.625
 5205SOL    HW221139   3.226   2.537   6.591
 5205SOL    HW321140   3.360   2.560   6.659
 5205SOL    MW421141   3.300   2.506   6.625
 5206SOL     OW21142   1.935   2.093   5.638
 5206SOL    HW221143   1.902   2.172   5.682
 5206SOL    HW321144   1.990   2.126   5.567
 5206SOL    MW421145   1.938   2.107   5.635
 5207SOL     OW21146   1.969   3.350   5.827
 5207SOL    HW221147   1.986   3.434   5.869
 5207SOL    HW321148   2.004   3.359   5.739
 5207SOL    MW421149   1.974   3.363   5.821
 5208SOL     OW21150   3.241   3.439   6.044
 5208SOL    HW221151   3.304   3.429   5.973
 5208SOL    HW321152   3.158   3.459   5.999
 5208SOL    MW421153   3.238   3.440   6.029
 5209SOL     OW21154   3.604   4.575   0.257
 5209SOL    HW221155   3.645   4.517   0.322
 5209SOL    HW321156   3.511   4.567   0.274
 5209SOL    MW421157   3.598   4.567   0.267
 5210SOL     OW21158   3.470   4.507   1.252
 5210SOL    HW221159   3.425   4.574   1.303
 5210SOL    HW321160   3.558   4.543   1.238
 5210SOL    MW421161   3.476   4.520   1.256
 5211SOL     OW21162   2.398   4.758   0.486
 5211SOL    HW221163   2.488   4.733   0.470
 5211SOL    HW321164   2.394   4.851   0.463
 5211SOL    MW421165   2.410   4.767   0.481
 5212SOL     OW21166   3.514   5.461   0.628
 5212SOL    HW221167   3.526   5.407   0.706
 5212SOL    HW321168   3.551   5.409   0.557
 5212SOL    MW421169   3.520   5.446   0.629
 5213SOL     OW21170   2.893   5.346   1.629
 5213SOL    HW221171   2.934   5.382   1.550
 5213SOL    HW321172   2.928   5.257   1.636
 5213SOL    MW421173   2.904   5.339   1.620
 5214SOL     OW21174   3.450   4.901   1.233
 5214SOL    HW221175   3.371   4.866   1.191
 5214SOL    HW321176   3.477   4.973   1.177
 5214SOL    MW421177   3.443   4.906   1.220
 5215SOL     OW21178   2.682   4.214   0.499
 5215SOL    HW221179   2.657   4.302   0.527
 5215SOL    HW321180   2.679   4.217   0.403
 5215SOL    MW421181   2.678   4.226   0.491
 5216SOL     OW21182   2.124   4.242   0.427
 5216SOL    HW221183   2.156   4.330   0.409
 5216SOL    HW321184   2.112   4.240   0.522
 5216SOL    MW421185   2.127   4.254   0.439
 5217SOL     OW21186   2.202   4.655   1.328
 5217SOL    HW221187   2.265   4.602   1.279
 5217SOL    HW321188   2.183   4.729   1.271
 5217SOL    MW421189   2.208   4.657   1.315
 5218SOL     OW21190   2.523   3.997   0.514
 5218SOL    HW221191   2.581   4.073   0.516
 5218SOL    HW321192   2.458   4.018   0.447
 5218SOL    MW421193   2.522   4.009   0.505
 5219SOL     OW21194   2.610   4.924   0.689
 5219SOL    HW221195   2.690   4.927   0.741
 5219SOL    HW321196   2.638   4.891   0.603
 5219SOL    MW421197   2.624   4.920   0.684
 5220SOL     OW21198   2.635   5.265   1.592
 5220SOL    HW221199   2.719   5.291   1.631
 5220SOL    HW321200   2.659   5.209   1.518
 5220SOL    MW421201   2.649   5.261   1.587
 5221SOL     OW21202   2.387   4.428   0.680
 5221SOL    HW221203   2.372   4.348   0.731
 5221SOL    HW321204   2.469   4.463   0.714
 5221SOL    MW421205   2.395   4.420   0.692
 5222SOL     OW21206   2.724   5.114   1.365
 5222SOL    HW221207   2.688   5.180   1.305
 5222SOL    HW321208   2.652   5.052   1.378
 5222SOL    MW421209   2.710   5.114   1.359
 5223SOL     OW21210   2.529   4.254   1.057
 5223SOL    HW221211   2.435   4.250   1.075
 5223SOL    HW321212   2.559   4.163   1.066
 5223SOL    MW421213   2.520   4.242   1.060
 5224SOL     OW21214   2.275   4.668   0.961
 5224SOL    HW221215   2.230   4.675   0.877
 5224SOL    HW321216   2.255   4.751   1.005
 5224SOL    MW421217   2.267   4.680   0.955
 5225SOL     OW21218   1.972   5.514   0.836
 5225SOL    HW221219   2.061   5.506   0.871
 5225SOL    HW321220   1.936   5.426   0.841
 5225SOL    MW421221   1.979   5.501   0.841
 5226SOL     OW21222   3.237   4.906   0.205
 5226SOL    HW221223   3.155   4.942   0.171
 5226SOL    HW321224   3.305   4.949   0.154
 5226SOL    MW421225   3.235   4.916   0.193
 5227SOL     OW21226   2.236   5.041   0.871
 5227SOL    HW221227   2.212   5.094   0.947
 5227SOL    HW321228   2.292   5.099   0.819
 5227SOL    MW421229   2.240   5.056   0.874
 5228SOL     OW21230   2.798   4.685   0.681
 5228SOL    HW221231   2.712   4.672   0.721
 5228SOL    HW321232   2.851   4.612   0.713
 5228SOL    MW421233   2.794   4.674   0.690
 5229SOL     OW21234   2.206   5.337   1.466
 5229SOL    HW221235   2.114   5.313   1.451
 5229SOL    HW321236   2.250   5.254   1.483
 5229SOL    MW421237   2.200   5.322   1.465
 5230SOL     OW21238   2.789   5.047   0.398
 5230SOL    HW221239   2.766   5.109   0.466
 5230SOL    HW321240   2.746   4.965   0.424
 5230SOL    MW421241   2.781   5.043   0.409
 5231SOL     OW21242   3.662   4.048   0.854
 5231SOL    HW221243   3.599   4.028   0.923
 5231SOL    HW321244   3.652   3.977   0.791
 5231SOL    MW421245   3.652   4.035   0.855
 5232SOL     OW21246   2.286   4.020   0.366
 5232SOL    HW221247   2.260   3.982   0.282
 5232SOL    HW321248   2.223   4.090   0.382
 5232SOL    MW421249   2.275   4.023   0.357
 5233SOL     OW21250   2.121   4.981   0.403
 5233SOL    HW221251   2.069   5.049   0.359
 5233SOL    HW321252   2.118   4.907   0.343
 5233SOL    MW421253   2.113   4.980   0.390
 5234SOL     OW21254   2.783   5.444   0.181
 5234SOL    HW221255   2.738   5.460   0.264
 5234SOL    HW321256   2.714   5.409   0.123
 5234SOL    MW421257   2.769   5.441   0.183
 5235SOL     OW21258   3.718   4.217   0.156
 5235SOL    HW221259   3.627   4.219   0.184
 5235SOL    HW321260   3.763   4.279   0.214
 5235SOL    MW421261   3.711   4.225   0.166
 5236SOL     OW21262   3.463   4.820   0.506
 5236SOL    HW221263   3.373   4.820   0.541
 5236SOL    HW321264   3.456   4.866   0.423
 5236SOL    MW421265   3.450   4.826   0.500
 5237SOL     OW21266   3.263   4.455   1.578
 5237SOL    HW221267   3.332   4.393   1.555
 5237SOL    HW321268   3.188   4.429   1.525
 5237SOL    MW421269   3.263   4.442   1.569
 5238SOL     OW21270   2.004   5.335   1.130
 5238SOL    HW221271   1.987   5.281   1.207
 5238SOL    HW321272   1.992   5.425   1.160
 5238SOL    MW421273   2.001   5.339   1.144
 5239SOL     OW21274   2.999   4.842   1.570
 5239SOL    HW221275   2.984   4.935   1.555
 5239SOL    HW321276   3.094   4.832   1.570
 5239SOL    MW421277   3.008   4.852   1.567
 5240SOL     OW21278   2.795   4.266   1.771
 5240SOL    HW221279   2.885   4.267   1.738
 5240SOL    HW321280   2.754   4.191   1.729
 5240SOL    MW421281   2.801   4.256   1.762
 5241SOL     OW21282   3.370   4.798   0.898
 5241SOL    HW221283   3.373   4.732   0.829
 5241SOL    HW321284   3.455   4.841   0.894
 5241SOL    MW421285   3.382   4.794   0.889
 5242SOL     OW21286   2.990   4.401   0.467
 5242SOL    HW221287   3.016   4.425   0.378
 5242SOL    HW321288   2.972   4.308   0.463
 5242SOL    MW421289   2.992   4.393   0.454
 5243SOL     OW21290   3.655   5.021   0.318
 5243SOL    HW221291   3.611   5.062   0.393
 5243SOL    HW321292   3.712   5.089   0.283
 5243SOL    MW421293   3.657   5.035   0.323
 5244SOL     OW21294   2.575   4.070   1.721
 5244SOL    HW221295   2.585   3.996   1.661
 5244SOL    HW321296   2.611   4.039   1.804
 5244SOL    MW421297   2.581   4.056   1.723
 5245SOL     OW21298   2.311   5.437   0.636
 5245SOL    HW221299   2.343   5.525   0.614
 5245SOL    HW321300   2.264   5.409   0.558
 5245SOL    MW421301   2.310   5.445   0.623
 5246SOL     OW21302   3.695   3.799   0.685
 5246SOL    HW221303   3.749   3.750   0.747
 5246SOL    HW321304   3.638   3.733   0.646
 5246SOL    MW421305   3.695   3.783   0.687
 5247SOL     OW21306   2.027   5.497   0.213
 5247SOL    HW221307   2.056   5.587   0.205
 5247SOL    HW321308   1.977   5.480   0.134
 5247SOL    MW421309   2.025   5.505   0.202
 5248SOL     OW21310   2.814   3.752   1.098
 5248SOL    HW221311   2.773   3.830   1.060
 5248SOL    HW321312   2.908   3.770   1.093
 5248SOL    MW421313   2.820   3.764   1.093
 5249SOL     OW21314   3.431   5.305   0.184
 5249SOL    HW221315   3.479   5.374   0.230
 5249SOL    HW321316   3.352   5.349   0.153
 5249SOL    MW421317   3.426   5.319   0.187
 5250SOL     OW21318   2.829   4.430   0.128
 5250SOL    HW221319   2.831   4.377   0.049
 5250SOL    HW321320   2.917   4.467   0.134
 5250SOL    MW421321   2.841   4.429   0.117
 5251SOL     OW21322   3.443   4.356   0.464
 5251SOL    HW221323   3.482   4.356   0.551
 5251SOL    HW321324   3.384   4.432   0.464
 5251SOL    MW421325   3.440   4.367   0.475
 5252SOL     OW21326   2.760   4.723   1.593
 5252SOL    HW221327   2.737   4.703   1.683
 5252SOL    HW321328   2.845   4.767   1.598
 5252SOL    MW421329   2.767   4.726   1.605
 5253SOL     OW21330   2.840   3.860   1.353
 5253SOL    HW221331   2.846   3.822   1.266
 5253SOL    HW321332   2.829   3.954   1.338
 5253SOL    MW421333   2.841   3.868   1.341
 5254SOL     OW21334   2.929   4.349   1.187
 5254SOL    HW221335   3.004   4.378   1.134
 5254SOL    HW321336   2.861   4.414   1.171
 5254SOL    MW421337   2.930   4.361   1.177
 5255SOL     OW21338   3.479   4.317   1.464
 5255SOL    HW221339   3.460   4.226   1.443
 5255SOL    HW321340   3.457   4.366   1.385
 5255SOL    MW421341   3.474   4.310   1.451
 5256SOL     OW21342   3.621   5.411   1.368
 5256SOL    HW221343   3.549   5.373   1.419
 5256SOL    HW321344   3.638   5.496   1.409
 5256SOL    MW421345   3.615   5.416   1.380
 5257SOL     OW21346   2.926   4.055   1.570
 5257SOL    HW221347   2.892   4.094   1.489
 5257SOL    HW321348   2.904   3.963   1.563
 5257SOL    MW421349   2.919   4.048   1.560
 5258SOL     OW21350   3.335   4.869   1.646
 5258SOL    HW221351   3.417   4.910   1.676
 5258SOL    HW321352   3.298   4.831   1.726
 5258SOL    MW421353   3.341   4.870   1.661
 5259SOL     OW21354   3.630   4.242   0.630
 5259SOL    HW221355   3.719   4.211   0.647
 5259SOL    HW321356   3.573   4.182   0.678
 5259SOL    MW421357   3.633   4.230   0.639
 5260SOL     OW21358   2.056   3.956   0.659
 5260SOL    HW221359   2.047   3.896   0.585
 5260SOL    HW321360   1.989   3.927   0.722
 5260SOL    MW421361   2.046   3.943   0.657
 5261SOL     OW21362   2.999   5.049   0.220
 5261SOL    HW221363   2.949   5.051   0.302
 5261SOL    HW321364   2.933   5.067   0.152
 5261SOL    MW421365   2.985   5.051   0.222
 5262SOL     OW21366   2.003   4.129   1.022
 5262SOL    HW221367   1.975   4.220   1.031
 5262SOL    HW321368   1.940   4.090   0.961
 5262SOL    MW421369   1.990   4.135   1.016
 5263SOL     OW21370   2.462   5.467   0.328
 5263SOL    HW221371   2.383   5.425   0.361
 5263SOL    HW321372   2.528   5.450   0.395
 5263SOL    MW421373   2.461   5.459   0.341
 5264SOL     OW21374   3.590   4.987   1.725
 5264SOL    HW221375   3.640   4.913   1.757
 5264SOL    HW321376   3.536   5.014   1.800
 5264SOL    MW421377   3.590   4.981   1.738
 5265SOL     OW21378   2.598   4.882   0.035
 5265SOL    HW221379   2.520   4.828   0.022
 5265SOL    HW321380   2.569   4.955   0.088
 5265SOL    MW421381   2.584   4.884   0.040
 5266SOL     OW21382   3.724   4.622   1.227
 5266SOL    HW221383   3.740   4.660   1.140
 5266SOL    HW321384   3.758   4.688   1.288
 5266SOL    MW421385   3.731   4.635   1.223
 5267SOL     OW21386   3.516   5.331   0.896
 5267SOL    HW221387   3.545   5.398   0.957
 5267SOL    HW321388   3.497   5.255   0.951
 5267SOL    MW421389   3.518   5.331   0.911
 5268SOL     OW21390   3.179   5.398   0.103
 5268SOL    HW221391   3.105   5.361   0.153
 5268SOL    HW321392   3.187   5.488   0.136
 5268SOL    MW421393   3.170   5.405   0.115
 5269SOL     OW21394   1.987   4.404   1.192
 5269SOL    HW221395   2.049   4.434   1.258
 5269SOL    HW321396   1.921   4.473   1.186
 5269SOL    MW421397   1.986   4.417   1.199
 5270SOL     OW21398   3.403   5.072   0.045
 5270SOL    HW221399   3.350   5.121  -0.019
 5270SOL    HW321400   3.434   5.138   0.106
 5270SOL    MW421401   3.401   5.086   0.043
 5271SOL     OW21402   2.628   3.961   0.100
 5271SOL    HW221403   2.576   3.881   0.088
 5271SOL    HW321404   2.715   3.938   0.068
 5271SOL    MW421405   2.631   3.947   0.094
 5272SOL     OW21406   2.082   5.513   1.644
 5272SOL    HW221407   2.056   5.581   1.582
 5272SOL    HW321408   2.130   5.450   1.592
 5272SOL    MW421409   2.084   5.513   1.630
 5273SOL     OW21410   2.134   4.832   1.151
 5273SOL    HW221411   2.187   4.907   1.176
 5273SOL    HW321412   2.053   4.870   1.117
 5273SOL    MW421413   2.130   4.847   1.151
 5274SOL     OW21414   2.674   4.736   1.139
 5274SOL    HW221415   2.702   4.645   1.151
 5274SOL    HW321416   2.603   4.730   1.075
 5274SOL    MW421417   2.667   4.724   1.134
 5275SOL     OW21418   1.989   4.601   0.557
 5275SOL    HW221419   2.080   4.616   0.584
 5275SOL    HW321420   1.992   4.522   0.503
 5275SOL    MW421421   2.001   4.593   0.555
 5276SOL     OW21422   2.225   4.309   1.811
 5276SOL    HW221423   2.172   4.389   1.818
 5276SOL    HW321424   2.295   4.321   1.876
 5276SOL    MW421425   2.227   4.322   1.819
 5277SOL     OW21426   2.611   3.859   1.518
 5277SOL    HW221427   2.588   3.767   1.520
 5277SOL    HW321428   2.697   3.861   1.475
 5277SOL    MW421429   2.618   3.849   1.514
 5278SOL     OW21430   2.295   4.383   1.557
 5278SOL    HW221431   2.375   4.433   1.543
 5278SOL    HW321432   2.286   4.377   1.652
 5278SOL    MW421433   2.304   4.389   1.567
 5279SOL     OW21434   2.616   5.533   0.931
 5279SOL    HW221435   2.705   5.548   0.961
 5279SOL    HW321436   2.611   5.580   0.847
 5279SOL    MW421437   2.626   5.541   0.924
 5280SOL     OW21438   3.272   3.908   1.828
 5280SOL    HW221439   3.328   3.835   1.854
 5280SOL    HW321440   3.242   3.946   1.910
 5280SOL    MW421441   3.276   3.903   1.841
 5281SOL     OW21442   1.997   5.213   0.596
 5281SOL    HW221443   1.969   5.252   0.678
 5281SOL    HW321444   2.017   5.122   0.618
 5281SOL    MW421445   1.995   5.205   0.609
 5282SOL     OW21446   2.830   5.256   0.631
 5282SOL    HW221447   2.913   5.210   0.615
 5282SOL    HW321448   2.820   5.255   0.727
 5282SOL    MW421449   2.840   5.249   0.641
 5283SOL     OW21450   3.662   4.401   0.945
 5283SOL    HW221451   3.751   4.431   0.927
 5283SOL    HW321452   3.642   4.341   0.874
 5283SOL    MW421453   3.671   4.398   0.934
 5284SOL     OW21454   3.513   4.580   1.825
 5284SOL    HW221455   3.568   4.504   1.806
 5284SOL    HW321456   3.515   4.588   1.920
 5284SOL    MW421457   3.521   4.571   1.833
 5285SOL     OW21458   2.563   5.313   0.036
 5285SOL    HW221459   2.503   5.382   0.006
 5285SOL    HW321460   2.508   5.255   0.089
 5285SOL    MW421461   2.547   5.315   0.038
 5286SOL     OW21462   3.001   3.958   0.259
 5286SOL    HW221463   2.934   3.934   0.196
 5286SOL    HW321464   3.066   4.007   0.208
 5286SOL    MW421465   3.001   3.960   0.244
 5287SOL     OW21466   2.808   4.142   1.344
 5287SOL    HW221467   2.727   4.183   1.372
 5287SOL    HW321468   2.855   4.210   1.296
 5287SOL    MW421469   2.803   4.157   1.342
 5288SOL     OW21470   3.068   4.480   0.967
 5288SOL    HW221471   3.081   4.574   0.977
 5288SOL    HW321472   3.029   4.470   0.881
 5288SOL    MW421473   3.064   4.491   0.957
 5289SOL     OW21474   2.520   4.675   0.771
 5289SOL    HW221475   2.431   4.666   0.804
 5289SOL    HW321476   2.524   4.765   0.739
 5289SOL    MW421477   2.509   4.686   0.771
 5290SOL     OW21478   3.319   4.258   0.766
 5290SOL    HW221479   3.264   4.179   0.765
 5290SOL    HW321480   3.301   4.299   0.850
 5290SOL    MW421481   3.309   4.253   0.775
 5291SOL     OW21482   2.290   3.945   1.583
 5291SOL    HW221483   2.211   3.963   1.635
 5291SOL    HW321484   2.285   4.007   1.510
 5291SOL    MW421485   2.280   3.955   1.580
 5292SOL     OW21486   2.938   4.462   0.723
 5292SOL    HW221487   2.875   4.394   0.747
 5292SOL    HW321488   2.958   4.443   0.631
 5292SOL    MW421489   2.932   4.449   0.715
 5293SOL     OW21490   2.194   5.357   0.425
 5293SOL    HW221491   2.155   5.404   0.351
 5293SOL    HW321492   2.128   5.292   0.450
 5293SOL    MW421493   2.181   5.355   0.419
 5294SOL     OW21494   2.686   4.766   0.449
 5294SOL    HW221495   2.688   4.740   0.356
 5294SOL    HW321496   2.744   4.703   0.492
 5294SOL    MW421497   2.694   4.755   0.443
 5295SOL     OW21498   3.239   5.326   1.221
 5295SOL    HW221499   3.164   5.372   1.259
 5295SOL    HW321500   3.221   5.233   1.238
 5295SOL    MW421501   3.228   5.320   1.229
 5296SOL     OW21502   3.243   5.534   0.651
 5296SOL    HW221503   3.186   5.487   0.590
 5296SOL    HW321504   3.329   5.495   0.638
 5296SOL    MW421505   3.246   5.525   0.641
 5297SOL     OW21506   3.196   4.010   0.782
 5297SOL    HW221507   3.224   3.942   0.843
 5297SOL    HW321508   3.110   3.981   0.752
 5297SOL    MW421509   3.189   3.997   0.786
 5298SOL     OW21510   2.001   4.944   0.716
 5298SOL    HW221511   2.065   4.976   0.779
 5298SOL    HW321512   2.050   4.880   0.664
 5298SOL    MW421513   2.016   4.940   0.717
 5299SOL     OW21514   2.501   5.020   1.698
 5299SOL    HW221515   2.549   5.103   1.685
 5299SOL    HW321516   2.558   4.968   1.754
 5299SOL    MW421517   2.515   5.024   1.704
 5300SOL     OW21518   2.077   5.262   1.838
 5300SOL    HW221519   2.133   5.186   1.853
 5300SOL    HW321520   2.026   5.240   1.760
 5300SOL    MW421521   2.077   5.249   1.829
 5301SOL     OW21522   3.176   4.114   0.117
 5301SOL    HW221523   3.149   4.180   0.053
 5301SOL    HW321524   3.246   4.157   0.167
 5301SOL    MW421525   3.181   4.127   0.114
 5302SOL     OW21526   2.844   3.819   0.054
 5302SOL    HW221527   2.900   3.811  -0.024
 5302SOL    HW321528   2.821   3.729   0.076
 5302SOL    MW421529   2.849   3.806   0.047
 5303SOL     OW21530   3.349   4.670   0.259
 5303SOL    HW221531   3.316   4.759   0.249
 5303SOL    HW321532   3.314   4.641   0.344
 5303SOL    MW421533   3.339   4.679   0.270
 5304SOL     OW21534   2.962   5.099   1.447
 5304SOL    HW221535   2.873   5.105   1.415
 5304SOL    HW321536   3.006   5.178   1.415
 5304SOL    MW421537   2.957   5.109   1.439
 5305SOL     OW21538   2.255   3.767   1.789
 5305SOL    HW221539   2.183   3.732   1.737
 5305SOL    HW321540   2.313   3.808   1.724
 5305SOL    MW421541   2.253   3.768   1.774
 5306SOL     OW21542   2.279   5.257   1.088
 5306SOL    HW221543   2.324   5.319   1.145
 5306SOL    HW321544   2.186   5.276   1.101
 5306SOL    MW421545   2.272   5.267   1.095
 5307SOL     OW21546   3.719   4.786   1.442
 5307SOL    HW221547   3.634   4.799   1.401
 5307SOL    HW321548   3.699   4.750   1.529
 5307SOL    MW421549   3.706   4.782   1.447
 5308SOL     OW21550   2.701   5.325   1.196
 5308SOL    HW221551   2.725   5.314   1.105
 5308SOL    HW321552   2.624   5.382   1.194
 5308SOL    MW421553   2.693   5.330   1.185
 5309SOL     OW21554   2.343   4.708   0.051
 5309SOL    HW221555   2.266   4.721   0.107
 5309SOL    HW321556   2.307   4.672  -0.030
 5309SOL    MW421557   2.329   4.704   0.048
 5310SOL     OW21558   2.996   4.681   0.294
 5310SOL    HW221559   2.906   4.702   0.269
 5310SOL    HW321560   3.023   4.754   0.350
 5310SOL    MW421561   2.988   4.693   0.297
 5311SOL     OW21562   2.496   5.030   0.986
 5311SOL    HW221563   2.489   5.009   1.080
 5311SOL    HW321564   2.414   4.998   0.949
 5311SOL    MW421565   2.484   5.024   0.993
 5312SOL     OW21566   3.360   4.040   1.388
 5312SOL    HW221567   3.307   4.042   1.468
 5312SOL    HW321568   3.345   3.953   1.351
 5312SOL    MW421569   3.352   4.030   1.393
 5313SOL     OW21570   3.696   3.964   1.261
 5313SOL    HW221571   3.677   4.031   1.196
 5313SOL    HW321572   3.753   3.902   1.216
 5313SOL    MW421573   3.700   3.965   1.247
 5314SOL     OW21574   1.942   5.122   1.649
 5314SOL    HW221575   1.986   5.055   1.595
 5314SOL    HW321576   1.857   5.084   1.669
 5314SOL    MW421577   1.937   5.108   1.645
 5315SOL     OW21578   2.625   3.797   0.701
 5315SOL    HW221579   2.554   3.858   0.683
 5315SOL    HW321580   2.676   3.794   0.620
 5315SOL    MW421581   2.621   3.803   0.688
 5316SOL     OW21582   2.383   5.037   0.450
 5316SOL    HW221583   2.376   5.069   0.540
 5316SOL    HW321584   2.293   5.021   0.422
 5316SOL    MW421585   2.371   5.039   0.457
 5317SOL     OW21586   2.978   5.430   1.359
 5317SOL    HW221587   2.898   5.415   1.309
 5317SOL    HW321588   2.985   5.525   1.366
 5317SOL    MW421589   2.969   5.441   1.353
 5318SOL     OW21590   3.092   5.395   0.849
 5318SOL    HW221591   3.139   5.468   0.808
 5318SOL    HW321592   3.013   5.434   0.885
 5318SOL    MW421593   3.087   5.410   0.848
 5319SOL     OW21594   3.500   5.490   1.124
 5319SOL    HW221595   3.543   5.460   1.204
 5319SOL    HW321596   3.419   5.438   1.121
 5319SOL    MW421597   3.495   5.479   1.134
 5320SOL     OW21598   2.585   4.454   1.831
 5320SOL    HW221599   2.655   4.396   1.803
 5320SOL    HW321600   2.528   4.399   1.886
 5320SOL    MW421601   2.587   4.441   1.835
 5321SOL     OW21602   3.372   4.666   1.464
 5321SOL    HW221603   3.377   4.719   1.544
 5321SOL    HW321604   3.334   4.583   1.492
 5321SOL    MW421605   3.368   4.661   1.479
 5322SOL     OW21606   3.012   3.801   1.710
 5322SOL    HW221607   3.007   3.708   1.691
 5322SOL    HW321608   3.095   3.812   1.756
 5322SOL    MW421609   3.020   3.790   1.714
 5323SOL     OW21610   2.386   4.321   0.164
 5323SOL    HW221611   2.352   4.377   0.234
 5323SOL    HW321612   2.457   4.271   0.204
 5323SOL    MW421613   2.392   4.322   0.178
 5324SOL     OW21614   3.482   5.072   0.986
 5324SOL    HW221615   3.517   5.054   0.899
 5324SOL    HW321616   3.387   5.073   0.973
 5324SOL    MW421617   3.474   5.069   0.973
 5325SOL     OW21618   2.911   4.720   1.355
 5325SOL    HW221619   2.954   4.755   1.433
 5325SOL    HW321620   2.894   4.797   1.301
 5325SOL    MW421621   2.914   4.735   1.358
 5326SOL     OW21622   3.442   4.207   0.228
 5326SOL    HW221623   3.434   4.278   0.165
 5326SOL    HW321624   3.460   4.251   0.311
 5326SOL    MW421625   3.443   4.221   0.230
 5327SOL     OW21626   2.302   3.862   0.657
 5327SOL    HW221627   2.352   3.905   0.588
 5327SOL    HW321628   2.217   3.906   0.657
 5327SOL    MW421629   2.299   3.875   0.648
 5328SOL     OW21630   2.061   4.924   1.517
 5328SOL    HW221631   2.089   4.877   1.595
 5328SOL    HW321632   1.982   4.879   1.488
 5328SOL    MW421633   2.054   4.913   1.523
 5329SOL     OW21634   2.569   4.251   1.484
 5329SOL    HW221635   2.541   4.339   1.508
 5329SOL    HW321636   2.538   4.195   1.555
 5329SOL    MW421637   2.561   4.254   1.496
 5330SOL     OW21638   3.111   4.469   0.203
 5330SOL    HW221639   3.158   4.487   0.122
 5330SOL    HW321640   3.077   4.553   0.231
 5330SOL    MW421641   3.113   4.483   0.196
 5331SOL     OW21642   2.224   4.647   0.697
 5331SOL    HW221643   2.282   4.703   0.645
 5331SOL    HW321644   2.268   4.562   0.699
 5331SOL    MW421645   2.237   4.644   0.690
 5332SOL     OW21646   3.364   3.999   0.534
 5332SOL    HW221647   3.286   3.949   0.559
 5332SOL    HW321648   3.335   4.090   0.534
 5332SOL    MW421649   3.350   4.003   0.537
 5333SOL     OW21650   2.950   3.961   0.693
 5333SOL    HW221651   2.970   4.036   0.637
 5333SOL    HW321652   2.930   4.000   0.778
 5333SOL    MW421653   2.951   3.977   0.697
 5334SOL     OW21654   2.846   5.211   0.025
 5334SOL    HW221655   2.873   5.289  -0.023
 5334SOL    HW321656   2.753   5.226   0.044
 5334SOL    MW421657   2.837   5.224   0.021
 5335SOL     OW21658   3.710   4.734   1.712
 5335SOL    HW221659   3.623   4.714   1.748
 5335SOL    HW321660   3.764   4.660   1.737
 5335SOL    MW421661   3.705   4.723   1.720
 5336SOL     OW21662   1.931   5.247   0.869
 5336SOL    HW221663   1.963   5.251   0.960
 5336SOL    HW321664   1.836   5.255   0.877
 5336SOL    MW421665   1.923   5.250   0.882
 5337SOL     OW21666   1.886   4.373   0.416
 5337SOL    HW221667   1.826   4.345   0.486
 5337SOL    HW321668   1.960   4.313   0.422
 5337SOL    MW421669   1.888   4.362   0.425
 5338SOL     OW21670   3.454   5.585   1.850
 5338SOL    HW221671   3.499   5.509   1.815
 5338SOL    HW321672   3.492   5.598   1.937
 5338SOL    MW421673   3.464   5.578   1.856
 5339SOL     OW21674   3.054   5.104   0.576
 5339SOL    HW221675   3.077   5.055   0.654
 5339SOL    HW321676   3.135   5.146   0.548
 5339SOL    MW421677   3.067   5.104   0.583
 5340SOL     OW21678   2.312   4.112   1.305
 5340SOL    HW221679   2.345   4.193   1.345
 5340SOL    HW321680   2.285   4.138   1.217
 5340SOL    MW421681   2.311   4.126   1.299
 5341SOL     OW21682   2.266   4.079   1.041
 5341SOL    HW221683   2.296   3.993   1.012
 5341SOL    HW321684   2.171   4.072   1.044
 5341SOL    MW421685   2.258   4.068   1.039
 5342SOL     OW21686   3.095   4.288   1.732
 5342SOL    HW221687   3.147   4.223   1.685
 5342SOL    HW321688   3.053   4.339   1.662
 5342SOL    MW421689   3.096   4.285   1.715
 5343SOL     OW21690   3.194   4.083   1.593
 5343SOL    HW221691   3.101   4.067   1.580
 5343SOL    HW321692   3.220   4.021   1.661
 5343SOL    MW421693   3.184   4.073   1.600
 5344SOL     OW21694   2.409   3.857   0.932
 5344SOL    HW221695   2.419   3.766   0.958
 5344SOL    HW321696   2.365   3.853   0.847
 5344SOL    MW421697   2.405   3.845   0.924
 5345SOL     OW21698   2.503   5.472   1.478
 5345SOL    HW221699   2.420   5.457   1.523
 5345SOL    HW321700   2.562   5.405   1.513
 5345SOL    MW421701   2.501   5.462   1.488
 5346SOL     OW21702   3.560   4.179   1.103
 5346SOL    HW221703   3.493   4.212   1.163
 5346SOL    HW321704   3.603   4.257   1.069
 5346SOL    MW421705   3.558   4.194   1.107
 5347SOL     OW21706   3.738   4.899   1.073
 5347SOL    HW221707   3.731   4.839   0.998
 5347SOL    HW321708   3.664   4.959   1.062
 5347SOL    MW421709   3.728   4.899   1.062
 5348SOL     OW21710   3.120   4.761   0.991
 5348SOL    HW221711   3.134   4.733   1.082
 5348SOL    HW321712   3.206   4.792   0.963
 5348SOL    MW421713   3.133   4.762   1.000
 5349SOL     OW21714   3.203   4.256   1.270
 5349SOL    HW221715   3.224   4.257   1.177
 5349SOL    HW321716   3.248   4.178   1.303
 5349SOL    MW421717   3.210   4.246   1.262
 5350SOL     OW21718   3.696   4.387   1.812
 5350SOL    HW221719   3.733   4.332   1.881
 5350SOL    HW321720   3.721   4.344   1.730
 5350SOL    MW421721   3.703   4.375   1.811
 5351SOL     OW21722   3.243   4.685   1.863
 5351SOL    HW221723   3.309   4.633   1.817
 5351SOL    HW321724   3.263   4.672   1.956
 5351SOL    MW421725   3.254   4.676   1.870
 5352SOL     OW21726   3.194   3.771   0.212
 5352SOL    HW221727   3.268   3.815   0.255
 5352SOL    HW321728   3.118   3.825   0.234
 5352SOL    MW421729   3.194   3.783   0.220
 5353SOL     OW21730   3.254   4.546   0.490
 5353SOL    HW221731   3.169   4.516   0.460
 5353SOL    HW321732   3.246   4.553   0.585
 5353SOL    MW421733   3.242   4.544   0.499
 5354SOL     OW21734   2.330   5.009   1.221
 5354SOL    HW221735   2.342   5.036   1.312
 5354SOL    HW321736   2.311   5.090   1.174
 5354SOL    MW421737   2.329   5.024   1.226
 5355SOL     OW21738   2.614   3.989   1.044
 5355SOL    HW221739   2.587   3.991   1.135
 5355SOL    HW321740   2.544   3.941   0.999
 5355SOL    MW421741   2.602   3.985   1.051
 5356SOL     OW21742   2.468   5.481   1.206
 5356SOL    HW221743   2.520   5.558   1.183
 5356SOL    HW321744   2.477   5.473   1.301
 5356SOL    MW421745   2.477   5.488   1.217
 5357SOL     OW21746   3.370   5.066   1.438
 5357SOL    HW221747   3.355   4.995   1.501
 5357SOL    HW321748   3.416   5.024   1.366
 5357SOL    MW421749   3.376   5.050   1.438
 5358SOL     OW21750   2.444   4.797   1.555
 5358SOL    HW221751   2.481   4.802   1.467
 5358SOL    HW321752   2.483   4.870   1.602
 5358SOL    MW421753   2.454   4.807   1.550
 5359SOL     OW21754   2.624   4.840   1.367
 5359SOL    HW221755   2.683   4.786   1.420
 5359SOL    HW321756   2.639   4.812   1.277
 5359SOL    MW421757   2.634   4.829   1.363
 5360SOL     OW21758   2.627   4.212   0.216
 5360SOL    HW221759   2.700   4.261   0.179
 5360SOL    HW321760   2.643   4.121   0.190
 5360SOL    MW421761   2.639   4.207   0.209
 5361SOL     OW21762   3.435   5.329   1.539
 5361SOL    HW221763   3.477   5.314   1.624
 5361SOL    HW321764   3.426   5.242   1.501
 5361SOL    MW421765   3.439   5.317   1.546
 5362SOL     OW21766   3.095   3.808   1.130
 5362SOL    HW221767   3.150   3.817   1.052
 5362SOL    HW321768   3.150   3.842   1.201
 5362SOL    MW421769   3.109   3.813   1.129
 5363SOL     OW21770   2.102   4.721   0.314
 5363SOL    HW221771   2.039   4.737   0.243
 5363SOL    HW321772   2.049   4.684   0.385
 5363SOL    MW421773   2.087   4.718   0.314
 5364SOL     OW21774   2.458   5.075   0.173
 5364SOL    HW221775   2.473   5.051   0.265
 5364SOL    HW321776   2.366   5.053   0.157
 5364SOL    MW421777   2.448   5.068   0.183
 5365SOL     OW21778   2.997   5.306   0.325
 5365SOL    HW221779   3.005   5.224   0.276
 5365SOL    HW321780   2.916   5.345   0.292
 5365SOL    MW421781   2.987   5.301   0.315
 5366SOL     OW21782   2.256   5.464   0.894
 5366SOL    HW221783   2.260   5.375   0.929
 5366SOL    HW321784   2.282   5.455   0.803
 5366SOL    MW421785   2.259   5.452   0.886
 5367SOL     OW21786   2.873   4.942   1.137
 5367SOL    HW221787   2.805   4.876   1.153
 5367SOL    HW321788   2.891   4.936   1.044
 5367SOL    MW421789   2.866   4.933   1.128
 5368SOL     OW21790   1.962   5.217   1.388
 5368SOL    HW221791   1.952   5.175   1.474
 5368SOL    HW321792   1.883   5.270   1.378
 5368SOL    MW421793   1.951   5.218   1.399
 5369SOL     OW21794   2.866   4.081   0.958
 5369SOL    HW221795   2.796   4.033   1.003
 5369SOL    HW321796   2.898   4.144   1.022
 5369SOL    MW421797   2.861   4.083   0.972
 5370SOL     OW21798   2.517   4.517   1.578
 5370SOL    HW221799   2.510   4.612   1.566
 5370SOL    HW321800   2.526   4.506   1.673
 5370SOL    MW421801   2.518   4.529   1.588
 5371SOL     OW21802   2.238   5.032   1.836
 5371SOL    HW221803   2.310   5.034   1.773
 5371SOL    HW321804   2.208   4.941   1.835
 5371SOL    MW421805   2.243   5.021   1.828
 5372SOL     OW21806   3.322   3.795   1.303
 5372SOL    HW221807   3.393   3.741   1.267
 5372SOL    HW321808   3.321   3.774   1.396
 5372SOL    MW421809   3.331   3.786   1.311
 5373SOL     OW21810   3.522   5.325   1.787
 5373SOL    HW221811   3.495   5.322   1.878
 5373SOL    HW321812   3.618   5.329   1.790
 5373SOL    MW421813   3.532   5.325   1.799
 5374SOL     OW21814   2.333   4.187   0.771
 5374SOL    HW221815   2.404   4.135   0.734
 5374SOL    HW321816   2.319   4.152   0.858
 5374SOL    MW421817   2.341   4.176   0.778
 5375SOL     OW21818   1.888   5.522   1.843
 5375SOL    HW221819   1.938   5.500   1.765
 5375SOL    HW321820   1.896   5.617   1.851
 5375SOL    MW421821   1.896   5.531   1.834
 5376SOL     OW21822   2.649   5.280   0.847
 5376SOL    HW221823   2.577   5.217   0.860
 5376SOL    HW321824   2.610   5.365   0.865
 5376SOL    MW421825   2.633   5.283   0.850
 5377SOL     OW21826   2.969   4.128   0.495
 5377SOL    HW221827   2.991   4.065   0.427
 5377SOL    HW321828   2.874   4.120   0.506
 5377SOL    MW421829   2.959   4.119   0.487
 5378SOL     OW21830   2.054   3.818   0.427
 5378SOL    HW221831   2.125   3.839   0.366
 5378SOL    HW321832   2.008   3.746   0.385
 5378SOL    MW421833   2.058   3.812   0.413
 5379SOL     OW21834   1.885   4.285   1.570
 5379SOL    HW221835   1.949   4.351   1.545
 5379SOL    HW321836   1.804   4.312   1.527
 5379SOL    MW421837   1.883   4.297   1.562
 5380SOL     OW21838   3.623   5.192   0.527
 5380SOL    HW221839   3.593   5.125   0.588
 5380SOL    HW321840   3.717   5.198   0.541
 5380SOL    MW421841   3.631   5.184   0.537
 5381SOL     OW21842   3.179   4.869   0.457
 5381SOL    HW221843   3.151   4.955   0.490
 5381SOL    HW321844   3.207   4.885   0.367
 5381SOL    MW421845   3.179   4.883   0.449
 5382SOL     OW21846   2.841   3.789   0.510
 5382SOL    HW221847   2.878   3.848   0.575
 5382SOL    HW321848   2.818   3.845   0.436
 5382SOL    MW421849   2.842   3.804   0.509
 5383SOL     OW21850   3.694   4.671   0.932
 5383SOL    HW221851   3.685   4.703   0.843
 5383SOL    HW321852   3.647   4.587   0.932
 5383SOL    MW421853   3.687   4.664   0.922
 5384SOL     OW21854   2.070   4.511   1.511
 5384SOL    HW221855   2.091   4.580   1.449
 5384SOL    HW321856   2.150   4.458   1.516
 5384SOL    MW421857   2.083   4.512   1.505
 5385SOL     OW21858   3.606   4.602   0.633
 5385SOL    HW221859   3.700   4.591   0.621
 5385SOL    HW321860   3.582   4.674   0.574
 5385SOL    MW421861   3.616   4.610   0.624
 5386SOL     OW21862   2.055   4.526   1.778
 5386SOL    HW221863   1.981   4.470   1.804
 5386SOL    HW321864   2.050   4.529   1.683
 5386SOL    MW421865   2.044   4.519   1.768
 5387SOL     OW21866   2.221   3.813   1.228
 5387SOL    HW221867   2.264   3.897   1.248
 5387SOL    HW321868   2.294   3.751   1.221
 5387SOL    MW421869   2.236   3.816   1.229
 5388SOL     OW21870   2.262   4.480   0.406
 5388SOL    HW221871   2.262   4.575   0.391
 5388SOL    HW321872   2.339   4.464   0.460
 5388SOL    MW421873   2.272   4.491   0.411
 5389SOL     OW21874   3.038   4.339   1.470
 5389SOL    HW221875   3.074   4.312   1.386
 5389SOL    HW321876   2.951   4.373   1.449
 5389SOL    MW421877   3.032   4.340   1.457
 5390SOL     OW21878   2.021   4.211   0.695
 5390SOL    HW221879   2.083   4.218   0.768
 5390SOL    HW321880   2.021   4.118   0.672
 5390SOL    MW421881   2.029   4.200   0.702
 5391SOL     OW21882   3.568   5.551   0.227
 5391SOL    HW221883   3.635   5.584   0.167
 5391SOL    HW321884   3.525   5.630   0.261
 5391SOL    MW421885   3.570   5.566   0.223
 5392SOL     OW21886   2.703   4.472   1.179
 5392SOL    HW221887   2.661   4.390   1.155
 5392SOL    HW321888   2.704   4.471   1.275
 5392SOL    MW421889   2.696   4.461   1.188
 5393SOL     OW21890   3.374   5.605   1.578
 5393SOL    HW221891   3.377   5.511   1.561
 5393SOL    HW321892   3.397   5.613   1.670
 5393SOL    MW421893   3.377   5.593   1.588
 5394SOL     OW21894   2.507   3.942   1.284
 5394SOL    HW221895   2.438   4.005   1.305
 5394SOL    HW321896   2.534   3.906   1.369
 5394SOL    MW421897   2.501   3.945   1.297
 5395SOL     OW21898   1.890   4.783   0.153
 5395SOL    HW221899   1.859   4.848   0.216
 5395SOL    HW321900   1.839   4.705   0.172
 5395SOL    MW421901   1.880   4.780   0.163
 5396SOL     OW21902   3.302   3.795   0.901
 5396SOL    HW221903   3.390   3.804   0.938
 5396SOL    HW321904   3.312   3.736   0.827
 5396SOL    MW421905   3.316   3.789   0.895
 5397SOL     OW21906   3.334   4.534   0.745
 5397SOL    HW221907   3.414   4.549   0.694
 5397SOL    HW321908   3.327   4.439   0.751
 5397SOL    MW421909   3.343   4.523   0.740
 5398SOL     OW21910   2.474   5.583   0.095
 5398SOL    HW221911   2.379   5.583   0.087
 5398SOL    HW321912   2.490   5.529   0.173
 5398SOL    MW421913   2.464   5.577   0.104
 5399SOL     OW21914   2.784   4.460   1.442
 5399SOL    HW221915   2.853   4.527   1.439
 5399SOL    HW321916   2.717   4.498   1.498
 5399SOL    MW421917   2.785   4.473   1.449
 5400SOL     OW21918   2.202   4.760   1.690
 5400SOL    HW221919   2.156   4.676   1.692
 5400SOL    HW321920   2.259   4.754   1.614
 5400SOL    MW421921   2.204   4.748   1.682
 5401SOL     OW21922   3.319   4.403   0.011
 5401SOL    HW221923   3.247   4.379  -0.047
 5401SOL    HW321924   3.385   4.440  -0.047
 5401SOL    MW421925   3.318   4.405  -0.004
 5402SOL     OW21926   2.453   5.135   0.691
 5402SOL    HW221927   2.518   5.068   0.712
 5402SOL    HW321928   2.505   5.212   0.668
 5402SOL    MW421929   2.468   5.137   0.690
 5403SOL     OW21930   2.714   4.300   0.821
 5403SOL    HW221931   2.654   4.318   0.893
 5403SOL    HW321932   2.748   4.212   0.840
 5403SOL    MW421933   2.710   4.290   0.834
 5404SOL     OW21934   3.655   3.799   1.490
 5404SOL    HW221935   3.576   3.845   1.518
 5404SOL    HW321936   3.690   3.853   1.419
 5404SOL    MW421937   3.649   3.812   1.484
 5405SOL     OW21938   2.939   4.883   0.840
 5405SOL    HW221939   3.031   4.864   0.858
 5405SOL    HW321940   2.912   4.813   0.780
 5405SOL    MW421941   2.947   4.871   0.834
 5406SOL     OW21942   2.732   4.703   0.195
 5406SOL    HW221943   2.718   4.615   0.160
 5406SOL    HW321944   2.683   4.760   0.136
 5406SOL    MW421945   2.724   4.698   0.183
 5407SOL     OW21946   3.213   5.121   0.936
 5407SOL    HW221947   3.186   5.205   0.901
 5407SOL    HW321948   3.173   5.116   1.023
 5407SOL    MW421949   3.206   5.130   0.942
 5408SOL     OW21950   3.132   5.069   1.204
 5408SOL    HW221951   3.143   5.036   1.293
 5408SOL    HW321952   3.051   5.028   1.173
 5408SOL    MW421953   3.122   5.061   1.210
 5409SOL     OW21954   2.145   4.427   0.974
 5409SOL    HW221955   2.095   4.426   1.055
 5409SOL    HW321956   2.165   4.519   0.958
 5409SOL    MW421957   2.141   4.439   0.982
 5410SOL     OW21958   3.212   5.191   1.736
 5410SOL    HW221959   3.212   5.285   1.752
 5410SOL    HW321960   3.257   5.181   1.652
 5410SOL    MW421961   3.218   5.201   1.727
 5411SOL     OW21962   3.451   3.909   0.297
 5411SOL    HW221963   3.444   3.913   0.392
 5411SOL    HW321964   3.463   4.000   0.270
 5411SOL    MW421965   3.452   3.922   0.305
 5412SOL     OW21966   2.740   4.472   0.411
 5412SOL    HW221967   2.720   4.458   0.318
 5412SOL    HW321968   2.833   4.451   0.418
 5412SOL    MW421969   2.750   4.467   0.400
 5413SOL     OW21970   2.067   4.095   1.715
 5413SOL    HW221971   2.024   4.154   1.652
 5413SOL    HW321972   2.135   4.150   1.755
 5413SOL    MW421973   2.071   4.110   1.712
 5414SOL     OW21974   3.179   4.715   1.260
 5414SOL    HW221975   3.242   4.712   1.333
 5414SOL    HW321976   3.095   4.733   1.302
 5414SOL    MW421977   3.175   4.717   1.275
 5415SOL     OW21978   2.723   5.430   0.449
 5415SOL    HW221979   2.781   5.501   0.476
 5415SOL    HW321980   2.746   5.358   0.507
 5415SOL    MW421981   2.734   5.430   0.460
 5416SOL     OW21982   3.518   3.892   1.039
 5416SOL    HW221983   3.563   3.810   1.058
 5416SOL    HW321984   3.538   3.948   1.115
 5416SOL    MW421985   3.528   3.888   1.051
 5417SOL     OW21986   1.966   3.735   1.138
 5417SOL    HW221987   1.957   3.736   1.043
 5417SOL    HW321988   2.060   3.747   1.153
 5417SOL    MW421989   1.978   3.738   1.129
 5418SOL     OW21990   3.603   4.928   0.758
 5418SOL    HW221991   3.582   4.874   0.681
 5418SOL    HW321992   3.699   4.926   0.762
 5418SOL    MW421993   3.612   4.921   0.747
 5419SOL     OW21994   2.295   5.073   1.501
 5419SOL    HW221995   2.216   5.023   1.524
 5419SOL    HW321996   2.365   5.032   1.551
 5419SOL    MW421997   2.293   5.061   1.511
 5420SOL     OW21998   2.179   3.862   0.184
 5420SOL    HW221999   2.108   3.917   0.152
 5420SOL    HW322000   2.221   3.828   0.105
 5420SOL    MW422001   2.175   3.864   0.170
 5421SOL     OW22002   3.303   4.359   1.020
 5421SOL    HW222003   3.226   4.405   0.986
 5421SOL    HW322004   3.360   4.428   1.054
 5421SOL    MW422005   3.300   4.374   1.020
 5422SOL     OW22006   1.935   3.961   0.033
 5422SOL    HW222007   1.902   4.040   0.077
 5422SOL    HW322008   1.990   3.994  -0.038
 5422SOL    MW422009   1.938   3.975   0.030
 5423SOL     OW22010   1.969   5.218   0.222
 5423SOL    HW222011   1.986   5.302   0.264
 5423SOL    HW322012   2.004   5.227   0.134
 5423SOL    MW422013   1.974   5.231   0.216
 5424SOL     OW22014   3.241   5.307   0.439
 5424SOL    HW222015   3.304   5.297   0.368
 5424SOL    HW322016   3.158   5.327   0.394
 5424SOL    MW422017   3.238   5.308   0.424
 5425SOL     OW22018   3.604   4.575   2.125
 5425SOL    HW222019   3.645   4.517   2.190
 5425SOL    HW322020   3.511   4.567   2.142
 5425SOL    MW422021   3.598   4.567   2.135
 5426SOL     OW22022   3.470   4.507   3.120
 5426SOL    HW222023   3.425   4.574   3.171
 5426SOL    HW322024   3.558   4.543   3.106
 5426SOL    MW422025   3.476   4.520   3.124
 5427SOL     OW22026   2.398   4.758   2.354
 5427SOL    HW222027   2.488   4.733   2.338
 5427SOL    HW322028   2.394   4.851   2.331
 5427SOL    MW422029   2.410   4.767   2.349
 5428SOL     OW22030   3.514   5.461   2.496
 5428SOL    HW222031   3.526   5.407   2.574
 5428SOL    HW322032   3.551   5.409   2.425
 5428SOL    MW422033   3.520   5.446   2.497
 5429SOL     OW22034   2.893   5.346   3.497
 5429SOL    HW222035   2.934   5.382   3.418
 5429SOL    HW322036   2.928   5.257   3.504
 5429SOL    MW422037   2.904   5.339   3.488
 5430SOL     OW22038   3.450   4.901   3.101
 5430SOL    HW222039   3.371   4.866   3.059
 5430SOL    HW322040   3.477   4.973   3.045
 5430SOL    MW422041   3.443   4.906   3.088
 5431SOL     OW22042   2.682   4.214   2.367
 5431SOL    HW222043   2.657   4.302   2.395
 5431SOL    HW322044   2.679   4.217   2.271
 5431SOL    MW422045   2.678   4.226   2.359
 5432SOL     OW22046   2.124   4.242   2.295
 5432SOL    HW222047   2.156   4.330   2.277
 5432SOL    HW322048   2.112   4.240   2.390
 5432SOL    MW422049   2.127   4.254   2.307
 5433SOL     OW22050   2.202   4.655   3.196
 5433SOL    HW222051   2.265   4.602   3.147
 5433SOL    HW322052   2.183   4.729   3.139
 5433SOL    MW422053   2.208   4.657   3.183
 5434SOL     OW22054   2.523   3.997   2.382
 5434SOL    HW222055   2.581   4.073   2.384
 5434SOL    HW322056   2.458   4.018   2.315
 5434SOL    MW422057   2.522   4.009   2.373
 5435SOL     OW22058   2.610   4.924   2.557
 5435SOL    HW222059   2.690   4.927   2.609
 5435SOL    HW322060   2.638   4.891   2.471
 5435SOL    MW422061   2.624   4.920   2.552
 5436SOL     OW22062   2.635   5.265   3.460
 5436SOL    HW222063   2.719   5.291   3.499
 5436SOL    HW322064   2.659   5.209   3.386
 5436SOL    MW422065   2.649   5.261   3.455
 5437SOL     OW22066   2.387   4.428   2.548
 5437SOL    HW222067   2.372   4.348   2.599
 5437SOL    HW322068   2.469   4.463   2.582
 5437SOL    MW422069   2.395   4.420   2.560
 5438SOL     OW22070   2.724   5.114   3.233
 5438SOL    HW222071   2.688   5.180   3.173
 5438SOL    HW322072   2.652   5.052   3.246
 5438SOL    MW422073   2.710   5.114   3.227
 5439SOL     OW22074   2.529   4.254   2.925
 5439SOL    HW222075   2.435   4.250   2.943
 5439SOL    HW322076   2.559   4.163   2.934
 5439SOL    MW422077   2.520   4.242   2.928
 5440SOL     OW22078   2.275   4.668   2.829
 5440SOL    HW222079   2.230   4.675   2.745
 5440SOL    HW322080   2.255   4.751   2.873
 5440SOL    MW422081   2.267   4.680   2.823
 5441SOL     OW22082   1.972   5.514   2.704
 5441SOL    HW222083   2.061   5.506   2.739
 5441SOL    HW322084   1.936   5.426   2.709
 5441SOL    MW422085   1.979   5.501   2.709
 5442SOL     OW22086   3.237   4.906   2.073
 5442SOL    HW222087   3.155   4.942   2.039
 5442SOL    HW322088   3.305   4.949   2.022
 5442SOL    MW422089   3.235   4.916   2.061
 5443SOL     OW22090   2.236   5.041   2.739
 5443SOL    HW222091   2.212   5.094   2.815
 5443SOL    HW322092   2.292   5.099   2.687
 5443SOL    MW422093   2.240   5.056   2.742
 5444SOL     OW22094   2.798   4.685   2.549
 5444SOL    HW222095   2.712   4.672   2.589
 5444SOL    HW322096   2.851   4.612   2.581
 5444SOL    MW422097   2.794   4.674   2.558
 5445SOL     OW22098   2.206   5.337   3.334
 5445SOL    HW222099   2.114   5.313   3.319
 5445SOL    HW322100   2.250   5.254   3.351
 5445SOL    MW422101   2.200   5.322   3.333
 5446SOL     OW22102   2.789   5.047   2.266
 5446SOL    HW222103   2.766   5.109   2.334
 5446SOL    HW322104   2.746   4.965   2.292
 5446SOL    MW422105   2.781   5.043   2.277
 5447SOL     OW22106   3.662   4.048   2.722
 5447SOL    HW222107   3.599   4.028   2.791
 5447SOL    HW322108   3.652   3.977   2.659
 5447SOL    MW422109   3.652   4.035   2.723
 5448SOL     OW22110   2.286   4.020   2.234
 5448SOL    HW222111   2.260   3.982   2.150
 5448SOL    HW322112   2.223   4.090   2.250
 5448SOL    MW422113   2.275   4.023   2.225
 5449SOL     OW22114   2.121   4.981   2.271
 5449SOL    HW222115   2.069   5.049   2.227
 5449SOL    HW322116   2.118   4.907   2.211
 5449SOL    MW422117   2.113   4.980   2.258
 5450SOL     OW22118   2.783   5.444   2.049
 5450SOL    HW222119   2.738   5.460   2.132
 5450SOL    HW322120   2.714   5.409   1.991
 5450SOL    MW422121   2.769   5.441   2.051
 5451SOL     OW22122   3.718   4.217   2.024
 5451SOL    HW222123   3.627   4.219   2.052
 5451SOL    HW322124   3.763   4.279   2.082
 5451SOL    MW422125   3.711   4.225   2.034
 5452SOL     OW22126   3.463   4.820   2.374
 5452SOL    HW222127   3.373   4.820   2.409
 5452SOL    HW322128   3.456   4.866   2.291
 5452SOL    MW422129   3.450   4.826   2.368
 5453SOL     OW22130   3.263   4.455   3.446
 5453SOL    HW222131   3.332   4.393   3.423
 5453SOL    HW322132   3.188   4.429   3.393
 5453SOL    MW422133   3.263   4.442   3.437
 5454SOL     OW22134   2.004   5.335   2.998
 5454SOL    HW222135   1.987   5.281   3.075
 5454SOL    HW322136   1.992   5.425   3.028
 5454SOL    MW422137   2.001   5.339   3.012
 5455SOL     OW22138   2.999   4.842   3.438
 5455SOL    HW222139   2.984   4.935   3.423
 5455SOL    HW322140   3.094   4.832   3.438
 5455SOL    MW422141   3.008   4.852   3.435
 5456SOL     OW22142   2.795   4.266   3.639
 5456SOL    HW222143   2.885   4.267   3.606
 5456SOL    HW322144   2.754   4.191   3.597
 5456SOL    MW422145   2.801   4.256   3.630
 5457SOL     OW22146   3.370   4.798   2.766
 5457SOL    HW222147   3.373   4.732   2.697
 5457SOL    HW322148   3.455   4.841   2.762
 5457SOL    MW422149   3.382   4.794   2.757
 5458SOL     OW22150   2.990   4.401   2.335
 5458SOL    HW222151   3.016   4.425   2.246
 5458SOL    HW322152   2.972   4.308   2.331
 5458SOL    MW422153   2.992   4.393   2.322
 5459SOL     OW22154   3.655   5.021   2.186
 5459SOL    HW222155   3.611   5.062   2.261
 5459SOL    HW322156   3.712   5.089   2.151
 5459SOL    MW422157   3.657   5.035   2.191
 5460SOL     OW22158   2.575   4.070   3.589
 5460SOL    HW222159   2.585   3.996   3.529
 5460SOL    HW322160   2.611   4.039   3.672
 5460SOL    MW422161   2.581   4.056   3.591
 5461SOL     OW22162   2.311   5.437   2.504
 5461SOL    HW222163   2.343   5.525   2.482
 5461SOL    HW322164   2.264   5.409   2.426
 5461SOL    MW422165   2.310   5.445   2.491
 5462SOL     OW22166   3.695   3.799   2.553
 5462SOL    HW222167   3.749   3.750   2.615
 5462SOL    HW322168   3.638   3.733   2.514
 5462SOL    MW422169   3.695   3.783   2.555
 5463SOL     OW22170   2.027   5.497   2.081
 5463SOL    HW222171   2.056   5.587   2.073
 5463SOL    HW322172   1.977   5.480   2.002
 5463SOL    MW422173   2.025   5.505   2.070
 5464SOL     OW22174   2.814   3.752   2.966
 5464SOL    HW222175   2.773   3.830   2.928
 5464SOL    HW322176   2.908   3.770   2.961
 5464SOL    MW422177   2.820   3.764   2.961
 5465SOL     OW22178   3.431   5.305   2.052
 5465SOL    HW222179   3.479   5.374   2.098
 5465SOL    HW322180   3.352   5.349   2.021
 5465SOL    MW422181   3.426   5.319   2.055
 5466SOL     OW22182   2.829   4.430   1.996
 5466SOL    HW222183   2.831   4.377   1.917
 5466SOL    HW322184   2.917   4.467   2.002
 5466SOL    MW422185   2.841   4.429   1.985
 5467SOL     OW22186   3.443   4.356   2.332
 5467SOL    HW222187   3.482   4.356   2.419
 5467SOL    HW322188   3.384   4.432   2.332
 5467SOL    MW422189   3.440   4.367   2.343
 5468SOL     OW22190   2.760   4.723   3.461
 5468SOL    HW222191   2.737   4.703   3.551
 5468SOL    HW322192   2.845   4.767   3.466
 5468SOL    MW422193   2.767   4.726   3.473
 5469SOL     OW22194   2.840   3.860   3.221
 5469SOL    HW222195   2.846   3.822   3.134
 5469SOL    HW322196   2.829   3.954   3.206
 5469SOL    MW422197   2.841   3.868   3.209
 5470SOL     OW22198   2.929   4.349   3.055
 5470SOL    HW222199   3.004   4.378   3.002
 5470SOL    HW322200   2.861   4.414   3.039
 5470SOL    MW422201   2.930   4.361   3.045
 5471SOL     OW22202   3.479   4.317   3.332
 5471SOL    HW222203   3.460   4.226   3.311
 5471SOL    HW322204   3.457   4.366   3.253
 5471SOL    MW422205   3.474   4.310   3.319
 5472SOL     OW22206   3.621   5.411   3.236
 5472SOL    HW222207   3.549   5.373   3.287
 5472SOL    HW322208   3.638   5.496   3.277
 5472SOL    MW422209   3.615   5.416   3.248
 5473SOL     OW22210   2.926   4.055   3.438
 5473SOL    HW222211   2.892   4.094   3.357
 5473SOL    HW322212   2.904   3.963   3.431
 5473SOL    MW422213   2.919   4.048   3.428
 5474SOL     OW22214   3.335   4.869   3.514
 5474SOL    HW222215   3.417   4.910   3.544
 5474SOL    HW322216   3.298   4.831   3.594
 5474SOL    MW422217   3.341   4.870   3.529
 5475SOL     OW22218   3.630   4.242   2.498
 5475SOL    HW222219   3.719   4.211   2.515
 5475SOL    HW322220   3.573   4.182   2.546
 5475SOL    MW422221   3.633   4.230   2.507
 5476SOL     OW22222   2.056   3.956   2.527
 5476SOL    HW222223   2.047   3.896   2.453
 5476SOL    HW322224   1.989   3.927   2.590
 5476SOL    MW422225   2.046   3.943   2.525
 5477SOL     OW22226   2.999   5.049   2.088
 5477SOL    HW222227   2.949   5.051   2.170
 5477SOL    HW322228   2.933   5.067   2.020
 5477SOL    MW422229   2.985   5.051   2.090
 5478SOL     OW22230   2.003   4.129   2.890
 5478SOL    HW222231   1.975   4.220   2.899
 5478SOL    HW322232   1.940   4.090   2.829
 5478SOL    MW422233   1.990   4.135   2.884
 5479SOL     OW22234   2.462   5.467   2.196
 5479SOL    HW222235   2.383   5.425   2.229
 5479SOL    HW322236   2.528   5.450   2.263
 5479SOL    MW422237   2.461   5.459   2.209
 5480SOL     OW22238   3.590   4.987   3.593
 5480SOL    HW222239   3.640   4.913   3.625
 5480SOL    HW322240   3.536   5.014   3.668
 5480SOL    MW422241   3.590   4.981   3.606
 5481SOL     OW22242   2.598   4.882   1.903
 5481SOL    HW222243   2.520   4.828   1.890
 5481SOL    HW322244   2.569   4.955   1.956
 5481SOL    MW422245   2.584   4.884   1.908
 5482SOL     OW22246   3.724   4.622   3.095
 5482SOL    HW222247   3.740   4.660   3.008
 5482SOL    HW322248   3.758   4.688   3.156
 5482SOL    MW422249   3.731   4.635   3.091
 5483SOL     OW22250   3.516   5.331   2.764
 5483SOL    HW222251   3.545   5.398   2.825
 5483SOL    HW322252   3.497   5.255   2.819
 5483SOL    MW422253   3.518   5.331   2.779
 5484SOL     OW22254   3.179   5.398   1.971
 5484SOL    HW222255   3.105   5.361   2.021
 5484SOL    HW322256   3.187   5.488   2.004
 5484SOL    MW422257   3.170   5.405   1.983
 5485SOL     OW22258   1.987   4.404   3.060
 5485SOL    HW222259   2.049   4.434   3.126
 5485SOL    HW322260   1.921   4.473   3.054
 5485SOL    MW422261   1.986   4.417   3.067
 5486SOL     OW22262   3.403   5.072   1.913
 5486SOL    HW222263   3.350   5.121   1.849
 5486SOL    HW322264   3.434   5.138   1.974
 5486SOL    MW422265   3.401   5.086   1.911
 5487SOL     OW22266   2.628   3.961   1.968
 5487SOL    HW222267   2.576   3.881   1.956
 5487SOL    HW322268   2.715   3.938   1.936
 5487SOL    MW422269   2.631   3.947   1.962
 5488SOL     OW22270   2.082   5.513   3.512
 5488SOL    HW222271   2.056   5.581   3.450
 5488SOL    HW322272   2.130   5.450   3.460
 5488SOL    MW422273   2.084   5.513   3.498
 5489SOL     OW22274   2.134   4.832   3.019
 5489SOL    HW222275   2.187   4.907   3.044
 5489SOL    HW322276   2.053   4.870   2.985
 5489SOL    MW422277   2.130   4.847   3.019
 5490SOL     OW22278   2.674   4.736   3.007
 5490SOL    HW222279   2.702   4.645   3.019
 5490SOL    HW322280   2.603   4.730   2.943
 5490SOL    MW422281   2.667   4.724   3.002
 5491SOL     OW22282   1.989   4.601   2.425
 5491SOL    HW222283   2.080   4.616   2.452
 5491SOL    HW322284   1.992   4.522   2.371
 5491SOL    MW422285   2.001   4.593   2.423
 5492SOL     OW22286   2.225   4.309   3.679
 5492SOL    HW222287   2.172   4.389   3.686
 5492SOL    HW322288   2.295   4.321   3.744
 5492SOL    MW422289   2.227   4.322   3.687
 5493SOL     OW22290   2.611   3.859   3.386
 5493SOL    HW222291   2.588   3.767   3.388
 5493SOL    HW322292   2.697   3.861   3.343
 5493SOL    MW422293   2.618   3.849   3.382
 5494SOL     OW22294   2.295   4.383   3.425
 5494SOL    HW222295   2.375   4.433   3.411
 5494SOL    HW322296   2.286   4.377   3.520
 5494SOL    MW422297   2.304   4.389   3.435
 5495SOL     OW22298   2.616   5.533   2.799
 5495SOL    HW222299   2.705   5.548   2.829
 5495SOL    HW322300   2.611   5.580   2.715
 5495SOL    MW422301   2.626   5.541   2.792
 5496SOL     OW22302   3.272   3.908   3.696
 5496SOL    HW222303   3.328   3.835   3.722
 5496SOL    HW322304   3.242   3.946   3.778
 5496SOL    MW422305   3.276   3.903   3.709
 5497SOL     OW22306   1.997   5.213   2.464
 5497SOL    HW222307   1.969   5.252   2.546
 5497SOL    HW322308   2.017   5.122   2.486
 5497SOL    MW422309   1.995   5.205   2.477
 5498SOL     OW22310   2.830   5.256   2.499
 5498SOL    HW222311   2.913   5.210   2.483
 5498SOL    HW322312   2.820   5.255   2.595
 5498SOL    MW422313   2.840   5.249   2.509
 5499SOL     OW22314   3.662   4.401   2.813
 5499SOL    HW222315   3.751   4.431   2.795
 5499SOL    HW322316   3.642   4.341   2.742
 5499SOL    MW422317   3.671   4.398   2.802
 5500SOL     OW22318   3.513   4.580   3.693
 5500SOL    HW222319   3.568   4.504   3.674
 5500SOL    HW322320   3.515   4.588   3.788
 5500SOL    MW422321   3.521   4.571   3.701
 5501SOL     OW22322   2.563   5.313   1.904
 5501SOL    HW222323   2.503   5.382   1.874
 5501SOL    HW322324   2.508   5.255   1.957
 5501SOL    MW422325   2.547   5.315   1.906
 5502SOL     OW22326   3.001   3.958   2.127
 5502SOL    HW222327   2.934   3.934   2.064
 5502SOL    HW322328   3.066   4.007   2.076
 5502SOL    MW422329   3.001   3.960   2.112
 5503SOL     OW22330   2.808   4.142   3.212
 5503SOL    HW222331   2.727   4.183   3.240
 5503SOL    HW322332   2.855   4.210   3.164
 5503SOL    MW422333   2.803   4.157   3.210
 5504SOL     OW22334   3.068   4.480   2.835
 5504SOL    HW222335   3.081   4.574   2.845
 5504SOL    HW322336   3.029   4.470   2.749
 5504SOL    MW422337   3.064   4.491   2.825
 5505SOL     OW22338   2.520   4.675   2.639
 5505SOL    HW222339   2.431   4.666   2.672
 5505SOL    HW322340   2.524   4.765   2.607
 5505SOL    MW422341   2.509   4.686   2.639
 5506SOL     OW22342   3.319   4.258   2.634
 5506SOL    HW222343   3.264   4.179   2.633
 5506SOL    HW322344   3.301   4.299   2.718
 5506SOL    MW422345   3.309   4.253   2.643
 5507SOL     OW22346   2.290   3.945   3.451
 5507SOL    HW222347   2.211   3.963   3.503
 5507SOL    HW322348   2.285   4.007   3.378
 5507SOL    MW422349   2.280   3.955   3.448
 5508SOL     OW22350   2.938   4.462   2.591
 5508SOL    HW222351   2.875   4.394   2.615
 5508SOL    HW322352   2.958   4.443   2.499
 5508SOL    MW422353   2.932   4.449   2.583
 5509SOL     OW22354   2.194   5.357   2.293
 5509SOL    HW222355   2.155   5.404   2.219
 5509SOL    HW322356   2.128   5.292   2.318
 5509SOL    MW422357   2.181   5.355   2.287
 5510SOL     OW22358   2.686   4.766   2.317
 5510SOL    HW222359   2.688   4.740   2.224
 5510SOL    HW322360   2.744   4.703   2.360
 5510SOL    MW422361   2.694   4.755   2.311
 5511SOL     OW22362   3.239   5.326   3.089
 5511SOL    HW222363   3.164   5.372   3.127
 5511SOL    HW322364   3.221   5.233   3.106
 5511SOL    MW422365   3.228   5.320   3.097
 5512SOL     OW22366   3.243   5.534   2.519
 5512SOL    HW222367   3.186   5.487   2.458
 5512SOL    HW322368   3.329   5.495   2.506
 5512SOL    MW422369   3.246   5.525   2.509
 5513SOL     OW22370   3.196   4.010   2.650
 5513SOL    HW222371   3.224   3.942   2.711
 5513SOL    HW322372   3.110   3.981   2.620
 5513SOL    MW422373   3.189   3.997   2.654
 5514SOL     OW22374   2.001   4.944   2.584
 5514SOL    HW222375   2.065   4.976   2.647
 5514SOL    HW322376   2.050   4.880   2.532
 5514SOL    MW422377   2.016   4.940   2.585
 5515SOL     OW22378   2.501   5.020   3.566
 5515SOL    HW222379   2.549   5.103   3.553
 5515SOL    HW322380   2.558   4.968   3.622
 5515SOL    MW422381   2.515   5.024   3.572
 5516SOL     OW22382   2.077   5.262   3.706
 5516SOL    HW222383   2.133   5.186   3.721
 5516SOL    HW322384   2.026   5.240   3.628
 5516SOL    MW422385   2.077   5.249   3.697
 5517SOL     OW22386   3.176   4.114   1.985
 5517SOL    HW222387   3.149   4.180   1.921
 5517SOL    HW322388   3.246   4.157   2.035
 5517SOL    MW422389   3.181   4.127   1.982
 5518SOL     OW22390   2.844   3.819   1.922
 5518SOL    HW222391   2.900   3.811   1.844
 5518SOL    HW322392   2.821   3.729   1.944
 5518SOL    MW422393   2.849   3.806   1.915
 5519SOL     OW22394   3.349   4.670   2.127
 5519SOL    HW222395   3.316   4.759   2.117
 5519SOL    HW322396   3.314   4.641   2.212
 5519SOL    MW422397   3.339   4.679   2.138
 5520SOL     OW22398   2.962   5.099   3.315
 5520SOL    HW222399   2.873   5.105   3.283
 5520SOL    HW322400   3.006   5.178   3.283
 5520SOL    MW422401   2.957   5.109   3.307
 5521SOL     OW22402   2.255   3.767   3.657
 5521SOL    HW222403   2.183   3.732   3.605
 5521SOL    HW322404   2.313   3.808   3.592
 5521SOL    MW422405   2.253   3.768   3.642
 5522SOL     OW22406   2.279   5.257   2.956
 5522SOL    HW222407   2.324   5.319   3.013
 5522SOL    HW322408   2.186   5.276   2.969
 5522SOL    MW422409   2.272   5.267   2.963
 5523SOL     OW22410   3.719   4.786   3.310
 5523SOL    HW222411   3.634   4.799   3.269
 5523SOL    HW322412   3.699   4.750   3.397
 5523SOL    MW422413   3.706   4.782   3.315
 5524SOL     OW22414   2.701   5.325   3.064
 5524SOL    HW222415   2.725   5.314   2.973
 5524SOL    HW322416   2.624   5.382   3.062
 5524SOL    MW422417   2.693   5.330   3.053
 5525SOL     OW22418   2.343   4.708   1.919
 5525SOL    HW222419   2.266   4.721   1.975
 5525SOL    HW322420   2.307   4.672   1.838
 5525SOL    MW422421   2.329   4.704   1.916
 5526SOL     OW22422   2.996   4.681   2.162
 5526SOL    HW222423   2.906   4.702   2.137
 5526SOL    HW322424   3.023   4.754   2.218
 5526SOL    MW422425   2.988   4.693   2.165
 5527SOL     OW22426   2.496   5.030   2.854
 5527SOL    HW222427   2.489   5.009   2.948
 5527SOL    HW322428   2.414   4.998   2.817
 5527SOL    MW422429   2.484   5.024   2.861
 5528SOL     OW22430   3.360   4.040   3.256
 5528SOL    HW222431   3.307   4.042   3.336
 5528SOL    HW322432   3.345   3.953   3.219
 5528SOL    MW422433   3.352   4.030   3.261
 5529SOL     OW22434   3.696   3.964   3.129
 5529SOL    HW222435   3.677   4.031   3.064
 5529SOL    HW322436   3.753   3.902   3.084
 5529SOL    MW422437   3.700   3.965   3.115
 5530SOL     OW22438   1.942   5.122   3.517
 5530SOL    HW222439   1.986   5.055   3.463
 5530SOL    HW322440   1.857   5.084   3.537
 5530SOL    MW422441   1.937   5.108   3.513
 5531SOL     OW22442   2.625   3.797   2.569
 5531SOL    HW222443   2.554   3.858   2.551
 5531SOL    HW322444   2.676   3.794   2.488
 5531SOL    MW422445   2.621   3.803   2.556
 5532SOL     OW22446   2.383   5.037   2.318
 5532SOL    HW222447   2.376   5.069   2.408
 5532SOL    HW322448   2.293   5.021   2.290
 5532SOL    MW422449   2.371   5.039   2.325
 5533SOL     OW22450   2.978   5.430   3.227
 5533SOL    HW222451   2.898   5.415   3.177
 5533SOL    HW322452   2.985   5.525   3.234
 5533SOL    MW422453   2.969   5.441   3.221
 5534SOL     OW22454   3.092   5.395   2.717
 5534SOL    HW222455   3.139   5.468   2.676
 5534SOL    HW322456   3.013   5.434   2.753
 5534SOL    MW422457   3.087   5.410   2.716
 5535SOL     OW22458   3.500   5.490   2.992
 5535SOL    HW222459   3.543   5.460   3.072
 5535SOL    HW322460   3.419   5.438   2.989
 5535SOL    MW422461   3.495   5.479   3.002
 5536SOL     OW22462   2.585   4.454   3.699
 5536SOL    HW222463   2.655   4.396   3.671
 5536SOL    HW322464   2.528   4.399   3.754
 5536SOL    MW422465   2.587   4.441   3.703
 5537SOL     OW22466   3.372   4.666   3.332
 5537SOL    HW222467   3.377   4.719   3.412
 5537SOL    HW322468   3.334   4.583   3.360
 5537SOL    MW422469   3.368   4.661   3.347
 5538SOL     OW22470   3.012   3.801   3.578
 5538SOL    HW222471   3.007   3.708   3.559
 5538SOL    HW322472   3.095   3.812   3.624
 5538SOL    MW422473   3.020   3.790   3.582
 5539SOL     OW22474   2.386   4.321   2.032
 5539SOL    HW222475   2.352   4.377   2.102
 5539SOL    HW322476   2.457   4.271   2.072
 5539SOL    MW422477   2.392   4.322   2.046
 5540SOL     OW22478   3.482   5.072   2.854
 5540SOL    HW222479   3.517   5.054   2.767
 5540SOL    HW322480   3.387   5.073   2.841
 5540SOL    MW422481   3.474   5.069   2.841
 5541SOL     OW22482   2.911   4.720   3.223
 5541SOL    HW222483   2.954   4.755   3.301
 5541SOL    HW322484   2.894   4.797   3.169
 5541SOL    MW422485   2.914   4.735   3.226
 5542SOL     OW22486   3.442   4.207   2.096
 5542SOL    HW222487   3.434   4.278   2.033
 5542SOL    HW322488   3.460   4.251   2.179
 5542SOL    MW422489   3.443   4.221   2.098
 5543SOL     OW22490   2.302   3.862   2.525
 5543SOL    HW222491   2.352   3.905   2.456
 5543SOL    HW322492   2.217   3.906   2.525
 5543SOL    MW422493   2.299   3.875   2.516
 5544SOL     OW22494   2.061   4.924   3.385
 5544SOL    HW222495   2.089   4.877   3.463
 5544SOL    HW322496   1.982   4.879   3.356
 5544SOL    MW422497   2.054   4.913   3.391
 5545SOL     OW22498   2.569   4.251   3.352
 5545SOL    HW222499   2.541   4.339   3.376
 5545SOL    HW322500   2.538   4.195   3.423
 5545SOL    MW422501   2.561   4.254   3.364
 5546SOL     OW22502   3.111   4.469   2.071
 5546SOL    HW222503   3.158   4.487   1.990
 5546SOL    HW322504   3.077   4.553   2.099
 5546SOL    MW422505   3.113   4.483   2.064
 5547SOL     OW22506   2.224   4.647   2.565
 5547SOL    HW222507   2.282   4.703   2.513
 5547SOL    HW322508   2.268   4.562   2.567
 5547SOL    MW422509   2.237   4.644   2.558
 5548SOL     OW22510   3.364   3.999   2.402
 5548SOL    HW222511   3.286   3.949   2.427
 5548SOL    HW322512   3.335   4.090   2.402
 5548SOL    MW422513   3.350   4.003   2.405
 5549SOL     OW22514   2.950   3.961   2.561
 5549SOL    HW222515   2.970   4.036   2.505
 5549SOL    HW322516   2.930   4.000   2.646
 5549SOL    MW422517   2.951   3.977   2.565
 5550SOL     OW22518   2.846   5.211   1.893
 5550SOL    HW222519   2.873   5.289   1.845
 5550SOL    HW322520   2.753   5.226   1.912
 5550SOL    MW422521   2.837   5.224   1.889
 5551SOL     OW22522   3.710   4.734   3.580
 5551SOL    HW222523   3.623   4.714   3.616
 5551SOL    HW322524   3.764   4.660   3.605
 5551SOL    MW422525   3.705   4.723   3.588
 5552SOL     OW22526   1.931   5.247   2.737
 5552SOL    HW222527   1.963   5.251   2.828
 5552SOL    HW322528   1.836   5.255   2.745
 5552SOL    MW422529   1.923   5.250   2.750
 5553SOL     OW22530   1.886   4.373   2.284
 5553SOL    HW222531   1.826   4.345   2.354
 5553SOL    HW322532   1.960   4.313   2.290
 5553SOL    MW422533   1.888   4.362   2.293
 5554SOL     OW22534   3.454   5.585   3.718
 5554SOL    HW222535   3.499   5.509   3.683
 5554SOL    HW322536   3.492   5.598   3.805
 5554SOL    MW422537   3.464   5.578   3.724
 5555SOL     OW22538   3.054   5.104   2.444
 5555SOL    HW222539   3.077   5.055   2.522
 5555SOL    HW322540   3.135   5.146   2.416
 5555SOL    MW422541   3.067   5.104   2.451
 5556SOL     OW22542   2.312   4.112   3.173
 5556SOL    HW222543   2.345   4.193   3.213
 5556SOL    HW322544   2.285   4.138   3.085
 5556SOL    MW422545   2.311   4.126   3.167
 5557SOL     OW22546   2.266   4.079   2.909
 5557SOL    HW222547   2.296   3.993   2.880
 5557SOL    HW322548   2.171   4.072   2.912
 5557SOL    MW422549   2.258   4.068   2.907
 5558SOL     OW22550   3.095   4.288   3.600
 5558SOL    HW222551   3.147   4.223   3.553
 5558SOL    HW322552   3.053   4.339   3.530
 5558SOL    MW422553   3.096   4.285   3.583
 5559SOL     OW22554   3.194   4.083   3.461
 5559SOL    HW222555   3.101   4.067   3.448
 5559SOL    HW322556   3.220   4.021   3.529
 5559SOL    MW422557   3.184   4.073   3.468
 5560SOL     OW22558   2.409   3.857   2.800
 5560SOL    HW222559   2.419   3.766   2.826
 5560SOL    HW322560   2.365   3.853   2.715
 5560SOL    MW422561   2.405   3.845   2.792
 5561SOL     OW22562   2.503   5.472   3.346
 5561SOL    HW222563   2.420   5.457   3.391
 5561SOL    HW322564   2.562   5.405   3.381
 5561SOL    MW422565   2.501   5.462   3.356
 5562SOL     OW22566   3.560   4.179   2.971
 5562SOL    HW222567   3.493   4.212   3.031
 5562SOL    HW322568   3.603   4.257   2.937
 5562SOL    MW422569   3.558   4.194   2.975
 5563SOL     OW22570   3.738   4.899   2.941
 5563SOL    HW222571   3.731   4.839   2.866
 5563SOL    HW322572   3.664   4.959   2.930
 5563SOL    MW422573   3.728   4.899   2.930
 5564SOL     OW22574   3.120   4.761   2.859
 5564SOL    HW222575   3.134   4.733   2.950
 5564SOL    HW322576   3.206   4.792   2.831
 5564SOL    MW422577   3.133   4.762   2.868
 5565SOL     OW22578   3.203   4.256   3.138
 5565SOL    HW222579   3.224   4.257   3.045
 5565SOL    HW322580   3.248   4.178   3.171
 5565SOL    MW422581   3.210   4.246   3.130
 5566SOL     OW22582   3.696   4.387   3.680
 5566SOL    HW222583   3.733   4.332   3.749
 5566SOL    HW322584   3.721   4.344   3.598
 5566SOL    MW422585   3.703   4.375   3.679
 5567SOL     OW22586   3.243   4.685   3.731
 5567SOL    HW222587   3.309   4.633   3.685
 5567SOL    HW322588   3.263   4.672   3.824
 5567SOL    MW422589   3.254   4.676   3.738
 5568SOL     OW22590   3.194   3.771   2.080
 5568SOL    HW222591   3.268   3.815   2.123
 5568SOL    HW322592   3.118   3.825   2.102
 5568SOL    MW422593   3.194   3.783   2.088
 5569SOL     OW22594   3.254   4.546   2.358
 5569SOL    HW222595   3.169   4.516   2.328
 5569SOL    HW322596   3.246   4.553   2.453
 5569SOL    MW422597   3.242   4.544   2.367
 5570SOL     OW22598   2.330   5.009   3.089
 5570SOL    HW222599   2.342   5.036   3.180
 5570SOL    HW322600   2.311   5.090   3.042
 5570SOL    MW422601   2.329   5.024   3.094
 5571SOL     OW22602   2.614   3.989   2.912
 5571SOL    HW222603   2.587   3.991   3.003
 5571SOL    HW322604   2.544   3.941   2.867
 5571SOL    MW422605   2.602   3.985   2.919
 5572SOL     OW22606   2.468   5.481   3.074
 5572SOL    HW222607   2.520   5.558   3.051
 5572SOL    HW322608   2.477   5.473   3.169
 5572SOL    MW422609   2.477   5.488   3.085
 5573SOL     OW22610   3.370   5.066   3.306
 5573SOL    HW222611   3.355   4.995   3.369
 5573SOL    HW322612   3.416   5.024   3.234
 5573SOL    MW422613   3.376   5.050   3.306
 5574SOL     OW22614   2.444   4.797   3.423
 5574SOL    HW222615   2.481   4.802   3.335
 5574SOL    HW322616   2.483   4.870   3.470
 5574SOL    MW422617   2.454   4.807   3.418
 5575SOL     OW22618   2.624   4.840   3.235
 5575SOL    HW222619   2.683   4.786   3.288
 5575SOL    HW322620   2.639   4.812   3.145
 5575SOL    MW422621   2.634   4.829   3.231
 5576SOL     OW22622   2.627   4.212   2.084
 5576SOL    HW222623   2.700   4.261   2.047
 5576SOL    HW322624   2.643   4.121   2.058
 5576SOL    MW422625   2.639   4.207   2.077
 5577SOL     OW22626   3.435   5.329   3.407
 5577SOL    HW222627   3.477   5.314   3.492
 5577SOL    HW322628   3.426   5.242   3.369
 5577SOL    MW422629   3.439   5.317   3.414
 5578SOL     OW22630   3.095   3.808   2.998
 5578SOL    HW222631   3.150   3.817   2.920
 5578SOL    HW322632   3.150   3.842   3.069
 5578SOL    MW422633   3.109   3.813   2.997
 5579SOL     OW22634   2.102   4.721   2.182
 5579SOL    HW222635   2.039   4.737   2.111
 5579SOL    HW322636   2.049   4.684   2.253
 5579SOL    MW422637   2.087   4.718   2.182
 5580SOL     OW22638   2.458   5.075   2.041
 5580SOL    HW222639   2.473   5.051   2.133
 5580SOL    HW322640   2.366   5.053   2.025
 5580SOL    MW422641   2.448   5.068   2.051
 5581SOL     OW22642   2.997   5.306   2.193
 5581SOL    HW222643   3.005   5.224   2.144
 5581SOL    HW322644   2.916   5.345   2.160
 5581SOL    MW422645   2.987   5.301   2.183
 5582SOL     OW22646   2.256   5.464   2.762
 5582SOL    HW222647   2.260   5.375   2.797
 5582SOL    HW322648   2.282   5.455   2.671
 5582SOL    MW422649   2.259   5.452   2.754
 5583SOL     OW22650   2.873   4.942   3.005
 5583SOL    HW222651   2.805   4.876   3.021
 5583SOL    HW322652   2.891   4.936   2.912
 5583SOL    MW422653   2.866   4.933   2.996
 5584SOL     OW22654   1.962   5.217   3.256
 5584SOL    HW222655   1.952   5.175   3.342
 5584SOL    HW322656   1.883   5.270   3.246
 5584SOL    MW422657   1.951   5.218   3.267
 5585SOL     OW22658   2.866   4.081   2.826
 5585SOL    HW222659   2.796   4.033   2.871
 5585SOL    HW322660   2.898   4.144   2.890
 5585SOL    MW422661   2.861   4.083   2.840
 5586SOL     OW22662   2.517   4.517   3.446
 5586SOL    HW222663   2.510   4.612   3.434
 5586SOL    HW322664   2.526   4.506   3.541
 5586SOL    MW422665   2.518   4.529   3.456
 5587SOL     OW22666   2.238   5.032   3.704
 5587SOL    HW222667   2.310   5.034   3.641
 5587SOL    HW322668   2.208   4.941   3.703
 5587SOL    MW422669   2.243   5.021   3.696
 5588SOL     OW22670   3.322   3.795   3.171
 5588SOL    HW222671   3.393   3.741   3.135
 5588SOL    HW322672   3.321   3.774   3.264
 5588SOL    MW422673   3.331   3.786   3.179
 5589SOL     OW22674   3.522   5.325   3.655
 5589SOL    HW222675   3.495   5.322   3.746
 5589SOL    HW322676   3.618   5.329   3.658
 5589SOL    MW422677   3.532   5.325   3.667
 5590SOL     OW22678   2.333   4.187   2.639
 5590SOL    HW222679   2.404   4.135   2.602
 5590SOL    HW322680   2.319   4.152   2.726
 5590SOL    MW422681   2.341   4.176   2.646
 5591SOL     OW22682   1.888   5.522   3.711
 5591SOL    HW222683   1.938   5.500   3.633
 5591SOL    HW322684   1.896   5.617   3.719
 5591SOL    MW422685   1.896   5.531   3.702
 5592SOL     OW22686   2.649   5.280   2.715
 5592SOL    HW222687   2.577   5.217   2.728
 5592SOL    HW322688   2.610   5.365   2.733
 5592SOL    MW422689   2.633   5.283   2.718
 5593SOL     OW22690   2.969   4.128   2.363
 5593SOL    HW222691   2.991   4.065   2.295
 5593SOL    HW322692   2.874   4.120   2.374
 5593SOL    MW422693   2.959   4.119   2.355
 5594SOL     OW22694   2.054   3.818   2.295
 5594SOL    HW222695   2.125   3.839   2.234
 5594SOL    HW322696   2.008   3.746   2.253
 5594SOL    MW422697   2.058   3.812   2.281
 5595SOL     OW22698   1.885   4.285   3.438
 5595SOL    HW222699   1.949   4.351   3.413
 5595SOL    HW322700   1.804   4.312   3.395
 5595SOL    MW422701   1.883   4.297   3.430
 5596SOL     OW22702   3.623   5.192   2.395
 5596SOL    HW222703   3.593   5.125   2.456
 5596SOL    HW322704   3.717   5.198   2.409
 5596SOL    MW422705   3.631   5.184   2.405
 5597SOL     OW22706   3.179   4.869   2.325
 5597SOL    HW222707   3.151   4.955   2.358
 5597SOL    HW322708   3.207   4.885   2.235
 5597SOL    MW422709   3.179   4.883   2.317
 5598SOL     OW22710   2.841   3.789   2.378
 5598SOL    HW222711   2.878   3.848   2.443
 5598SOL    HW322712   2.818   3.845   2.304
 5598SOL    MW422713   2.842   3.804   2.377
 5599SOL     OW22714   3.694   4.671   2.800
 5599SOL    HW222715   3.685   4.703   2.711
 5599SOL    HW322716   3.647   4.587   2.800
 5599SOL    MW422717   3.687   4.664   2.790
 5600SOL     OW22718   2.070   4.511   3.379
 5600SOL    HW222719   2.091   4.580   3.317
 5600SOL    HW322720   2.150   4.458   3.384
 5600SOL    MW422721   2.083   4.512   3.373
 5601SOL     OW22722   3.606   4.602   2.501
 5601SOL    HW222723   3.700   4.591   2.489
 5601SOL    HW322724   3.582   4.674   2.442
 5601SOL    MW422725   3.616   4.610   2.492
 5602SOL     OW22726   2.055   4.526   3.646
 5602SOL    HW222727   1.981   4.470   3.672
 5602SOL    HW322728   2.050   4.529   3.551
 5602SOL    MW422729   2.044   4.519   3.636
 5603SOL     OW22730   2.221   3.813   3.096
 5603SOL    HW222731   2.264   3.897   3.116
 5603SOL    HW322732   2.294   3.751   3.089
 5603SOL    MW422733   2.236   3.816   3.097
 5604SOL     OW22734   2.262   4.480   2.274
 5604SOL    HW222735   2.262   4.575   2.259
 5604SOL    HW322736   2.339   4.464   2.328
 5604SOL    MW422737   2.272   4.491   2.279
 5605SOL     OW22738   3.038   4.339   3.338
 5605SOL    HW222739   3.074   4.312   3.254
 5605SOL    HW322740   2.951   4.373   3.317
 5605SOL    MW422741   3.032   4.340   3.325
 5606SOL     OW22742   2.021   4.211   2.563
 5606SOL    HW222743   2.083   4.218   2.636
 5606SOL    HW322744   2.021   4.118   2.540
 5606SOL    MW422745   2.029   4.200   2.570
 5607SOL     OW22746   3.568   5.551   2.095
 5607SOL    HW222747   3.635   5.584   2.035
 5607SOL    HW322748   3.525   5.630   2.129
 5607SOL    MW422749   3.570   5.566   2.091
 5608SOL     OW22750   2.703   4.472   3.047
 5608SOL    HW222751   2.661   4.390   3.023
 5608SOL    HW322752   2.704   4.471   3.143
 5608SOL    MW422753   2.696   4.461   3.056
 5609SOL     OW22754   3.374   5.605   3.446
 5609SOL    HW222755   3.377   5.511   3.429
 5609SOL    HW322756   3.397   5.613   3.538
 5609SOL    MW422757   3.377   5.593   3.456
 5610SOL     OW22758   2.507   3.942   3.152
 5610SOL    HW222759   2.438   4.005   3.173
 5610SOL    HW322760   2.534   3.906   3.237
 5610SOL    MW422761   2.501   3.945   3.165
 5611SOL     OW22762   1.890   4.783   2.021
 5611SOL    HW222763   1.859   4.848   2.084
 5611SOL    HW322764   1.839   4.705   2.040
 5611SOL    MW422765   1.880   4.780   2.031
 5612SOL     OW22766   3.302   3.795   2.769
 5612SOL    HW222767   3.390   3.804   2.806
 5612SOL    HW322768   3.312   3.736   2.695
 5612SOL    MW422769   3.316   3.789   2.763
 5613SOL     OW22770   3.334   4.534   2.613
 5613SOL    HW222771   3.414   4.549   2.562
 5613SOL    HW322772   3.327   4.439   2.619
 5613SOL    MW422773   3.343   4.523   2.608
 5614SOL     OW22774   2.474   5.583   1.963
 5614SOL    HW222775   2.379   5.583   1.955
 5614SOL    HW322776   2.490   5.529   2.041
 5614SOL    MW422777   2.464   5.577   1.972
 5615SOL     OW22778   2.784   4.460   3.310
 5615SOL    HW222779   2.853   4.527   3.307
 5615SOL    HW322780   2.717   4.498   3.366
 5615SOL    MW422781   2.785   4.473   3.317
 5616SOL     OW22782   2.202   4.760   3.558
 5616SOL    HW222783   2.156   4.676   3.560
 5616SOL    HW322784   2.259   4.754   3.482
 5616SOL    MW422785   2.204   4.748   3.550
 5617SOL     OW22786   3.319   4.403   1.879
 5617SOL    HW222787   3.247   4.379   1.821
 5617SOL    HW322788   3.385   4.440   1.821
 5617SOL    MW422789   3.318   4.405   1.864
 5618SOL     OW22790   2.453   5.135   2.559
 5618SOL    HW222791   2.518   5.068   2.580
 5618SOL    HW322792   2.505   5.212   2.536
 5618SOL    MW422793   2.468   5.137   2.558
 5619SOL     OW22794   2.714   4.300   2.689
 5619SOL    HW222795   2.654   4.318   2.761
 5619SOL    HW322796   2.748   4.212   2.708
 5619SOL    MW422797   2.710   4.290   2.702
 5620SOL     OW22798   3.655   3.799   3.358
 5620SOL    HW222799   3.576   3.845   3.386
 5620SOL    HW322800   3.690   3.853   3.287
 5620SOL    MW422801   3.649   3.812   3.352
 5621SOL     OW22802   2.939   4.883   2.708
 5621SOL    HW222803   3.031   4.864   2.726
 5621SOL    HW322804   2.912   4.813   2.648
 5621SOL    MW422805   2.947   4.871   2.702
 5622SOL     OW22806   2.732   4.703   2.063
 5622SOL    HW222807   2.718   4.615   2.028
 5622SOL    HW322808   2.683   4.760   2.004
 5622SOL    MW422809   2.724   4.698   2.051
 5623SOL     OW22810   3.213   5.121   2.804
 5623SOL    HW222811   3.186   5.205   2.769
 5623SOL    HW322812   3.173   5.116   2.891
 5623SOL    MW422813   3.206   5.130   2.810
 5624SOL     OW22814   3.132   5.069   3.072
 5624SOL    HW222815   3.143   5.036   3.161
 5624SOL    HW322816   3.051   5.028   3.041
 5624SOL    MW422817   3.122   5.061   3.078
 5625SOL     OW22818   2.145   4.427   2.842
 5625SOL    HW222819   2.095   4.426   2.923
 5625SOL    HW322820   2.165   4.519   2.826
 5625SOL    MW422821   2.141   4.439   2.850
 5626SOL     OW22822   3.212   5.191   3.604
 5626SOL    HW222823   3.212   5.285   3.620
 5626SOL    HW322824   3.257   5.181   3.520
 5626SOL    MW422825   3.218   5.201   3.595
 5627SOL     OW22826   3.451   3.909   2.165
 5627SOL    HW222827   3.444   3.913   2.260
 5627SOL    HW322828   3.463   4.000   2.138
 5627SOL    MW422829   3.452   3.922   2.173
 5628SOL     OW22830   2.740   4.472   2.279
 5628SOL    HW222831   2.720   4.458   2.186
 5628SOL    HW322832   2.833   4.451   2.286
 5628SOL    MW422833   2.750   4.467   2.268
 5629SOL     OW22834   2.067   4.095   3.583
 5629SOL    HW222835   2.024   4.154   3.520
 5629SOL    HW322836   2.135   4.150   3.623
 5629SOL    MW422837   2.071   4.110   3.580
 5630SOL     OW22838   3.179   4.715   3.128
 5630SOL    HW222839   3.242   4.712   3.201
 5630SOL    HW322840   3.095   4.733   3.170
 5630SOL    MW422841   3.175   4.717   3.143
 5631SOL     OW22842   2.723   5.430   2.317
 5631SOL    HW222843   2.781   5.501   2.344
 5631SOL    HW322844   2.746   5.358   2.375
 5631SOL    MW422845   2.734   5.430   2.328
 5632SOL     OW22846   3.518   3.892   2.907
 5632SOL    HW222847   3.563   3.810   2.926
 5632SOL    HW322848   3.538   3.948   2.983
 5632SOL    MW422849   3.528   3.888   2.919
 5633SOL     OW22850   1.966   3.735   3.006
 5633SOL    HW222851   1.957   3.736   2.911
 5633SOL    HW322852   2.060   3.747   3.021
 5633SOL    MW422853   1.978   3.738   2.997
 5634SOL     OW22854   3.603   4.928   2.626
 5634SOL    HW222855   3.582   4.874   2.549
 5634SOL    HW322856   3.699   4.926   2.630
 5634SOL    MW422857   3.612   4.921   2.615
 5635SOL     OW22858   2.295   5.073   3.369
 5635SOL    HW222859   2.216   5.023   3.392
 5635SOL    HW322860   2.365   5.032   3.419
 5635SOL    MW422861   2.293   5.061   3.379
 5636SOL     OW22862   2.179   3.862   2.052
 5636SOL    HW222863   2.108   3.917   2.020
 5636SOL    HW322864   2.221   3.828   1.973
 5636SOL    MW422865   2.175   3.864   2.038
 5637SOL     OW22866   3.303   4.359   2.888
 5637SOL    HW222867   3.226   4.405   2.854
 5637SOL    HW322868   3.360   4.428   2.922
 5637SOL    MW422869   3.300   4.374   2.888
 5638SOL     OW22870   1.935   3.961   1.901
 5638SOL    HW222871   1.902   4.040   1.945
 5638SOL    HW322872   1.990   3.994   1.830
 5638SOL    MW422873   1.938   3.975   1.898
 5639SOL     OW22874   1.969   5.218   2.090
 5639SOL    HW222875   1.986   5.302   2.132
 5639SOL    HW322876   2.004   5.227   2.002
 5639SOL    MW422877   1.974   5.231   2.084
 5640SOL     OW22878   3.241   5.307   2.307
 5640SOL    HW222879   3.304   5.297   2.236
 5640SOL    HW322880   3.158   5.327   2.262
 5640SOL    MW422881   3.238   5.308   2.292
 5641SOL     OW22882   3.604   4.575   3.993
 5641SOL    HW222883   3.645   4.517   4.058
 5641SOL    HW322884   3.511   4.567   4.010
 5641SOL    MW422885   3.598   4.567   4.003
 5642SOL     OW22886   3.470   4.507   4.988
 5642SOL    HW222887   3.425   4.574   5.039
 5642SOL    HW322888   3.558   4.543   4.974
 5642SOL    MW422889   3.476   4.520   4.992
 5643SOL     OW22890   2.398   4.758   4.222
 5643SOL    HW222891   2.488   4.733   4.206
 5643SOL    HW322892   2.394   4.851   4.199
 5643SOL    MW422893   2.410   4.767   4.217
 5644SOL     OW22894   3.514   5.461   4.364
 5644SOL    HW222895   3.526   5.407   4.442
 5644SOL    HW322896   3.551   5.409   4.293
 5644SOL    MW422897   3.520   5.446   4.365
 5645SOL     OW22898   2.893   5.346   5.365
 5645SOL    HW222899   2.934   5.382   5.286
 5645SOL    HW322900   2.928   5.257   5.372
 5645SOL    MW422901   2.904   5.339   5.356
 5646SOL     OW22902   3.450   4.901   4.969
 5646SOL    HW222903   3.371   4.866   4.927
 5646SOL    HW322904   3.477   4.973   4.913
 5646SOL    MW422905   3.443   4.906   4.956
 5647SOL     OW22906   2.682   4.214   4.235
 5647SOL    HW222907   2.657   4.302   4.263
 5647SOL    HW322908   2.679   4.217   4.139
 5647SOL    MW422909   2.678   4.226   4.227
 5648SOL     OW22910   2.124   4.242   4.163
 5648SOL    HW222911   2.156   4.330   4.145
 5648SOL    HW322912   2.112   4.240   4.258
 5648SOL    MW422913   2.127   4.254   4.175
 5649SOL     OW22914   2.202   4.655   5.064
 5649SOL    HW222915   2.265   4.602   5.015
 5649SOL    HW322916   2.183   4.729   5.007
 5649SOL    MW422917   2.208   4.657   5.051
 5650SOL     OW22918   2.523   3.997   4.250
 5650SOL    HW222919   2.581   4.073   4.252
 5650SOL    HW322920   2.458   4.018   4.183
 5650SOL    MW422921   2.522   4.009   4.241
 5651SOL     OW22922   2.610   4.924   4.425
 5651SOL    HW222923   2.690   4.927   4.477
 5651SOL    HW322924   2.638   4.891   4.339
 5651SOL    MW422925   2.624   4.920   4.420
 5652SOL     OW22926   2.635   5.265   5.328
 5652SOL    HW222927   2.719   5.291   5.367
 5652SOL    HW322928   2.659   5.209   5.254
 5652SOL    MW422929   2.649   5.261   5.323
 5653SOL     OW22930   2.387   4.428   4.416
 5653SOL    HW222931   2.372   4.348   4.467
 5653SOL    HW322932   2.469   4.463   4.450
 5653SOL    MW422933   2.395   4.420   4.428
 5654SOL     OW22934   2.724   5.114   5.101
 5654SOL    HW222935   2.688   5.180   5.041
 5654SOL    HW322936   2.652   5.052   5.114
 5654SOL    MW422937   2.710   5.114   5.095
 5655SOL     OW22938   2.529   4.254   4.793
 5655SOL    HW222939   2.435   4.250   4.811
 5655SOL    HW322940   2.559   4.163   4.802
 5655SOL    MW422941   2.520   4.242   4.796
 5656SOL     OW22942   2.275   4.668   4.697
 5656SOL    HW222943   2.230   4.675   4.613
 5656SOL    HW322944   2.255   4.751   4.741
 5656SOL    MW422945   2.267   4.680   4.691
 5657SOL     OW22946   1.972   5.514   4.572
 5657SOL    HW222947   2.061   5.506   4.607
 5657SOL    HW322948   1.936   5.426   4.577
 5657SOL    MW422949   1.979   5.501   4.577
 5658SOL     OW22950   3.237   4.906   3.941
 5658SOL    HW222951   3.155   4.942   3.907
 5658SOL    HW322952   3.305   4.949   3.890
 5658SOL    MW422953   3.235   4.916   3.929
 5659SOL     OW22954   2.236   5.041   4.607
 5659SOL    HW222955   2.212   5.094   4.683
 5659SOL    HW322956   2.292   5.099   4.555
 5659SOL    MW422957   2.240   5.056   4.610
 5660SOL     OW22958   2.798   4.685   4.417
 5660SOL    HW222959   2.712   4.672   4.457
 5660SOL    HW322960   2.851   4.612   4.449
 5660SOL    MW422961   2.794   4.674   4.426
 5661SOL     OW22962   2.206   5.337   5.202
 5661SOL    HW222963   2.114   5.313   5.187
 5661SOL    HW322964   2.250   5.254   5.219
 5661SOL    MW422965   2.200   5.322   5.201
 5662SOL     OW22966   2.789   5.047   4.134
 5662SOL    HW222967   2.766   5.109   4.202
 5662SOL    HW322968   2.746   4.965   4.160
 5662SOL    MW422969   2.781   5.043   4.145
 5663SOL     OW22970   3.662   4.048   4.590
 5663SOL    HW222971   3.599   4.028   4.659
 5663SOL    HW322972   3.652   3.977   4.527
 5663SOL    MW422973   3.652   4.035   4.591
 5664SOL     OW22974   2.286   4.020   4.102
 5664SOL    HW222975   2.260   3.982   4.018
 5664SOL    HW322976   2.223   4.090   4.118
 5664SOL    MW422977   2.275   4.023   4.093
 5665SOL     OW22978   2.121   4.981   4.139
 5665SOL    HW222979   2.069   5.049   4.095
 5665SOL    HW322980   2.118   4.907   4.079
 5665SOL    MW422981   2.113   4.980   4.126
 5666SOL     OW22982   2.783   5.444   3.917
 5666SOL    HW222983   2.738   5.460   4.000
 5666SOL    HW322984   2.714   5.409   3.859
 5666SOL    MW422985   2.769   5.441   3.919
 5667SOL     OW22986   3.718   4.217   3.892
 5667SOL    HW222987   3.627   4.219   3.920
 5667SOL    HW322988   3.763   4.279   3.950
 5667SOL    MW422989   3.711   4.225   3.902
 5668SOL     OW22990   3.463   4.820   4.242
 5668SOL    HW222991   3.373   4.820   4.277
 5668SOL    HW322992   3.456   4.866   4.159
 5668SOL    MW422993   3.450   4.826   4.236
 5669SOL     OW22994   3.263   4.455   5.314
 5669SOL    HW222995   3.332   4.393   5.291
 5669SOL    HW322996   3.188   4.429   5.261
 5669SOL    MW422997   3.263   4.442   5.305
 5670SOL     OW22998   2.004   5.335   4.866
 5670SOL    HW222999   1.987   5.281   4.943
 5670SOL    HW323000   1.992   5.425   4.896
 5670SOL    MW423001   2.001   5.339   4.880
 5671SOL     OW23002   2.999   4.842   5.306
 5671SOL    HW223003   2.984   4.935   5.291
 5671SOL    HW323004   3.094   4.832   5.306
 5671SOL    MW423005   3.008   4.852   5.303
 5672SOL     OW23006   2.795   4.266   5.507
 5672SOL    HW223007   2.885   4.267   5.474
 5672SOL    HW323008   2.754   4.191   5.465
 5672SOL    MW423009   2.801   4.256   5.498
 5673SOL     OW23010   3.370   4.798   4.634
 5673SOL    HW223011   3.373   4.732   4.565
 5673SOL    HW323012   3.455   4.841   4.630
 5673SOL    MW423013   3.382   4.794   4.625
 5674SOL     OW23014   2.990   4.401   4.203
 5674SOL    HW223015   3.016   4.425   4.114
 5674SOL    HW323016   2.972   4.308   4.199
 5674SOL    MW423017   2.992   4.393   4.190
 5675SOL     OW23018   3.655   5.021   4.054
 5675SOL    HW223019   3.611   5.062   4.129
 5675SOL    HW323020   3.712   5.089   4.019
 5675SOL    MW423021   3.657   5.035   4.059
 5676SOL     OW23022   2.575   4.070   5.457
 5676SOL    HW223023   2.585   3.996   5.397
 5676SOL    HW323024   2.611   4.039   5.540
 5676SOL    MW423025   2.581   4.056   5.459
 5677SOL     OW23026   2.311   5.437   4.372
 5677SOL    HW223027   2.343   5.525   4.350
 5677SOL    HW323028   2.264   5.409   4.294
 5677SOL    MW423029   2.310   5.445   4.359
 5678SOL     OW23030   3.695   3.799   4.421
 5678SOL    HW223031   3.749   3.750   4.483
 5678SOL    HW323032   3.638   3.733   4.382
 5678SOL    MW423033   3.695   3.783   4.423
 5679SOL     OW23034   2.027   5.497   3.949
 5679SOL    HW223035   2.056   5.587   3.941
 5679SOL    HW323036   1.977   5.480   3.870
 5679SOL    MW423037   2.025   5.505   3.938
 5680SOL     OW23038   2.814   3.752   4.834
 5680SOL    HW223039   2.773   3.830   4.796
 5680SOL    HW323040   2.908   3.770   4.829
 5680SOL    MW423041   2.820   3.764   4.829
 5681SOL     OW23042   3.431   5.305   3.920
 5681SOL    HW223043   3.479   5.374   3.966
 5681SOL    HW323044   3.352   5.349   3.889
 5681SOL    MW423045   3.426   5.319   3.923
 5682SOL     OW23046   2.829   4.430   3.864
 5682SOL    HW223047   2.831   4.377   3.785
 5682SOL    HW323048   2.917   4.467   3.870
 5682SOL    MW423049   2.841   4.429   3.853
 5683SOL     OW23050   3.443   4.356   4.200
 5683SOL    HW223051   3.482   4.356   4.287
 5683SOL    HW323052   3.384   4.432   4.200
 5683SOL    MW423053   3.440   4.367   4.211
 5684SOL     OW23054   2.760   4.723   5.329
 5684SOL    HW223055   2.737   4.703   5.419
 5684SOL    HW323056   2.845   4.767   5.334
 5684SOL    MW423057   2.767   4.726   5.341
 5685SOL     OW23058   2.840   3.860   5.089
 5685SOL    HW223059   2.846   3.822   5.002
 5685SOL    HW323060   2.829   3.954   5.074
 5685SOL    MW423061   2.841   3.868   5.077
 5686SOL     OW23062   2.929   4.349   4.923
 5686SOL    HW223063   3.004   4.378   4.870
 5686SOL    HW323064   2.861   4.414   4.907
 5686SOL    MW423065   2.930   4.361   4.913
 5687SOL     OW23066   3.479   4.317   5.200
 5687SOL    HW223067   3.460   4.226   5.179
 5687SOL    HW323068   3.457   4.366   5.121
 5687SOL    MW423069   3.474   4.310   5.187
 5688SOL     OW23070   3.621   5.411   5.104
 5688SOL    HW223071   3.549   5.373   5.155
 5688SOL    HW323072   3.638   5.496   5.145
 5688SOL    MW423073   3.615   5.416   5.116
 5689SOL     OW23074   2.926   4.055   5.306
 5689SOL    HW223075   2.892   4.094   5.225
 5689SOL    HW323076   2.904   3.963   5.299
 5689SOL    MW423077   2.919   4.048   5.296
 5690SOL     OW23078   3.335   4.869   5.382
 5690SOL    HW223079   3.417   4.910   5.412
 5690SOL    HW323080   3.298   4.831   5.462
 5690SOL    MW423081   3.341   4.870   5.397
 5691SOL     OW23082   3.630   4.242   4.366
 5691SOL    HW223083   3.719   4.211   4.383
 5691SOL    HW323084   3.573   4.182   4.414
 5691SOL    MW423085   3.633   4.230   4.375
 5692SOL     OW23086   2.056   3.956   4.395
 5692SOL    HW223087   2.047   3.896   4.321
 5692SOL    HW323088   1.989   3.927   4.458
 5692SOL    MW423089   2.046   3.943   4.393
 5693SOL     OW23090   2.999   5.049   3.956
 5693SOL    HW223091   2.949   5.051   4.038
 5693SOL    HW323092   2.933   5.067   3.888
 5693SOL    MW423093   2.985   5.051   3.958
 5694SOL     OW23094   2.003   4.129   4.758
 5694SOL    HW223095   1.975   4.220   4.767
 5694SOL    HW323096   1.940   4.090   4.697
 5694SOL    MW423097   1.990   4.135   4.752
 5695SOL     OW23098   2.462   5.467   4.064
 5695SOL    HW223099   2.383   5.425   4.097
 5695SOL    HW323100   2.528   5.450   4.131
 5695SOL    MW423101   2.461   5.459   4.077
 5696SOL     OW23102   3.590   4.987   5.461
 5696SOL    HW223103   3.640   4.913   5.493
 5696SOL    HW323104   3.536   5.014   5.536
 5696SOL    MW423105   3.590   4.981   5.474
 5697SOL     OW23106   2.598   4.882   3.771
 5697SOL    HW223107   2.520   4.828   3.758
 5697SOL    HW323108   2.569   4.955   3.824
 5697SOL    MW423109   2.584   4.884   3.776
 5698SOL     OW23110   3.724   4.622   4.963
 5698SOL    HW223111   3.740   4.660   4.876
 5698SOL    HW323112   3.758   4.688   5.024
 5698SOL    MW423113   3.731   4.635   4.959
 5699SOL     OW23114   3.516   5.331   4.632
 5699SOL    HW223115   3.545   5.398   4.693
 5699SOL    HW323116   3.497   5.255   4.687
 5699SOL    MW423117   3.518   5.331   4.647
 5700SOL     OW23118   3.179   5.398   3.839
 5700SOL    HW223119   3.105   5.361   3.889
 5700SOL    HW323120   3.187   5.488   3.872
 5700SOL    MW423121   3.170   5.405   3.851
 5701SOL     OW23122   1.987   4.404   4.928
 5701SOL    HW223123   2.049   4.434   4.994
 5701SOL    HW323124   1.921   4.473   4.922
 5701SOL    MW423125   1.986   4.417   4.935
 5702SOL     OW23126   3.403   5.072   3.781
 5702SOL    HW223127   3.350   5.121   3.717
 5702SOL    HW323128   3.434   5.138   3.842
 5702SOL    MW423129   3.401   5.086   3.779
 5703SOL     OW23130   2.628   3.961   3.836
 5703SOL    HW223131   2.576   3.881   3.824
 5703SOL    HW323132   2.715   3.938   3.804
 5703SOL    MW423133   2.631   3.947   3.830
 5704SOL     OW23134   2.082   5.513   5.380
 5704SOL    HW223135   2.056   5.581   5.318
 5704SOL    HW323136   2.130   5.450   5.328
 5704SOL    MW423137   2.084   5.513   5.366
 5705SOL     OW23138   2.134   4.832   4.887
 5705SOL    HW223139   2.187   4.907   4.912
 5705SOL    HW323140   2.053   4.870   4.853
 5705SOL    MW423141   2.130   4.847   4.887
 5706SOL     OW23142   2.674   4.736   4.875
 5706SOL    HW223143   2.702   4.645   4.887
 5706SOL    HW323144   2.603   4.730   4.811
 5706SOL    MW423145   2.667   4.724   4.870
 5707SOL     OW23146   1.989   4.601   4.293
 5707SOL    HW223147   2.080   4.616   4.320
 5707SOL    HW323148   1.992   4.522   4.239
 5707SOL    MW423149   2.001   4.593   4.291
 5708SOL     OW23150   2.225   4.309   5.547
 5708SOL    HW223151   2.172   4.389   5.554
 5708SOL    HW323152   2.295   4.321   5.612
 5708SOL    MW423153   2.227   4.322   5.555
 5709SOL     OW23154   2.611   3.859   5.254
 5709SOL    HW223155   2.588   3.767   5.256
 5709SOL    HW323156   2.697   3.861   5.211
 5709SOL    MW423157   2.618   3.849   5.250
 5710SOL     OW23158   2.295   4.383   5.293
 5710SOL    HW223159   2.375   4.433   5.279
 5710SOL    HW323160   2.286   4.377   5.388
 5710SOL    MW423161   2.304   4.389   5.303
 5711SOL     OW23162   2.616   5.533   4.667
 5711SOL    HW223163   2.705   5.548   4.697
 5711SOL    HW323164   2.611   5.580   4.583
 5711SOL    MW423165   2.626   5.541   4.660
 5712SOL     OW23166   3.272   3.908   5.564
 5712SOL    HW223167   3.328   3.835   5.590
 5712SOL    HW323168   3.242   3.946   5.646
 5712SOL    MW423169   3.276   3.903   5.577
 5713SOL     OW23170   1.997   5.213   4.332
 5713SOL    HW223171   1.969   5.252   4.414
 5713SOL    HW323172   2.017   5.122   4.354
 5713SOL    MW423173   1.995   5.205   4.345
 5714SOL     OW23174   2.830   5.256   4.367
 5714SOL    HW223175   2.913   5.210   4.351
 5714SOL    HW323176   2.820   5.255   4.463
 5714SOL    MW423177   2.840   5.249   4.377
 5715SOL     OW23178   3.662   4.401   4.681
 5715SOL    HW223179   3.751   4.431   4.663
 5715SOL    HW323180   3.642   4.341   4.610
 5715SOL    MW423181   3.671   4.398   4.670
 5716SOL     OW23182   3.513   4.580   5.561
 5716SOL    HW223183   3.568   4.504   5.542
 5716SOL    HW323184   3.515   4.588   5.656
 5716SOL    MW423185   3.521   4.571   5.569
 5717SOL     OW23186   2.563   5.313   3.772
 5717SOL    HW223187   2.503   5.382   3.742
 5717SOL    HW323188   2.508   5.255   3.825
 5717SOL    MW423189   2.547   5.315   3.774
 5718SOL     OW23190   3.001   3.958   3.995
 5718SOL    HW223191   2.934   3.934   3.932
 5718SOL    HW323192   3.066   4.007   3.944
 5718SOL    MW423193   3.001   3.960   3.980
 5719SOL     OW23194   2.808   4.142   5.080
 5719SOL    HW223195   2.727   4.183   5.108
 5719SOL    HW323196   2.855   4.210   5.032
 5719SOL    MW423197   2.803   4.157   5.078
 5720SOL     OW23198   3.068   4.480   4.703
 5720SOL    HW223199   3.081   4.574   4.713
 5720SOL    HW323200   3.029   4.470   4.617
 5720SOL    MW423201   3.064   4.491   4.693
 5721SOL     OW23202   2.520   4.675   4.507
 5721SOL    HW223203   2.431   4.666   4.540
 5721SOL    HW323204   2.524   4.765   4.475
 5721SOL    MW423205   2.509   4.686   4.507
 5722SOL     OW23206   3.319   4.258   4.502
 5722SOL    HW223207   3.264   4.179   4.501
 5722SOL    HW323208   3.301   4.299   4.586
 5722SOL    MW423209   3.309   4.253   4.511
 5723SOL     OW23210   2.290   3.945   5.319
 5723SOL    HW223211   2.211   3.963   5.371
 5723SOL    HW323212   2.285   4.007   5.246
 5723SOL    MW423213   2.280   3.955   5.316
 5724SOL     OW23214   2.938   4.462   4.459
 5724SOL    HW223215   2.875   4.394   4.483
 5724SOL    HW323216   2.958   4.443   4.367
 5724SOL    MW423217   2.932   4.449   4.451
 5725SOL     OW23218   2.194   5.357   4.161
 5725SOL    HW223219   2.155   5.404   4.087
 5725SOL    HW323220   2.128   5.292   4.186
 5725SOL    MW423221   2.181   5.355   4.155
 5726SOL     OW23222   2.686   4.766   4.185
 5726SOL    HW223223   2.688   4.740   4.092
 5726SOL    HW323224   2.744   4.703   4.228
 5726SOL    MW423225   2.694   4.755   4.179
 5727SOL     OW23226   3.239   5.326   4.957
 5727SOL    HW223227   3.164   5.372   4.995
 5727SOL    HW323228   3.221   5.233   4.974
 5727SOL    MW423229   3.228   5.320   4.965
 5728SOL     OW23230   3.243   5.534   4.387
 5728SOL    HW223231   3.186   5.487   4.326
 5728SOL    HW323232   3.329   5.495   4.374
 5728SOL    MW423233   3.246   5.525   4.377
 5729SOL     OW23234   3.196   4.010   4.518
 5729SOL    HW223235   3.224   3.942   4.579
 5729SOL    HW323236   3.110   3.981   4.488
 5729SOL    MW423237   3.189   3.997   4.522
 5730SOL     OW23238   2.001   4.944   4.452
 5730SOL    HW223239   2.065   4.976   4.515
 5730SOL    HW323240   2.050   4.880   4.400
 5730SOL    MW423241   2.016   4.940   4.453
 5731SOL     OW23242   2.501   5.020   5.434
 5731SOL    HW223243   2.549   5.103   5.421
 5731SOL    HW323244   2.558   4.968   5.490
 5731SOL    MW423245   2.515   5.024   5.440
 5732SOL     OW23246   2.077   5.262   5.574
 5732SOL    HW223247   2.133   5.186   5.589
 5732SOL    HW323248   2.026   5.240   5.496
 5732SOL    MW423249   2.077   5.249   5.565
 5733SOL     OW23250   3.176   4.114   3.853
 5733SOL    HW223251   3.149   4.180   3.789
 5733SOL    HW323252   3.246   4.157   3.903
 5733SOL    MW423253   3.181   4.127   3.850
 5734SOL     OW23254   2.844   3.819   3.790
 5734SOL    HW223255   2.900   3.811   3.712
 5734SOL    HW323256   2.821   3.729   3.812
 5734SOL    MW423257   2.849   3.806   3.783
 5735SOL     OW23258   3.349   4.670   3.995
 5735SOL    HW223259   3.316   4.759   3.985
 5735SOL    HW323260   3.314   4.641   4.080
 5735SOL    MW423261   3.339   4.679   4.006
 5736SOL     OW23262   2.962   5.099   5.183
 5736SOL    HW223263   2.873   5.105   5.151
 5736SOL    HW323264   3.006   5.178   5.151
 5736SOL    MW423265   2.957   5.109   5.175
 5737SOL     OW23266   2.255   3.767   5.525
 5737SOL    HW223267   2.183   3.732   5.473
 5737SOL    HW323268   2.313   3.808   5.460
 5737SOL    MW423269   2.253   3.768   5.510
 5738SOL     OW23270   2.279   5.257   4.824
 5738SOL    HW223271   2.324   5.319   4.881
 5738SOL    HW323272   2.186   5.276   4.837
 5738SOL    MW423273   2.272   5.267   4.831
 5739SOL     OW23274   3.719   4.786   5.178
 5739SOL    HW223275   3.634   4.799   5.137
 5739SOL    HW323276   3.699   4.750   5.265
 5739SOL    MW423277   3.706   4.782   5.183
 5740SOL     OW23278   2.701   5.325   4.932
 5740SOL    HW223279   2.725   5.314   4.841
 5740SOL    HW323280   2.624   5.382   4.930
 5740SOL    MW423281   2.693   5.330   4.921
 5741SOL     OW23282   2.343   4.708   3.787
 5741SOL    HW223283   2.266   4.721   3.843
 5741SOL    HW323284   2.307   4.672   3.706
 5741SOL    MW423285   2.329   4.704   3.784
 5742SOL     OW23286   2.996   4.681   4.030
 5742SOL    HW223287   2.906   4.702   4.005
 5742SOL    HW323288   3.023   4.754   4.086
 5742SOL    MW423289   2.988   4.693   4.033
 5743SOL     OW23290   2.496   5.030   4.722
 5743SOL    HW223291   2.489   5.009   4.816
 5743SOL    HW323292   2.414   4.998   4.685
 5743SOL    MW423293   2.484   5.024   4.729
 5744SOL     OW23294   3.360   4.040   5.124
 5744SOL    HW223295   3.307   4.042   5.204
 5744SOL    HW323296   3.345   3.953   5.087
 5744SOL    MW423297   3.352   4.030   5.129
 5745SOL     OW23298   3.696   3.964   4.997
 5745SOL    HW223299   3.677   4.031   4.932
 5745SOL    HW323300   3.753   3.902   4.952
 5745SOL    MW423301   3.700   3.965   4.983
 5746SOL     OW23302   1.942   5.122   5.385
 5746SOL    HW223303   1.986   5.055   5.331
 5746SOL    HW323304   1.857   5.084   5.405
 5746SOL    MW423305   1.937   5.108   5.381
 5747SOL     OW23306   2.625   3.797   4.437
 5747SOL    HW223307   2.554   3.858   4.419
 5747SOL    HW323308   2.676   3.794   4.356
 5747SOL    MW423309   2.621   3.803   4.424
 5748SOL     OW23310   2.383   5.037   4.186
 5748SOL    HW223311   2.376   5.069   4.276
 5748SOL    HW323312   2.293   5.021   4.158
 5748SOL    MW423313   2.371   5.039   4.193
 5749SOL     OW23314   2.978   5.430   5.095
 5749SOL    HW223315   2.898   5.415   5.045
 5749SOL    HW323316   2.985   5.525   5.102
 5749SOL    MW423317   2.969   5.441   5.089
 5750SOL     OW23318   3.092   5.395   4.585
 5750SOL    HW223319   3.139   5.468   4.544
 5750SOL    HW323320   3.013   5.434   4.621
 5750SOL    MW423321   3.087   5.410   4.584
 5751SOL     OW23322   3.500   5.490   4.860
 5751SOL    HW223323   3.543   5.460   4.940
 5751SOL    HW323324   3.419   5.438   4.857
 5751SOL    MW423325   3.495   5.479   4.870
 5752SOL     OW23326   2.585   4.454   5.567
 5752SOL    HW223327   2.655   4.396   5.539
 5752SOL    HW323328   2.528   4.399   5.622
 5752SOL    MW423329   2.587   4.441   5.571
 5753SOL     OW23330   3.372   4.666   5.200
 5753SOL    HW223331   3.377   4.719   5.280
 5753SOL    HW323332   3.334   4.583   5.228
 5753SOL    MW423333   3.368   4.661   5.215
 5754SOL     OW23334   3.012   3.801   5.446
 5754SOL    HW223335   3.007   3.708   5.427
 5754SOL    HW323336   3.095   3.812   5.492
 5754SOL    MW423337   3.020   3.790   5.450
 5755SOL     OW23338   2.386   4.321   3.900
 5755SOL    HW223339   2.352   4.377   3.970
 5755SOL    HW323340   2.457   4.271   3.940
 5755SOL    MW423341   2.392   4.322   3.914
 5756SOL     OW23342   3.482   5.072   4.722
 5756SOL    HW223343   3.517   5.054   4.635
 5756SOL    HW323344   3.387   5.073   4.709
 5756SOL    MW423345   3.474   5.069   4.709
 5757SOL     OW23346   2.911   4.720   5.091
 5757SOL    HW223347   2.954   4.755   5.169
 5757SOL    HW323348   2.894   4.797   5.037
 5757SOL    MW423349   2.914   4.735   5.094
 5758SOL     OW23350   3.442   4.207   3.964
 5758SOL    HW223351   3.434   4.278   3.901
 5758SOL    HW323352   3.460   4.251   4.047
 5758SOL    MW423353   3.443   4.221   3.966
 5759SOL     OW23354   2.302   3.862   4.393
 5759SOL    HW223355   2.352   3.905   4.324
 5759SOL    HW323356   2.217   3.906   4.393
 5759SOL    MW423357   2.299   3.875   4.384
 5760SOL     OW23358   2.061   4.924   5.253
 5760SOL    HW223359   2.089   4.877   5.331
 5760SOL    HW323360   1.982   4.879   5.224
 5760SOL    MW423361   2.054   4.913   5.259
 5761SOL     OW23362   2.569   4.251   5.220
 5761SOL    HW223363   2.541   4.339   5.244
 5761SOL    HW323364   2.538   4.195   5.291
 5761SOL    MW423365   2.561   4.254   5.232
 5762SOL     OW23366   3.111   4.469   3.939
 5762SOL    HW223367   3.158   4.487   3.858
 5762SOL    HW323368   3.077   4.553   3.967
 5762SOL    MW423369   3.113   4.483   3.932
 5763SOL     OW23370   2.224   4.647   4.433
 5763SOL    HW223371   2.282   4.703   4.381
 5763SOL    HW323372   2.268   4.562   4.435
 5763SOL    MW423373   2.237   4.644   4.426
 5764SOL     OW23374   3.364   3.999   4.270
 5764SOL    HW223375   3.286   3.949   4.295
 5764SOL    HW323376   3.335   4.090   4.270
 5764SOL    MW423377   3.350   4.003   4.273
 5765SOL     OW23378   2.950   3.961   4.429
 5765SOL    HW223379   2.970   4.036   4.373
 5765SOL    HW323380   2.930   4.000   4.514
 5765SOL    MW423381   2.951   3.977   4.433
 5766SOL     OW23382   2.846   5.211   3.761
 5766SOL    HW223383   2.873   5.289   3.713
 5766SOL    HW323384   2.753   5.226   3.780
 5766SOL    MW423385   2.837   5.224   3.757
 5767SOL     OW23386   3.710   4.734   5.448
 5767SOL    HW223387   3.623   4.714   5.484
 5767SOL    HW323388   3.764   4.660   5.473
 5767SOL    MW423389   3.705   4.723   5.456
 5768SOL     OW23390   1.931   5.247   4.605
 5768SOL    HW223391   1.963   5.251   4.696
 5768SOL    HW323392   1.836   5.255   4.613
 5768SOL    MW423393   1.923   5.250   4.618
 5769SOL     OW23394   1.886   4.373   4.152
 5769SOL    HW223395   1.826   4.345   4.222
 5769SOL    HW323396   1.960   4.313   4.158
 5769SOL    MW423397   1.888   4.362   4.161
 5770SOL     OW23398   3.454   5.585   5.586
 5770SOL    HW223399   3.499   5.509   5.551
 5770SOL    HW323400   3.492   5.598   5.673
 5770SOL    MW423401   3.464   5.578   5.592
 5771SOL     OW23402   3.054   5.104   4.312
 5771SOL    HW223403   3.077   5.055   4.390
 5771SOL    HW323404   3.135   5.146   4.284
 5771SOL    MW423405   3.067   5.104   4.319
 5772SOL     OW23406   2.312   4.112   5.041
 5772SOL    HW223407   2.345   4.193   5.081
 5772SOL    HW323408   2.285   4.138   4.953
 5772SOL    MW423409   2.311   4.126   5.035
 5773SOL     OW23410   2.266   4.079   4.777
 5773SOL    HW223411   2.296   3.993   4.748
 5773SOL    HW323412   2.171   4.072   4.780
 5773SOL    MW423413   2.258   4.068   4.775
 5774SOL     OW23414   3.095   4.288   5.468
 5774SOL    HW223415   3.147   4.223   5.421
 5774SOL    HW323416   3.053   4.339   5.398
 5774SOL    MW423417   3.096   4.285   5.451
 5775SOL     OW23418   3.194   4.083   5.329
 5775SOL    HW223419   3.101   4.067   5.316
 5775SOL    HW323420   3.220   4.021   5.397
 5775SOL    MW423421   3.184   4.073   5.336
 5776SOL     OW23422   2.409   3.857   4.668
 5776SOL    HW223423   2.419   3.766   4.694
 5776SOL    HW323424   2.365   3.853   4.583
 5776SOL    MW423425   2.405   3.845   4.660
 5777SOL     OW23426   2.503   5.472   5.214
 5777SOL    HW223427   2.420   5.457   5.259
 5777SOL    HW323428   2.562   5.405   5.249
 5777SOL    MW423429   2.501   5.462   5.224
 5778SOL     OW23430   3.560   4.179   4.839
 5778SOL    HW223431   3.493   4.212   4.899
 5778SOL    HW323432   3.603   4.257   4.805
 5778SOL    MW423433   3.558   4.194   4.843
 5779SOL     OW23434   3.738   4.899   4.809
 5779SOL    HW223435   3.731   4.839   4.734
 5779SOL    HW323436   3.664   4.959   4.798
 5779SOL    MW423437   3.728   4.899   4.798
 5780SOL     OW23438   3.120   4.761   4.727
 5780SOL    HW223439   3.134   4.733   4.818
 5780SOL    HW323440   3.206   4.792   4.699
 5780SOL    MW423441   3.133   4.762   4.736
 5781SOL     OW23442   3.203   4.256   5.006
 5781SOL    HW223443   3.224   4.257   4.913
 5781SOL    HW323444   3.248   4.178   5.039
 5781SOL    MW423445   3.210   4.246   4.998
 5782SOL     OW23446   3.696   4.387   5.548
 5782SOL    HW223447   3.733   4.332   5.617
 5782SOL    HW323448   3.721   4.344   5.466
 5782SOL    MW423449   3.703   4.375   5.547
 5783SOL     OW23450   3.243   4.685   5.600
 5783SOL    HW223451   3.309   4.633   5.554
 5783SOL    HW323452   3.263   4.672   5.693
 5783SOL    MW423453   3.254   4.676   5.607
 5784SOL     OW23454   3.194   3.771   3.948
 5784SOL    HW223455   3.268   3.815   3.991
 5784SOL    HW323456   3.118   3.825   3.970
 5784SOL    MW423457   3.194   3.783   3.956
 5785SOL     OW23458   3.254   4.546   4.226
 5785SOL    HW223459   3.169   4.516   4.196
 5785SOL    HW323460   3.246   4.553   4.321
 5785SOL    MW423461   3.242   4.544   4.235
 5786SOL     OW23462   2.330   5.009   4.957
 5786SOL    HW223463   2.342   5.036   5.048
 5786SOL    HW323464   2.311   5.090   4.910
 5786SOL    MW423465   2.329   5.024   4.962
 5787SOL     OW23466   2.614   3.989   4.780
 5787SOL    HW223467   2.587   3.991   4.871
 5787SOL    HW323468   2.544   3.941   4.735
 5787SOL    MW423469   2.602   3.985   4.787
 5788SOL     OW23470   2.468   5.481   4.942
 5788SOL    HW223471   2.520   5.558   4.919
 5788SOL    HW323472   2.477   5.473   5.037
 5788SOL    MW423473   2.477   5.488   4.953
 5789SOL     OW23474   3.370   5.066   5.174
 5789SOL    HW223475   3.355   4.995   5.237
 5789SOL    HW323476   3.416   5.024   5.102
 5789SOL    MW423477   3.376   5.050   5.174
 5790SOL     OW23478   2.444   4.797   5.291
 5790SOL    HW223479   2.481   4.802   5.203
 5790SOL    HW323480   2.483   4.870   5.338
 5790SOL    MW423481   2.454   4.807   5.286
 5791SOL     OW23482   2.624   4.840   5.103
 5791SOL    HW223483   2.683   4.786   5.156
 5791SOL    HW323484   2.639   4.812   5.013
 5791SOL    MW423485   2.634   4.829   5.099
 5792SOL     OW23486   2.627   4.212   3.952
 5792SOL    HW223487   2.700   4.261   3.915
 5792SOL    HW323488   2.643   4.121   3.926
 5792SOL    MW423489   2.639   4.207   3.945
 5793SOL     OW23490   3.435   5.329   5.275
 5793SOL    HW223491   3.477   5.314   5.360
 5793SOL    HW323492   3.426   5.242   5.237
 5793SOL    MW423493   3.439   5.317   5.282
 5794SOL     OW23494   3.095   3.808   4.866
 5794SOL    HW223495   3.150   3.817   4.788
 5794SOL    HW323496   3.150   3.842   4.937
 5794SOL    MW423497   3.109   3.813   4.865
 5795SOL     OW23498   2.102   4.721   4.050
 5795SOL    HW223499   2.039   4.737   3.979
 5795SOL    HW323500   2.049   4.684   4.121
 5795SOL    MW423501   2.087   4.718   4.050
 5796SOL     OW23502   2.458   5.075   3.909
 5796SOL    HW223503   2.473   5.051   4.001
 5796SOL    HW323504   2.366   5.053   3.893
 5796SOL    MW423505   2.448   5.068   3.919
 5797SOL     OW23506   2.997   5.306   4.061
 5797SOL    HW223507   3.005   5.224   4.012
 5797SOL    HW323508   2.916   5.345   4.028
 5797SOL    MW423509   2.987   5.301   4.051
 5798SOL     OW23510   2.256   5.464   4.630
 5798SOL    HW223511   2.260   5.375   4.665
 5798SOL    HW323512   2.282   5.455   4.539
 5798SOL    MW423513   2.259   5.452   4.622
 5799SOL     OW23514   2.873   4.942   4.873
 5799SOL    HW223515   2.805   4.876   4.889
 5799SOL    HW323516   2.891   4.936   4.780
 5799SOL    MW423517   2.866   4.933   4.864
 5800SOL     OW23518   1.962   5.217   5.124
 5800SOL    HW223519   1.952   5.175   5.210
 5800SOL    HW323520   1.883   5.270   5.114
 5800SOL    MW423521   1.951   5.218   5.135
 5801SOL     OW23522   2.866   4.081   4.694
 5801SOL    HW223523   2.796   4.033   4.739
 5801SOL    HW323524   2.898   4.144   4.758
 5801SOL    MW423525   2.861   4.083   4.708
 5802SOL     OW23526   2.517   4.517   5.314
 5802SOL    HW223527   2.510   4.612   5.302
 5802SOL    HW323528   2.526   4.506   5.409
 5802SOL    MW423529   2.518   4.529   5.324
 5803SOL     OW23530   2.238   5.032   5.572
 5803SOL    HW223531   2.310   5.034   5.509
 5803SOL    HW323532   2.208   4.941   5.571
 5803SOL    MW423533   2.243   5.021   5.564
 5804SOL     OW23534   3.322   3.795   5.039
 5804SOL    HW223535   3.393   3.741   5.003
 5804SOL    HW323536   3.321   3.774   5.132
 5804SOL    MW423537   3.331   3.786   5.047
 5805SOL     OW23538   3.522   5.325   5.523
 5805SOL    HW223539   3.495   5.322   5.614
 5805SOL    HW323540   3.618   5.329   5.526
 5805SOL    MW423541   3.532   5.325   5.535
 5806SOL     OW23542   2.333   4.187   4.507
 5806SOL    HW223543   2.404   4.135   4.470
 5806SOL    HW323544   2.319   4.152   4.594
 5806SOL    MW423545   2.341   4.176   4.514
 5807SOL     OW23546   1.888   5.522   5.579
 5807SOL    HW223547   1.938   5.500   5.501
 5807SOL    HW323548   1.896   5.617   5.587
 5807SOL    MW423549   1.896   5.531   5.570
 5808SOL     OW23550   2.649   5.280   4.583
 5808SOL    HW223551   2.577   5.217   4.596
 5808SOL    HW323552   2.610   5.365   4.601
 5808SOL    MW423553   2.633   5.283   4.586
 5809SOL     OW23554   2.969   4.128   4.231
 5809SOL    HW223555   2.991   4.065   4.163
 5809SOL    HW323556   2.874   4.120   4.242
 5809SOL    MW423557   2.959   4.119   4.223
 5810SOL     OW23558   2.054   3.818   4.163
 5810SOL    HW223559   2.125   3.839   4.102
 5810SOL    HW323560   2.008   3.746   4.121
 5810SOL    MW423561   2.058   3.812   4.149
 5811SOL     OW23562   1.885   4.285   5.306
 5811SOL    HW223563   1.949   4.351   5.281
 5811SOL    HW323564   1.804   4.312   5.263
 5811SOL    MW423565   1.883   4.297   5.298
 5812SOL     OW23566   3.623   5.192   4.263
 5812SOL    HW223567   3.593   5.125   4.324
 5812SOL    HW323568   3.717   5.198   4.277
 5812SOL    MW423569   3.631   5.184   4.273
 5813SOL     OW23570   3.179   4.869   4.193
 5813SOL    HW223571   3.151   4.955   4.226
 5813SOL    HW323572   3.207   4.885   4.103
 5813SOL    MW423573   3.179   4.883   4.185
 5814SOL     OW23574   2.841   3.789   4.246
 5814SOL    HW223575   2.878   3.848   4.311
 5814SOL    HW323576   2.818   3.845   4.172
 5814SOL    MW423577   2.842   3.804   4.245
 5815SOL     OW23578   3.694   4.671   4.668
 5815SOL    HW223579   3.685   4.703   4.579
 5815SOL    HW323580   3.647   4.587   4.668
 5815SOL    MW423581   3.687   4.664   4.658
 5816SOL     OW23582   2.070   4.511   5.247
 5816SOL    HW223583   2.091   4.580   5.185
 5816SOL    HW323584   2.150   4.458   5.252
 5816SOL    MW423585   2.083   4.512   5.241
 5817SOL     OW23586   3.606   4.602   4.369
 5817SOL    HW223587   3.700   4.591   4.357
 5817SOL    HW323588   3.582   4.674   4.310
 5817SOL    MW423589   3.616   4.610   4.360
 5818SOL     OW23590   2.055   4.526   5.514
 5818SOL    HW223591   1.981   4.470   5.540
 5818SOL    HW323592   2.050   4.529   5.419
 5818SOL    MW423593   2.044   4.519   5.504
 5819SOL     OW23594   2.221   3.813   4.964
 5819SOL    HW223595   2.264   3.897   4.984
 5819SOL    HW323596   2.294   3.751   4.957
 5819SOL    MW423597   2.236   3.816   4.965
 5820SOL     OW23598   2.262   4.480   4.142
 5820SOL    HW223599   2.262   4.575   4.127
 5820SOL    HW323600   2.339   4.464   4.196
 5820SOL    MW423601   2.272   4.491   4.147
 5821SOL     OW23602   3.038   4.339   5.206
 5821SOL    HW223603   3.074   4.312   5.122
 5821SOL    HW323604   2.951   4.373   5.185
 5821SOL    MW423605   3.032   4.340   5.193
 5822SOL     OW23606   2.021   4.211   4.431
 5822SOL    HW223607   2.083   4.218   4.504
 5822SOL    HW323608   2.021   4.118   4.408
 5822SOL    MW423609   2.029   4.200   4.438
 5823SOL     OW23610   3.568   5.551   3.963
 5823SOL    HW223611   3.635   5.584   3.903
 5823SOL    HW323612   3.525   5.630   3.997
 5823SOL    MW423613   3.570   5.566   3.959
 5824SOL     OW23614   2.703   4.472   4.915
 5824SOL    HW223615   2.661   4.390   4.891
 5824SOL    HW323616   2.704   4.471   5.011
 5824SOL    MW423617   2.696   4.461   4.924
 5825SOL     OW23618   3.374   5.605   5.314
 5825SOL    HW223619   3.377   5.511   5.297
 5825SOL    HW323620   3.397   5.613   5.406
 5825SOL    MW423621   3.377   5.593   5.324
 5826SOL     OW23622   2.507   3.942   5.020
 5826SOL    HW223623   2.438   4.005   5.041
 5826SOL    HW323624   2.534   3.906   5.105
 5826SOL    MW423625   2.501   3.945   5.033
 5827SOL     OW23626   1.890   4.783   3.889
 5827SOL    HW223627   1.859   4.848   3.952
 5827SOL    HW323628   1.839   4.705   3.908
 5827SOL    MW423629   1.880   4.780   3.899
 5828SOL     OW23630   3.302   3.795   4.637
 5828SOL    HW223631   3.390   3.804   4.674
 5828SOL    HW323632   3.312   3.736   4.563
 5828SOL    MW423633   3.316   3.789   4.631
 5829SOL     OW23634   3.334   4.534   4.481
 5829SOL    HW223635   3.414   4.549   4.430
 5829SOL    HW323636   3.327   4.439   4.487
 5829SOL    MW423637   3.343   4.523   4.476
 5830SOL     OW23638   2.474   5.583   3.831
 5830SOL    HW223639   2.379   5.583   3.823
 5830SOL    HW323640   2.490   5.529   3.909
 5830SOL    MW423641   2.464   5.577   3.840
 5831SOL     OW23642   2.784   4.460   5.178
 5831SOL    HW223643   2.853   4.527   5.175
 5831SOL    HW323644   2.717   4.498   5.234
 5831SOL    MW423645   2.785   4.473   5.185
 5832SOL     OW23646   2.202   4.760   5.426
 5832SOL    HW223647   2.156   4.676   5.428
 5832SOL    HW323648   2.259   4.754   5.350
 5832SOL    MW423649   2.204   4.748   5.418
 5833SOL     OW23650   3.319   4.403   3.747
 5833SOL    HW223651   3.247   4.379   3.689
 5833SOL    HW323652   3.385   4.440   3.689
 5833SOL    MW423653   3.318   4.405   3.732
 5834SOL     OW23654   2.453   5.135   4.427
 5834SOL    HW223655   2.518   5.068   4.448
 5834SOL    HW323656   2.505   5.212   4.404
 5834SOL    MW423657   2.468   5.137   4.426
 5835SOL     OW23658   2.714   4.300   4.557
 5835SOL    HW223659   2.654   4.318   4.629
 5835SOL    HW323660   2.748   4.212   4.576
 5835SOL    MW423661   2.710   4.290   4.570
 5836SOL     OW23662   3.655   3.799   5.226
 5836SOL    HW223663   3.576   3.845   5.254
 5836SOL    HW323664   3.690   3.853   5.155
 5836SOL    MW423665   3.649   3.812   5.220
 5837SOL     OW23666   2.939   4.883   4.576
 5837SOL    HW223667   3.031   4.864   4.594
 5837SOL    HW323668   2.912   4.813   4.516
 5837SOL    MW423669   2.947   4.871   4.570
 5838SOL     OW23670   2.732   4.703   3.931
 5838SOL    HW223671   2.718   4.615   3.896
 5838SOL    HW323672   2.683   4.760   3.872
 5838SOL    MW423673   2.724   4.698   3.919
 5839SOL     OW23674   3.213   5.121   4.672
 5839SOL    HW223675   3.186   5.205   4.637
 5839SOL    HW323676   3.173   5.116   4.759
 5839SOL    MW423677   3.206   5.130   4.678
 5840SOL     OW23678   3.132   5.069   4.940
 5840SOL    HW223679   3.143   5.036   5.029
 5840SOL    HW323680   3.051   5.028   4.909
 5840SOL    MW423681   3.122   5.061   4.946
 5841SOL     OW23682   2.145   4.427   4.710
 5841SOL    HW223683   2.095   4.426   4.791
 5841SOL    HW323684   2.165   4.519   4.694
 5841SOL    MW423685   2.141   4.439   4.718
 5842SOL     OW23686   3.212   5.191   5.472
 5842SOL    HW223687   3.212   5.285   5.488
 5842SOL    HW323688   3.257   5.181   5.388
 5842SOL    MW423689   3.218   5.201   5.463
 5843SOL     OW23690   3.451   3.909   4.033
 5843SOL    HW223691   3.444   3.913   4.128
 5843SOL    HW323692   3.463   4.000   4.006
 5843SOL    MW423693   3.452   3.922   4.041
 5844SOL     OW23694   2.740   4.472   4.147
 5844SOL    HW223695   2.720   4.458   4.054
 5844SOL    HW323696   2.833   4.451   4.154
 5844SOL    MW423697   2.750   4.467   4.136
 5845SOL     OW23698   2.067   4.095   5.451
 5845SOL    HW223699   2.024   4.154   5.388
 5845SOL    HW323700   2.135   4.150   5.491
 5845SOL    MW423701   2.071   4.110   5.448
 5846SOL     OW23702   3.179   4.715   4.996
 5846SOL    HW223703   3.242   4.712   5.069
 5846SOL    HW323704   3.095   4.733   5.038
 5846SOL    MW423705   3.175   4.717   5.011
 5847SOL     OW23706   2.723   5.430   4.185
 5847SOL    HW223707   2.781   5.501   4.212
 5847SOL    HW323708   2.746   5.358   4.243
 5847SOL    MW423709   2.734   5.430   4.196
 5848SOL     OW23710   3.518   3.892   4.775
 5848SOL    HW223711   3.563   3.810   4.794
 5848SOL    HW323712   3.538   3.948   4.851
 5848SOL    MW423713   3.528   3.888   4.787
 5849SOL     OW23714   1.966   3.735   4.874
 5849SOL    HW223715   1.957   3.736   4.779
 5849SOL    HW323716   2.060   3.747   4.889
 5849SOL    MW423717   1.978   3.738   4.865
 5850SOL     OW23718   3.603   4.928   4.494
 5850SOL    HW223719   3.582   4.874   4.417
 5850SOL    HW323720   3.699   4.926   4.498
 5850SOL    MW423721   3.612   4.921   4.483
 5851SOL     OW23722   2.295   5.073   5.237
 5851SOL    HW223723   2.216   5.023   5.260
 5851SOL    HW323724   2.365   5.032   5.287
 5851SOL    MW423725   2.293   5.061   5.247
 5852SOL     OW23726   2.179   3.862   3.920
 5852SOL    HW223727   2.108   3.917   3.888
 5852SOL    HW323728   2.221   3.828   3.841
 5852SOL    MW423729   2.175   3.864   3.906
 5853SOL     OW23730   3.303   4.359   4.756
 5853SOL    HW223731   3.226   4.405   4.722
 5853SOL    HW323732   3.360   4.428   4.790
 5853SOL    MW423733   3.300   4.374   4.756
 5854SOL     OW23734   1.935   3.961   3.769
 5854SOL    HW223735   1.902   4.040   3.813
 5854SOL    HW323736   1.990   3.994   3.698
 5854SOL    MW423737   1.938   3.975   3.766
 5855SOL     OW23738   1.969   5.218   3.958
 5855SOL    HW223739   1.986   5.302   4.000
 5855SOL    HW323740   2.004   5.227   3.870
 5855SOL    MW423741   1.974   5.231   3.952
 5856SOL     OW23742   3.241   5.307   4.175
 5856SOL    HW223743   3.304   5.297   4.104
 5856SOL    HW323744   3.158   5.327   4.130
 5856SOL    MW423745   3.238   5.308   4.160
 5857SOL     OW23746   3.604   4.575   5.862
 5857SOL    HW223747   3.645   4.517   5.927
 5857SOL    HW323748   3.511   4.567   5.879
 5857SOL    MW423749   3.598   4.567   5.872
 5858SOL     OW23750   3.470   4.507   6.857
 5858SOL    HW223751   3.425   4.574   6.908
 5858SOL    HW323752   3.558   4.543   6.843
 5858SOL    MW423753   3.476   4.520   6.861
 5859SOL     OW23754   2.398   4.758   6.091
 5859SOL    HW223755   2.488   4.733   6.075
 5859SOL    HW323756   2.394   4.851   6.068
 5859SOL    MW423757   2.410   4.767   6.086
 5860SOL     OW23758   3.514   5.461   6.233
 5860SOL    HW223759   3.526   5.407   6.311
 5860SOL    HW323760   3.551   5.409   6.162
 5860SOL    MW423761   3.520   5.446   6.234
 5861SOL     OW23762   2.893   5.346   7.234
 5861SOL    HW223763   2.934   5.382   7.155
 5861SOL    HW323764   2.928   5.257   7.241
 5861SOL    MW423765   2.904   5.339   7.225
 5862SOL     OW23766   3.450   4.901   6.838
 5862SOL    HW223767   3.371   4.866   6.796
 5862SOL    HW323768   3.477   4.973   6.782
 5862SOL    MW423769   3.443   4.906   6.825
 5863SOL     OW23770   2.682   4.214   6.104
 5863SOL    HW223771   2.657   4.302   6.132
 5863SOL    HW323772   2.679   4.217   6.008
 5863SOL    MW423773   2.678   4.226   6.096
 5864SOL     OW23774   2.124   4.242   6.032
 5864SOL    HW223775   2.156   4.330   6.014
 5864SOL    HW323776   2.112   4.240   6.127
 5864SOL    MW423777   2.127   4.254   6.044
 5865SOL     OW23778   2.202   4.655   6.933
 5865SOL    HW223779   2.265   4.602   6.884
 5865SOL    HW323780   2.183   4.729   6.876
 5865SOL    MW423781   2.208   4.657   6.920
 5866SOL     OW23782   2.523   3.997   6.119
 5866SOL    HW223783   2.581   4.073   6.121
 5866SOL    HW323784   2.458   4.018   6.052
 5866SOL    MW423785   2.522   4.009   6.110
 5867SOL     OW23786   2.610   4.924   6.294
 5867SOL    HW223787   2.690   4.927   6.346
 5867SOL    HW323788   2.638   4.891   6.208
 5867SOL    MW423789   2.624   4.920   6.289
 5868SOL     OW23790   2.635   5.265   7.197
 5868SOL    HW223791   2.719   5.291   7.236
 5868SOL    HW323792   2.659   5.209   7.123
 5868SOL    MW423793   2.649   5.261   7.192
 5869SOL     OW23794   2.387   4.428   6.285
 5869SOL    HW223795   2.372   4.348   6.336
 5869SOL    HW323796   2.469   4.463   6.319
 5869SOL    MW423797   2.395   4.420   6.297
 5870SOL     OW23798   2.724   5.114   6.970
 5870SOL    HW223799   2.688   5.180   6.910
 5870SOL    HW323800   2.652   5.052   6.983
 5870SOL    MW423801   2.710   5.114   6.964
 5871SOL     OW23802   2.529   4.254   6.662
 5871SOL    HW223803   2.435   4.250   6.680
 5871SOL    HW323804   2.559   4.163   6.671
 5871SOL    MW423805   2.520   4.242   6.665
 5872SOL     OW23806   2.275   4.668   6.566
 5872SOL    HW223807   2.230   4.675   6.482
 5872SOL    HW323808   2.255   4.751   6.610
 5872SOL    MW423809   2.267   4.680   6.560
 5873SOL     OW23810   1.972   5.514   6.441
 5873SOL    HW223811   2.061   5.506   6.476
 5873SOL    HW323812   1.936   5.426   6.446
 5873SOL    MW423813   1.979   5.501   6.446
 5874SOL     OW23814   3.237   4.906   5.810
 5874SOL    HW223815   3.155   4.942   5.776
 5874SOL    HW323816   3.305   4.949   5.759
 5874SOL    MW423817   3.235   4.916   5.798
 5875SOL     OW23818   2.236   5.041   6.476
 5875SOL    HW223819   2.212   5.094   6.552
 5875SOL    HW323820   2.292   5.099   6.424
 5875SOL    MW423821   2.240   5.056   6.479
 5876SOL     OW23822   2.798   4.685   6.286
 5876SOL    HW223823   2.712   4.672   6.326
 5876SOL    HW323824   2.851   4.612   6.318
 5876SOL    MW423825   2.794   4.674   6.295
 5877SOL     OW23826   2.206   5.337   7.071
 5877SOL    HW223827   2.114   5.313   7.056
 5877SOL    HW323828   2.250   5.254   7.088
 5877SOL    MW423829   2.200   5.322   7.070
 5878SOL     OW23830   2.789   5.047   6.003
 5878SOL    HW223831   2.766   5.109   6.071
 5878SOL    HW323832   2.746   4.965   6.029
 5878SOL    MW423833   2.781   5.043   6.014
 5879SOL     OW23834   3.662   4.048   6.459
 5879SOL    HW223835   3.599   4.028   6.528
 5879SOL    HW323836   3.652   3.977   6.396
 5879SOL    MW423837   3.652   4.035   6.460
 5880SOL     OW23838   2.286   4.020   5.971
 5880SOL    HW223839   2.260   3.982   5.887
 5880SOL    HW323840   2.223   4.090   5.987
 5880SOL    MW423841   2.275   4.023   5.962
 5881SOL     OW23842   2.121   4.981   6.008
 5881SOL    HW223843   2.069   5.049   5.964
 5881SOL    HW323844   2.118   4.907   5.948
 5881SOL    MW423845   2.113   4.980   5.995
 5882SOL     OW23846   2.783   5.444   5.786
 5882SOL    HW223847   2.738   5.460   5.869
 5882SOL    HW323848   2.714   5.409   5.728
 5882SOL    MW423849   2.769   5.441   5.788
 5883SOL     OW23850   3.718   4.217   5.761
 5883SOL    HW223851   3.627   4.219   5.789
 5883SOL    HW323852   3.763   4.279   5.819
 5883SOL    MW423853   3.711   4.225   5.771
 5884SOL     OW23854   3.463   4.820   6.111
 5884SOL    HW223855   3.373   4.820   6.146
 5884SOL    HW323856   3.456   4.866   6.028
 5884SOL    MW423857   3.450   4.826   6.105
 5885SOL     OW23858   3.263   4.455   7.183
 5885SOL    HW223859   3.332   4.393   7.160
 5885SOL    HW323860   3.188   4.429   7.130
 5885SOL    MW423861   3.263   4.442   7.174
 5886SOL     OW23862   2.004   5.335   6.735
 5886SOL    HW223863   1.987   5.281   6.812
 5886SOL    HW323864   1.992   5.425   6.765
 5886SOL    MW423865   2.001   5.339   6.749
 5887SOL     OW23866   2.999   4.842   7.175
 5887SOL    HW223867   2.984   4.935   7.160
 5887SOL    HW323868   3.094   4.832   7.175
 5887SOL    MW423869   3.008   4.852   7.172
 5888SOL     OW23870   2.795   4.266   7.376
 5888SOL    HW223871   2.885   4.267   7.343
 5888SOL    HW323872   2.754   4.191   7.334
 5888SOL    MW423873   2.801   4.256   7.367
 5889SOL     OW23874   3.370   4.798   6.503
 5889SOL    HW223875   3.373   4.732   6.434
 5889SOL    HW323876   3.455   4.841   6.499
 5889SOL    MW423877   3.382   4.794   6.494
 5890SOL     OW23878   2.990   4.401   6.072
 5890SOL    HW223879   3.016   4.425   5.983
 5890SOL    HW323880   2.972   4.308   6.068
 5890SOL    MW423881   2.992   4.393   6.059
 5891SOL     OW23882   3.655   5.021   5.923
 5891SOL    HW223883   3.611   5.062   5.998
 5891SOL    HW323884   3.712   5.089   5.888
 5891SOL    MW423885   3.657   5.035   5.928
 5892SOL     OW23886   2.575   4.070   7.326
 5892SOL    HW223887   2.585   3.996   7.266
 5892SOL    HW323888   2.611   4.039   7.409
 5892SOL    MW423889   2.581   4.056   7.328
 5893SOL     OW23890   2.311   5.437   6.241
 5893SOL    HW223891   2.343   5.525   6.219
 5893SOL    HW323892   2.264   5.409   6.163
 5893SOL    MW423893   2.310   5.445   6.228
 5894SOL     OW23894   3.695   3.799   6.290
 5894SOL    HW223895   3.749   3.750   6.352
 5894SOL    HW323896   3.638   3.733   6.251
 5894SOL    MW423897   3.695   3.783   6.292
 5895SOL     OW23898   2.027   5.497   5.818
 5895SOL    HW223899   2.056   5.587   5.810
 5895SOL    HW323900   1.977   5.480   5.739
 5895SOL    MW423901   2.025   5.505   5.807
 5896SOL     OW23902   2.814   3.752   6.703
 5896SOL    HW223903   2.773   3.830   6.665
 5896SOL    HW323904   2.908   3.770   6.698
 5896SOL    MW423905   2.820   3.764   6.698
 5897SOL     OW23906   3.431   5.305   5.789
 5897SOL    HW223907   3.479   5.374   5.835
 5897SOL    HW323908   3.352   5.349   5.758
 5897SOL    MW423909   3.426   5.319   5.792
 5898SOL     OW23910   2.829   4.430   5.733
 5898SOL    HW223911   2.831   4.377   5.654
 5898SOL    HW323912   2.917   4.467   5.739
 5898SOL    MW423913   2.841   4.429   5.722
 5899SOL     OW23914   3.443   4.356   6.069
 5899SOL    HW223915   3.482   4.356   6.156
 5899SOL    HW323916   3.384   4.432   6.069
 5899SOL    MW423917   3.440   4.367   6.080
 5900SOL     OW23918   2.760   4.723   7.198
 5900SOL    HW223919   2.737   4.703   7.288
 5900SOL    HW323920   2.845   4.767   7.203
 5900SOL    MW423921   2.767   4.726   7.210
 5901SOL     OW23922   2.840   3.860   6.958
 5901SOL    HW223923   2.846   3.822   6.871
 5901SOL    HW323924   2.829   3.954   6.943
 5901SOL    MW423925   2.841   3.868   6.946
 5902SOL     OW23926   2.929   4.349   6.792
 5902SOL    HW223927   3.004   4.378   6.739
 5902SOL    HW323928   2.861   4.414   6.776
 5902SOL    MW423929   2.930   4.361   6.782
 5903SOL     OW23930   3.479   4.317   7.069
 5903SOL    HW223931   3.460   4.226   7.048
 5903SOL    HW323932   3.457   4.366   6.990
 5903SOL    MW423933   3.474   4.310   7.056
 5904SOL     OW23934   3.621   5.411   6.973
 5904SOL    HW223935   3.549   5.373   7.024
 5904SOL    HW323936   3.638   5.496   7.014
 5904SOL    MW423937   3.615   5.416   6.985
 5905SOL     OW23938   2.926   4.055   7.175
 5905SOL    HW223939   2.892   4.094   7.094
 5905SOL    HW323940   2.904   3.963   7.168
 5905SOL    MW423941   2.919   4.048   7.165
 5906SOL     OW23942   3.335   4.869   7.251
 5906SOL    HW223943   3.417   4.910   7.281
 5906SOL    HW323944   3.298   4.831   7.331
 5906SOL    MW423945   3.341   4.870   7.266
 5907SOL     OW23946   3.630   4.242   6.235
 5907SOL    HW223947   3.719   4.211   6.252
 5907SOL    HW323948   3.573   4.182   6.283
 5907SOL    MW423949   3.633   4.230   6.244
 5908SOL     OW23950   2.056   3.956   6.264
 5908SOL    HW223951   2.047   3.896   6.190
 5908SOL    HW323952   1.989   3.927   6.327
 5908SOL    MW423953   2.046   3.943   6.262
 5909SOL     OW23954   2.999   5.049   5.825
 5909SOL    HW223955   2.949   5.051   5.907
 5909SOL    HW323956   2.933   5.067   5.757
 5909SOL    MW423957   2.985   5.051   5.827
 5910SOL     OW23958   2.003   4.129   6.627
 5910SOL    HW223959   1.975   4.220   6.636
 5910SOL    HW323960   1.940   4.090   6.566
 5910SOL    MW423961   1.990   4.135   6.621
 5911SOL     OW23962   2.462   5.467   5.933
 5911SOL    HW223963   2.383   5.425   5.966
 5911SOL    HW323964   2.528   5.450   6.000
 5911SOL    MW423965   2.461   5.459   5.946
 5912SOL     OW23966   3.590   4.987   7.330
 5912SOL    HW223967   3.640   4.913   7.362
 5912SOL    HW323968   3.536   5.014   7.405
 5912SOL    MW423969   3.590   4.981   7.343
 5913SOL     OW23970   2.598   4.882   5.640
 5913SOL    HW223971   2.520   4.828   5.627
 5913SOL    HW323972   2.569   4.955   5.693
 5913SOL    MW423973   2.584   4.884   5.645
 5914SOL     OW23974   3.724   4.622   6.832
 5914SOL    HW223975   3.740   4.660   6.745
 5914SOL    HW323976   3.758   4.688   6.893
 5914SOL    MW423977   3.731   4.635   6.828
 5915SOL     OW23978   3.516   5.331   6.501
 5915SOL    HW223979   3.545   5.398   6.562
 5915SOL    HW323980   3.497   5.255   6.556
 5915SOL    MW423981   3.518   5.331   6.516
 5916SOL     OW23982   3.179   5.398   5.708
 5916SOL    HW223983   3.105   5.361   5.758
 5916SOL    HW323984   3.187   5.488   5.741
 5916SOL    MW423985   3.170   5.405   5.720
 5917SOL     OW23986   1.987   4.404   6.797
 5917SOL    HW223987   2.049   4.434   6.863
 5917SOL    HW323988   1.921   4.473   6.791
 5917SOL    MW423989   1.986   4.417   6.804
 5918SOL     OW23990   3.403   5.072   5.650
 5918SOL    HW223991   3.350   5.121   5.586
 5918SOL    HW323992   3.434   5.138   5.711
 5918SOL    MW423993   3.401   5.086   5.648
 5919SOL     OW23994   2.628   3.961   5.705
 5919SOL    HW223995   2.576   3.881   5.693
 5919SOL    HW323996   2.715   3.938   5.673
 5919SOL    MW423997   2.631   3.947   5.699
 5920SOL     OW23998   2.082   5.513   7.249
 5920SOL    HW223999   2.056   5.581   7.187
 5920SOL    HW324000   2.130   5.450   7.197
 5920SOL    MW424001   2.084   5.513   7.235
 5921SOL     OW24002   2.134   4.832   6.756
 5921SOL    HW224003   2.187   4.907   6.781
 5921SOL    HW324004   2.053   4.870   6.722
 5921SOL    MW424005   2.130   4.847   6.756
 5922SOL     OW24006   2.674   4.736   6.744
 5922SOL    HW224007   2.702   4.645   6.756
 5922SOL    HW324008   2.603   4.730   6.680
 5922SOL    MW424009   2.667   4.724   6.739
 5923SOL     OW24010   1.989   4.601   6.162
 5923SOL    HW224011   2.080   4.616   6.189
 5923SOL    HW324012   1.992   4.522   6.108
 5923SOL    MW424013   2.001   4.593   6.160
 5924SOL     OW24014   2.225   4.309   7.416
 5924SOL    HW224015   2.172   4.389   7.423
 5924SOL    HW324016   2.295   4.321   7.481
 5924SOL    MW424017   2.227   4.322   7.424
 5925SOL     OW24018   2.611   3.859   7.123
 5925SOL    HW224019   2.588   3.767   7.125
 5925SOL    HW324020   2.697   3.861   7.080
 5925SOL    MW424021   2.618   3.849   7.119
 5926SOL     OW24022   2.295   4.383   7.162
 5926SOL    HW224023   2.375   4.433   7.148
 5926SOL    HW324024   2.286   4.377   7.257
 5926SOL    MW424025   2.304   4.389   7.172
 5927SOL     OW24026   2.616   5.533   6.536
 5927SOL    HW224027   2.705   5.548   6.566
 5927SOL    HW324028   2.611   5.580   6.452
 5927SOL    MW424029   2.626   5.541   6.529
 5928SOL     OW24030   3.272   3.908   7.433
 5928SOL    HW224031   3.328   3.835   7.459
 5928SOL    HW324032   3.242   3.946   7.515
 5928SOL    MW424033   3.276   3.903   7.446
 5929SOL     OW24034   1.997   5.213   6.201
 5929SOL    HW224035   1.969   5.252   6.283
 5929SOL    HW324036   2.017   5.122   6.223
 5929SOL    MW424037   1.995   5.205   6.214
 5930SOL     OW24038   2.830   5.256   6.236
 5930SOL    HW224039   2.913   5.210   6.220
 5930SOL    HW324040   2.820   5.255   6.332
 5930SOL    MW424041   2.840   5.249   6.246
 5931SOL     OW24042   3.662   4.401   6.550
 5931SOL    HW224043   3.751   4.431   6.532
 5931SOL    HW324044   3.642   4.341   6.479
 5931SOL    MW424045   3.671   4.398   6.539
 5932SOL     OW24046   3.513   4.580   7.430
 5932SOL    HW224047   3.568   4.504   7.411
 5932SOL    HW324048   3.515   4.588   7.525
 5932SOL    MW424049   3.521   4.571   7.438
 5933SOL     OW24050   2.563   5.313   5.641
 5933SOL    HW224051   2.503   5.382   5.611
 5933SOL    HW324052   2.508   5.255   5.694
 5933SOL    MW424053   2.547   5.315   5.643
 5934SOL     OW24054   3.001   3.958   5.864
 5934SOL    HW224055   2.934   3.934   5.801
 5934SOL    HW324056   3.066   4.007   5.813
 5934SOL    MW424057   3.001   3.960   5.849
 5935SOL     OW24058   2.808   4.142   6.949
 5935SOL    HW224059   2.727   4.183   6.977
 5935SOL    HW324060   2.855   4.210   6.901
 5935SOL    MW424061   2.803   4.157   6.947
 5936SOL     OW24062   3.068   4.480   6.572
 5936SOL    HW224063   3.081   4.574   6.582
 5936SOL    HW324064   3.029   4.470   6.486
 5936SOL    MW424065   3.064   4.491   6.562
 5937SOL     OW24066   2.520   4.675   6.376
 5937SOL    HW224067   2.431   4.666   6.409
 5937SOL    HW324068   2.524   4.765   6.344
 5937SOL    MW424069   2.509   4.686   6.376
 5938SOL     OW24070   3.319   4.258   6.371
 5938SOL    HW224071   3.264   4.179   6.370
 5938SOL    HW324072   3.301   4.299   6.455
 5938SOL    MW424073   3.309   4.253   6.380
 5939SOL     OW24074   2.290   3.945   7.188
 5939SOL    HW224075   2.211   3.963   7.240
 5939SOL    HW324076   2.285   4.007   7.115
 5939SOL    MW424077   2.280   3.955   7.185
 5940SOL     OW24078   2.938   4.462   6.328
 5940SOL    HW224079   2.875   4.394   6.352
 5940SOL    HW324080   2.958   4.443   6.236
 5940SOL    MW424081   2.932   4.449   6.320
 5941SOL     OW24082   2.194   5.357   6.030
 5941SOL    HW224083   2.155   5.404   5.956
 5941SOL    HW324084   2.128   5.292   6.055
 5941SOL    MW424085   2.181   5.355   6.024
 5942SOL     OW24086   2.686   4.766   6.054
 5942SOL    HW224087   2.688   4.740   5.961
 5942SOL    HW324088   2.744   4.703   6.097
 5942SOL    MW424089   2.694   4.755   6.048
 5943SOL     OW24090   3.239   5.326   6.826
 5943SOL    HW224091   3.164   5.372   6.864
 5943SOL    HW324092   3.221   5.233   6.843
 5943SOL    MW424093   3.228   5.320   6.834
 5944SOL     OW24094   3.243   5.534   6.256
 5944SOL    HW224095   3.186   5.487   6.195
 5944SOL    HW324096   3.329   5.495   6.243
 5944SOL    MW424097   3.246   5.525   6.246
 5945SOL     OW24098   3.196   4.010   6.387
 5945SOL    HW224099   3.224   3.942   6.448
 5945SOL    HW324100   3.110   3.981   6.357
 5945SOL    MW424101   3.189   3.997   6.391
 5946SOL     OW24102   2.001   4.944   6.321
 5946SOL    HW224103   2.065   4.976   6.384
 5946SOL    HW324104   2.050   4.880   6.269
 5946SOL    MW424105   2.016   4.940   6.322
 5947SOL     OW24106   2.501   5.020   7.303
 5947SOL    HW224107   2.549   5.103   7.290
 5947SOL    HW324108   2.558   4.968   7.359
 5947SOL    MW424109   2.515   5.024   7.309
 5948SOL     OW24110   2.077   5.262   7.443
 5948SOL    HW224111   2.133   5.186   7.458
 5948SOL    HW324112   2.026   5.240   7.365
 5948SOL    MW424113   2.077   5.249   7.434
 5949SOL     OW24114   3.176   4.114   5.722
 5949SOL    HW224115   3.149   4.180   5.658
 5949SOL    HW324116   3.246   4.157   5.772
 5949SOL    MW424117   3.181   4.127   5.719
 5950SOL     OW24118   2.844   3.819   5.659
 5950SOL    HW224119   2.900   3.811   5.581
 5950SOL    HW324120   2.821   3.729   5.681
 5950SOL    MW424121   2.849   3.806   5.652
 5951SOL     OW24122   3.349   4.670   5.864
 5951SOL    HW224123   3.316   4.759   5.854
 5951SOL    HW324124   3.314   4.641   5.949
 5951SOL    MW424125   3.339   4.679   5.875
 5952SOL     OW24126   2.962   5.099   7.052
 5952SOL    HW224127   2.873   5.105   7.020
 5952SOL    HW324128   3.006   5.178   7.020
 5952SOL    MW424129   2.957   5.109   7.044
 5953SOL     OW24130   2.255   3.767   7.394
 5953SOL    HW224131   2.183   3.732   7.342
 5953SOL    HW324132   2.313   3.808   7.329
 5953SOL    MW424133   2.253   3.768   7.379
 5954SOL     OW24134   2.279   5.257   6.693
 5954SOL    HW224135   2.324   5.319   6.750
 5954SOL    HW324136   2.186   5.276   6.706
 5954SOL    MW424137   2.272   5.267   6.700
 5955SOL     OW24138   3.719   4.786   7.047
 5955SOL    HW224139   3.634   4.799   7.006
 5955SOL    HW324140   3.699   4.750   7.134
 5955SOL    MW424141   3.706   4.782   7.052
 5956SOL     OW24142   2.701   5.325   6.801
 5956SOL    HW224143   2.725   5.314   6.710
 5956SOL    HW324144   2.624   5.382   6.799
 5956SOL    MW424145   2.693   5.330   6.790
 5957SOL     OW24146   2.343   4.708   5.656
 5957SOL    HW224147   2.266   4.721   5.712
 5957SOL    HW324148   2.307   4.672   5.575
 5957SOL    MW424149   2.329   4.704   5.653
 5958SOL     OW24150   2.996   4.681   5.899
 5958SOL    HW224151   2.906   4.702   5.874
 5958SOL    HW324152   3.023   4.754   5.955
 5958SOL    MW424153   2.988   4.693   5.902
 5959SOL     OW24154   2.496   5.030   6.591
 5959SOL    HW224155   2.489   5.009   6.685
 5959SOL    HW324156   2.414   4.998   6.554
 5959SOL    MW424157   2.484   5.024   6.598
 5960SOL     OW24158   3.360   4.040   6.993
 5960SOL    HW224159   3.307   4.042   7.073
 5960SOL    HW324160   3.345   3.953   6.956
 5960SOL    MW424161   3.352   4.030   6.998
 5961SOL     OW24162   3.696   3.964   6.866
 5961SOL    HW224163   3.677   4.031   6.801
 5961SOL    HW324164   3.753   3.902   6.821
 5961SOL    MW424165   3.700   3.965   6.852
 5962SOL     OW24166   1.942   5.122   7.254
 5962SOL    HW224167   1.986   5.055   7.200
 5962SOL    HW324168   1.857   5.084   7.274
 5962SOL    MW424169   1.937   5.108   7.250
 5963SOL     OW24170   2.625   3.797   6.306
 5963SOL    HW224171   2.554   3.858   6.288
 5963SOL    HW324172   2.676   3.794   6.225
 5963SOL    MW424173   2.621   3.803   6.293
 5964SOL     OW24174   2.383   5.037   6.055
 5964SOL    HW224175   2.376   5.069   6.145
 5964SOL    HW324176   2.293   5.021   6.027
 5964SOL    MW424177   2.371   5.039   6.062
 5965SOL     OW24178   2.978   5.430   6.964
 5965SOL    HW224179   2.898   5.415   6.914
 5965SOL    HW324180   2.985   5.525   6.971
 5965SOL    MW424181   2.969   5.441   6.958
 5966SOL     OW24182   3.092   5.395   6.454
 5966SOL    HW224183   3.139   5.468   6.413
 5966SOL    HW324184   3.013   5.434   6.490
 5966SOL    MW424185   3.087   5.410   6.453
 5967SOL     OW24186   3.500   5.490   6.729
 5967SOL    HW224187   3.543   5.460   6.809
 5967SOL    HW324188   3.419   5.438   6.726
 5967SOL    MW424189   3.495   5.479   6.739
 5968SOL     OW24190   2.585   4.454   7.436
 5968SOL    HW224191   2.655   4.396   7.408
 5968SOL    HW324192   2.528   4.399   7.491
 5968SOL    MW424193   2.587   4.441   7.440
 5969SOL     OW24194   3.372   4.666   7.069
 5969SOL    HW224195   3.377   4.719   7.149
 5969SOL    HW324196   3.334   4.583   7.097
 5969SOL    MW424197   3.368   4.661   7.084
 5970SOL     OW24198   3.012   3.801   7.315
 5970SOL    HW224199   3.007   3.708   7.296
 5970SOL    HW324200   3.095   3.812   7.361
 5970SOL    MW424201   3.020   3.790   7.319
 5971SOL     OW24202   2.386   4.321   5.769
 5971SOL    HW224203   2.352   4.377   5.839
 5971SOL    HW324204   2.457   4.271   5.809
 5971SOL    MW424205   2.392   4.322   5.783
 5972SOL     OW24206   3.482   5.072   6.591
 5972SOL    HW224207   3.517   5.054   6.504
 5972SOL    HW324208   3.387   5.073   6.578
 5972SOL    MW424209   3.474   5.069   6.578
 5973SOL     OW24210   2.911   4.720   6.960
 5973SOL    HW224211   2.954   4.755   7.038
 5973SOL    HW324212   2.894   4.797   6.906
 5973SOL    MW424213   2.914   4.735   6.963
 5974SOL     OW24214   3.442   4.207   5.833
 5974SOL    HW224215   3.434   4.278   5.770
 5974SOL    HW324216   3.460   4.251   5.916
 5974SOL    MW424217   3.443   4.221   5.835
 5975SOL     OW24218   2.302   3.862   6.262
 5975SOL    HW224219   2.352   3.905   6.193
 5975SOL    HW324220   2.217   3.906   6.262
 5975SOL    MW424221   2.299   3.875   6.253
 5976SOL     OW24222   2.061   4.924   7.122
 5976SOL    HW224223   2.089   4.877   7.200
 5976SOL    HW324224   1.982   4.879   7.093
 5976SOL    MW424225   2.054   4.913   7.128
 5977SOL     OW24226   2.569   4.251   7.089
 5977SOL    HW224227   2.541   4.339   7.113
 5977SOL    HW324228   2.538   4.195   7.160
 5977SOL    MW424229   2.561   4.254   7.101
 5978SOL     OW24230   3.111   4.469   5.808
 5978SOL    HW224231   3.158   4.487   5.727
 5978SOL    HW324232   3.077   4.553   5.836
 5978SOL    MW424233   3.113   4.483   5.801
 5979SOL     OW24234   2.224   4.647   6.302
 5979SOL    HW224235   2.282   4.703   6.250
 5979SOL    HW324236   2.268   4.562   6.304
 5979SOL    MW424237   2.237   4.644   6.295
 5980SOL     OW24238   3.364   3.999   6.139
 5980SOL    HW224239   3.286   3.949   6.164
 5980SOL    HW324240   3.335   4.090   6.139
 5980SOL    MW424241   3.350   4.003   6.142
 5981SOL     OW24242   2.950   3.961   6.298
 5981SOL    HW224243   2.970   4.036   6.242
 5981SOL    HW324244   2.930   4.000   6.383
 5981SOL    MW424245   2.951   3.977   6.302
 5982SOL     OW24246   2.846   5.211   5.630
 5982SOL    HW224247   2.873   5.289   5.582
 5982SOL    HW324248   2.753   5.226   5.649
 5982SOL    MW424249   2.837   5.224   5.626
 5983SOL     OW24250   3.710   4.734   7.317
 5983SOL    HW224251   3.623   4.714   7.353
 5983SOL    HW324252   3.764   4.660   7.342
 5983SOL    MW424253   3.705   4.723   7.325
 5984SOL     OW24254   1.931   5.247   6.474
 5984SOL    HW224255   1.963   5.251   6.565
 5984SOL    HW324256   1.836   5.255   6.482
 5984SOL    MW424257   1.923   5.250   6.487
 5985SOL     OW24258   1.886   4.373   6.021
 5985SOL    HW224259   1.826   4.345   6.091
 5985SOL    HW324260   1.960   4.313   6.027
 5985SOL    MW424261   1.888   4.362   6.030
 5986SOL     OW24262   3.454   5.585   7.455
 5986SOL    HW224263   3.499   5.509   7.420
 5986SOL    HW324264   3.492   5.598   7.542
 5986SOL    MW424265   3.464   5.578   7.461
 5987SOL     OW24266   3.054   5.104   6.181
 5987SOL    HW224267   3.077   5.055   6.259
 5987SOL    HW324268   3.135   5.146   6.153
 5987SOL    MW424269   3.067   5.104   6.188
 5988SOL     OW24270   2.312   4.112   6.910
 5988SOL    HW224271   2.345   4.193   6.950
 5988SOL    HW324272   2.285   4.138   6.822
 5988SOL    MW424273   2.311   4.126   6.904
 5989SOL     OW24274   2.266   4.079   6.646
 5989SOL    HW224275   2.296   3.993   6.617
 5989SOL    HW324276   2.171   4.072   6.649
 5989SOL    MW424277   2.258   4.068   6.644
 5990SOL     OW24278   3.095   4.288   7.337
 5990SOL    HW224279   3.147   4.223   7.290
 5990SOL    HW324280   3.053   4.339   7.267
 5990SOL    MW424281   3.096   4.285   7.320
 5991SOL     OW24282   3.194   4.083   7.198
 5991SOL    HW224283   3.101   4.067   7.185
 5991SOL    HW324284   3.220   4.021   7.266
 5991SOL    MW424285   3.184   4.073   7.205
 5992SOL     OW24286   2.409   3.857   6.537
 5992SOL    HW224287   2.419   3.766   6.563
 5992SOL    HW324288   2.365   3.853   6.452
 5992SOL    MW424289   2.405   3.845   6.529
 5993SOL     OW24290   2.503   5.472   7.083
 5993SOL    HW224291   2.420   5.457   7.128
 5993SOL    HW324292   2.562   5.405   7.118
 5993SOL    MW424293   2.501   5.462   7.093
 5994SOL     OW24294   3.560   4.179   6.708
 5994SOL    HW224295   3.493   4.212   6.768
 5994SOL    HW324296   3.603   4.257   6.674
 5994SOL    MW424297   3.558   4.194   6.712
 5995SOL     OW24298   3.738   4.899   6.678
 5995SOL    HW224299   3.731   4.839   6.603
 5995SOL    HW324300   3.664   4.959   6.667
 5995SOL    MW424301   3.728   4.899   6.667
 5996SOL     OW24302   3.120   4.761   6.596
 5996SOL    HW224303   3.134   4.733   6.687
 5996SOL    HW324304   3.206   4.792   6.568
 5996SOL    MW424305   3.133   4.762   6.605
 5997SOL     OW24306   3.203   4.256   6.875
 5997SOL    HW224307   3.224   4.257   6.782
 5997SOL    HW324308   3.248   4.178   6.908
 5997SOL    MW424309   3.210   4.246   6.867
 5998SOL     OW24310   3.696   4.387   7.417
 5998SOL    HW224311   3.733   4.332   7.486
 5998SOL    HW324312   3.721   4.344   7.335
 5998SOL    MW424313   3.703   4.375   7.416
 5999SOL     OW24314   3.243   4.685   7.468
 5999SOL    HW224315   3.309   4.633   7.422
 5999SOL    HW324316   3.263   4.672   7.561
 5999SOL    MW424317   3.254   4.676   7.475
 6000SOL     OW24318   3.194   3.771   5.817
 6000SOL    HW224319   3.268   3.815   5.860
 6000SOL    HW324320   3.118   3.825   5.839
 6000SOL    MW424321   3.194   3.783   5.825
 6001SOL     OW24322   3.254   4.546   6.095
 6001SOL    HW224323   3.169   4.516   6.065
 6001SOL    HW324324   3.246   4.553   6.190
 6001SOL    MW424325   3.242   4.544   6.104
 6002SOL     OW24326   2.330   5.009   6.826
 6002SOL    HW224327   2.342   5.036   6.917
 6002SOL    HW324328   2.311   5.090   6.779
 6002SOL    MW424329   2.329   5.024   6.831
 6003SOL     OW24330   2.614   3.989   6.649
 6003SOL    HW224331   2.587   3.991   6.740
 6003SOL    HW324332   2.544   3.941   6.604
 6003SOL    MW424333   2.602   3.985   6.656
 6004SOL     OW24334   2.468   5.481   6.811
 6004SOL    HW224335   2.520   5.558   6.788
 6004SOL    HW324336   2.477   5.473   6.906
 6004SOL    MW424337   2.477   5.488   6.822
 6005SOL     OW24338   3.370   5.066   7.043
 6005SOL    HW224339   3.355   4.995   7.106
 6005SOL    HW324340   3.416   5.024   6.971
 6005SOL    MW424341   3.376   5.050   7.043
 6006SOL     OW24342   2.444   4.797   7.160
 6006SOL    HW224343   2.481   4.802   7.072
 6006SOL    HW324344   2.483   4.870   7.207
 6006SOL    MW424345   2.454   4.807   7.155
 6007SOL     OW24346   2.624   4.840   6.972
 6007SOL    HW224347   2.683   4.786   7.025
 6007SOL    HW324348   2.639   4.812   6.882
 6007SOL    MW424349   2.634   4.829   6.968
 6008SOL     OW24350   2.627   4.212   5.821
 6008SOL    HW224351   2.700   4.261   5.784
 6008SOL    HW324352   2.643   4.121   5.795
 6008SOL    MW424353   2.639   4.207   5.814
 6009SOL     OW24354   3.435   5.329   7.144
 6009SOL    HW224355   3.477   5.314   7.229
 6009SOL    HW324356   3.426   5.242   7.106
 6009SOL    MW424357   3.439   5.317   7.151
 6010SOL     OW24358   3.095   3.808   6.735
 6010SOL    HW224359   3.150   3.817   6.657
 6010SOL    HW324360   3.150   3.842   6.806
 6010SOL    MW424361   3.109   3.813   6.734
 6011SOL     OW24362   2.102   4.721   5.919
 6011SOL    HW224363   2.039   4.737   5.848
 6011SOL    HW324364   2.049   4.684   5.990
 6011SOL    MW424365   2.087   4.718   5.919
 6012SOL     OW24366   2.458   5.075   5.778
 6012SOL    HW224367   2.473   5.051   5.870
 6012SOL    HW324368   2.366   5.053   5.762
 6012SOL    MW424369   2.448   5.068   5.788
 6013SOL     OW24370   2.997   5.306   5.930
 6013SOL    HW224371   3.005   5.224   5.881
 6013SOL    HW324372   2.916   5.345   5.897
 6013SOL    MW424373   2.987   5.301   5.920
 6014SOL     OW24374   2.256   5.464   6.499
 6014SOL    HW224375   2.260   5.375   6.534
 6014SOL    HW324376   2.282   5.455   6.408
 6014SOL    MW424377   2.259   5.452   6.491
 6015SOL     OW24378   2.873   4.942   6.742
 6015SOL    HW224379   2.805   4.876   6.758
 6015SOL    HW324380   2.891   4.936   6.649
 6015SOL    MW424381   2.866   4.933   6.733
 6016SOL     OW24382   1.962   5.217   6.993
 6016SOL    HW224383   1.952   5.175   7.079
 6016SOL    HW324384   1.883   5.270   6.983
 6016SOL    MW424385   1.951   5.218   7.004
 6017SOL     OW24386   2.866   4.081   6.563
 6017SOL    HW224387   2.796   4.033   6.608
 6017SOL    HW324388   2.898   4.144   6.627
 6017SOL    MW424389   2.861   4.083   6.577
 6018SOL     OW24390   2.517   4.517   7.183
 6018SOL    HW224391   2.510   4.612   7.171
 6018SOL    HW324392   2.526   4.506   7.278
 6018SOL    MW424393   2.518   4.529   7.193
 6019SOL     OW24394   2.238   5.032   7.441
 6019SOL    HW224395   2.310   5.034   7.378
 6019SOL    HW324396   2.208   4.941   7.440
 6019SOL    MW424397   2.243   5.021   7.433
 6020SOL     OW24398   3.322   3.795   6.908
 6020SOL    HW224399   3.393   3.741   6.872
 6020SOL    HW324400   3.321   3.774   7.001
 6020SOL    MW424401   3.331   3.786   6.916
 6021SOL     OW24402   3.522   5.325   7.392
 6021SOL    HW224403   3.495   5.322   7.483
 6021SOL    HW324404   3.618   5.329   7.395
 6021SOL    MW424405   3.532   5.325   7.404
 6022SOL     OW24406   2.333   4.187   6.376
 6022SOL    HW224407   2.404   4.135   6.339
 6022SOL    HW324408   2.319   4.152   6.463
 6022SOL    MW424409   2.341   4.176   6.383
 6023SOL     OW24410   1.888   5.522   7.448
 6023SOL    HW224411   1.938   5.500   7.370
 6023SOL    HW324412   1.896   5.617   7.456
 6023SOL    MW424413   1.896   5.531   7.439
 6024SOL     OW24414   2.649   5.280   6.452
 6024SOL    HW224415   2.577   5.217   6.465
 6024SOL    HW324416   2.610   5.365   6.470
 6024SOL    MW424417   2.633   5.283   6.455
 6025SOL     OW24418   2.969   4.128   6.100
 6025SOL    HW224419   2.991   4.065   6.032
 6025SOL    HW324420   2.874   4.120   6.111
 6025SOL    MW424421   2.959   4.119   6.092
 6026SOL     OW24422   2.054   3.818   6.032
 6026SOL    HW224423   2.125   3.839   5.971
 6026SOL    HW324424   2.008   3.746   5.990
 6026SOL    MW424425   2.058   3.812   6.018
 6027SOL     OW24426   1.885   4.285   7.175
 6027SOL    HW224427   1.949   4.351   7.150
 6027SOL    HW324428   1.804   4.312   7.132
 6027SOL    MW424429   1.883   4.297   7.167
 6028SOL     OW24430   3.623   5.192   6.132
 6028SOL    HW224431   3.593   5.125   6.193
 6028SOL    HW324432   3.717   5.198   6.146
 6028SOL    MW424433   3.631   5.184   6.142
 6029SOL     OW24434   3.179   4.869   6.062
 6029SOL    HW224435   3.151   4.955   6.095
 6029SOL    HW324436   3.207   4.885   5.972
 6029SOL    MW424437   3.179   4.883   6.054
 6030SOL     OW24438   2.841   3.789   6.115
 6030SOL    HW224439   2.878   3.848   6.180
 6030SOL    HW324440   2.818   3.845   6.041
 6030SOL    MW424441   2.842   3.804   6.114
 6031SOL     OW24442   3.694   4.671   6.537
 6031SOL    HW224443   3.685   4.703   6.448
 6031SOL    HW324444   3.647   4.587   6.537
 6031SOL    MW424445   3.687   4.664   6.527
 6032SOL     OW24446   2.070   4.511   7.116
 6032SOL    HW224447   2.091   4.580   7.054
 6032SOL    HW324448   2.150   4.458   7.121
 6032SOL    MW424449   2.083   4.512   7.110
 6033SOL     OW24450   3.606   4.602   6.238
 6033SOL    HW224451   3.700   4.591   6.226
 6033SOL    HW324452   3.582   4.674   6.179
 6033SOL    MW424453   3.616   4.610   6.229
 6034SOL     OW24454   2.055   4.526   7.383
 6034SOL    HW224455   1.981   4.470   7.409
 6034SOL    HW324456   2.050   4.529   7.288
 6034SOL    MW424457   2.044   4.519   7.373
 6035SOL     OW24458   2.221   3.813   6.833
 6035SOL    HW224459   2.264   3.897   6.853
 6035SOL    HW324460   2.294   3.751   6.826
 6035SOL    MW424461   2.236   3.816   6.834
 6036SOL     OW24462   2.262   4.480   6.011
 6036SOL    HW224463   2.262   4.575   5.996
 6036SOL    HW324464   2.339   4.464   6.065
 6036SOL    MW424465   2.272   4.491   6.016
 6037SOL     OW24466   3.038   4.339   7.075
 6037SOL    HW224467   3.074   4.312   6.991
 6037SOL    HW324468   2.951   4.373   7.054
 6037SOL    MW424469   3.032   4.340   7.062
 6038SOL     OW24470   2.021   4.211   6.300
 6038SOL    HW224471   2.083   4.218   6.373
 6038SOL    HW324472   2.021   4.118   6.277
 6038SOL    MW424473   2.029   4.200   6.307
 6039SOL     OW24474   3.568   5.551   5.832
 6039SOL    HW224475   3.635   5.584   5.772
 6039SOL    HW324476   3.525   5.630   5.866
 6039SOL    MW424477   3.570   5.566   5.828
 6040SOL     OW24478   2.703   4.472   6.784
 6040SOL    HW224479   2.661   4.390   6.760
 6040SOL    HW324480   2.704   4.471   6.880
 6040SOL    MW424481   2.696   4.461   6.793
 6041SOL     OW24482   3.374   5.605   7.183
 6041SOL    HW224483   3.377   5.511   7.166
 6041SOL    HW324484   3.397   5.613   7.275
 6041SOL    MW424485   3.377   5.593   7.193
 6042SOL     OW24486   2.507   3.942   6.889
 6042SOL    HW224487   2.438   4.005   6.910
 6042SOL    HW324488   2.534   3.906   6.974
 6042SOL    MW424489   2.501   3.945   6.902
 6043SOL     OW24490   1.890   4.783   5.758
 6043SOL    HW224491   1.859   4.848   5.821
 6043SOL    HW324492   1.839   4.705   5.777
 6043SOL    MW424493   1.880   4.780   5.768
 6044SOL     OW24494   3.302   3.795   6.506
 6044SOL    HW224495   3.390   3.804   6.543
 6044SOL    HW324496   3.312   3.736   6.432
 6044SOL    MW424497   3.316   3.789   6.500
 6045SOL     OW24498   3.334   4.534   6.350
 6045SOL    HW224499   3.414   4.549   6.299
 6045SOL    HW324500   3.327   4.439   6.356
 6045SOL    MW424501   3.343   4.523   6.345
 6046SOL     OW24502   2.474   5.583   5.700
 6046SOL    HW224503   2.379   5.583   5.692
 6046SOL    HW324504   2.490   5.529   5.778
 6046SOL    MW424505   2.464   5.577   5.709
 6047SOL     OW24506   2.784   4.460   7.047
 6047SOL    HW224507   2.853   4.527   7.044
 6047SOL    HW324508   2.717   4.498   7.103
 6047SOL    MW424509   2.785   4.473   7.054
 6048SOL     OW24510   2.202   4.760   7.295
 6048SOL    HW224511   2.156   4.676   7.297
 6048SOL    HW324512   2.259   4.754   7.219
 6048SOL    MW424513   2.204   4.748   7.287
 6049SOL     OW24514   3.319   4.403   5.615
 6049SOL    HW224515   3.247   4.379   5.557
 6049SOL    HW324516   3.385   4.440   5.557
 6049SOL    MW424517   3.318   4.405   5.600
 6050SOL     OW24518   2.453   5.135   6.296
 6050SOL    HW224519   2.518   5.068   6.317
 6050SOL    HW324520   2.505   5.212   6.273
 6050SOL    MW424521   2.468   5.137   6.295
 6051SOL     OW24522   2.714   4.300   6.426
 6051SOL    HW224523   2.654   4.318   6.498
 6051SOL    HW324524   2.748   4.212   6.445
 6051SOL    MW424525   2.710   4.290   6.439
 6052SOL     OW24526   3.655   3.799   7.095
 6052SOL    HW224527   3.576   3.845   7.123
 6052SOL    HW324528   3.690   3.853   7.024
 6052SOL    MW424529   3.649   3.812   7.089
 6053SOL     OW24530   2.939   4.883   6.445
 6053SOL    HW224531   3.031   4.864   6.463
 6053SOL    HW324532   2.912   4.813   6.385
 6053SOL    MW424533   2.947   4.871   6.439
 6054SOL     OW24534   2.732   4.703   5.800
 6054SOL    HW224535   2.718   4.615   5.765
 6054SOL    HW324536   2.683   4.760   5.741
 6054SOL    MW424537   2.724   4.698   5.788
 6055SOL     OW24538   3.213   5.121   6.541
 6055SOL    HW224539   3.186   5.205   6.506
 6055SOL    HW324540   3.173   5.116   6.628
 6055SOL    MW424541   3.206   5.130   6.547
 6056SOL     OW24542   3.132   5.069   6.809
 6056SOL    HW224543   3.143   5.036   6.898
 6056SOL    HW324544   3.051   5.028   6.778
 6056SOL    MW424545   3.122   5.061   6.815
 6057SOL     OW24546   2.145   4.427   6.579
 6057SOL    HW224547   2.095   4.426   6.660
 6057SOL    HW324548   2.165   4.519   6.563
 6057SOL    MW424549   2.141   4.439   6.587
 6058SOL     OW24550   3.212   5.191   7.341
 6058SOL    HW224551   3.212   5.285   7.357
 6058SOL    HW324552   3.257   5.181   7.257
 6058SOL    MW424553   3.218   5.201   7.332
 6059SOL     OW24554   3.451   3.909   5.902
 6059SOL    HW224555   3.444   3.913   5.997
 6059SOL    HW324556   3.463   4.000   5.875
 6059SOL    MW424557   3.452   3.922   5.910
 6060SOL     OW24558   2.740   4.472   6.016
 6060SOL    HW224559   2.720   4.458   5.923
 6060SOL    HW324560   2.833   4.451   6.023
 6060SOL    MW424561   2.750   4.467   6.005
 6061SOL     OW24562   2.067   4.095   7.320
 6061SOL    HW224563   2.024   4.154   7.257
 6061SOL    HW324564   2.135   4.150   7.360
 6061SOL    MW424565   2.071   4.110   7.317
 6062SOL     OW24566   3.179   4.715   6.865
 6062SOL    HW224567   3.242   4.712   6.938
 6062SOL    HW324568   3.095   4.733   6.907
 6062SOL    MW424569   3.175   4.717   6.880
 6063SOL     OW24570   2.723   5.430   6.054
 6063SOL    HW224571   2.781   5.501   6.081
 6063SOL    HW324572   2.746   5.358   6.112
 6063SOL    MW424573   2.734   5.430   6.065
 6064SOL     OW24574   3.518   3.892   6.644
 6064SOL    HW224575   3.563   3.810   6.663
 6064SOL    HW324576   3.538   3.948   6.720
 6064SOL    MW424577   3.528   3.888   6.656
 6065SOL     OW24578   1.966   3.735   6.743
 6065SOL    HW224579   1.957   3.736   6.648
 6065SOL    HW324580   2.060   3.747   6.758
 6065SOL    MW424581   1.978   3.738   6.734
 6066SOL     OW24582   3.603   4.928   6.363
 6066SOL    HW224583   3.582   4.874   6.286
 6066SOL    HW324584   3.699   4.926   6.367
 6066SOL    MW424585   3.612   4.921   6.352
 6067SOL     OW24586   2.295   5.073   7.106
 6067SOL    HW224587   2.216   5.023   7.129
 6067SOL    HW324588   2.365   5.032   7.156
 6067SOL    MW424589   2.293   5.061   7.116
 6068SOL     OW24590   2.179   3.862   5.789
 6068SOL    HW224591   2.108   3.917   5.757
 6068SOL    HW324592   2.221   3.828   5.710
 6068SOL    MW424593   2.175   3.864   5.775
 6069SOL     OW24594   3.303   4.359   6.625
 6069SOL    HW224595   3.226   4.405   6.591
 6069SOL    HW324596   3.360   4.428   6.659
 6069SOL    MW424597   3.300   4.374   6.625
 6070SOL     OW24598   1.935   3.961   5.638
 6070SOL    HW224599   1.902   4.040   5.682
 6070SOL    HW324600   1.990   3.994   5.567
 6070SOL    MW424601   1.938   3.975   5.635
 6071SOL     OW24602   1.969   5.218   5.827
 6071SOL    HW224603   1.986   5.302   5.869
 6071SOL    HW324604   2.004   5.227   5.739
 6071SOL    MW424605   1.974   5.231   5.821
 6072SOL     OW24606   3.241   5.307   6.044
 6072SOL    HW224607   3.304   5.297   5.973
 6072SOL    HW324608   3.158   5.327   5.999
 6072SOL    MW424609   3.238   5.308   6.029
 6073SOL     OW24610   3.604   6.444   0.257
 6073SOL    HW224611   3.645   6.386   0.322
 6073SOL    HW324612   3.511   6.436   0.274
 6073SOL    MW424613   3.598   6.436   0.267
 6074SOL     OW24614   3.470   6.376   1.252
 6074SOL    HW224615   3.425   6.443   1.303
 6074SOL    HW324616   3.558   6.412   1.238
 6074SOL    MW424617   3.476   6.389   1.256
 6075SOL     OW24618   2.398   6.627   0.486
 6075SOL    HW224619   2.488   6.602   0.470
 6075SOL    HW324620   2.394   6.720   0.463
 6075SOL    MW424621   2.410   6.636   0.481
 6076SOL     OW24622   3.514   7.330   0.628
 6076SOL    HW224623   3.526   7.276   0.706
 6076SOL    HW324624   3.551   7.278   0.557
 6076SOL    MW424625   3.520   7.315   0.629
 6077SOL     OW24626   2.893   7.215   1.629
 6077SOL    HW224627   2.934   7.251   1.550
 6077SOL    HW324628   2.928   7.126   1.636
 6077SOL    MW424629   2.904   7.208   1.620
 6078SOL     OW24630   3.450   6.770   1.233
 6078SOL    HW224631   3.371   6.735   1.191
 6078SOL    HW324632   3.477   6.842   1.177
 6078SOL    MW424633   3.443   6.775   1.220
 6079SOL     OW24634   2.682   6.083   0.499
 6079SOL    HW224635   2.657   6.171   0.527
 6079SOL    HW324636   2.679   6.086   0.403
 6079SOL    MW424637   2.678   6.095   0.491
 6080SOL     OW24638   2.124   6.111   0.427
 6080SOL    HW224639   2.156   6.199   0.409
 6080SOL    HW324640   2.112   6.109   0.522
 6080SOL    MW424641   2.127   6.123   0.439
 6081SOL     OW24642   2.202   6.524   1.328
 6081SOL    HW224643   2.265   6.471   1.279
 6081SOL    HW324644   2.183   6.598   1.271
 6081SOL    MW424645   2.208   6.526   1.315
 6082SOL     OW24646   2.523   5.866   0.514
 6082SOL    HW224647   2.581   5.942   0.516
 6082SOL    HW324648   2.458   5.887   0.447
 6082SOL    MW424649   2.522   5.878   0.505
 6083SOL     OW24650   2.610   6.793   0.689
 6083SOL    HW224651   2.690   6.796   0.741
 6083SOL    HW324652   2.638   6.760   0.603
 6083SOL    MW424653   2.624   6.789   0.684
 6084SOL     OW24654   2.635   7.134   1.592
 6084SOL    HW224655   2.719   7.160   1.631
 6084SOL    HW324656   2.659   7.078   1.518
 6084SOL    MW424657   2.649   7.130   1.587
 6085SOL     OW24658   2.387   6.297   0.680
 6085SOL    HW224659   2.372   6.217   0.731
 6085SOL    HW324660   2.469   6.332   0.714
 6085SOL    MW424661   2.395   6.289   0.692
 6086SOL     OW24662   2.724   6.983   1.365
 6086SOL    HW224663   2.688   7.049   1.305
 6086SOL    HW324664   2.652   6.921   1.378
 6086SOL    MW424665   2.710   6.983   1.359
 6087SOL     OW24666   2.529   6.123   1.057
 6087SOL    HW224667   2.435   6.119   1.075
 6087SOL    HW324668   2.559   6.032   1.066
 6087SOL    MW424669   2.520   6.111   1.060
 6088SOL     OW24670   2.275   6.537   0.961
 6088SOL    HW224671   2.230   6.544   0.877
 6088SOL    HW324672   2.255   6.620   1.005
 6088SOL    MW424673   2.267   6.549   0.955
 6089SOL     OW24674   1.972   7.383   0.836
 6089SOL    HW224675   2.061   7.375   0.871
 6089SOL    HW324676   1.936   7.295   0.841
 6089SOL    MW424677   1.979   7.370   0.841
 6090SOL     OW24678   3.237   6.775   0.205
 6090SOL    HW224679   3.155   6.811   0.171
 6090SOL    HW324680   3.305   6.818   0.154
 6090SOL    MW424681   3.235   6.785   0.193
 6091SOL     OW24682   2.236   6.910   0.871
 6091SOL    HW224683   2.212   6.963   0.947
 6091SOL    HW324684   2.292   6.968   0.819
 6091SOL    MW424685   2.240   6.925   0.874
 6092SOL     OW24686   2.798   6.554   0.681
 6092SOL    HW224687   2.712   6.541   0.721
 6092SOL    HW324688   2.851   6.481   0.713
 6092SOL    MW424689   2.794   6.543   0.690
 6093SOL     OW24690   2.206   7.206   1.466
 6093SOL    HW224691   2.114   7.182   1.451
 6093SOL    HW324692   2.250   7.123   1.483
 6093SOL    MW424693   2.200   7.191   1.465
 6094SOL     OW24694   2.789   6.916   0.398
 6094SOL    HW224695   2.766   6.978   0.466
 6094SOL    HW324696   2.746   6.834   0.424
 6094SOL    MW424697   2.781   6.912   0.409
 6095SOL     OW24698   3.662   5.917   0.854
 6095SOL    HW224699   3.599   5.897   0.923
 6095SOL    HW324700   3.652   5.846   0.791
 6095SOL    MW424701   3.652   5.904   0.855
 6096SOL     OW24702   2.286   5.889   0.366
 6096SOL    HW224703   2.260   5.851   0.282
 6096SOL    HW324704   2.223   5.959   0.382
 6096SOL    MW424705   2.275   5.892   0.357
 6097SOL     OW24706   2.121   6.850   0.403
 6097SOL    HW224707   2.069   6.918   0.359
 6097SOL    HW324708   2.118   6.776   0.343
 6097SOL    MW424709   2.113   6.849   0.390
 6098SOL     OW24710   2.783   7.313   0.181
 6098SOL    HW224711   2.738   7.329   0.264
 6098SOL    HW324712   2.714   7.278   0.123
 6098SOL    MW424713   2.769   7.310   0.183
 6099SOL     OW24714   3.718   6.086   0.156
 6099SOL    HW224715   3.627   6.088   0.184
 6099SOL    HW324716   3.763   6.148   0.214
 6099SOL    MW424717   3.711   6.094   0.166
 6100SOL     OW24718   3.463   6.689   0.506
 6100SOL    HW224719   3.373   6.689   0.541
 6100SOL    HW324720   3.456   6.735   0.423
 6100SOL    MW424721   3.450   6.695   0.500
 6101SOL     OW24722   3.263   6.324   1.578
 6101SOL    HW224723   3.332   6.262   1.555
 6101SOL    HW324724   3.188   6.298   1.525
 6101SOL    MW424725   3.263   6.311   1.569
 6102SOL     OW24726   2.004   7.204   1.130
 6102SOL    HW224727   1.987   7.150   1.207
 6102SOL    HW324728   1.992   7.294   1.160
 6102SOL    MW424729   2.001   7.208   1.144
 6103SOL     OW24730   2.999   6.711   1.570
 6103SOL    HW224731   2.984   6.804   1.555
 6103SOL    HW324732   3.094   6.701   1.570
 6103SOL    MW424733   3.008   6.721   1.567
 6104SOL     OW24734   2.795   6.135   1.771
 6104SOL    HW224735   2.885   6.136   1.738
 6104SOL    HW324736   2.754   6.060   1.729
 6104SOL    MW424737   2.801   6.125   1.762
 6105SOL     OW24738   3.370   6.667   0.898
 6105SOL    HW224739   3.373   6.601   0.829
 6105SOL    HW324740   3.455   6.710   0.894
 6105SOL    MW424741   3.382   6.663   0.889
 6106SOL     OW24742   2.990   6.270   0.467
 6106SOL    HW224743   3.016   6.294   0.378
 6106SOL    HW324744   2.972   6.177   0.463
 6106SOL    MW424745   2.992   6.262   0.454
 6107SOL     OW24746   3.655   6.890   0.318
 6107SOL    HW224747   3.611   6.931   0.393
 6107SOL    HW324748   3.712   6.958   0.283
 6107SOL    MW424749   3.657   6.904   0.323
 6108SOL     OW24750   2.575   5.939   1.721
 6108SOL    HW224751   2.585   5.865   1.661
 6108SOL    HW324752   2.611   5.908   1.804
 6108SOL    MW424753   2.581   5.925   1.723
 6109SOL     OW24754   2.311   7.306   0.636
 6109SOL    HW224755   2.343   7.394   0.614
 6109SOL    HW324756   2.264   7.278   0.558
 6109SOL    MW424757   2.310   7.314   0.623
 6110SOL     OW24758   3.695   5.668   0.685
 6110SOL    HW224759   3.749   5.619   0.747
 6110SOL    HW324760   3.638   5.602   0.646
 6110SOL    MW424761   3.695   5.652   0.687
 6111SOL     OW24762   2.027   7.366   0.213
 6111SOL    HW224763   2.056   7.456   0.205
 6111SOL    HW324764   1.977   7.349   0.134
 6111SOL    MW424765   2.025   7.374   0.202
 6112SOL     OW24766   2.814   5.621   1.098
 6112SOL    HW224767   2.773   5.699   1.060
 6112SOL    HW324768   2.908   5.639   1.093
 6112SOL    MW424769   2.820   5.633   1.093
 6113SOL     OW24770   3.431   7.174   0.184
 6113SOL    HW224771   3.479   7.243   0.230
 6113SOL    HW324772   3.352   7.218   0.153
 6113SOL    MW424773   3.426   7.188   0.187
 6114SOL     OW24774   2.829   6.299   0.128
 6114SOL    HW224775   2.831   6.246   0.049
 6114SOL    HW324776   2.917   6.336   0.134
 6114SOL    MW424777   2.841   6.298   0.117
 6115SOL     OW24778   3.443   6.225   0.464
 6115SOL    HW224779   3.482   6.225   0.551
 6115SOL    HW324780   3.384   6.301   0.464
 6115SOL    MW424781   3.440   6.236   0.475
 6116SOL     OW24782   2.760   6.592   1.593
 6116SOL    HW224783   2.737   6.572   1.683
 6116SOL    HW324784   2.845   6.636   1.598
 6116SOL    MW424785   2.767   6.595   1.605
 6117SOL     OW24786   2.840   5.729   1.353
 6117SOL    HW224787   2.846   5.691   1.266
 6117SOL    HW324788   2.829   5.823   1.338
 6117SOL    MW424789   2.841   5.737   1.341
 6118SOL     OW24790   2.929   6.218   1.187
 6118SOL    HW224791   3.004   6.247   1.134
 6118SOL    HW324792   2.861   6.283   1.171
 6118SOL    MW424793   2.930   6.230   1.177
 6119SOL     OW24794   3.479   6.186   1.464
 6119SOL    HW224795   3.460   6.095   1.443
 6119SOL    HW324796   3.457   6.235   1.385
 6119SOL    MW424797   3.474   6.179   1.451
 6120SOL     OW24798   3.621   7.280   1.368
 6120SOL    HW224799   3.549   7.242   1.419
 6120SOL    HW324800   3.638   7.365   1.409
 6120SOL    MW424801   3.615   7.285   1.380
 6121SOL     OW24802   2.926   5.924   1.570
 6121SOL    HW224803   2.892   5.963   1.489
 6121SOL    HW324804   2.904   5.832   1.563
 6121SOL    MW424805   2.919   5.917   1.560
 6122SOL     OW24806   3.335   6.738   1.646
 6122SOL    HW224807   3.417   6.779   1.676
 6122SOL    HW324808   3.298   6.700   1.726
 6122SOL    MW424809   3.341   6.739   1.661
 6123SOL     OW24810   3.630   6.111   0.630
 6123SOL    HW224811   3.719   6.080   0.647
 6123SOL    HW324812   3.573   6.051   0.678
 6123SOL    MW424813   3.633   6.099   0.639
 6124SOL     OW24814   2.056   5.825   0.659
 6124SOL    HW224815   2.047   5.765   0.585
 6124SOL    HW324816   1.989   5.796   0.722
 6124SOL    MW424817   2.046   5.812   0.657
 6125SOL     OW24818   2.999   6.918   0.220
 6125SOL    HW224819   2.949   6.920   0.302
 6125SOL    HW324820   2.933   6.936   0.152
 6125SOL    MW424821   2.985   6.920   0.222
 6126SOL     OW24822   2.003   5.998   1.022
 6126SOL    HW224823   1.975   6.089   1.031
 6126SOL    HW324824   1.940   5.959   0.961
 6126SOL    MW424825   1.990   6.004   1.016
 6127SOL     OW24826   2.462   7.336   0.328
 6127SOL    HW224827   2.383   7.294   0.361
 6127SOL    HW324828   2.528   7.319   0.395
 6127SOL    MW424829   2.461   7.328   0.341
 6128SOL     OW24830   3.590   6.856   1.725
 6128SOL    HW224831   3.640   6.782   1.757
 6128SOL    HW324832   3.536   6.883   1.800
 6128SOL    MW424833   3.590   6.850   1.738
 6129SOL     OW24834   2.598   6.751   0.035
 6129SOL    HW224835   2.520   6.697   0.022
 6129SOL    HW324836   2.569   6.824   0.088
 6129SOL    MW424837   2.584   6.753   0.040
 6130SOL     OW24838   3.724   6.491   1.227
 6130SOL    HW224839   3.740   6.529   1.140
 6130SOL    HW324840   3.758   6.557   1.288
 6130SOL    MW424841   3.731   6.504   1.223
 6131SOL     OW24842   3.516   7.200   0.896
 6131SOL    HW224843   3.545   7.267   0.957
 6131SOL    HW324844   3.497   7.124   0.951
 6131SOL    MW424845   3.518   7.200   0.911
 6132SOL     OW24846   3.179   7.267   0.103
 6132SOL    HW224847   3.105   7.230   0.153
 6132SOL    HW324848   3.187   7.357   0.136
 6132SOL    MW424849   3.170   7.274   0.115
 6133SOL     OW24850   1.987   6.273   1.192
 6133SOL    HW224851   2.049   6.303   1.258
 6133SOL    HW324852   1.921   6.342   1.186
 6133SOL    MW424853   1.986   6.286   1.199
 6134SOL     OW24854   3.403   6.941   0.045
 6134SOL    HW224855   3.350   6.990  -0.019
 6134SOL    HW324856   3.434   7.007   0.106
 6134SOL    MW424857   3.401   6.955   0.043
 6135SOL     OW24858   2.628   5.830   0.100
 6135SOL    HW224859   2.576   5.750   0.088
 6135SOL    HW324860   2.715   5.807   0.068
 6135SOL    MW424861   2.631   5.816   0.094
 6136SOL     OW24862   2.082   7.382   1.644
 6136SOL    HW224863   2.056   7.450   1.582
 6136SOL    HW324864   2.130   7.319   1.592
 6136SOL    MW424865   2.084   7.382   1.630
 6137SOL     OW24866   2.134   6.701   1.151
 6137SOL    HW224867   2.187   6.776   1.176
 6137SOL    HW324868   2.053   6.739   1.117
 6137SOL    MW424869   2.130   6.716   1.151
 6138SOL     OW24870   2.674   6.605   1.139
 6138SOL    HW224871   2.702   6.514   1.151
 6138SOL    HW324872   2.603   6.599   1.075
 6138SOL    MW424873   2.667   6.593   1.134
 6139SOL     OW24874   1.989   6.470   0.557
 6139SOL    HW224875   2.080   6.485   0.584
 6139SOL    HW324876   1.992   6.391   0.503
 6139SOL    MW424877   2.001   6.462   0.555
 6140SOL     OW24878   2.225   6.178   1.811
 6140SOL    HW224879   2.172   6.258   1.818
 6140SOL    HW324880   2.295   6.190   1.876
 6140SOL    MW424881   2.227   6.191   1.819
 6141SOL     OW24882   2.611   5.728   1.518
 6141SOL    HW224883   2.588   5.636   1.520
 6141SOL    HW324884   2.697   5.730   1.475
 6141SOL    MW424885   2.618   5.718   1.514
 6142SOL     OW24886   2.295   6.252   1.557
 6142SOL    HW224887   2.375   6.302   1.543
 6142SOL    HW324888   2.286   6.246   1.652
 6142SOL    MW424889   2.304   6.258   1.567
 6143SOL     OW24890   2.616   7.402   0.931
 6143SOL    HW224891   2.705   7.417   0.961
 6143SOL    HW324892   2.611   7.449   0.847
 6143SOL    MW424893   2.626   7.410   0.924
 6144SOL     OW24894   3.272   5.777   1.828
 6144SOL    HW224895   3.328   5.704   1.854
 6144SOL    HW324896   3.242   5.815   1.910
 6144SOL    MW424897   3.276   5.772   1.841
 6145SOL     OW24898   1.997   7.082   0.596
 6145SOL    HW224899   1.969   7.121   0.678
 6145SOL    HW324900   2.017   6.991   0.618
 6145SOL    MW424901   1.995   7.074   0.609
 6146SOL     OW24902   2.830   7.125   0.631
 6146SOL    HW224903   2.913   7.079   0.615
 6146SOL    HW324904   2.820   7.124   0.727
 6146SOL    MW424905   2.840   7.118   0.641
 6147SOL     OW24906   3.662   6.270   0.945
 6147SOL    HW224907   3.751   6.300   0.927
 6147SOL    HW324908   3.642   6.210   0.874
 6147SOL    MW424909   3.671   6.267   0.934
 6148SOL     OW24910   3.513   6.449   1.825
 6148SOL    HW224911   3.568   6.373   1.806
 6148SOL    HW324912   3.515   6.457   1.920
 6148SOL    MW424913   3.521   6.440   1.833
 6149SOL     OW24914   2.563   7.182   0.036
 6149SOL    HW224915   2.503   7.251   0.006
 6149SOL    HW324916   2.508   7.124   0.089
 6149SOL    MW424917   2.547   7.184   0.038
 6150SOL     OW24918   3.001   5.827   0.259
 6150SOL    HW224919   2.934   5.803   0.196
 6150SOL    HW324920   3.066   5.876   0.208
 6150SOL    MW424921   3.001   5.829   0.244
 6151SOL     OW24922   2.808   6.011   1.344
 6151SOL    HW224923   2.727   6.052   1.372
 6151SOL    HW324924   2.855   6.079   1.296
 6151SOL    MW424925   2.803   6.026   1.342
 6152SOL     OW24926   3.068   6.349   0.967
 6152SOL    HW224927   3.081   6.443   0.977
 6152SOL    HW324928   3.029   6.339   0.881
 6152SOL    MW424929   3.064   6.360   0.957
 6153SOL     OW24930   2.520   6.544   0.771
 6153SOL    HW224931   2.431   6.535   0.804
 6153SOL    HW324932   2.524   6.634   0.739
 6153SOL    MW424933   2.509   6.555   0.771
 6154SOL     OW24934   3.319   6.127   0.766
 6154SOL    HW224935   3.264   6.048   0.765
 6154SOL    HW324936   3.301   6.168   0.850
 6154SOL    MW424937   3.309   6.122   0.775
 6155SOL     OW24938   2.290   5.814   1.583
 6155SOL    HW224939   2.211   5.832   1.635
 6155SOL    HW324940   2.285   5.876   1.510
 6155SOL    MW424941   2.280   5.824   1.580
 6156SOL     OW24942   2.938   6.331   0.723
 6156SOL    HW224943   2.875   6.263   0.747
 6156SOL    HW324944   2.958   6.312   0.631
 6156SOL    MW424945   2.932   6.318   0.715
 6157SOL     OW24946   2.194   7.226   0.425
 6157SOL    HW224947   2.155   7.273   0.351
 6157SOL    HW324948   2.128   7.161   0.450
 6157SOL    MW424949   2.181   7.224   0.419
 6158SOL     OW24950   2.686   6.635   0.449
 6158SOL    HW224951   2.688   6.609   0.356
 6158SOL    HW324952   2.744   6.572   0.492
 6158SOL    MW424953   2.694   6.624   0.443
 6159SOL     OW24954   3.239   7.195   1.221
 6159SOL    HW224955   3.164   7.241   1.259
 6159SOL    HW324956   3.221   7.102   1.238
 6159SOL    MW424957   3.228   7.189   1.229
 6160SOL     OW24958   3.243   7.403   0.651
 6160SOL    HW224959   3.186   7.356   0.590
 6160SOL    HW324960   3.329   7.364   0.638
 6160SOL    MW424961   3.246   7.394   0.641
 6161SOL     OW24962   3.196   5.879   0.782
 6161SOL    HW224963   3.224   5.811   0.843
 6161SOL    HW324964   3.110   5.850   0.752
 6161SOL    MW424965   3.189   5.866   0.786
 6162SOL     OW24966   2.001   6.813   0.716
 6162SOL    HW224967   2.065   6.845   0.779
 6162SOL    HW324968   2.050   6.749   0.664
 6162SOL    MW424969   2.016   6.809   0.717
 6163SOL     OW24970   2.501   6.889   1.698
 6163SOL    HW224971   2.549   6.972   1.685
 6163SOL    HW324972   2.558   6.837   1.754
 6163SOL    MW424973   2.515   6.893   1.704
 6164SOL     OW24974   2.077   7.131   1.838
 6164SOL    HW224975   2.133   7.055   1.853
 6164SOL    HW324976   2.026   7.109   1.760
 6164SOL    MW424977   2.077   7.118   1.829
 6165SOL     OW24978   3.176   5.983   0.117
 6165SOL    HW224979   3.149   6.049   0.053
 6165SOL    HW324980   3.246   6.026   0.167
 6165SOL    MW424981   3.181   5.996   0.114
 6166SOL     OW24982   2.844   5.688   0.054
 6166SOL    HW224983   2.900   5.680  -0.024
 6166SOL    HW324984   2.821   5.598   0.076
 6166SOL    MW424985   2.849   5.675   0.047
 6167SOL     OW24986   3.349   6.539   0.259
 6167SOL    HW224987   3.316   6.628   0.249
 6167SOL    HW324988   3.314   6.510   0.344
 6167SOL    MW424989   3.339   6.548   0.270
 6168SOL     OW24990   2.962   6.968   1.447
 6168SOL    HW224991   2.873   6.974   1.415
 6168SOL    HW324992   3.006   7.047   1.415
 6168SOL    MW424993   2.957   6.978   1.439
 6169SOL     OW24994   2.255   5.636   1.789
 6169SOL    HW224995   2.183   5.601   1.737
 6169SOL    HW324996   2.313   5.677   1.724
 6169SOL    MW424997   2.253   5.637   1.774
 6170SOL     OW24998   2.279   7.126   1.088
 6170SOL    HW224999   2.324   7.188   1.145
 6170SOL    HW325000   2.186   7.145   1.101
 6170SOL    MW425001   2.272   7.136   1.095
 6171SOL     OW25002   3.719   6.655   1.442
 6171SOL    HW225003   3.634   6.668   1.401
 6171SOL    HW325004   3.699   6.619   1.529
 6171SOL    MW425005   3.706   6.651   1.447
 6172SOL     OW25006   2.701   7.194   1.196
 6172SOL    HW225007   2.725   7.183   1.105
 6172SOL    HW325008   2.624   7.251   1.194
 6172SOL    MW425009   2.693   7.199   1.185
 6173SOL     OW25010   2.343   6.577   0.051
 6173SOL    HW225011   2.266   6.590   0.107
 6173SOL    HW325012   2.307   6.541  -0.030
 6173SOL    MW425013   2.329   6.573   0.048
 6174SOL     OW25014   2.996   6.550   0.294
 6174SOL    HW225015   2.906   6.571   0.269
 6174SOL    HW325016   3.023   6.623   0.350
 6174SOL    MW425017   2.988   6.562   0.297
 6175SOL     OW25018   2.496   6.899   0.986
 6175SOL    HW225019   2.489   6.878   1.080
 6175SOL    HW325020   2.414   6.867   0.949
 6175SOL    MW425021   2.484   6.893   0.993
 6176SOL     OW25022   3.360   5.909   1.388
 6176SOL    HW225023   3.307   5.911   1.468
 6176SOL    HW325024   3.345   5.822   1.351
 6176SOL    MW425025   3.352   5.899   1.393
 6177SOL     OW25026   3.696   5.833   1.261
 6177SOL    HW225027   3.677   5.900   1.196
 6177SOL    HW325028   3.753   5.771   1.216
 6177SOL    MW425029   3.700   5.834   1.247
 6178SOL     OW25030   1.942   6.991   1.649
 6178SOL    HW225031   1.986   6.924   1.595
 6178SOL    HW325032   1.857   6.953   1.669
 6178SOL    MW425033   1.937   6.977   1.645
 6179SOL     OW25034   2.625   5.666   0.701
 6179SOL    HW225035   2.554   5.727   0.683
 6179SOL    HW325036   2.676   5.663   0.620
 6179SOL    MW425037   2.621   5.672   0.688
 6180SOL     OW25038   2.383   6.906   0.450
 6180SOL    HW225039   2.376   6.938   0.540
 6180SOL    HW325040   2.293   6.890   0.422
 6180SOL    MW425041   2.371   6.908   0.457
 6181SOL     OW25042   2.978   7.299   1.359
 6181SOL    HW225043   2.898   7.284   1.309
 6181SOL    HW325044   2.985   7.394   1.366
 6181SOL    MW425045   2.969   7.310   1.353
 6182SOL     OW25046   3.092   7.264   0.849
 6182SOL    HW225047   3.139   7.337   0.808
 6182SOL    HW325048   3.013   7.303   0.885
 6182SOL    MW425049   3.087   7.279   0.848
 6183SOL     OW25050   3.500   7.359   1.124
 6183SOL    HW225051   3.543   7.329   1.204
 6183SOL    HW325052   3.419   7.307   1.121
 6183SOL    MW425053   3.495   7.348   1.134
 6184SOL     OW25054   2.585   6.323   1.831
 6184SOL    HW225055   2.655   6.265   1.803
 6184SOL    HW325056   2.528   6.268   1.886
 6184SOL    MW425057   2.587   6.310   1.835
 6185SOL     OW25058   3.372   6.535   1.464
 6185SOL    HW225059   3.377   6.588   1.544
 6185SOL    HW325060   3.334   6.452   1.492
 6185SOL    MW425061   3.368   6.530   1.479
 6186SOL     OW25062   3.012   5.670   1.710
 6186SOL    HW225063   3.007   5.577   1.691
 6186SOL    HW325064   3.095   5.681   1.756
 6186SOL    MW425065   3.020   5.659   1.714
 6187SOL     OW25066   2.386   6.190   0.164
 6187SOL    HW225067   2.352   6.246   0.234
 6187SOL    HW325068   2.457   6.140   0.204
 6187SOL    MW425069   2.392   6.191   0.178
 6188SOL     OW25070   3.482   6.941   0.986
 6188SOL    HW225071   3.517   6.923   0.899
 6188SOL    HW325072   3.387   6.942   0.973
 6188SOL    MW425073   3.474   6.938   0.973
 6189SOL     OW25074   2.911   6.589   1.355
 6189SOL    HW225075   2.954   6.624   1.433
 6189SOL    HW325076   2.894   6.666   1.301
 6189SOL    MW425077   2.914   6.604   1.358
 6190SOL     OW25078   3.442   6.076   0.228
 6190SOL    HW225079   3.434   6.147   0.165
 6190SOL    HW325080   3.460   6.120   0.311
 6190SOL    MW425081   3.443   6.090   0.230
 6191SOL     OW25082   2.302   5.731   0.657
 6191SOL    HW225083   2.352   5.774   0.588
 6191SOL    HW325084   2.217   5.775   0.657
 6191SOL    MW425085   2.299   5.744   0.648
 6192SOL     OW25086   2.061   6.793   1.517
 6192SOL    HW225087   2.089   6.746   1.595
 6192SOL    HW325088   1.982   6.748   1.488
 6192SOL    MW425089   2.054   6.782   1.523
 6193SOL     OW25090   2.569   6.120   1.484
 6193SOL    HW225091   2.541   6.208   1.508
 6193SOL    HW325092   2.538   6.064   1.555
 6193SOL    MW425093   2.561   6.123   1.496
 6194SOL     OW25094   3.111   6.338   0.203
 6194SOL    HW225095   3.158   6.356   0.122
 6194SOL    HW325096   3.077   6.422   0.231
 6194SOL    MW425097   3.113   6.352   0.196
 6195SOL     OW25098   2.224   6.516   0.697
 6195SOL    HW225099   2.282   6.572   0.645
 6195SOL    HW325100   2.268   6.431   0.699
 6195SOL    MW425101   2.237   6.513   0.690
 6196SOL     OW25102   3.364   5.868   0.534
 6196SOL    HW225103   3.286   5.818   0.559
 6196SOL    HW325104   3.335   5.959   0.534
 6196SOL    MW425105   3.350   5.872   0.537
 6197SOL     OW25106   2.950   5.830   0.693
 6197SOL    HW225107   2.970   5.905   0.637
 6197SOL    HW325108   2.930   5.869   0.778
 6197SOL    MW425109   2.951   5.846   0.697
 6198SOL     OW25110   2.846   7.080   0.025
 6198SOL    HW225111   2.873   7.158  -0.023
 6198SOL    HW325112   2.753   7.095   0.044
 6198SOL    MW425113   2.837   7.093   0.021
 6199SOL     OW25114   3.710   6.603   1.712
 6199SOL    HW225115   3.623   6.583   1.748
 6199SOL    HW325116   3.764   6.529   1.737
 6199SOL    MW425117   3.705   6.592   1.720
 6200SOL     OW25118   1.931   7.116   0.869
 6200SOL    HW225119   1.963   7.120   0.960
 6200SOL    HW325120   1.836   7.124   0.877
 6200SOL    MW425121   1.923   7.119   0.882
 6201SOL     OW25122   1.886   6.242   0.416
 6201SOL    HW225123   1.826   6.214   0.486
 6201SOL    HW325124   1.960   6.182   0.422
 6201SOL    MW425125   1.888   6.231   0.425
 6202SOL     OW25126   3.454   7.454   1.850
 6202SOL    HW225127   3.499   7.378   1.815
 6202SOL    HW325128   3.492   7.467   1.937
 6202SOL    MW425129   3.464   7.447   1.856
 6203SOL     OW25130   3.054   6.973   0.576
 6203SOL    HW225131   3.077   6.924   0.654
 6203SOL    HW325132   3.135   7.015   0.548
 6203SOL    MW425133   3.067   6.973   0.583
 6204SOL     OW25134   2.312   5.981   1.305
 6204SOL    HW225135   2.345   6.062   1.345
 6204SOL    HW325136   2.285   6.007   1.217
 6204SOL    MW425137   2.311   5.995   1.299
 6205SOL     OW25138   2.266   5.948   1.041
 6205SOL    HW225139   2.296   5.862   1.012
 6205SOL    HW325140   2.171   5.941   1.044
 6205SOL    MW425141   2.258   5.937   1.039
 6206SOL     OW25142   3.095   6.157   1.732
 6206SOL    HW225143   3.147   6.092   1.685
 6206SOL    HW325144   3.053   6.208   1.662
 6206SOL    MW425145   3.096   6.154   1.715
 6207SOL     OW25146   3.194   5.952   1.593
 6207SOL    HW225147   3.101   5.936   1.580
 6207SOL    HW325148   3.220   5.890   1.661
 6207SOL    MW425149   3.184   5.942   1.600
 6208SOL     OW25150   2.409   5.726   0.932
 6208SOL    HW225151   2.419   5.635   0.958
 6208SOL    HW325152   2.365   5.722   0.847
 6208SOL    MW425153   2.405   5.714   0.924
 6209SOL     OW25154   2.503   7.341   1.478
 6209SOL    HW225155   2.420   7.326   1.523
 6209SOL    HW325156   2.562   7.274   1.513
 6209SOL    MW425157   2.501   7.331   1.488
 6210SOL     OW25158   3.560   6.048   1.103
 6210SOL    HW225159   3.493   6.081   1.163
 6210SOL    HW325160   3.603   6.126   1.069
 6210SOL    MW425161   3.558   6.063   1.107
 6211SOL     OW25162   3.738   6.768   1.073
 6211SOL    HW225163   3.731   6.708   0.998
 6211SOL    HW325164   3.664   6.828   1.062
 6211SOL    MW425165   3.728   6.768   1.062
 6212SOL     OW25166   3.120   6.630   0.991
 6212SOL    HW225167   3.134   6.602   1.082
 6212SOL    HW325168   3.206   6.661   0.963
 6212SOL    MW425169   3.133   6.631   1.000
 6213SOL     OW25170   3.203   6.125   1.270
 6213SOL    HW225171   3.224   6.126   1.177
 6213SOL    HW325172   3.248   6.047   1.303
 6213SOL    MW425173   3.210   6.115   1.262
 6214SOL     OW25174   3.696   6.256   1.812
 6214SOL    HW225175   3.733   6.201   1.881
 6214SOL    HW325176   3.721   6.213   1.730
 6214SOL    MW425177   3.703   6.244   1.811
 6215SOL     OW25178   3.243   6.554   1.863
 6215SOL    HW225179   3.309   6.502   1.817
 6215SOL    HW325180   3.263   6.541   1.956
 6215SOL    MW425181   3.254   6.545   1.870
 6216SOL     OW25182   3.194   5.640   0.212
 6216SOL    HW225183   3.268   5.684   0.255
 6216SOL    HW325184   3.118   5.694   0.234
 6216SOL    MW425185   3.194   5.652   0.220
 6217SOL     OW25186   3.254   6.415   0.490
 6217SOL    HW225187   3.169   6.385   0.460
 6217SOL    HW325188   3.246   6.422   0.585
 6217SOL    MW425189   3.242   6.413   0.499
 6218SOL     OW25190   2.330   6.878   1.221
 6218SOL    HW225191   2.342   6.905   1.312
 6218SOL    HW325192   2.311   6.959   1.174
 6218SOL    MW425193   2.329   6.893   1.226
 6219SOL     OW25194   2.614   5.858   1.044
 6219SOL    HW225195   2.587   5.860   1.135
 6219SOL    HW325196   2.544   5.810   0.999
 6219SOL    MW425197   2.602   5.854   1.051
 6220SOL     OW25198   2.468   7.350   1.206
 6220SOL    HW225199   2.520   7.427   1.183
 6220SOL    HW325200   2.477   7.342   1.301
 6220SOL    MW425201   2.477   7.357   1.217
 6221SOL     OW25202   3.370   6.935   1.438
 6221SOL    HW225203   3.355   6.864   1.501
 6221SOL    HW325204   3.416   6.893   1.366
 6221SOL    MW425205   3.376   6.919   1.438
 6222SOL     OW25206   2.444   6.666   1.555
 6222SOL    HW225207   2.481   6.671   1.467
 6222SOL    HW325208   2.483   6.739   1.602
 6222SOL    MW425209   2.454   6.676   1.550
 6223SOL     OW25210   2.624   6.709   1.367
 6223SOL    HW225211   2.683   6.655   1.420
 6223SOL    HW325212   2.639   6.681   1.277
 6223SOL    MW425213   2.634   6.698   1.363
 6224SOL     OW25214   2.627   6.081   0.216
 6224SOL    HW225215   2.700   6.130   0.179
 6224SOL    HW325216   2.643   5.990   0.190
 6224SOL    MW425217   2.639   6.076   0.209
 6225SOL     OW25218   3.435   7.198   1.539
 6225SOL    HW225219   3.477   7.183   1.624
 6225SOL    HW325220   3.426   7.111   1.501
 6225SOL    MW425221   3.439   7.186   1.546
 6226SOL     OW25222   3.095   5.677   1.130
 6226SOL    HW225223   3.150   5.686   1.052
 6226SOL    HW325224   3.150   5.711   1.201
 6226SOL    MW425225   3.109   5.682   1.129
 6227SOL     OW25226   2.102   6.590   0.314
 6227SOL    HW225227   2.039   6.606   0.243
 6227SOL    HW325228   2.049   6.553   0.385
 6227SOL    MW425229   2.087   6.587   0.314
 6228SOL     OW25230   2.458   6.944   0.173
 6228SOL    HW225231   2.473   6.920   0.265
 6228SOL    HW325232   2.366   6.922   0.157
 6228SOL    MW425233   2.448   6.937   0.183
 6229SOL     OW25234   2.997   7.175   0.325
 6229SOL    HW225235   3.005   7.093   0.276
 6229SOL    HW325236   2.916   7.214   0.292
 6229SOL    MW425237   2.987   7.170   0.315
 6230SOL     OW25238   2.256   7.333   0.894
 6230SOL    HW225239   2.260   7.244   0.929
 6230SOL    HW325240   2.282   7.324   0.803
 6230SOL    MW425241   2.259   7.321   0.886
 6231SOL     OW25242   2.873   6.811   1.137
 6231SOL    HW225243   2.805   6.745   1.153
 6231SOL    HW325244   2.891   6.805   1.044
 6231SOL    MW425245   2.866   6.802   1.128
 6232SOL     OW25246   1.962   7.086   1.388
 6232SOL    HW225247   1.952   7.044   1.474
 6232SOL    HW325248   1.883   7.139   1.378
 6232SOL    MW425249   1.951   7.087   1.399
 6233SOL     OW25250   2.866   5.950   0.958
 6233SOL    HW225251   2.796   5.902   1.003
 6233SOL    HW325252   2.898   6.013   1.022
 6233SOL    MW425253   2.861   5.952   0.972
 6234SOL     OW25254   2.517   6.386   1.578
 6234SOL    HW225255   2.510   6.481   1.566
 6234SOL    HW325256   2.526   6.375   1.673
 6234SOL    MW425257   2.518   6.398   1.588
 6235SOL     OW25258   2.238   6.901   1.836
 6235SOL    HW225259   2.310   6.903   1.773
 6235SOL    HW325260   2.208   6.810   1.835
 6235SOL    MW425261   2.243   6.890   1.828
 6236SOL     OW25262   3.322   5.664   1.303
 6236SOL    HW225263   3.393   5.610   1.267
 6236SOL    HW325264   3.321   5.643   1.396
 6236SOL    MW425265   3.331   5.655   1.311
 6237SOL     OW25266   3.522   7.194   1.787
 6237SOL    HW225267   3.495   7.191   1.878
 6237SOL    HW325268   3.618   7.198   1.790
 6237SOL    MW425269   3.532   7.194   1.799
 6238SOL     OW25270   2.333   6.056   0.771
 6238SOL    HW225271   2.404   6.004   0.734
 6238SOL    HW325272   2.319   6.021   0.858
 6238SOL    MW425273   2.341   6.045   0.778
 6239SOL     OW25274   1.888   7.391   1.843
 6239SOL    HW225275   1.938   7.369   1.765
 6239SOL    HW325276   1.896   7.486   1.851
 6239SOL    MW425277   1.896   7.400   1.834
 6240SOL     OW25278   2.649   7.149   0.847
 6240SOL    HW225279   2.577   7.086   0.860
 6240SOL    HW325280   2.610   7.234   0.865
 6240SOL    MW425281   2.633   7.152   0.850
 6241SOL     OW25282   2.969   5.997   0.495
 6241SOL    HW225283   2.991   5.934   0.427
 6241SOL    HW325284   2.874   5.989   0.506
 6241SOL    MW425285   2.959   5.988   0.487
 6242SOL     OW25286   2.054   5.687   0.427
 6242SOL    HW225287   2.125   5.708   0.366
 6242SOL    HW325288   2.008   5.615   0.385
 6242SOL    MW425289   2.058   5.681   0.413
 6243SOL     OW25290   1.885   6.154   1.570
 6243SOL    HW225291   1.949   6.220   1.545
 6243SOL    HW325292   1.804   6.181   1.527
 6243SOL    MW425293   1.883   6.166   1.562
 6244SOL     OW25294   3.623   7.061   0.527
 6244SOL    HW225295   3.593   6.994   0.588
 6244SOL    HW325296   3.717   7.067   0.541
 6244SOL    MW425297   3.631   7.053   0.537
 6245SOL     OW25298   3.179   6.738   0.457
 6245SOL    HW225299   3.151   6.824   0.490
 6245SOL    HW325300   3.207   6.754   0.367
 6245SOL    MW425301   3.179   6.752   0.449
 6246SOL     OW25302   2.841   5.658   0.510
 6246SOL    HW225303   2.878   5.717   0.575
 6246SOL    HW325304   2.818   5.714   0.436
 6246SOL    MW425305   2.842   5.673   0.509
 6247SOL     OW25306   3.694   6.540   0.932
 6247SOL    HW225307   3.685   6.572   0.843
 6247SOL    HW325308   3.647   6.456   0.932
 6247SOL    MW425309   3.687   6.533   0.922
 6248SOL     OW25310   2.070   6.380   1.511
 6248SOL    HW225311   2.091   6.449   1.449
 6248SOL    HW325312   2.150   6.327   1.516
 6248SOL    MW425313   2.083   6.381   1.505
 6249SOL     OW25314   3.606   6.471   0.633
 6249SOL    HW225315   3.700   6.460   0.621
 6249SOL    HW325316   3.582   6.543   0.574
 6249SOL    MW425317   3.616   6.479   0.624
 6250SOL     OW25318   2.055   6.395   1.778
 6250SOL    HW225319   1.981   6.339   1.804
 6250SOL    HW325320   2.050   6.398   1.683
 6250SOL    MW425321   2.044   6.388   1.768
 6251SOL     OW25322   2.221   5.682   1.228
 6251SOL    HW225323   2.264   5.766   1.248
 6251SOL    HW325324   2.294   5.620   1.221
 6251SOL    MW425325   2.236   5.685   1.229
 6252SOL     OW25326   2.262   6.349   0.406
 6252SOL    HW225327   2.262   6.444   0.391
 6252SOL    HW325328   2.339   6.333   0.460
 6252SOL    MW425329   2.272   6.360   0.411
 6253SOL     OW25330   3.038   6.208   1.470
 6253SOL    HW225331   3.074   6.181   1.386
 6253SOL    HW325332   2.951   6.242   1.449
 6253SOL    MW425333   3.032   6.209   1.457
 6254SOL     OW25334   2.021   6.080   0.695
 6254SOL    HW225335   2.083   6.087   0.768
 6254SOL    HW325336   2.021   5.987   0.672
 6254SOL    MW425337   2.029   6.069   0.702
 6255SOL     OW25338   3.568   7.420   0.227
 6255SOL    HW225339   3.635   7.453   0.167
 6255SOL    HW325340   3.525   7.499   0.261
 6255SOL    MW425341   3.570   7.435   0.223
 6256SOL     OW25342   2.703   6.341   1.179
 6256SOL    HW225343   2.661   6.259   1.155
 6256SOL    HW325344   2.704   6.340   1.275
 6256SOL    MW425345   2.696   6.330   1.188
 6257SOL     OW25346   3.374   7.474   1.578
 6257SOL    HW225347   3.377   7.380   1.561
 6257SOL    HW325348   3.397   7.482   1.670
 6257SOL    MW425349   3.377   7.462   1.588
 6258SOL     OW25350   2.507   5.811   1.284
 6258SOL    HW225351   2.438   5.874   1.305
 6258SOL    HW325352   2.534   5.775   1.369
 6258SOL    MW425353   2.501   5.814   1.297
 6259SOL     OW25354   1.890   6.652   0.153
 6259SOL    HW225355   1.859   6.717   0.216
 6259SOL    HW325356   1.839   6.574   0.172
 6259SOL    MW425357   1.880   6.649   0.163
 6260SOL     OW25358   3.302   5.664   0.901
 6260SOL    HW225359   3.390   5.673   0.938
 6260SOL    HW325360   3.312   5.605   0.827
 6260SOL    MW425361   3.316   5.658   0.895
 6261SOL     OW25362   3.334   6.403   0.745
 6261SOL    HW225363   3.414   6.418   0.694
 6261SOL    HW325364   3.327   6.308   0.751
 6261SOL    MW425365   3.343   6.392   0.740
 6262SOL     OW25366   2.474   7.452   0.095
 6262SOL    HW225367   2.379   7.452   0.087
 6262SOL    HW325368   2.490   7.398   0.173
 6262SOL    MW425369   2.464   7.446   0.104
 6263SOL     OW25370   2.784   6.329   1.442
 6263SOL    HW225371   2.853   6.396   1.439
 6263SOL    HW325372   2.717   6.367   1.498
 6263SOL    MW425373   2.785   6.342   1.449
 6264SOL     OW25374   2.202   6.629   1.690
 6264SOL    HW225375   2.156   6.545   1.692
 6264SOL    HW325376   2.259   6.623   1.614
 6264SOL    MW425377   2.204   6.617   1.682
 6265SOL     OW25378   3.319   6.272   0.011
 6265SOL    HW225379   3.247   6.248  -0.047
 6265SOL    HW325380   3.385   6.309  -0.047
 6265SOL    MW425381   3.318   6.274  -0.004
 6266SOL     OW25382   2.453   7.004   0.691
 6266SOL    HW225383   2.518   6.937   0.712
 6266SOL    HW325384   2.505   7.081   0.668
 6266SOL    MW425385   2.468   7.006   0.690
 6267SOL     OW25386   2.714   6.169   0.821
 6267SOL    HW225387   2.654   6.187   0.893
 6267SOL    HW325388   2.748   6.081   0.840
 6267SOL    MW425389   2.710   6.159   0.834
 6268SOL     OW25390   3.655   5.668   1.490
 6268SOL    HW225391   3.576   5.714   1.518
 6268SOL    HW325392   3.690   5.722   1.419
 6268SOL    MW425393   3.649   5.681   1.484
 6269SOL     OW25394   2.939   6.752   0.840
 6269SOL    HW225395   3.031   6.733   0.858
 6269SOL    HW325396   2.912   6.682   0.780
 6269SOL    MW425397   2.947   6.740   0.834
 6270SOL     OW25398   2.732   6.572   0.195
 6270SOL    HW225399   2.718   6.484   0.160
 6270SOL    HW325400   2.683   6.629   0.136
 6270SOL    MW425401   2.724   6.567   0.183
 6271SOL     OW25402   3.213   6.990   0.936
 6271SOL    HW225403   3.186   7.074   0.901
 6271SOL    HW325404   3.173   6.985   1.023
 6271SOL    MW425405   3.206   6.999   0.942
 6272SOL     OW25406   3.132   6.938   1.204
 6272SOL    HW225407   3.143   6.905   1.293
 6272SOL    HW325408   3.051   6.897   1.173
 6272SOL    MW425409   3.122   6.930   1.210
 6273SOL     OW25410   2.145   6.296   0.974
 6273SOL    HW225411   2.095   6.295   1.055
 6273SOL    HW325412   2.165   6.388   0.958
 6273SOL    MW425413   2.141   6.308   0.982
 6274SOL     OW25414   3.212   7.060   1.736
 6274SOL    HW225415   3.212   7.154   1.752
 6274SOL    HW325416   3.257   7.050   1.652
 6274SOL    MW425417   3.218   7.070   1.727
 6275SOL     OW25418   3.451   5.778   0.297
 6275SOL    HW225419   3.444   5.782   0.392
 6275SOL    HW325420   3.463   5.869   0.270
 6275SOL    MW425421   3.452   5.791   0.305
 6276SOL     OW25422   2.740   6.341   0.411
 6276SOL    HW225423   2.720   6.327   0.318
 6276SOL    HW325424   2.833   6.320   0.418
 6276SOL    MW425425   2.750   6.336   0.400
 6277SOL     OW25426   2.067   5.964   1.715
 6277SOL    HW225427   2.024   6.023   1.652
 6277SOL    HW325428   2.135   6.019   1.755
 6277SOL    MW425429   2.071   5.979   1.712
 6278SOL     OW25430   3.179   6.584   1.260
 6278SOL    HW225431   3.242   6.581   1.333
 6278SOL    HW325432   3.095   6.602   1.302
 6278SOL    MW425433   3.175   6.586   1.275
 6279SOL     OW25434   2.723   7.299   0.449
 6279SOL    HW225435   2.781   7.370   0.476
 6279SOL    HW325436   2.746   7.227   0.507
 6279SOL    MW425437   2.734   7.299   0.460
 6280SOL     OW25438   3.518   5.761   1.039
 6280SOL    HW225439   3.563   5.679   1.058
 6280SOL    HW325440   3.538   5.817   1.115
 6280SOL    MW425441   3.528   5.757   1.051
 6281SOL     OW25442   1.966   5.604   1.138
 6281SOL    HW225443   1.957   5.605   1.043
 6281SOL    HW325444   2.060   5.616   1.153
 6281SOL    MW425445   1.978   5.607   1.129
 6282SOL     OW25446   3.603   6.797   0.758
 6282SOL    HW225447   3.582   6.743   0.681
 6282SOL    HW325448   3.699   6.795   0.762
 6282SOL    MW425449   3.612   6.790   0.747
 6283SOL     OW25450   2.295   6.942   1.501
 6283SOL    HW225451   2.216   6.892   1.524
 6283SOL    HW325452   2.365   6.901   1.551
 6283SOL    MW425453   2.293   6.930   1.511
 6284SOL     OW25454   2.179   5.731   0.184
 6284SOL    HW225455   2.108   5.786   0.152
 6284SOL    HW325456   2.221   5.697   0.105
 6284SOL    MW425457   2.175   5.733   0.170
 6285SOL     OW25458   3.303   6.228   1.020
 6285SOL    HW225459   3.226   6.274   0.986
 6285SOL    HW325460   3.360   6.297   1.054
 6285SOL    MW425461   3.300   6.243   1.020
 6286SOL     OW25462   1.935   5.830   0.033
 6286SOL    HW225463   1.902   5.909   0.077
 6286SOL    HW325464   1.990   5.863  -0.038
 6286SOL    MW425465   1.938   5.844   0.030
 6287SOL     OW25466   1.969   7.087   0.222
 6287SOL    HW225467   1.986   7.171   0.264
 6287SOL    HW325468   2.004   7.096   0.134
 6287SOL    MW425469   1.974   7.100   0.216
 6288SOL     OW25470   3.241   7.176   0.439
 6288SOL    HW225471   3.304   7.166   0.368
 6288SOL    HW325472   3.158   7.196   0.394
 6288SOL    MW425473   3.238   7.177   0.424
 6289SOL     OW25474   3.604   6.444   2.125
 6289SOL    HW225475   3.645   6.386   2.190
 6289SOL    HW325476   3.511   6.436   2.142
 6289SOL    MW425477   3.598   6.436   2.135
 6290SOL     OW25478   3.470   6.376   3.120
 6290SOL    HW225479   3.425   6.443   3.171
 6290SOL    HW325480   3.558   6.412   3.106
 6290SOL    MW425481   3.476   6.389   3.124
 6291SOL     OW25482   2.398   6.627   2.354
 6291SOL    HW225483   2.488   6.602   2.338
 6291SOL    HW325484   2.394   6.720   2.331
 6291SOL    MW425485   2.410   6.636   2.349
 6292SOL     OW25486   3.514   7.330   2.496
 6292SOL    HW225487   3.526   7.276   2.574
 6292SOL    HW325488   3.551   7.278   2.425
 6292SOL    MW425489   3.520   7.315   2.497
 6293SOL     OW25490   2.893   7.215   3.497
 6293SOL    HW225491   2.934   7.251   3.418
 6293SOL    HW325492   2.928   7.126   3.504
 6293SOL    MW425493   2.904   7.208   3.488
 6294SOL     OW25494   3.450   6.770   3.101
 6294SOL    HW225495   3.371   6.735   3.059
 6294SOL    HW325496   3.477   6.842   3.045
 6294SOL    MW425497   3.443   6.775   3.088
 6295SOL     OW25498   2.682   6.083   2.367
 6295SOL    HW225499   2.657   6.171   2.395
 6295SOL    HW325500   2.679   6.086   2.271
 6295SOL    MW425501   2.678   6.095   2.359
 6296SOL     OW25502   2.124   6.111   2.295
 6296SOL    HW225503   2.156   6.199   2.277
 6296SOL    HW325504   2.112   6.109   2.390
 6296SOL    MW425505   2.127   6.123   2.307
 6297SOL     OW25506   2.202   6.524   3.196
 6297SOL    HW225507   2.265   6.471   3.147
 6297SOL    HW325508   2.183   6.598   3.139
 6297SOL    MW425509   2.208   6.526   3.183
 6298SOL     OW25510   2.523   5.866   2.382
 6298SOL    HW225511   2.581   5.942   2.384
 6298SOL    HW325512   2.458   5.887   2.315
 6298SOL    MW425513   2.522   5.878   2.373
 6299SOL     OW25514   2.610   6.793   2.557
 6299SOL    HW225515   2.690   6.796   2.609
 6299SOL    HW325516   2.638   6.760   2.471
 6299SOL    MW425517   2.624   6.789   2.552
 6300SOL     OW25518   2.635   7.134   3.460
 6300SOL    HW225519   2.719   7.160   3.499
 6300SOL    HW325520   2.659   7.078   3.386
 6300SOL    MW425521   2.649   7.130   3.455
 6301SOL     OW25522   2.387   6.297   2.548
 6301SOL    HW225523   2.372   6.217   2.599
 6301SOL    HW325524   2.469   6.332   2.582
 6301SOL    MW425525   2.395   6.289   2.560
 6302SOL     OW25526   2.724   6.983   3.233
 6302SOL    HW225527   2.688   7.049   3.173
 6302SOL    HW325528   2.652   6.921   3.246
 6302SOL    MW425529   2.710   6.983   3.227
 6303SOL     OW25530   2.529   6.123   2.925
 6303SOL    HW225531   2.435   6.119   2.943
 6303SOL    HW325532   2.559   6.032   2.934
 6303SOL    MW425533   2.520   6.111   2.928
 6304SOL     OW25534   2.275   6.537   2.829
 6304SOL    HW225535   2.230   6.544   2.745
 6304SOL    HW325536   2.255   6.620   2.873
 6304SOL    MW425537   2.267   6.549   2.823
 6305SOL     OW25538   1.972   7.383   2.704
 6305SOL    HW225539   2.061   7.375   2.739
 6305SOL    HW325540   1.936   7.295   2.709
 6305SOL    MW425541   1.979   7.370   2.709
 6306SOL     OW25542   3.237   6.775   2.073
 6306SOL    HW225543   3.155   6.811   2.039
 6306SOL    HW325544   3.305   6.818   2.022
 6306SOL    MW425545   3.235   6.785   2.061
 6307SOL     OW25546   2.236   6.910   2.739
 6307SOL    HW225547   2.212   6.963   2.815
 6307SOL    HW325548   2.292   6.968   2.687
 6307SOL    MW425549   2.240   6.925   2.742
 6308SOL     OW25550   2.798   6.554   2.549
 6308SOL    HW225551   2.712   6.541   2.589
 6308SOL    HW325552   2.851   6.481   2.581
 6308SOL    MW425553   2.794   6.543   2.558
 6309SOL     OW25554   2.206   7.206   3.334
 6309SOL    HW225555   2.114   7.182   3.319
 6309SOL    HW325556   2.250   7.123   3.351
 6309SOL    MW425557   2.200   7.191   3.333
 6310SOL     OW25558   2.789   6.916   2.266
 6310SOL    HW225559   2.766   6.978   2.334
 6310SOL    HW325560   2.746   6.834   2.292
 6310SOL    MW425561   2.781   6.912   2.277
 6311SOL     OW25562   3.662   5.917   2.722
 6311SOL    HW225563   3.599   5.897   2.791
 6311SOL    HW325564   3.652   5.846   2.659
 6311SOL    MW425565   3.652   5.904   2.723
 6312SOL     OW25566   2.286   5.889   2.234
 6312SOL    HW225567   2.260   5.851   2.150
 6312SOL    HW325568   2.223   5.959   2.250
 6312SOL    MW425569   2.275   5.892   2.225
 6313SOL     OW25570   2.121   6.850   2.271
 6313SOL    HW225571   2.069   6.918   2.227
 6313SOL    HW325572   2.118   6.776   2.211
 6313SOL    MW425573   2.113   6.849   2.258
 6314SOL     OW25574   2.783   7.313   2.049
 6314SOL    HW225575   2.738   7.329   2.132
 6314SOL    HW325576   2.714   7.278   1.991
 6314SOL    MW425577   2.769   7.310   2.051
 6315SOL     OW25578   3.718   6.086   2.024
 6315SOL    HW225579   3.627   6.088   2.052
 6315SOL    HW325580   3.763   6.148   2.082
 6315SOL    MW425581   3.711   6.094   2.034
 6316SOL     OW25582   3.463   6.689   2.374
 6316SOL    HW225583   3.373   6.689   2.409
 6316SOL    HW325584   3.456   6.735   2.291
 6316SOL    MW425585   3.450   6.695   2.368
 6317SOL     OW25586   3.263   6.324   3.446
 6317SOL    HW225587   3.332   6.262   3.423
 6317SOL    HW325588   3.188   6.298   3.393
 6317SOL    MW425589   3.263   6.311   3.437
 6318SOL     OW25590   2.004   7.204   2.998
 6318SOL    HW225591   1.987   7.150   3.075
 6318SOL    HW325592   1.992   7.294   3.028
 6318SOL    MW425593   2.001   7.208   3.012
 6319SOL     OW25594   2.999   6.711   3.438
 6319SOL    HW225595   2.984   6.804   3.423
 6319SOL    HW325596   3.094   6.701   3.438
 6319SOL    MW425597   3.008   6.721   3.435
 6320SOL     OW25598   2.795   6.135   3.639
 6320SOL    HW225599   2.885   6.136   3.606
 6320SOL    HW325600   2.754   6.060   3.597
 6320SOL    MW425601   2.801   6.125   3.630
 6321SOL     OW25602   3.370   6.667   2.766
 6321SOL    HW225603   3.373   6.601   2.697
 6321SOL    HW325604   3.455   6.710   2.762
 6321SOL    MW425605   3.382   6.663   2.757
 6322SOL     OW25606   2.990   6.270   2.335
 6322SOL    HW225607   3.016   6.294   2.246
 6322SOL    HW325608   2.972   6.177   2.331
 6322SOL    MW425609   2.992   6.262   2.322
 6323SOL     OW25610   3.655   6.890   2.186
 6323SOL    HW225611   3.611   6.931   2.261
 6323SOL    HW325612   3.712   6.958   2.151
 6323SOL    MW425613   3.657   6.904   2.191
 6324SOL     OW25614   2.575   5.939   3.589
 6324SOL    HW225615   2.585   5.865   3.529
 6324SOL    HW325616   2.611   5.908   3.672
 6324SOL    MW425617   2.581   5.925   3.591
 6325SOL     OW25618   2.311   7.306   2.504
 6325SOL    HW225619   2.343   7.394   2.482
 6325SOL    HW325620   2.264   7.278   2.426
 6325SOL    MW425621   2.310   7.314   2.491
 6326SOL     OW25622   3.695   5.668   2.553
 6326SOL    HW225623   3.749   5.619   2.615
 6326SOL    HW325624   3.638   5.602   2.514
 6326SOL    MW425625   3.695   5.652   2.555
 6327SOL     OW25626   2.027   7.366   2.081
 6327SOL    HW225627   2.056   7.456   2.073
 6327SOL    HW325628   1.977   7.349   2.002
 6327SOL    MW425629   2.025   7.374   2.070
 6328SOL     OW25630   2.814   5.621   2.966
 6328SOL    HW225631   2.773   5.699   2.928
 6328SOL    HW325632   2.908   5.639   2.961
 6328SOL    MW425633   2.820   5.633   2.961
 6329SOL     OW25634   3.431   7.174   2.052
 6329SOL    HW225635   3.479   7.243   2.098
 6329SOL    HW325636   3.352   7.218   2.021
 6329SOL    MW425637   3.426   7.188   2.055
 6330SOL     OW25638   2.829   6.299   1.996
 6330SOL    HW225639   2.831   6.246   1.917
 6330SOL    HW325640   2.917   6.336   2.002
 6330SOL    MW425641   2.841   6.298   1.985
 6331SOL     OW25642   3.443   6.225   2.332
 6331SOL    HW225643   3.482   6.225   2.419
 6331SOL    HW325644   3.384   6.301   2.332
 6331SOL    MW425645   3.440   6.236   2.343
 6332SOL     OW25646   2.760   6.592   3.461
 6332SOL    HW225647   2.737   6.572   3.551
 6332SOL    HW325648   2.845   6.636   3.466
 6332SOL    MW425649   2.767   6.595   3.473
 6333SOL     OW25650   2.840   5.729   3.221
 6333SOL    HW225651   2.846   5.691   3.134
 6333SOL    HW325652   2.829   5.823   3.206
 6333SOL    MW425653   2.841   5.737   3.209
 6334SOL     OW25654   2.929   6.218   3.055
 6334SOL    HW225655   3.004   6.247   3.002
 6334SOL    HW325656   2.861   6.283   3.039
 6334SOL    MW425657   2.930   6.230   3.045
 6335SOL     OW25658   3.479   6.186   3.332
 6335SOL    HW225659   3.460   6.095   3.311
 6335SOL    HW325660   3.457   6.235   3.253
 6335SOL    MW425661   3.474   6.179   3.319
 6336SOL     OW25662   3.621   7.280   3.236
 6336SOL    HW225663   3.549   7.242   3.287
 6336SOL    HW325664   3.638   7.365   3.277
 6336SOL    MW425665   3.615   7.285   3.248
 6337SOL     OW25666   2.926   5.924   3.438
 6337SOL    HW225667   2.892   5.963   3.357
 6337SOL    HW325668   2.904   5.832   3.431
 6337SOL    MW425669   2.919   5.917   3.428
 6338SOL     OW25670   3.335   6.738   3.514
 6338SOL    HW225671   3.417   6.779   3.544
 6338SOL    HW325672   3.298   6.700   3.594
 6338SOL    MW425673   3.341   6.739   3.529
 6339SOL     OW25674   3.630   6.111   2.498
 6339SOL    HW225675   3.719   6.080   2.515
 6339SOL    HW325676   3.573   6.051   2.546
 6339SOL    MW425677   3.633   6.099   2.507
 6340SOL     OW25678   2.056   5.825   2.527
 6340SOL    HW225679   2.047   5.765   2.453
 6340SOL    HW325680   1.989   5.796   2.590
 6340SOL    MW425681   2.046   5.812   2.525
 6341SOL     OW25682   2.999   6.918   2.088
 6341SOL    HW225683   2.949   6.920   2.170
 6341SOL    HW325684   2.933   6.936   2.020
 6341SOL    MW425685   2.985   6.920   2.090
 6342SOL     OW25686   2.003   5.998   2.890
 6342SOL    HW225687   1.975   6.089   2.899
 6342SOL    HW325688   1.940   5.959   2.829
 6342SOL    MW425689   1.990   6.004   2.884
 6343SOL     OW25690   2.462   7.336   2.196
 6343SOL    HW225691   2.383   7.294   2.229
 6343SOL    HW325692   2.528   7.319   2.263
 6343SOL    MW425693   2.461   7.328   2.209
 6344SOL     OW25694   3.590   6.856   3.593
 6344SOL    HW225695   3.640   6.782   3.625
 6344SOL    HW325696   3.536   6.883   3.668
 6344SOL    MW425697   3.590   6.850   3.606
 6345SOL     OW25698   2.598   6.751   1.903
 6345SOL    HW225699   2.520   6.697   1.890
 6345SOL    HW325700   2.569   6.824   1.956
 6345SOL    MW425701   2.584   6.753   1.908
 6346SOL     OW25702   3.724   6.491   3.095
 6346SOL    HW225703   3.740   6.529   3.008
 6346SOL    HW325704   3.758   6.557   3.156
 6346SOL    MW425705   3.731   6.504   3.091
 6347SOL     OW25706   3.516   7.200   2.764
 6347SOL    HW225707   3.545   7.267   2.825
 6347SOL    HW325708   3.497   7.124   2.819
 6347SOL    MW425709   3.518   7.200   2.779
 6348SOL     OW25710   3.179   7.267   1.971
 6348SOL    HW225711   3.105   7.230   2.021
 6348SOL    HW325712   3.187   7.357   2.004
 6348SOL    MW425713   3.170   7.274   1.983
 6349SOL     OW25714   1.987   6.273   3.060
 6349SOL    HW225715   2.049   6.303   3.126
 6349SOL    HW325716   1.921   6.342   3.054
 6349SOL    MW425717   1.986   6.286   3.067
 6350SOL     OW25718   3.403   6.941   1.913
 6350SOL    HW225719   3.350   6.990   1.849
 6350SOL    HW325720   3.434   7.007   1.974
 6350SOL    MW425721   3.401   6.955   1.911
 6351SOL     OW25722   2.628   5.830   1.968
 6351SOL    HW225723   2.576   5.750   1.956
 6351SOL    HW325724   2.715   5.807   1.936
 6351SOL    MW425725   2.631   5.816   1.962
 6352SOL     OW25726   2.082   7.382   3.512
 6352SOL    HW225727   2.056   7.450   3.450
 6352SOL    HW325728   2.130   7.319   3.460
 6352SOL    MW425729   2.084   7.382   3.498
 6353SOL     OW25730   2.134   6.701   3.019
 6353SOL    HW225731   2.187   6.776   3.044
 6353SOL    HW325732   2.053   6.739   2.985
 6353SOL    MW425733   2.130   6.716   3.019
 6354SOL     OW25734   2.674   6.605   3.007
 6354SOL    HW225735   2.702   6.514   3.019
 6354SOL    HW325736   2.603   6.599   2.943
 6354SOL    MW425737   2.667   6.593   3.002
 6355SOL     OW25738   1.989   6.470   2.425
 6355SOL    HW225739   2.080   6.485   2.452
 6355SOL    HW325740   1.992   6.391   2.371
 6355SOL    MW425741   2.001   6.462   2.423
 6356SOL     OW25742   2.225   6.178   3.679
 6356SOL    HW225743   2.172   6.258   3.686
 6356SOL    HW325744   2.295   6.190   3.744
 6356SOL    MW425745   2.227   6.191   3.687
 6357SOL     OW25746   2.611   5.728   3.386
 6357SOL    HW225747   2.588   5.636   3.388
 6357SOL    HW325748   2.697   5.730   3.343
 6357SOL    MW425749   2.618   5.718   3.382
 6358SOL     OW25750   2.295   6.252   3.425
 6358SOL    HW225751   2.375   6.302   3.411
 6358SOL    HW325752   2.286   6.246   3.520
 6358SOL    MW425753   2.304   6.258   3.435
 6359SOL     OW25754   2.616   7.402   2.799
 6359SOL    HW225755   2.705   7.417   2.829
 6359SOL    HW325756   2.611   7.449   2.715
 6359SOL    MW425757   2.626   7.410   2.792
 6360SOL     OW25758   3.272   5.777   3.696
 6360SOL    HW225759   3.328   5.704   3.722
 6360SOL    HW325760   3.242   5.815   3.778
 6360SOL    MW425761   3.276   5.772   3.709
 6361SOL     OW25762   1.997   7.082   2.464
 6361SOL    HW225763   1.969   7.121   2.546
 6361SOL    HW325764   2.017   6.991   2.486
 6361SOL    MW425765   1.995   7.074   2.477
 6362SOL     OW25766   2.830   7.125   2.499
 6362SOL    HW225767   2.913   7.079   2.483
 6362SOL    HW325768   2.820   7.124   2.595
 6362SOL    MW425769   2.840   7.118   2.509
 6363SOL     OW25770   3.662   6.270   2.813
 6363SOL    HW225771   3.751   6.300   2.795
 6363SOL    HW325772   3.642   6.210   2.742
 6363SOL    MW425773   3.671   6.267   2.802
 6364SOL     OW25774   3.513   6.449   3.693
 6364SOL    HW225775   3.568   6.373   3.674
 6364SOL    HW325776   3.515   6.457   3.788
 6364SOL    MW425777   3.521   6.440   3.701
 6365SOL     OW25778   2.563   7.182   1.904
 6365SOL    HW225779   2.503   7.251   1.874
 6365SOL    HW325780   2.508   7.124   1.957
 6365SOL    MW425781   2.547   7.184   1.906
 6366SOL     OW25782   3.001   5.827   2.127
 6366SOL    HW225783   2.934   5.803   2.064
 6366SOL    HW325784   3.066   5.876   2.076
 6366SOL    MW425785   3.001   5.829   2.112
 6367SOL     OW25786   2.808   6.011   3.212
 6367SOL    HW225787   2.727   6.052   3.240
 6367SOL    HW325788   2.855   6.079   3.164
 6367SOL    MW425789   2.803   6.026   3.210
 6368SOL     OW25790   3.068   6.349   2.835
 6368SOL    HW225791   3.081   6.443   2.845
 6368SOL    HW325792   3.029   6.339   2.749
 6368SOL    MW425793   3.064   6.360   2.825
 6369SOL     OW25794   2.520   6.544   2.639
 6369SOL    HW225795   2.431   6.535   2.672
 6369SOL    HW325796   2.524   6.634   2.607
 6369SOL    MW425797   2.509   6.555   2.639
 6370SOL     OW25798   3.319   6.127   2.634
 6370SOL    HW225799   3.264   6.048   2.633
 6370SOL    HW325800   3.301   6.168   2.718
 6370SOL    MW425801   3.309   6.122   2.643
 6371SOL     OW25802   2.290   5.814   3.451
 6371SOL    HW225803   2.211   5.832   3.503
 6371SOL    HW325804   2.285   5.876   3.378
 6371SOL    MW425805   2.280   5.824   3.448
 6372SOL     OW25806   2.938   6.331   2.591
 6372SOL    HW225807   2.875   6.263   2.615
 6372SOL    HW325808   2.958   6.312   2.499
 6372SOL    MW425809   2.932   6.318   2.583
 6373SOL     OW25810   2.194   7.226   2.293
 6373SOL    HW225811   2.155   7.273   2.219
 6373SOL    HW325812   2.128   7.161   2.318
 6373SOL    MW425813   2.181   7.224   2.287
 6374SOL     OW25814   2.686   6.635   2.317
 6374SOL    HW225815   2.688   6.609   2.224
 6374SOL    HW325816   2.744   6.572   2.360
 6374SOL    MW425817   2.694   6.624   2.311
 6375SOL     OW25818   3.239   7.195   3.089
 6375SOL    HW225819   3.164   7.241   3.127
 6375SOL    HW325820   3.221   7.102   3.106
 6375SOL    MW425821   3.228   7.189   3.097
 6376SOL     OW25822   3.243   7.403   2.519
 6376SOL    HW225823   3.186   7.356   2.458
 6376SOL    HW325824   3.329   7.364   2.506
 6376SOL    MW425825   3.246   7.394   2.509
 6377SOL     OW25826   3.196   5.879   2.650
 6377SOL    HW225827   3.224   5.811   2.711
 6377SOL    HW325828   3.110   5.850   2.620
 6377SOL    MW425829   3.189   5.866   2.654
 6378SOL     OW25830   2.001   6.813   2.584
 6378SOL    HW225831   2.065   6.845   2.647
 6378SOL    HW325832   2.050   6.749   2.532
 6378SOL    MW425833   2.016   6.809   2.585
 6379SOL     OW25834   2.501   6.889   3.566
 6379SOL    HW225835   2.549   6.972   3.553
 6379SOL    HW325836   2.558   6.837   3.622
 6379SOL    MW425837   2.515   6.893   3.572
 6380SOL     OW25838   2.077   7.131   3.706
 6380SOL    HW225839   2.133   7.055   3.721
 6380SOL    HW325840   2.026   7.109   3.628
 6380SOL    MW425841   2.077   7.118   3.697
 6381SOL     OW25842   3.176   5.983   1.985
 6381SOL    HW225843   3.149   6.049   1.921
 6381SOL    HW325844   3.246   6.026   2.035
 6381SOL    MW425845   3.181   5.996   1.982
 6382SOL     OW25846   2.844   5.688   1.922
 6382SOL    HW225847   2.900   5.680   1.844
 6382SOL    HW325848   2.821   5.598   1.944
 6382SOL    MW425849   2.849   5.675   1.915
 6383SOL     OW25850   3.349   6.539   2.127
 6383SOL    HW225851   3.316   6.628   2.117
 6383SOL    HW325852   3.314   6.510   2.212
 6383SOL    MW425853   3.339   6.548   2.138
 6384SOL     OW25854   2.962   6.968   3.315
 6384SOL    HW225855   2.873   6.974   3.283
 6384SOL    HW325856   3.006   7.047   3.283
 6384SOL    MW425857   2.957   6.978   3.307
 6385SOL     OW25858   2.255   5.636   3.657
 6385SOL    HW225859   2.183   5.601   3.605
 6385SOL    HW325860   2.313   5.677   3.592
 6385SOL    MW425861   2.253   5.637   3.642
 6386SOL     OW25862   2.279   7.126   2.956
 6386SOL    HW225863   2.324   7.188   3.013
 6386SOL    HW325864   2.186   7.145   2.969
 6386SOL    MW425865   2.272   7.136   2.963
 6387SOL     OW25866   3.719   6.655   3.310
 6387SOL    HW225867   3.634   6.668   3.269
 6387SOL    HW325868   3.699   6.619   3.397
 6387SOL    MW425869   3.706   6.651   3.315
 6388SOL     OW25870   2.701   7.194   3.064
 6388SOL    HW225871   2.725   7.183   2.973
 6388SOL    HW325872   2.624   7.251   3.062
 6388SOL    MW425873   2.693   7.199   3.053
 6389SOL     OW25874   2.343   6.577   1.919
 6389SOL    HW225875   2.266   6.590   1.975
 6389SOL    HW325876   2.307   6.541   1.838
 6389SOL    MW425877   2.329   6.573   1.916
 6390SOL     OW25878   2.996   6.550   2.162
 6390SOL    HW225879   2.906   6.571   2.137
 6390SOL    HW325880   3.023   6.623   2.218
 6390SOL    MW425881   2.988   6.562   2.165
 6391SOL     OW25882   2.496   6.899   2.854
 6391SOL    HW225883   2.489   6.878   2.948
 6391SOL    HW325884   2.414   6.867   2.817
 6391SOL    MW425885   2.484   6.893   2.861
 6392SOL     OW25886   3.360   5.909   3.256
 6392SOL    HW225887   3.307   5.911   3.336
 6392SOL    HW325888   3.345   5.822   3.219
 6392SOL    MW425889   3.352   5.899   3.261
 6393SOL     OW25890   3.696   5.833   3.129
 6393SOL    HW225891   3.677   5.900   3.064
 6393SOL    HW325892   3.753   5.771   3.084
 6393SOL    MW425893   3.700   5.834   3.115
 6394SOL     OW25894   1.942   6.991   3.517
 6394SOL    HW225895   1.986   6.924   3.463
 6394SOL    HW325896   1.857   6.953   3.537
 6394SOL    MW425897   1.937   6.977   3.513
 6395SOL     OW25898   2.625   5.666   2.569
 6395SOL    HW225899   2.554   5.727   2.551
 6395SOL    HW325900   2.676   5.663   2.488
 6395SOL    MW425901   2.621   5.672   2.556
 6396SOL     OW25902   2.383   6.906   2.318
 6396SOL    HW225903   2.376   6.938   2.408
 6396SOL    HW325904   2.293   6.890   2.290
 6396SOL    MW425905   2.371   6.908   2.325
 6397SOL     OW25906   2.978   7.299   3.227
 6397SOL    HW225907   2.898   7.284   3.177
 6397SOL    HW325908   2.985   7.394   3.234
 6397SOL    MW425909   2.969   7.310   3.221
 6398SOL     OW25910   3.092   7.264   2.717
 6398SOL    HW225911   3.139   7.337   2.676
 6398SOL    HW325912   3.013   7.303   2.753
 6398SOL    MW425913   3.087   7.279   2.716
 6399SOL     OW25914   3.500   7.359   2.992
 6399SOL    HW225915   3.543   7.329   3.072
 6399SOL    HW325916   3.419   7.307   2.989
 6399SOL    MW425917   3.495   7.348   3.002
 6400SOL     OW25918   2.585   6.323   3.699
 6400SOL    HW225919   2.655   6.265   3.671
 6400SOL    HW325920   2.528   6.268   3.754
 6400SOL    MW425921   2.587   6.310   3.703
 6401SOL     OW25922   3.372   6.535   3.332
 6401SOL    HW225923   3.377   6.588   3.412
 6401SOL    HW325924   3.334   6.452   3.360
 6401SOL    MW425925   3.368   6.530   3.347
 6402SOL     OW25926   3.012   5.670   3.578
 6402SOL    HW225927   3.007   5.577   3.559
 6402SOL    HW325928   3.095   5.681   3.624
 6402SOL    MW425929   3.020   5.659   3.582
 6403SOL     OW25930   2.386   6.190   2.032
 6403SOL    HW225931   2.352   6.246   2.102
 6403SOL    HW325932   2.457   6.140   2.072
 6403SOL    MW425933   2.392   6.191   2.046
 6404SOL     OW25934   3.482   6.941   2.854
 6404SOL    HW225935   3.517   6.923   2.767
 6404SOL    HW325936   3.387   6.942   2.841
 6404SOL    MW425937   3.474   6.938   2.841
 6405SOL     OW25938   2.911   6.589   3.223
 6405SOL    HW225939   2.954   6.624   3.301
 6405SOL    HW325940   2.894   6.666   3.169
 6405SOL    MW425941   2.914   6.604   3.226
 6406SOL     OW25942   3.442   6.076   2.096
 6406SOL    HW225943   3.434   6.147   2.033
 6406SOL    HW325944   3.460   6.120   2.179
 6406SOL    MW425945   3.443   6.090   2.098
 6407SOL     OW25946   2.302   5.731   2.525
 6407SOL    HW225947   2.352   5.774   2.456
 6407SOL    HW325948   2.217   5.775   2.525
 6407SOL    MW425949   2.299   5.744   2.516
 6408SOL     OW25950   2.061   6.793   3.385
 6408SOL    HW225951   2.089   6.746   3.463
 6408SOL    HW325952   1.982   6.748   3.356
 6408SOL    MW425953   2.054   6.782   3.391
 6409SOL     OW25954   2.569   6.120   3.352
 6409SOL    HW225955   2.541   6.208   3.376
 6409SOL    HW325956   2.538   6.064   3.423
 6409SOL    MW425957   2.561   6.123   3.364
 6410SOL     OW25958   3.111   6.338   2.071
 6410SOL    HW225959   3.158   6.356   1.990
 6410SOL    HW325960   3.077   6.422   2.099
 6410SOL    MW425961   3.113   6.352   2.064
 6411SOL     OW25962   2.224   6.516   2.565
 6411SOL    HW225963   2.282   6.572   2.513
 6411SOL    HW325964   2.268   6.431   2.567
 6411SOL    MW425965   2.237   6.513   2.558
 6412SOL     OW25966   3.364   5.868   2.402
 6412SOL    HW225967   3.286   5.818   2.427
 6412SOL    HW325968   3.335   5.959   2.402
 6412SOL    MW425969   3.350   5.872   2.405
 6413SOL     OW25970   2.950   5.830   2.561
 6413SOL    HW225971   2.970   5.905   2.505
 6413SOL    HW325972   2.930   5.869   2.646
 6413SOL    MW425973   2.951   5.846   2.565
 6414SOL     OW25974   2.846   7.080   1.893
 6414SOL    HW225975   2.873   7.158   1.845
 6414SOL    HW325976   2.753   7.095   1.912
 6414SOL    MW425977   2.837   7.093   1.889
 6415SOL     OW25978   3.710   6.603   3.580
 6415SOL    HW225979   3.623   6.583   3.616
 6415SOL    HW325980   3.764   6.529   3.605
 6415SOL    MW425981   3.705   6.592   3.588
 6416SOL     OW25982   1.931   7.116   2.737
 6416SOL    HW225983   1.963   7.120   2.828
 6416SOL    HW325984   1.836   7.124   2.745
 6416SOL    MW425985   1.923   7.119   2.750
 6417SOL     OW25986   1.886   6.242   2.284
 6417SOL    HW225987   1.826   6.214   2.354
 6417SOL    HW325988   1.960   6.182   2.290
 6417SOL    MW425989   1.888   6.231   2.293
 6418SOL     OW25990   3.454   7.454   3.718
 6418SOL    HW225991   3.499   7.378   3.683
 6418SOL    HW325992   3.492   7.467   3.805
 6418SOL    MW425993   3.464   7.447   3.724
 6419SOL     OW25994   3.054   6.973   2.444
 6419SOL    HW225995   3.077   6.924   2.522
 6419SOL    HW325996   3.135   7.015   2.416
 6419SOL    MW425997   3.067   6.973   2.451
 6420SOL     OW25998   2.312   5.981   3.173
 6420SOL    HW225999   2.345   6.062   3.213
 6420SOL    HW326000   2.285   6.007   3.085
 6420SOL    MW426001   2.311   5.995   3.167
 6421SOL     OW26002   2.266   5.948   2.909
 6421SOL    HW226003   2.296   5.862   2.880
 6421SOL    HW326004   2.171   5.941   2.912
 6421SOL    MW426005   2.258   5.937   2.907
 6422SOL     OW26006   3.095   6.157   3.600
 6422SOL    HW226007   3.147   6.092   3.553
 6422SOL    HW326008   3.053   6.208   3.530
 6422SOL    MW426009   3.096   6.154   3.583
 6423SOL     OW26010   3.194   5.952   3.461
 6423SOL    HW226011   3.101   5.936   3.448
 6423SOL    HW326012   3.220   5.890   3.529
 6423SOL    MW426013   3.184   5.942   3.468
 6424SOL     OW26014   2.409   5.726   2.800
 6424SOL    HW226015   2.419   5.635   2.826
 6424SOL    HW326016   2.365   5.722   2.715
 6424SOL    MW426017   2.405   5.714   2.792
 6425SOL     OW26018   2.503   7.341   3.346
 6425SOL    HW226019   2.420   7.326   3.391
 6425SOL    HW326020   2.562   7.274   3.381
 6425SOL    MW426021   2.501   7.331   3.356
 6426SOL     OW26022   3.560   6.048   2.971
 6426SOL    HW226023   3.493   6.081   3.031
 6426SOL    HW326024   3.603   6.126   2.937
 6426SOL    MW426025   3.558   6.063   2.975
 6427SOL     OW26026   3.738   6.768   2.941
 6427SOL    HW226027   3.731   6.708   2.866
 6427SOL    HW326028   3.664   6.828   2.930
 6427SOL    MW426029   3.728   6.768   2.930
 6428SOL     OW26030   3.120   6.630   2.859
 6428SOL    HW226031   3.134   6.602   2.950
 6428SOL    HW326032   3.206   6.661   2.831
 6428SOL    MW426033   3.133   6.631   2.868
 6429SOL     OW26034   3.203   6.125   3.138
 6429SOL    HW226035   3.224   6.126   3.045
 6429SOL    HW326036   3.248   6.047   3.171
 6429SOL    MW426037   3.210   6.115   3.130
 6430SOL     OW26038   3.696   6.256   3.680
 6430SOL    HW226039   3.733   6.201   3.749
 6430SOL    HW326040   3.721   6.213   3.598
 6430SOL    MW426041   3.703   6.244   3.679
 6431SOL     OW26042   3.243   6.554   3.731
 6431SOL    HW226043   3.309   6.502   3.685
 6431SOL    HW326044   3.263   6.541   3.824
 6431SOL    MW426045   3.254   6.545   3.738
 6432SOL     OW26046   3.194   5.640   2.080
 6432SOL    HW226047   3.268   5.684   2.123
 6432SOL    HW326048   3.118   5.694   2.102
 6432SOL    MW426049   3.194   5.652   2.088
 6433SOL     OW26050   3.254   6.415   2.358
 6433SOL    HW226051   3.169   6.385   2.328
 6433SOL    HW326052   3.246   6.422   2.453
 6433SOL    MW426053   3.242   6.413   2.367
 6434SOL     OW26054   2.330   6.878   3.089
 6434SOL    HW226055   2.342   6.905   3.180
 6434SOL    HW326056   2.311   6.959   3.042
 6434SOL    MW426057   2.329   6.893   3.094
 6435SOL     OW26058   2.614   5.858   2.912
 6435SOL    HW226059   2.587   5.860   3.003
 6435SOL    HW326060   2.544   5.810   2.867
 6435SOL    MW426061   2.602   5.854   2.919
 6436SOL     OW26062   2.468   7.350   3.074
 6436SOL    HW226063   2.520   7.427   3.051
 6436SOL    HW326064   2.477   7.342   3.169
 6436SOL    MW426065   2.477   7.357   3.085
 6437SOL     OW26066   3.370   6.935   3.306
 6437SOL    HW226067   3.355   6.864   3.369
 6437SOL    HW326068   3.416   6.893   3.234
 6437SOL    MW426069   3.376   6.919   3.306
 6438SOL     OW26070   2.444   6.666   3.423
 6438SOL    HW226071   2.481   6.671   3.335
 6438SOL    HW326072   2.483   6.739   3.470
 6438SOL    MW426073   2.454   6.676   3.418
 6439SOL     OW26074   2.624   6.709   3.235
 6439SOL    HW226075   2.683   6.655   3.288
 6439SOL    HW326076   2.639   6.681   3.145
 6439SOL    MW426077   2.634   6.698   3.231
 6440SOL     OW26078   2.627   6.081   2.084
 6440SOL    HW226079   2.700   6.130   2.047
 6440SOL    HW326080   2.643   5.990   2.058
 6440SOL    MW426081   2.639   6.076   2.077
 6441SOL     OW26082   3.435   7.198   3.407
 6441SOL    HW226083   3.477   7.183   3.492
 6441SOL    HW326084   3.426   7.111   3.369
 6441SOL    MW426085   3.439   7.186   3.414
 6442SOL     OW26086   3.095   5.677   2.998
 6442SOL    HW226087   3.150   5.686   2.920
 6442SOL    HW326088   3.150   5.711   3.069
 6442SOL    MW426089   3.109   5.682   2.997
 6443SOL     OW26090   2.102   6.590   2.182
 6443SOL    HW226091   2.039   6.606   2.111
 6443SOL    HW326092   2.049   6.553   2.253
 6443SOL    MW426093   2.087   6.587   2.182
 6444SOL     OW26094   2.458   6.944   2.041
 6444SOL    HW226095   2.473   6.920   2.133
 6444SOL    HW326096   2.366   6.922   2.025
 6444SOL    MW426097   2.448   6.937   2.051
 6445SOL     OW26098   2.997   7.175   2.193
 6445SOL    HW226099   3.005   7.093   2.144
 6445SOL    HW326100   2.916   7.214   2.160
 6445SOL    MW426101   2.987   7.170   2.183
 6446SOL     OW26102   2.256   7.333   2.762
 6446SOL    HW226103   2.260   7.244   2.797
 6446SOL    HW326104   2.282   7.324   2.671
 6446SOL    MW426105   2.259   7.321   2.754
 6447SOL     OW26106   2.873   6.811   3.005
 6447SOL    HW226107   2.805   6.745   3.021
 6447SOL    HW326108   2.891   6.805   2.912
 6447SOL    MW426109   2.866   6.802   2.996
 6448SOL     OW26110   1.962   7.086   3.256
 6448SOL    HW226111   1.952   7.044   3.342
 6448SOL    HW326112   1.883   7.139   3.246
 6448SOL    MW426113   1.951   7.087   3.267
 6449SOL     OW26114   2.866   5.950   2.826
 6449SOL    HW226115   2.796   5.902   2.871
 6449SOL    HW326116   2.898   6.013   2.890
 6449SOL    MW426117   2.861   5.952   2.840
 6450SOL     OW26118   2.517   6.386   3.446
 6450SOL    HW226119   2.510   6.481   3.434
 6450SOL    HW326120   2.526   6.375   3.541
 6450SOL    MW426121   2.518   6.398   3.456
 6451SOL     OW26122   2.238   6.901   3.704
 6451SOL    HW226123   2.310   6.903   3.641
 6451SOL    HW326124   2.208   6.810   3.703
 6451SOL    MW426125   2.243   6.890   3.696
 6452SOL     OW26126   3.322   5.664   3.171
 6452SOL    HW226127   3.393   5.610   3.135
 6452SOL    HW326128   3.321   5.643   3.264
 6452SOL    MW426129   3.331   5.655   3.179
 6453SOL     OW26130   3.522   7.194   3.655
 6453SOL    HW226131   3.495   7.191   3.746
 6453SOL    HW326132   3.618   7.198   3.658
 6453SOL    MW426133   3.532   7.194   3.667
 6454SOL     OW26134   2.333   6.056   2.639
 6454SOL    HW226135   2.404   6.004   2.602
 6454SOL    HW326136   2.319   6.021   2.726
 6454SOL    MW426137   2.341   6.045   2.646
 6455SOL     OW26138   1.888   7.391   3.711
 6455SOL    HW226139   1.938   7.369   3.633
 6455SOL    HW326140   1.896   7.486   3.719
 6455SOL    MW426141   1.896   7.400   3.702
 6456SOL     OW26142   2.649   7.149   2.715
 6456SOL    HW226143   2.577   7.086   2.728
 6456SOL    HW326144   2.610   7.234   2.733
 6456SOL    MW426145   2.633   7.152   2.718
 6457SOL     OW26146   2.969   5.997   2.363
 6457SOL    HW226147   2.991   5.934   2.295
 6457SOL    HW326148   2.874   5.989   2.374
 6457SOL    MW426149   2.959   5.988   2.355
 6458SOL     OW26150   2.054   5.687   2.295
 6458SOL    HW226151   2.125   5.708   2.234
 6458SOL    HW326152   2.008   5.615   2.253
 6458SOL    MW426153   2.058   5.681   2.281
 6459SOL     OW26154   1.885   6.154   3.438
 6459SOL    HW226155   1.949   6.220   3.413
 6459SOL    HW326156   1.804   6.181   3.395
 6459SOL    MW426157   1.883   6.166   3.430
 6460SOL     OW26158   3.623   7.061   2.395
 6460SOL    HW226159   3.593   6.994   2.456
 6460SOL    HW326160   3.717   7.067   2.409
 6460SOL    MW426161   3.631   7.053   2.405
 6461SOL     OW26162   3.179   6.738   2.325
 6461SOL    HW226163   3.151   6.824   2.358
 6461SOL    HW326164   3.207   6.754   2.235
 6461SOL    MW426165   3.179   6.752   2.317
 6462SOL     OW26166   2.841   5.658   2.378
 6462SOL    HW226167   2.878   5.717   2.443
 6462SOL    HW326168   2.818   5.714   2.304
 6462SOL    MW426169   2.842   5.673   2.377
 6463SOL     OW26170   3.694   6.540   2.800
 6463SOL    HW226171   3.685   6.572   2.711
 6463SOL    HW326172   3.647   6.456   2.800
 6463SOL    MW426173   3.687   6.533   2.790
 6464SOL     OW26174   2.070   6.380   3.379
 6464SOL    HW226175   2.091   6.449   3.317
 6464SOL    HW326176   2.150   6.327   3.384
 6464SOL    MW426177   2.083   6.381   3.373
 6465SOL     OW26178   3.606   6.471   2.501
 6465SOL    HW226179   3.700   6.460   2.489
 6465SOL    HW326180   3.582   6.543   2.442
 6465SOL    MW426181   3.616   6.479   2.492
 6466SOL     OW26182   2.055   6.395   3.646
 6466SOL    HW226183   1.981   6.339   3.672
 6466SOL    HW326184   2.050   6.398   3.551
 6466SOL    MW426185   2.044   6.388   3.636
 6467SOL     OW26186   2.221   5.682   3.096
 6467SOL    HW226187   2.264   5.766   3.116
 6467SOL    HW326188   2.294   5.620   3.089
 6467SOL    MW426189   2.236   5.685   3.097
 6468SOL     OW26190   2.262   6.349   2.274
 6468SOL    HW226191   2.262   6.444   2.259
 6468SOL    HW326192   2.339   6.333   2.328
 6468SOL    MW426193   2.272   6.360   2.279
 6469SOL     OW26194   3.038   6.208   3.338
 6469SOL    HW226195   3.074   6.181   3.254
 6469SOL    HW326196   2.951   6.242   3.317
 6469SOL    MW426197   3.032   6.209   3.325
 6470SOL     OW26198   2.021   6.080   2.563
 6470SOL    HW226199   2.083   6.087   2.636
 6470SOL    HW326200   2.021   5.987   2.540
 6470SOL    MW426201   2.029   6.069   2.570
 6471SOL     OW26202   3.568   7.420   2.095
 6471SOL    HW226203   3.635   7.453   2.035
 6471SOL    HW326204   3.525   7.499   2.129
 6471SOL    MW426205   3.570   7.435   2.091
 6472SOL     OW26206   2.703   6.341   3.047
 6472SOL    HW226207   2.661   6.259   3.023
 6472SOL    HW326208   2.704   6.340   3.143
 6472SOL    MW426209   2.696   6.330   3.056
 6473SOL     OW26210   3.374   7.474   3.446
 6473SOL    HW226211   3.377   7.380   3.429
 6473SOL    HW326212   3.397   7.482   3.538
 6473SOL    MW426213   3.377   7.462   3.456
 6474SOL     OW26214   2.507   5.811   3.152
 6474SOL    HW226215   2.438   5.874   3.173
 6474SOL    HW326216   2.534   5.775   3.237
 6474SOL    MW426217   2.501   5.814   3.165
 6475SOL     OW26218   1.890   6.652   2.021
 6475SOL    HW226219   1.859   6.717   2.084
 6475SOL    HW326220   1.839   6.574   2.040
 6475SOL    MW426221   1.880   6.649   2.031
 6476SOL     OW26222   3.302   5.664   2.769
 6476SOL    HW226223   3.390   5.673   2.806
 6476SOL    HW326224   3.312   5.605   2.695
 6476SOL    MW426225   3.316   5.658   2.763
 6477SOL     OW26226   3.334   6.403   2.613
 6477SOL    HW226227   3.414   6.418   2.562
 6477SOL    HW326228   3.327   6.308   2.619
 6477SOL    MW426229   3.343   6.392   2.608
 6478SOL     OW26230   2.474   7.452   1.963
 6478SOL    HW226231   2.379   7.452   1.955
 6478SOL    HW326232   2.490   7.398   2.041
 6478SOL    MW426233   2.464   7.446   1.972
 6479SOL     OW26234   2.784   6.329   3.310
 6479SOL    HW226235   2.853   6.396   3.307
 6479SOL    HW326236   2.717   6.367   3.366
 6479SOL    MW426237   2.785   6.342   3.317
 6480SOL     OW26238   2.202   6.629   3.558
 6480SOL    HW226239   2.156   6.545   3.560
 6480SOL    HW326240   2.259   6.623   3.482
 6480SOL    MW426241   2.204   6.617   3.550
 6481SOL     OW26242   3.319   6.272   1.879
 6481SOL    HW226243   3.247   6.248   1.821
 6481SOL    HW326244   3.385   6.309   1.821
 6481SOL    MW426245   3.318   6.274   1.864
 6482SOL     OW26246   2.453   7.004   2.559
 6482SOL    HW226247   2.518   6.937   2.580
 6482SOL    HW326248   2.505   7.081   2.536
 6482SOL    MW426249   2.468   7.006   2.558
 6483SOL     OW26250   2.714   6.169   2.689
 6483SOL    HW226251   2.654   6.187   2.761
 6483SOL    HW326252   2.748   6.081   2.708
 6483SOL    MW426253   2.710   6.159   2.702
 6484SOL     OW26254   3.655   5.668   3.358
 6484SOL    HW226255   3.576   5.714   3.386
 6484SOL    HW326256   3.690   5.722   3.287
 6484SOL    MW426257   3.649   5.681   3.352
 6485SOL     OW26258   2.939   6.752   2.708
 6485SOL    HW226259   3.031   6.733   2.726
 6485SOL    HW326260   2.912   6.682   2.648
 6485SOL    MW426261   2.947   6.740   2.702
 6486SOL     OW26262   2.732   6.572   2.063
 6486SOL    HW226263   2.718   6.484   2.028
 6486SOL    HW326264   2.683   6.629   2.004
 6486SOL    MW426265   2.724   6.567   2.051
 6487SOL     OW26266   3.213   6.990   2.804
 6487SOL    HW226267   3.186   7.074   2.769
 6487SOL    HW326268   3.173   6.985   2.891
 6487SOL    MW426269   3.206   6.999   2.810
 6488SOL     OW26270   3.132   6.938   3.072
 6488SOL    HW226271   3.143   6.905   3.161
 6488SOL    HW326272   3.051   6.897   3.041
 6488SOL    MW426273   3.122   6.930   3.078
 6489SOL     OW26274   2.145   6.296   2.842
 6489SOL    HW226275   2.095   6.295   2.923
 6489SOL    HW326276   2.165   6.388   2.826
 6489SOL    MW426277   2.141   6.308   2.850
 6490SOL     OW26278   3.212   7.060   3.604
 6490SOL    HW226279   3.212   7.154   3.620
 6490SOL    HW326280   3.257   7.050   3.520
 6490SOL    MW426281   3.218   7.070   3.595
 6491SOL     OW26282   3.451   5.778   2.165
 6491SOL    HW226283   3.444   5.782   2.260
 6491SOL    HW326284   3.463   5.869   2.138
 6491SOL    MW426285   3.452   5.791   2.173
 6492SOL     OW26286   2.740   6.341   2.279
 6492SOL    HW226287   2.720   6.327   2.186
 6492SOL    HW326288   2.833   6.320   2.286
 6492SOL    MW426289   2.750   6.336   2.268
 6493SOL     OW26290   2.067   5.964   3.583
 6493SOL    HW226291   2.024   6.023   3.520
 6493SOL    HW326292   2.135   6.019   3.623
 6493SOL    MW426293   2.071   5.979   3.580
 6494SOL     OW26294   3.179   6.584   3.128
 6494SOL    HW226295   3.242   6.581   3.201
 6494SOL    HW326296   3.095   6.602   3.170
 6494SOL    MW426297   3.175   6.586   3.143
 6495SOL     OW26298   2.723   7.299   2.317
 6495SOL    HW226299   2.781   7.370   2.344
 6495SOL    HW326300   2.746   7.227   2.375
 6495SOL    MW426301   2.734   7.299   2.328
 6496SOL     OW26302   3.518   5.761   2.907
 6496SOL    HW226303   3.563   5.679   2.926
 6496SOL    HW326304   3.538   5.817   2.983
 6496SOL    MW426305   3.528   5.757   2.919
 6497SOL     OW26306   1.966   5.604   3.006
 6497SOL    HW226307   1.957   5.605   2.911
 6497SOL    HW326308   2.060   5.616   3.021
 6497SOL    MW426309   1.978   5.607   2.997
 6498SOL     OW26310   3.603   6.797   2.626
 6498SOL    HW226311   3.582   6.743   2.549
 6498SOL    HW326312   3.699   6.795   2.630
 6498SOL    MW426313   3.612   6.790   2.615
 6499SOL     OW26314   2.295   6.942   3.369
 6499SOL    HW226315   2.216   6.892   3.392
 6499SOL    HW326316   2.365   6.901   3.419
 6499SOL    MW426317   2.293   6.930   3.379
 6500SOL     OW26318   2.179   5.731   2.052
 6500SOL    HW226319   2.108   5.786   2.020
 6500SOL    HW326320   2.221   5.697   1.973
 6500SOL    MW426321   2.175   5.733   2.038
 6501SOL     OW26322   3.303   6.228   2.888
 6501SOL    HW226323   3.226   6.274   2.854
 6501SOL    HW326324   3.360   6.297   2.922
 6501SOL    MW426325   3.300   6.243   2.888
 6502SOL     OW26326   1.935   5.830   1.901
 6502SOL    HW226327   1.902   5.909   1.945
 6502SOL    HW326328   1.990   5.863   1.830
 6502SOL    MW426329   1.938   5.844   1.898
 6503SOL     OW26330   1.969   7.087   2.090
 6503SOL    HW226331   1.986   7.171   2.132
 6503SOL    HW326332   2.004   7.096   2.002
 6503SOL    MW426333   1.974   7.100   2.084
 6504SOL     OW26334   3.241   7.176   2.307
 6504SOL    HW226335   3.304   7.166   2.236
 6504SOL    HW326336   3.158   7.196   2.262
 6504SOL    MW426337   3.238   7.177   2.292
 6505SOL     OW26338   3.604   6.444   3.993
 6505SOL    HW226339   3.645   6.386   4.058
 6505SOL    HW326340   3.511   6.436   4.010
 6505SOL    MW426341   3.598   6.436   4.003
 6506SOL     OW26342   3.470   6.376   4.988
 6506SOL    HW226343   3.425   6.443   5.039
 6506SOL    HW326344   3.558   6.412   4.974
 6506SOL    MW426345   3.476   6.389   4.992
 6507SOL     OW26346   2.398   6.627   4.222
 6507SOL    HW226347   2.488   6.602   4.206
 6507SOL    HW326348   2.394   6.720   4.199
 6507SOL    MW426349   2.410   6.636   4.217
 6508SOL     OW26350   3.514   7.330   4.364
 6508SOL    HW226351   3.526   7.276   4.442
 6508SOL    HW326352   3.551   7.278   4.293
 6508SOL    MW426353   3.520   7.315   4.365
 6509SOL     OW26354   2.893   7.215   5.365
 6509SOL    HW226355   2.934   7.251   5.286
 6509SOL    HW326356   2.928   7.126   5.372
 6509SOL    MW426357   2.904   7.208   5.356
 6510SOL     OW26358   2.682   6.083   4.235
 6510SOL    HW226359   2.657   6.171   4.263
 6510SOL    HW326360   2.679   6.086   4.139
 6510SOL    MW426361   2.678   6.095   4.227
 6511SOL     OW26362   2.124   6.111   4.163
 6511SOL    HW226363   2.156   6.199   4.145
 6511SOL    HW326364   2.112   6.109   4.258
 6511SOL    MW426365   2.127   6.123   4.175
 6512SOL     OW26366   2.202   6.524   5.064
 6512SOL    HW226367   2.265   6.471   5.015
 6512SOL    HW326368   2.183   6.598   5.007
 6512SOL    MW426369   2.208   6.526   5.051
 6513SOL     OW26370   2.523   5.866   4.250
 6513SOL    HW226371   2.581   5.942   4.252
 6513SOL    HW326372   2.458   5.887   4.183
 6513SOL    MW426373   2.522   5.878   4.241
 6514SOL     OW26374   2.610   6.793   4.425
 6514SOL    HW226375   2.690   6.796   4.477
 6514SOL    HW326376   2.638   6.760   4.339
 6514SOL    MW426377   2.624   6.789   4.420
 6515SOL     OW26378   2.635   7.134   5.328
 6515SOL    HW226379   2.719   7.160   5.367
 6515SOL    HW326380   2.659   7.078   5.254
 6515SOL    MW426381   2.649   7.130   5.323
 6516SOL     OW26382   2.387   6.297   4.416
 6516SOL    HW226383   2.372   6.217   4.467
 6516SOL    HW326384   2.469   6.332   4.450
 6516SOL    MW426385   2.395   6.289   4.428
 6517SOL     OW26386   2.724   6.983   5.101
 6517SOL    HW226387   2.688   7.049   5.041
 6517SOL    HW326388   2.652   6.921   5.114
 6517SOL    MW426389   2.710   6.983   5.095
 6518SOL     OW26390   2.529   6.123   4.793
 6518SOL    HW226391   2.435   6.119   4.811
 6518SOL    HW326392   2.559   6.032   4.802
 6518SOL    MW426393   2.520   6.111   4.796
 6519SOL     OW26394   2.275   6.537   4.697
 6519SOL    HW226395   2.230   6.544   4.613
 6519SOL    HW326396   2.255   6.620   4.741
 6519SOL    MW426397   2.267   6.549   4.691
 6520SOL     OW26398   1.972   7.383   4.572
 6520SOL    HW226399   2.061   7.375   4.607
 6520SOL    HW326400   1.936   7.295   4.577
 6520SOL    MW426401   1.979   7.370   4.577
 6521SOL     OW26402   3.237   6.775   3.941
 6521SOL    HW226403   3.155   6.811   3.907
 6521SOL    HW326404   3.305   6.818   3.890
 6521SOL    MW426405   3.235   6.785   3.929
 6522SOL     OW26406   2.236   6.910   4.607
 6522SOL    HW226407   2.212   6.963   4.683
 6522SOL    HW326408   2.292   6.968   4.555
 6522SOL    MW426409   2.240   6.925   4.610
 6523SOL     OW26410   2.798   6.554   4.417
 6523SOL    HW226411   2.712   6.541   4.457
 6523SOL    HW326412   2.851   6.481   4.449
 6523SOL    MW426413   2.794   6.543   4.426
 6524SOL     OW26414   2.206   7.206   5.202
 6524SOL    HW226415   2.114   7.182   5.187
 6524SOL    HW326416   2.250   7.123   5.219
 6524SOL    MW426417   2.200   7.191   5.201
 6525SOL     OW26418   2.789   6.916   4.134
 6525SOL    HW226419   2.766   6.978   4.202
 6525SOL    HW326420   2.746   6.834   4.160
 6525SOL    MW426421   2.781   6.912   4.145
 6526SOL     OW26422   3.662   5.917   4.590
 6526SOL    HW226423   3.599   5.897   4.659
 6526SOL    HW326424   3.652   5.846   4.527
 6526SOL    MW426425   3.652   5.904   4.591
 6527SOL     OW26426   2.286   5.889   4.102
 6527SOL    HW226427   2.260   5.851   4.018
 6527SOL    HW326428   2.223   5.959   4.118
 6527SOL    MW426429   2.275   5.892   4.093
 6528SOL     OW26430   2.121   6.850   4.139
 6528SOL    HW226431   2.069   6.918   4.095
 6528SOL    HW326432   2.118   6.776   4.079
 6528SOL    MW426433   2.113   6.849   4.126
 6529SOL     OW26434   2.783   7.313   3.917
 6529SOL    HW226435   2.738   7.329   4.000
 6529SOL    HW326436   2.714   7.278   3.859
 6529SOL    MW426437   2.769   7.310   3.919
 6530SOL     OW26438   3.718   6.086   3.892
 6530SOL    HW226439   3.627   6.088   3.920
 6530SOL    HW326440   3.763   6.148   3.950
 6530SOL    MW426441   3.711   6.094   3.902
 6531SOL     OW26442   3.463   6.689   4.242
 6531SOL    HW226443   3.373   6.689   4.277
 6531SOL    HW326444   3.456   6.735   4.159
 6531SOL    MW426445   3.450   6.695   4.236
 6532SOL     OW26446   3.263   6.324   5.314
 6532SOL    HW226447   3.332   6.262   5.291
 6532SOL    HW326448   3.188   6.298   5.261
 6532SOL    MW426449   3.263   6.311   5.305
 6533SOL     OW26450   2.004   7.204   4.866
 6533SOL    HW226451   1.987   7.150   4.943
 6533SOL    HW326452   1.992   7.294   4.896
 6533SOL    MW426453   2.001   7.208   4.880
 6534SOL     OW26454   2.795   6.135   5.507
 6534SOL    HW226455   2.885   6.136   5.474
 6534SOL    HW326456   2.754   6.060   5.465
 6534SOL    MW426457   2.801   6.125   5.498
 6535SOL     OW26458   3.370   6.667   4.634
 6535SOL    HW226459   3.373   6.601   4.565
 6535SOL    HW326460   3.455   6.710   4.630
 6535SOL    MW426461   3.382   6.663   4.625
 6536SOL     OW26462   2.990   6.270   4.203
 6536SOL    HW226463   3.016   6.294   4.114
 6536SOL    HW326464   2.972   6.177   4.199
 6536SOL    MW426465   2.992   6.262   4.190
 6537SOL     OW26466   3.655   6.890   4.054
 6537SOL    HW226467   3.611   6.931   4.129
 6537SOL    HW326468   3.712   6.958   4.019
 6537SOL    MW426469   3.657   6.904   4.059
 6538SOL     OW26470   2.575   5.939   5.457
 6538SOL    HW226471   2.585   5.865   5.397
 6538SOL    HW326472   2.611   5.908   5.540
 6538SOL    MW426473   2.581   5.925   5.459
 6539SOL     OW26474   2.311   7.306   4.372
 6539SOL    HW226475   2.343   7.394   4.350
 6539SOL    HW326476   2.264   7.278   4.294
 6539SOL    MW426477   2.310   7.314   4.359
 6540SOL     OW26478   3.695   5.668   4.421
 6540SOL    HW226479   3.749   5.619   4.483
 6540SOL    HW326480   3.638   5.602   4.382
 6540SOL    MW426481   3.695   5.652   4.423
 6541SOL     OW26482   2.027   7.366   3.949
 6541SOL    HW226483   2.056   7.456   3.941
 6541SOL    HW326484   1.977   7.349   3.870
 6541SOL    MW426485   2.025   7.374   3.938
 6542SOL     OW26486   2.814   5.621   4.834
 6542SOL    HW226487   2.773   5.699   4.796
 6542SOL    HW326488   2.908   5.639   4.829
 6542SOL    MW426489   2.820   5.633   4.829
 6543SOL     OW26490   3.431   7.174   3.920
 6543SOL    HW226491   3.479   7.243   3.966
 6543SOL    HW326492   3.352   7.218   3.889
 6543SOL    MW426493   3.426   7.188   3.923
 6544SOL     OW26494   2.829   6.299   3.864
 6544SOL    HW226495   2.831   6.246   3.785
 6544SOL    HW326496   2.917   6.336   3.870
 6544SOL    MW426497   2.841   6.298   3.853
 6545SOL     OW26498   3.443   6.225   4.200
 6545SOL    HW226499   3.482   6.225   4.287
 6545SOL    HW326500   3.384   6.301   4.200
 6545SOL    MW426501   3.440   6.236   4.211
 6546SOL     OW26502   2.840   5.729   5.089
 6546SOL    HW226503   2.846   5.691   5.002
 6546SOL    HW326504   2.829   5.823   5.074
 6546SOL    MW426505   2.841   5.737   5.077
 6547SOL     OW26506   2.929   6.218   4.923
 6547SOL    HW226507   3.004   6.247   4.870
 6547SOL    HW326508   2.861   6.283   4.907
 6547SOL    MW426509   2.930   6.230   4.913
 6548SOL     OW26510   3.479   6.186   5.200
 6548SOL    HW226511   3.460   6.095   5.179
 6548SOL    HW326512   3.457   6.235   5.121
 6548SOL    MW426513   3.474   6.179   5.187
 6549SOL     OW26514   3.621   7.280   5.104
 6549SOL    HW226515   3.549   7.242   5.155
 6549SOL    HW326516   3.638   7.365   5.145
 6549SOL    MW426517   3.615   7.285   5.116
 6550SOL     OW26518   2.926   5.924   5.306
 6550SOL    HW226519   2.892   5.963   5.225
 6550SOL    HW326520   2.904   5.832   5.299
 6550SOL    MW426521   2.919   5.917   5.296
 6551SOL     OW26522   3.630   6.111   4.366
 6551SOL    HW226523   3.719   6.080   4.383
 6551SOL    HW326524   3.573   6.051   4.414
 6551SOL    MW426525   3.633   6.099   4.375
 6552SOL     OW26526   2.056   5.825   4.395
 6552SOL    HW226527   2.047   5.765   4.321
 6552SOL    HW326528   1.989   5.796   4.458
 6552SOL    MW426529   2.046   5.812   4.393
 6553SOL     OW26530   2.999   6.918   3.956
 6553SOL    HW226531   2.949   6.920   4.038
 6553SOL    HW326532   2.933   6.936   3.888
 6553SOL    MW426533   2.985   6.920   3.958
 6554SOL     OW26534   2.003   5.998   4.758
 6554SOL    HW226535   1.975   6.089   4.767
 6554SOL    HW326536   1.940   5.959   4.697
 6554SOL    MW426537   1.990   6.004   4.752
 6555SOL     OW26538   2.462   7.336   4.064
 6555SOL    HW226539   2.383   7.294   4.097
 6555SOL    HW326540   2.528   7.319   4.131
 6555SOL    MW426541   2.461   7.328   4.077
 6556SOL     OW26542   3.590   6.856   5.461
 6556SOL    HW226543   3.640   6.782   5.493
 6556SOL    HW326544   3.536   6.883   5.536
 6556SOL    MW426545   3.590   6.850   5.474
 6557SOL     OW26546   2.598   6.751   3.771
 6557SOL    HW226547   2.520   6.697   3.758
 6557SOL    HW326548   2.569   6.824   3.824
 6557SOL    MW426549   2.584   6.753   3.776
 6558SOL     OW26550   3.516   7.200   4.632
 6558SOL    HW226551   3.545   7.267   4.693
 6558SOL    HW326552   3.497   7.124   4.687
 6558SOL    MW426553   3.518   7.200   4.647
 6559SOL     OW26554   3.179   7.267   3.839
 6559SOL    HW226555   3.105   7.230   3.889
 6559SOL    HW326556   3.187   7.357   3.872
 6559SOL    MW426557   3.170   7.274   3.851
 6560SOL     OW26558   1.987   6.273   4.928
 6560SOL    HW226559   2.049   6.303   4.994
 6560SOL    HW326560   1.921   6.342   4.922
 6560SOL    MW426561   1.986   6.286   4.935
 6561SOL     OW26562   3.403   6.941   3.781
 6561SOL    HW226563   3.350   6.990   3.717
 6561SOL    HW326564   3.434   7.007   3.842
 6561SOL    MW426565   3.401   6.955   3.779
 6562SOL     OW26566   2.628   5.830   3.836
 6562SOL    HW226567   2.576   5.750   3.824
 6562SOL    HW326568   2.715   5.807   3.804
 6562SOL    MW426569   2.631   5.816   3.830
 6563SOL     OW26570   2.082   7.382   5.380
 6563SOL    HW226571   2.056   7.450   5.318
 6563SOL    HW326572   2.130   7.319   5.328
 6563SOL    MW426573   2.084   7.382   5.366
 6564SOL     OW26574   2.134   6.701   4.887
 6564SOL    HW226575   2.187   6.776   4.912
 6564SOL    HW326576   2.053   6.739   4.853
 6564SOL    MW426577   2.130   6.716   4.887
 6565SOL     OW26578   2.674   6.605   4.875
 6565SOL    HW226579   2.702   6.514   4.887
 6565SOL    HW326580   2.603   6.599   4.811
 6565SOL    MW426581   2.667   6.593   4.870
 6566SOL     OW26582   1.989   6.470   4.293
 6566SOL    HW226583   2.080   6.485   4.320
 6566SOL    HW326584   1.992   6.391   4.239
 6566SOL    MW426585   2.001   6.462   4.291
 6567SOL     OW26586   2.225   6.178   5.547
 6567SOL    HW226587   2.172   6.258   5.554
 6567SOL    HW326588   2.295   6.190   5.612
 6567SOL    MW426589   2.227   6.191   5.555
 6568SOL     OW26590   2.611   5.728   5.254
 6568SOL    HW226591   2.588   5.636   5.256
 6568SOL    HW326592   2.697   5.730   5.211
 6568SOL    MW426593   2.618   5.718   5.250
 6569SOL     OW26594   2.295   6.252   5.293
 6569SOL    HW226595   2.375   6.302   5.279
 6569SOL    HW326596   2.286   6.246   5.388
 6569SOL    MW426597   2.304   6.258   5.303
 6570SOL     OW26598   2.616   7.402   4.667
 6570SOL    HW226599   2.705   7.417   4.697
 6570SOL    HW326600   2.611   7.449   4.583
 6570SOL    MW426601   2.626   7.410   4.660
 6571SOL     OW26602   3.272   5.777   5.564
 6571SOL    HW226603   3.328   5.704   5.590
 6571SOL    HW326604   3.242   5.815   5.646
 6571SOL    MW426605   3.276   5.772   5.577
 6572SOL     OW26606   1.997   7.082   4.332
 6572SOL    HW226607   1.969   7.121   4.414
 6572SOL    HW326608   2.017   6.991   4.354
 6572SOL    MW426609   1.995   7.074   4.345
 6573SOL     OW26610   2.830   7.125   4.367
 6573SOL    HW226611   2.913   7.079   4.351
 6573SOL    HW326612   2.820   7.124   4.463
 6573SOL    MW426613   2.840   7.118   4.377
 6574SOL     OW26614   3.662   6.270   4.681
 6574SOL    HW226615   3.751   6.300   4.663
 6574SOL    HW326616   3.642   6.210   4.610
 6574SOL    MW426617   3.671   6.267   4.670
 6575SOL     OW26618   3.513   6.449   5.561
 6575SOL    HW226619   3.568   6.373   5.542
 6575SOL    HW326620   3.515   6.457   5.656
 6575SOL    MW426621   3.521   6.440   5.569
 6576SOL     OW26622   2.563   7.182   3.772
 6576SOL    HW226623   2.503   7.251   3.742
 6576SOL    HW326624   2.508   7.124   3.825
 6576SOL    MW426625   2.547   7.184   3.774
 6577SOL     OW26626   3.001   5.827   3.995
 6577SOL    HW226627   2.934   5.803   3.932
 6577SOL    HW326628   3.066   5.876   3.944
 6577SOL    MW426629   3.001   5.829   3.980
 6578SOL     OW26630   2.808   6.011   5.080
 6578SOL    HW226631   2.727   6.052   5.108
 6578SOL    HW326632   2.855   6.079   5.032
 6578SOL    MW426633   2.803   6.026   5.078
 6579SOL     OW26634   3.068   6.349   4.703
 6579SOL    HW226635   3.081   6.443   4.713
 6579SOL    HW326636   3.029   6.339   4.617
 6579SOL    MW426637   3.064   6.360   4.693
 6580SOL     OW26638   2.520   6.544   4.507
 6580SOL    HW226639   2.431   6.535   4.540
 6580SOL    HW326640   2.524   6.634   4.475
 6580SOL    MW426641   2.509   6.555   4.507
 6581SOL     OW26642   3.319   6.127   4.502
 6581SOL    HW226643   3.264   6.048   4.501
 6581SOL    HW326644   3.301   6.168   4.586
 6581SOL    MW426645   3.309   6.122   4.511
 6582SOL     OW26646   2.290   5.814   5.319
 6582SOL    HW226647   2.211   5.832   5.371
 6582SOL    HW326648   2.285   5.876   5.246
 6582SOL    MW426649   2.280   5.824   5.316
 6583SOL     OW26650   2.938   6.331   4.459
 6583SOL    HW226651   2.875   6.263   4.483
 6583SOL    HW326652   2.958   6.312   4.367
 6583SOL    MW426653   2.932   6.318   4.451
 6584SOL     OW26654   2.194   7.226   4.161
 6584SOL    HW226655   2.155   7.273   4.087
 6584SOL    HW326656   2.128   7.161   4.186
 6584SOL    MW426657   2.181   7.224   4.155
 6585SOL     OW26658   2.686   6.635   4.185
 6585SOL    HW226659   2.688   6.609   4.092
 6585SOL    HW326660   2.744   6.572   4.228
 6585SOL    MW426661   2.694   6.624   4.179
 6586SOL     OW26662   3.239   7.195   4.957
 6586SOL    HW226663   3.164   7.241   4.995
 6586SOL    HW326664   3.221   7.102   4.974
 6586SOL    MW426665   3.228   7.189   4.965
 6587SOL     OW26666   3.243   7.403   4.387
 6587SOL    HW226667   3.186   7.356   4.326
 6587SOL    HW326668   3.329   7.364   4.374
 6587SOL    MW426669   3.246   7.394   4.377
 6588SOL     OW26670   3.196   5.879   4.518
 6588SOL    HW226671   3.224   5.811   4.579
 6588SOL    HW326672   3.110   5.850   4.488
 6588SOL    MW426673   3.189   5.866   4.522
 6589SOL     OW26674   2.001   6.813   4.452
 6589SOL    HW226675   2.065   6.845   4.515
 6589SOL    HW326676   2.050   6.749   4.400
 6589SOL    MW426677   2.016   6.809   4.453
 6590SOL     OW26678   2.501   6.889   5.434
 6590SOL    HW226679   2.549   6.972   5.421
 6590SOL    HW326680   2.558   6.837   5.490
 6590SOL    MW426681   2.515   6.893   5.440
 6591SOL     OW26682   3.176   5.983   3.853
 6591SOL    HW226683   3.149   6.049   3.789
 6591SOL    HW326684   3.246   6.026   3.903
 6591SOL    MW426685   3.181   5.996   3.850
 6592SOL     OW26686   2.844   5.688   3.790
 6592SOL    HW226687   2.900   5.680   3.712
 6592SOL    HW326688   2.821   5.598   3.812
 6592SOL    MW426689   2.849   5.675   3.783
 6593SOL     OW26690   3.349   6.539   3.995
 6593SOL    HW226691   3.316   6.628   3.985
 6593SOL    HW326692   3.314   6.510   4.080
 6593SOL    MW426693   3.339   6.548   4.006
 6594SOL     OW26694   2.962   6.968   5.183
 6594SOL    HW226695   2.873   6.974   5.151
 6594SOL    HW326696   3.006   7.047   5.151
 6594SOL    MW426697   2.957   6.978   5.175
 6595SOL     OW26698   2.255   5.636   5.525
 6595SOL    HW226699   2.183   5.601   5.473
 6595SOL    HW326700   2.313   5.677   5.460
 6595SOL    MW426701   2.253   5.637   5.510
 6596SOL     OW26702   2.279   7.126   4.824
 6596SOL    HW226703   2.324   7.188   4.881
 6596SOL    HW326704   2.186   7.145   4.837
 6596SOL    MW426705   2.272   7.136   4.831
 6597SOL     OW26706   2.701   7.194   4.932
 6597SOL    HW226707   2.725   7.183   4.841
 6597SOL    HW326708   2.624   7.251   4.930
 6597SOL    MW426709   2.693   7.199   4.921
 6598SOL     OW26710   2.343   6.577   3.787
 6598SOL    HW226711   2.266   6.590   3.843
 6598SOL    HW326712   2.307   6.541   3.706
 6598SOL    MW426713   2.329   6.573   3.784
 6599SOL     OW26714   2.996   6.550   4.030
 6599SOL    HW226715   2.906   6.571   4.005
 6599SOL    HW326716   3.023   6.623   4.086
 6599SOL    MW426717   2.988   6.562   4.033
 6600SOL     OW26718   2.496   6.899   4.722
 6600SOL    HW226719   2.489   6.878   4.816
 6600SOL    HW326720   2.414   6.867   4.685
 6600SOL    MW426721   2.484   6.893   4.729
 6601SOL     OW26722   3.360   5.909   5.124
 6601SOL    HW226723   3.307   5.911   5.204
 6601SOL    HW326724   3.345   5.822   5.087
 6601SOL    MW426725   3.352   5.899   5.129
 6602SOL     OW26726   3.696   5.833   4.997
 6602SOL    HW226727   3.677   5.900   4.932
 6602SOL    HW326728   3.753   5.771   4.952
 6602SOL    MW426729   3.700   5.834   4.983
 6603SOL     OW26730   1.942   6.991   5.385
 6603SOL    HW226731   1.986   6.924   5.331
 6603SOL    HW326732   1.857   6.953   5.405
 6603SOL    MW426733   1.937   6.977   5.381
 6604SOL     OW26734   2.625   5.666   4.437
 6604SOL    HW226735   2.554   5.727   4.419
 6604SOL    HW326736   2.676   5.663   4.356
 6604SOL    MW426737   2.621   5.672   4.424
 6605SOL     OW26738   2.383   6.906   4.186
 6605SOL    HW226739   2.376   6.938   4.276
 6605SOL    HW326740   2.293   6.890   4.158
 6605SOL    MW426741   2.371   6.908   4.193
 6606SOL     OW26742   2.978   7.299   5.095
 6606SOL    HW226743   2.898   7.284   5.045
 6606SOL    HW326744   2.985   7.394   5.102
 6606SOL    MW426745   2.969   7.310   5.089
 6607SOL     OW26746   3.092   7.264   4.585
 6607SOL    HW226747   3.139   7.337   4.544
 6607SOL    HW326748   3.013   7.303   4.621
 6607SOL    MW426749   3.087   7.279   4.584
 6608SOL     OW26750   3.500   7.359   4.860
 6608SOL    HW226751   3.543   7.329   4.940
 6608SOL    HW326752   3.419   7.307   4.857
 6608SOL    MW426753   3.495   7.348   4.870
 6609SOL     OW26754   2.585   6.323   5.567
 6609SOL    HW226755   2.655   6.265   5.539
 6609SOL    HW326756   2.528   6.268   5.622
 6609SOL    MW426757   2.587   6.310   5.571
 6610SOL     OW26758   3.012   5.670   5.446
 6610SOL    HW226759   3.007   5.577   5.427
 6610SOL    HW326760   3.095   5.681   5.492
 6610SOL    MW426761   3.020   5.659   5.450
 6611SOL     OW26762   2.386   6.190   3.900
 6611SOL    HW226763   2.352   6.246   3.970
 6611SOL    HW326764   2.457   6.140   3.940
 6611SOL    MW426765   2.392   6.191   3.914
 6612SOL     OW26766   3.482   6.941   4.722
 6612SOL    HW226767   3.517   6.923   4.635
 6612SOL    HW326768   3.387   6.942   4.709
 6612SOL    MW426769   3.474   6.938   4.709
 6613SOL     OW26770   2.911   6.589   5.091
 6613SOL    HW226771   2.954   6.624   5.169
 6613SOL    HW326772   2.894   6.666   5.037
 6613SOL    MW426773   2.914   6.604   5.094
 6614SOL     OW26774   3.442   6.076   3.964
 6614SOL    HW226775   3.434   6.147   3.901
 6614SOL    HW326776   3.460   6.120   4.047
 6614SOL    MW426777   3.443   6.090   3.966
 6615SOL     OW26778   2.302   5.731   4.393
 6615SOL    HW226779   2.352   5.774   4.324
 6615SOL    HW326780   2.217   5.775   4.393
 6615SOL    MW426781   2.299   5.744   4.384
 6616SOL     OW26782   2.061   6.793   5.253
 6616SOL    HW226783   2.089   6.746   5.331
 6616SOL    HW326784   1.982   6.748   5.224
 6616SOL    MW426785   2.054   6.782   5.259
 6617SOL     OW26786   2.569   6.120   5.220
 6617SOL    HW226787   2.541   6.208   5.244
 6617SOL    HW326788   2.538   6.064   5.291
 6617SOL    MW426789   2.561   6.123   5.232
 6618SOL     OW26790   3.111   6.338   3.939
 6618SOL    HW226791   3.158   6.356   3.858
 6618SOL    HW326792   3.077   6.422   3.967
 6618SOL    MW426793   3.113   6.352   3.932
 6619SOL     OW26794   2.224   6.516   4.433
 6619SOL    HW226795   2.282   6.572   4.381
 6619SOL    HW326796   2.268   6.431   4.435
 6619SOL    MW426797   2.237   6.513   4.426
 6620SOL     OW26798   3.364   5.868   4.270
 6620SOL    HW226799   3.286   5.818   4.295
 6620SOL    HW326800   3.335   5.959   4.270
 6620SOL    MW426801   3.350   5.872   4.273
 6621SOL     OW26802   2.950   5.830   4.429
 6621SOL    HW226803   2.970   5.905   4.373
 6621SOL    HW326804   2.930   5.869   4.514
 6621SOL    MW426805   2.951   5.846   4.433
 6622SOL     OW26806   2.846   7.080   3.761
 6622SOL    HW226807   2.873   7.158   3.713
 6622SOL    HW326808   2.753   7.095   3.780
 6622SOL    MW426809   2.837   7.093   3.757
 6623SOL     OW26810   3.710   6.603   5.448
 6623SOL    HW226811   3.623   6.583   5.484
 6623SOL    HW326812   3.764   6.529   5.473
 6623SOL    MW426813   3.705   6.592   5.456
 6624SOL     OW26814   1.931   7.116   4.605
 6624SOL    HW226815   1.963   7.120   4.696
 6624SOL    HW326816   1.836   7.124   4.613
 6624SOL    MW426817   1.923   7.119   4.618
 6625SOL     OW26818   1.886   6.242   4.152
 6625SOL    HW226819   1.826   6.214   4.222
 6625SOL    HW326820   1.960   6.182   4.158
 6625SOL    MW426821   1.888   6.231   4.161
 6626SOL     OW26822   3.454   7.454   5.586
 6626SOL    HW226823   3.499   7.378   5.551
 6626SOL    HW326824   3.492   7.467   5.673
 6626SOL    MW426825   3.464   7.447   5.592
 6627SOL     OW26826   3.054   6.973   4.312
 6627SOL    HW226827   3.077   6.924   4.390
 6627SOL    HW326828   3.135   7.015   4.284
 6627SOL    MW426829   3.067   6.973   4.319
 6628SOL     OW26830   2.312   5.981   5.041
 6628SOL    HW226831   2.345   6.062   5.081
 6628SOL    HW326832   2.285   6.007   4.953
 6628SOL    MW426833   2.311   5.995   5.035
 6629SOL     OW26834   2.266   5.948   4.777
 6629SOL    HW226835   2.296   5.862   4.748
 6629SOL    HW326836   2.171   5.941   4.780
 6629SOL    MW426837   2.258   5.937   4.775
 6630SOL     OW26838   3.095   6.157   5.468
 6630SOL    HW226839   3.147   6.092   5.421
 6630SOL    HW326840   3.053   6.208   5.398
 6630SOL    MW426841   3.096   6.154   5.451
 6631SOL     OW26842   3.194   5.952   5.329
 6631SOL    HW226843   3.101   5.936   5.316
 6631SOL    HW326844   3.220   5.890   5.397
 6631SOL    MW426845   3.184   5.942   5.336
 6632SOL     OW26846   2.409   5.726   4.668
 6632SOL    HW226847   2.419   5.635   4.694
 6632SOL    HW326848   2.365   5.722   4.583
 6632SOL    MW426849   2.405   5.714   4.660
 6633SOL     OW26850   2.503   7.341   5.214
 6633SOL    HW226851   2.420   7.326   5.259
 6633SOL    HW326852   2.562   7.274   5.249
 6633SOL    MW426853   2.501   7.331   5.224
 6634SOL     OW26854   3.560   6.048   4.839
 6634SOL    HW226855   3.493   6.081   4.899
 6634SOL    HW326856   3.603   6.126   4.805
 6634SOL    MW426857   3.558   6.063   4.843
 6635SOL     OW26858   3.120   6.630   4.727
 6635SOL    HW226859   3.134   6.602   4.818
 6635SOL    HW326860   3.206   6.661   4.699
 6635SOL    MW426861   3.133   6.631   4.736
 6636SOL     OW26862   3.203   6.125   5.006
 6636SOL    HW226863   3.224   6.126   4.913
 6636SOL    HW326864   3.248   6.047   5.039
 6636SOL    MW426865   3.210   6.115   4.998
 6637SOL     OW26866   3.696   6.256   5.548
 6637SOL    HW226867   3.733   6.201   5.617
 6637SOL    HW326868   3.721   6.213   5.466
 6637SOL    MW426869   3.703   6.244   5.547
 6638SOL     OW26870   3.194   5.640   3.948
 6638SOL    HW226871   3.268   5.684   3.991
 6638SOL    HW326872   3.118   5.694   3.970
 6638SOL    MW426873   3.194   5.652   3.956
 6639SOL     OW26874   3.254   6.415   4.226
 6639SOL    HW226875   3.169   6.385   4.196
 6639SOL    HW326876   3.246   6.422   4.321
 6639SOL    MW426877   3.242   6.413   4.235
 6640SOL     OW26878   2.330   6.878   4.957
 6640SOL    HW226879   2.342   6.905   5.048
 6640SOL    HW326880   2.311   6.959   4.910
 6640SOL    MW426881   2.329   6.893   4.962
 6641SOL     OW26882   2.614   5.858   4.780
 6641SOL    HW226883   2.587   5.860   4.871
 6641SOL    HW326884   2.544   5.810   4.735
 6641SOL    MW426885   2.602   5.854   4.787
 6642SOL     OW26886   2.468   7.350   4.942
 6642SOL    HW226887   2.520   7.427   4.919
 6642SOL    HW326888   2.477   7.342   5.037
 6642SOL    MW426889   2.477   7.357   4.953
 6643SOL     OW26890   2.444   6.666   5.291
 6643SOL    HW226891   2.481   6.671   5.203
 6643SOL    HW326892   2.483   6.739   5.338
 6643SOL    MW426893   2.454   6.676   5.286
 6644SOL     OW26894   2.624   6.709   5.103
 6644SOL    HW226895   2.683   6.655   5.156
 6644SOL    HW326896   2.639   6.681   5.013
 6644SOL    MW426897   2.634   6.698   5.099
 6645SOL     OW26898   2.627   6.081   3.952
 6645SOL    HW226899   2.700   6.130   3.915
 6645SOL    HW326900   2.643   5.990   3.926
 6645SOL    MW426901   2.639   6.076   3.945
 6646SOL     OW26902   3.095   5.677   4.866
 6646SOL    HW226903   3.150   5.686   4.788
 6646SOL    HW326904   3.150   5.711   4.937
 6646SOL    MW426905   3.109   5.682   4.865
 6647SOL     OW26906   2.102   6.590   4.050
 6647SOL    HW226907   2.039   6.606   3.979
 6647SOL    HW326908   2.049   6.553   4.121
 6647SOL    MW426909   2.087   6.587   4.050
 6648SOL     OW26910   2.458   6.944   3.909
 6648SOL    HW226911   2.473   6.920   4.001
 6648SOL    HW326912   2.366   6.922   3.893
 6648SOL    MW426913   2.448   6.937   3.919
 6649SOL     OW26914   2.997   7.175   4.061
 6649SOL    HW226915   3.005   7.093   4.012
 6649SOL    HW326916   2.916   7.214   4.028
 6649SOL    MW426917   2.987   7.170   4.051
 6650SOL     OW26918   2.256   7.333   4.630
 6650SOL    HW226919   2.260   7.244   4.665
 6650SOL    HW326920   2.282   7.324   4.539
 6650SOL    MW426921   2.259   7.321   4.622
 6651SOL     OW26922   2.873   6.811   4.873
 6651SOL    HW226923   2.805   6.745   4.889
 6651SOL    HW326924   2.891   6.805   4.780
 6651SOL    MW426925   2.866   6.802   4.864
 6652SOL     OW26926   1.962   7.086   5.124
 6652SOL    HW226927   1.952   7.044   5.210
 6652SOL    HW326928   1.883   7.139   5.114
 6652SOL    MW426929   1.951   7.087   5.135
 6653SOL     OW26930   2.866   5.950   4.694
 6653SOL    HW226931   2.796   5.902   4.739
 6653SOL    HW326932   2.898   6.013   4.758
 6653SOL    MW426933   2.861   5.952   4.708
 6654SOL     OW26934   2.517   6.386   5.314
 6654SOL    HW226935   2.510   6.481   5.302
 6654SOL    HW326936   2.526   6.375   5.409
 6654SOL    MW426937   2.518   6.398   5.324
 6655SOL     OW26938   2.238   6.901   5.572
 6655SOL    HW226939   2.310   6.903   5.509
 6655SOL    HW326940   2.208   6.810   5.571
 6655SOL    MW426941   2.243   6.890   5.564
 6656SOL     OW26942   3.322   5.664   5.039
 6656SOL    HW226943   3.393   5.610   5.003
 6656SOL    HW326944   3.321   5.643   5.132
 6656SOL    MW426945   3.331   5.655   5.047
 6657SOL     OW26946   3.522   7.194   5.523
 6657SOL    HW226947   3.495   7.191   5.614
 6657SOL    HW326948   3.618   7.198   5.526
 6657SOL    MW426949   3.532   7.194   5.535
 6658SOL     OW26950   2.333   6.056   4.507
 6658SOL    HW226951   2.404   6.004   4.470
 6658SOL    HW326952   2.319   6.021   4.594
 6658SOL    MW426953   2.341   6.045   4.514
 6659SOL     OW26954   1.888   7.391   5.579
 6659SOL    HW226955   1.938   7.369   5.501
 6659SOL    HW326956   1.896   7.486   5.587
 6659SOL    MW426957   1.896   7.400   5.570
 6660SOL     OW26958   2.649   7.149   4.583
 6660SOL    HW226959   2.577   7.086   4.596
 6660SOL    HW326960   2.610   7.234   4.601
 6660SOL    MW426961   2.633   7.152   4.586
 6661SOL     OW26962   2.969   5.997   4.231
 6661SOL    HW226963   2.991   5.934   4.163
 6661SOL    HW326964   2.874   5.989   4.242
 6661SOL    MW426965   2.959   5.988   4.223
 6662SOL     OW26966   2.054   5.687   4.163
 6662SOL    HW226967   2.125   5.708   4.102
 6662SOL    HW326968   2.008   5.615   4.121
 6662SOL    MW426969   2.058   5.681   4.149
 6663SOL     OW26970   1.885   6.154   5.306
 6663SOL    HW226971   1.949   6.220   5.281
 6663SOL    HW326972   1.804   6.181   5.263
 6663SOL    MW426973   1.883   6.166   5.298
 6664SOL     OW26974   3.623   7.061   4.263
 6664SOL    HW226975   3.593   6.994   4.324
 6664SOL    HW326976   3.717   7.067   4.277
 6664SOL    MW426977   3.631   7.053   4.273
 6665SOL     OW26978   3.179   6.738   4.193
 6665SOL    HW226979   3.151   6.824   4.226
 6665SOL    HW326980   3.207   6.754   4.103
 6665SOL    MW426981   3.179   6.752   4.185
 6666SOL     OW26982   2.841   5.658   4.246
 6666SOL    HW226983   2.878   5.717   4.311
 6666SOL    HW326984   2.818   5.714   4.172
 6666SOL    MW426985   2.842   5.673   4.245
 6667SOL     OW26986   2.070   6.380   5.247
 6667SOL    HW226987   2.091   6.449   5.185
 6667SOL    HW326988   2.150   6.327   5.252
 6667SOL    MW426989   2.083   6.381   5.241
 6668SOL     OW26990   3.606   6.471   4.369
 6668SOL    HW226991   3.700   6.460   4.357
 6668SOL    HW326992   3.582   6.543   4.310
 6668SOL    MW426993   3.616   6.479   4.360
 6669SOL     OW26994   2.055   6.395   5.514
 6669SOL    HW226995   1.981   6.339   5.540
 6669SOL    HW326996   2.050   6.398   5.419
 6669SOL    MW426997   2.044   6.388   5.504
 6670SOL     OW26998   2.221   5.682   4.964
 6670SOL    HW226999   2.264   5.766   4.984
 6670SOL    HW327000   2.294   5.620   4.957
 6670SOL    MW427001   2.236   5.685   4.965
 6671SOL     OW27002   2.262   6.349   4.142
 6671SOL    HW227003   2.262   6.444   4.127
 6671SOL    HW327004   2.339   6.333   4.196
 6671SOL    MW427005   2.272   6.360   4.147
 6672SOL     OW27006   3.038   6.208   5.206
 6672SOL    HW227007   3.074   6.181   5.122
 6672SOL    HW327008   2.951   6.242   5.185
 6672SOL    MW427009   3.032   6.209   5.193
 6673SOL     OW27010   2.021   6.080   4.431
 6673SOL    HW227011   2.083   6.087   4.504
 6673SOL    HW327012   2.021   5.987   4.408
 6673SOL    MW427013   2.029   6.069   4.438
 6674SOL     OW27014   3.568   7.420   3.963
 6674SOL    HW227015   3.635   7.453   3.903
 6674SOL    HW327016   3.525   7.499   3.997
 6674SOL    MW427017   3.570   7.435   3.959
 6675SOL     OW27018   2.703   6.341   4.915
 6675SOL    HW227019   2.661   6.259   4.891
 6675SOL    HW327020   2.704   6.340   5.011
 6675SOL    MW427021   2.696   6.330   4.924
 6676SOL     OW27022   3.374   7.474   5.314
 6676SOL    HW227023   3.377   7.380   5.297
 6676SOL    HW327024   3.397   7.482   5.406
 6676SOL    MW427025   3.377   7.462   5.324
 6677SOL     OW27026   2.507   5.811   5.020
 6677SOL    HW227027   2.438   5.874   5.041
 6677SOL    HW327028   2.534   5.775   5.105
 6677SOL    MW427029   2.501   5.814   5.033
 6678SOL     OW27030   1.890   6.652   3.889
 6678SOL    HW227031   1.859   6.717   3.952
 6678SOL    HW327032   1.839   6.574   3.908
 6678SOL    MW427033   1.880   6.649   3.899
 6679SOL     OW27034   3.302   5.664   4.637
 6679SOL    HW227035   3.390   5.673   4.674
 6679SOL    HW327036   3.312   5.605   4.563
 6679SOL    MW427037   3.316   5.658   4.631
 6680SOL     OW27038   3.334   6.403   4.481
 6680SOL    HW227039   3.414   6.418   4.430
 6680SOL    HW327040   3.327   6.308   4.487
 6680SOL    MW427041   3.343   6.392   4.476
 6681SOL     OW27042   2.474   7.452   3.831
 6681SOL    HW227043   2.379   7.452   3.823
 6681SOL    HW327044   2.490   7.398   3.909
 6681SOL    MW427045   2.464   7.446   3.840
 6682SOL     OW27046   2.784   6.329   5.178
 6682SOL    HW227047   2.853   6.396   5.175
 6682SOL    HW327048   2.717   6.367   5.234
 6682SOL    MW427049   2.785   6.342   5.185
 6683SOL     OW27050   2.202   6.629   5.426
 6683SOL    HW227051   2.156   6.545   5.428
 6683SOL    HW327052   2.259   6.623   5.350
 6683SOL    MW427053   2.204   6.617   5.418
 6684SOL     OW27054   3.319   6.272   3.747
 6684SOL    HW227055   3.247   6.248   3.689
 6684SOL    HW327056   3.385   6.309   3.689
 6684SOL    MW427057   3.318   6.274   3.732
 6685SOL     OW27058   2.453   7.004   4.427
 6685SOL    HW227059   2.518   6.937   4.448
 6685SOL    HW327060   2.505   7.081   4.404
 6685SOL    MW427061   2.468   7.006   4.426
 6686SOL     OW27062   2.714   6.169   4.557
 6686SOL    HW227063   2.654   6.187   4.629
 6686SOL    HW327064   2.748   6.081   4.576
 6686SOL    MW427065   2.710   6.159   4.570
 6687SOL     OW27066   3.655   5.668   5.226
 6687SOL    HW227067   3.576   5.714   5.254
 6687SOL    HW327068   3.690   5.722   5.155
 6687SOL    MW427069   3.649   5.681   5.220
 6688SOL     OW27070   2.939   6.752   4.576
 6688SOL    HW227071   3.031   6.733   4.594
 6688SOL    HW327072   2.912   6.682   4.516
 6688SOL    MW427073   2.947   6.740   4.570
 6689SOL     OW27074   2.732   6.572   3.931
 6689SOL    HW227075   2.718   6.484   3.896
 6689SOL    HW327076   2.683   6.629   3.872
 6689SOL    MW427077   2.724   6.567   3.919
 6690SOL     OW27078   3.213   6.990   4.672
 6690SOL    HW227079   3.186   7.074   4.637
 6690SOL    HW327080   3.173   6.985   4.759
 6690SOL    MW427081   3.206   6.999   4.678
 6691SOL     OW27082   2.145   6.296   4.710
 6691SOL    HW227083   2.095   6.295   4.791
 6691SOL    HW327084   2.165   6.388   4.694
 6691SOL    MW427085   2.141   6.308   4.718
 6692SOL     OW27086   3.212   7.060   5.472
 6692SOL    HW227087   3.212   7.154   5.488
 6692SOL    HW327088   3.257   7.050   5.388
 6692SOL    MW427089   3.218   7.070   5.463
 6693SOL     OW27090   3.451   5.778   4.033
 6693SOL    HW227091   3.444   5.782   4.128
 6693SOL    HW327092   3.463   5.869   4.006
 6693SOL    MW427093   3.452   5.791   4.041
 6694SOL     OW27094   2.740   6.341   4.147
 6694SOL    HW227095   2.720   6.327   4.054
 6694SOL    HW327096   2.833   6.320   4.154
 6694SOL    MW427097   2.750   6.336   4.136
 6695SOL     OW27098   2.067   5.964   5.451
 6695SOL    HW227099   2.024   6.023   5.388
 6695SOL    HW327100   2.135   6.019   5.491
 6695SOL    MW427101   2.071   5.979   5.448
 6696SOL     OW27102   2.723   7.299   4.185
 6696SOL    HW227103   2.781   7.370   4.212
 6696SOL    HW327104   2.746   7.227   4.243
 6696SOL    MW427105   2.734   7.299   4.196
 6697SOL     OW27106   3.518   5.761   4.775
 6697SOL    HW227107   3.563   5.679   4.794
 6697SOL    HW327108   3.538   5.817   4.851
 6697SOL    MW427109   3.528   5.757   4.787
 6698SOL     OW27110   1.966   5.604   4.874
 6698SOL    HW227111   1.957   5.605   4.779
 6698SOL    HW327112   2.060   5.616   4.889
 6698SOL    MW427113   1.978   5.607   4.865
 6699SOL     OW27114   3.603   6.797   4.494
 6699SOL    HW227115   3.582   6.743   4.417
 6699SOL    HW327116   3.699   6.795   4.498
 6699SOL    MW427117   3.612   6.790   4.483
 6700SOL     OW27118   2.295   6.942   5.237
 6700SOL    HW227119   2.216   6.892   5.260
 6700SOL    HW327120   2.365   6.901   5.287
 6700SOL    MW427121   2.293   6.930   5.247
 6701SOL     OW27122   2.179   5.731   3.920
 6701SOL    HW227123   2.108   5.786   3.888
 6701SOL    HW327124   2.221   5.697   3.841
 6701SOL    MW427125   2.175   5.733   3.906
 6702SOL     OW27126   3.303   6.228   4.756
 6702SOL    HW227127   3.226   6.274   4.722
 6702SOL    HW327128   3.360   6.297   4.790
 6702SOL    MW427129   3.300   6.243   4.756
 6703SOL     OW27130   1.935   5.830   3.769
 6703SOL    HW227131   1.902   5.909   3.813
 6703SOL    HW327132   1.990   5.863   3.698
 6703SOL    MW427133   1.938   5.844   3.766
 6704SOL     OW27134   1.969   7.087   3.958
 6704SOL    HW227135   1.986   7.171   4.000
 6704SOL    HW327136   2.004   7.096   3.870
 6704SOL    MW427137   1.974   7.100   3.952
 6705SOL     OW27138   3.241   7.176   4.175
 6705SOL    HW227139   3.304   7.166   4.104
 6705SOL    HW327140   3.158   7.196   4.130
 6705SOL    MW427141   3.238   7.177   4.160
 6706SOL     OW27142   3.604   6.444   5.862
 6706SOL    HW227143   3.645   6.386   5.927
 6706SOL    HW327144   3.511   6.436   5.879
 6706SOL    MW427145   3.598   6.436   5.872
 6707SOL     OW27146   3.470   6.376   6.857
 6707SOL    HW227147   3.425   6.443   6.908
 6707SOL    HW327148   3.558   6.412   6.843
 6707SOL    MW427149   3.476   6.389   6.861
 6708SOL     OW27150   2.398   6.627   6.091
 6708SOL    HW227151   2.488   6.602   6.075
 6708SOL    HW327152   2.394   6.720   6.068
 6708SOL    MW427153   2.410   6.636   6.086
 6709SOL     OW27154   3.514   7.330   6.233
 6709SOL    HW227155   3.526   7.276   6.311
 6709SOL    HW327156   3.551   7.278   6.162
 6709SOL    MW427157   3.520   7.315   6.234
 6710SOL     OW27158   2.893   7.215   7.234
 6710SOL    HW227159   2.934   7.251   7.155
 6710SOL    HW327160   2.928   7.126   7.241
 6710SOL    MW427161   2.904   7.208   7.225
 6711SOL     OW27162   3.450   6.770   6.838
 6711SOL    HW227163   3.371   6.735   6.796
 6711SOL    HW327164   3.477   6.842   6.782
 6711SOL    MW427165   3.443   6.775   6.825
 6712SOL     OW27166   2.682   6.083   6.104
 6712SOL    HW227167   2.657   6.171   6.132
 6712SOL    HW327168   2.679   6.086   6.008
 6712SOL    MW427169   2.678   6.095   6.096
 6713SOL     OW27170   2.124   6.111   6.032
 6713SOL    HW227171   2.156   6.199   6.014
 6713SOL    HW327172   2.112   6.109   6.127
 6713SOL    MW427173   2.127   6.123   6.044
 6714SOL     OW27174   2.202   6.524   6.933
 6714SOL    HW227175   2.265   6.471   6.884
 6714SOL    HW327176   2.183   6.598   6.876
 6714SOL    MW427177   2.208   6.526   6.920
 6715SOL     OW27178   2.523   5.866   6.119
 6715SOL    HW227179   2.581   5.942   6.121
 6715SOL    HW327180   2.458   5.887   6.052
 6715SOL    MW427181   2.522   5.878   6.110
 6716SOL     OW27182   2.635   7.134   7.197
 6716SOL    HW227183   2.719   7.160   7.236
 6716SOL    HW327184   2.659   7.078   7.123
 6716SOL    MW427185   2.649   7.130   7.192
 6717SOL     OW27186   2.387   6.297   6.285
 6717SOL    HW227187   2.372   6.217   6.336
 6717SOL    HW327188   2.469   6.332   6.319
 6717SOL    MW427189   2.395   6.289   6.297
 6718SOL     OW27190   2.724   6.983   6.970
 6718SOL    HW227191   2.688   7.049   6.910
 6718SOL    HW327192   2.652   6.921   6.983
 6718SOL    MW427193   2.710   6.983   6.964
 6719SOL     OW27194   2.529   6.123   6.662
 6719SOL    HW227195   2.435   6.119   6.680
 6719SOL    HW327196   2.559   6.032   6.671
 6719SOL    MW427197   2.520   6.111   6.665
 6720SOL     OW27198   2.275   6.537   6.566
 6720SOL    HW227199   2.230   6.544   6.482
 6720SOL    HW327200   2.255   6.620   6.610
 6720SOL    MW427201   2.267   6.549   6.560
 6721SOL     OW27202   1.972   7.383   6.441
 6721SOL    HW227203   2.061   7.375   6.476
 6721SOL    HW327204   1.936   7.295   6.446
 6721SOL    MW427205   1.979   7.370   6.446
 6722SOL     OW27206   2.236   6.910   6.476
 6722SOL    HW227207   2.212   6.963   6.552
 6722SOL    HW327208   2.292   6.968   6.424
 6722SOL    MW427209   2.240   6.925   6.479
 6723SOL     OW27210   2.798   6.554   6.286
 6723SOL    HW227211   2.712   6.541   6.326
 6723SOL    HW327212   2.851   6.481   6.318
 6723SOL    MW427213   2.794   6.543   6.295
 6724SOL     OW27214   2.206   7.206   7.071
 6724SOL    HW227215   2.114   7.182   7.056
 6724SOL    HW327216   2.250   7.123   7.088
 6724SOL    MW427217   2.200   7.191   7.070
 6725SOL     OW27218   3.662   5.917   6.459
 6725SOL    HW227219   3.599   5.897   6.528
 6725SOL    HW327220   3.652   5.846   6.396
 6725SOL    MW427221   3.652   5.904   6.460
 6726SOL     OW27222   2.286   5.889   5.971
 6726SOL    HW227223   2.260   5.851   5.887
 6726SOL    HW327224   2.223   5.959   5.987
 6726SOL    MW427225   2.275   5.892   5.962
 6727SOL     OW27226   2.121   6.850   6.008
 6727SOL    HW227227   2.069   6.918   5.964
 6727SOL    HW327228   2.118   6.776   5.948
 6727SOL    MW427229   2.113   6.849   5.995
 6728SOL     OW27230   2.783   7.313   5.786
 6728SOL    HW227231   2.738   7.329   5.869
 6728SOL    HW327232   2.714   7.278   5.728
 6728SOL    MW427233   2.769   7.310   5.788
 6729SOL     OW27234   3.718   6.086   5.761
 6729SOL    HW227235   3.627   6.088   5.789
 6729SOL    HW327236   3.763   6.148   5.819
 6729SOL    MW427237   3.711   6.094   5.771
 6730SOL     OW27238   3.263   6.324   7.183
 6730SOL    HW227239   3.332   6.262   7.160
 6730SOL    HW327240   3.188   6.298   7.130
 6730SOL    MW427241   3.263   6.311   7.174
 6731SOL     OW27242   2.004   7.204   6.735
 6731SOL    HW227243   1.987   7.150   6.812
 6731SOL    HW327244   1.992   7.294   6.765
 6731SOL    MW427245   2.001   7.208   6.749
 6732SOL     OW27246   2.999   6.711   7.175
 6732SOL    HW227247   2.984   6.804   7.160
 6732SOL    HW327248   3.094   6.701   7.175
 6732SOL    MW427249   3.008   6.721   7.172
 6733SOL     OW27250   2.795   6.135   7.376
 6733SOL    HW227251   2.885   6.136   7.343
 6733SOL    HW327252   2.754   6.060   7.334
 6733SOL    MW427253   2.801   6.125   7.367
 6734SOL     OW27254   2.990   6.270   6.072
 6734SOL    HW227255   3.016   6.294   5.983
 6734SOL    HW327256   2.972   6.177   6.068
 6734SOL    MW427257   2.992   6.262   6.059
 6735SOL     OW27258   3.655   6.890   5.923
 6735SOL    HW227259   3.611   6.931   5.998
 6735SOL    HW327260   3.712   6.958   5.888
 6735SOL    MW427261   3.657   6.904   5.928
 6736SOL     OW27262   2.575   5.939   7.326
 6736SOL    HW227263   2.585   5.865   7.266
 6736SOL    HW327264   2.611   5.908   7.409
 6736SOL    MW427265   2.581   5.925   7.328
 6737SOL     OW27266   2.311   7.306   6.241
 6737SOL    HW227267   2.343   7.394   6.219
 6737SOL    HW327268   2.264   7.278   6.163
 6737SOL    MW427269   2.310   7.314   6.228
 6738SOL     OW27270   3.695   5.668   6.290
 6738SOL    HW227271   3.749   5.619   6.352
 6738SOL    HW327272   3.638   5.602   6.251
 6738SOL    MW427273   3.695   5.652   6.292
 6739SOL     OW27274   2.027   7.366   5.818
 6739SOL    HW227275   2.056   7.456   5.810
 6739SOL    HW327276   1.977   7.349   5.739
 6739SOL    MW427277   2.025   7.374   5.807
 6740SOL     OW27278   2.814   5.621   6.703
 6740SOL    HW227279   2.773   5.699   6.665
 6740SOL    HW327280   2.908   5.639   6.698
 6740SOL    MW427281   2.820   5.633   6.698
 6741SOL     OW27282   3.431   7.174   5.789
 6741SOL    HW227283   3.479   7.243   5.835
 6741SOL    HW327284   3.352   7.218   5.758
 6741SOL    MW427285   3.426   7.188   5.792
 6742SOL     OW27286   2.829   6.299   5.733
 6742SOL    HW227287   2.831   6.246   5.654
 6742SOL    HW327288   2.917   6.336   5.739
 6742SOL    MW427289   2.841   6.298   5.722
 6743SOL     OW27290   3.443   6.225   6.069
 6743SOL    HW227291   3.482   6.225   6.156
 6743SOL    HW327292   3.384   6.301   6.069
 6743SOL    MW427293   3.440   6.236   6.080
 6744SOL     OW27294   2.760   6.592   7.198
 6744SOL    HW227295   2.737   6.572   7.288
 6744SOL    HW327296   2.845   6.636   7.203
 6744SOL    MW427297   2.767   6.595   7.210
 6745SOL     OW27298   2.840   5.729   6.958
 6745SOL    HW227299   2.846   5.691   6.871
 6745SOL    HW327300   2.829   5.823   6.943
 6745SOL    MW427301   2.841   5.737   6.946
 6746SOL     OW27302   2.929   6.218   6.792
 6746SOL    HW227303   3.004   6.247   6.739
 6746SOL    HW327304   2.861   6.283   6.776
 6746SOL    MW427305   2.930   6.230   6.782
 6747SOL     OW27306   3.479   6.186   7.069
 6747SOL    HW227307   3.460   6.095   7.048
 6747SOL    HW327308   3.457   6.235   6.990
 6747SOL    MW427309   3.474   6.179   7.056
 6748SOL     OW27310   3.621   7.280   6.973
 6748SOL    HW227311   3.549   7.242   7.024
 6748SOL    HW327312   3.638   7.365   7.014
 6748SOL    MW427313   3.615   7.285   6.985
 6749SOL     OW27314   2.926   5.924   7.175
 6749SOL    HW227315   2.892   5.963   7.094
 6749SOL    HW327316   2.904   5.832   7.168
 6749SOL    MW427317   2.919   5.917   7.165
 6750SOL     OW27318   3.335   6.738   7.251
 6750SOL    HW227319   3.417   6.779   7.281
 6750SOL    HW327320   3.298   6.700   7.331
 6750SOL    MW427321   3.341   6.739   7.266
 6751SOL     OW27322   3.630   6.111   6.235
 6751SOL    HW227323   3.719   6.080   6.252
 6751SOL    HW327324   3.573   6.051   6.283
 6751SOL    MW427325   3.633   6.099   6.244
 6752SOL     OW27326   2.056   5.825   6.264
 6752SOL    HW227327   2.047   5.765   6.190
 6752SOL    HW327328   1.989   5.796   6.327
 6752SOL    MW427329   2.046   5.812   6.262
 6753SOL     OW27330   2.003   5.998   6.627
 6753SOL    HW227331   1.975   6.089   6.636
 6753SOL    HW327332   1.940   5.959   6.566
 6753SOL    MW427333   1.990   6.004   6.621
 6754SOL     OW27334   2.462   7.336   5.933
 6754SOL    HW227335   2.383   7.294   5.966
 6754SOL    HW327336   2.528   7.319   6.000
 6754SOL    MW427337   2.461   7.328   5.946
 6755SOL     OW27338   3.590   6.856   7.330
 6755SOL    HW227339   3.640   6.782   7.362
 6755SOL    HW327340   3.536   6.883   7.405
 6755SOL    MW427341   3.590   6.850   7.343
 6756SOL     OW27342   2.598   6.751   5.640
 6756SOL    HW227343   2.520   6.697   5.627
 6756SOL    HW327344   2.569   6.824   5.693
 6756SOL    MW427345   2.584   6.753   5.645
 6757SOL     OW27346   3.724   6.491   6.832
 6757SOL    HW227347   3.740   6.529   6.745
 6757SOL    HW327348   3.758   6.557   6.893
 6757SOL    MW427349   3.731   6.504   6.828
 6758SOL     OW27350   3.516   7.200   6.501
 6758SOL    HW227351   3.545   7.267   6.562
 6758SOL    HW327352   3.497   7.124   6.556
 6758SOL    MW427353   3.518   7.200   6.516
 6759SOL     OW27354   3.179   7.267   5.708
 6759SOL    HW227355   3.105   7.230   5.758
 6759SOL    HW327356   3.187   7.357   5.741
 6759SOL    MW427357   3.170   7.274   5.720
 6760SOL     OW27358   1.987   6.273   6.797
 6760SOL    HW227359   2.049   6.303   6.863
 6760SOL    HW327360   1.921   6.342   6.791
 6760SOL    MW427361   1.986   6.286   6.804
 6761SOL     OW27362   3.403   6.941   5.650
 6761SOL    HW227363   3.350   6.990   5.586
 6761SOL    HW327364   3.434   7.007   5.711
 6761SOL    MW427365   3.401   6.955   5.648
 6762SOL     OW27366   2.628   5.830   5.705
 6762SOL    HW227367   2.576   5.750   5.693
 6762SOL    HW327368   2.715   5.807   5.673
 6762SOL    MW427369   2.631   5.816   5.699
 6763SOL     OW27370   2.082   7.382   7.249
 6763SOL    HW227371   2.056   7.450   7.187
 6763SOL    HW327372   2.130   7.319   7.197
 6763SOL    MW427373   2.084   7.382   7.235
 6764SOL     OW27374   2.134   6.701   6.756
 6764SOL    HW227375   2.187   6.776   6.781
 6764SOL    HW327376   2.053   6.739   6.722
 6764SOL    MW427377   2.130   6.716   6.756
 6765SOL     OW27378   2.674   6.605   6.744
 6765SOL    HW227379   2.702   6.514   6.756
 6765SOL    HW327380   2.603   6.599   6.680
 6765SOL    MW427381   2.667   6.593   6.739
 6766SOL     OW27382   1.989   6.470   6.162
 6766SOL    HW227383   2.080   6.485   6.189
 6766SOL    HW327384   1.992   6.391   6.108
 6766SOL    MW427385   2.001   6.462   6.160
 6767SOL     OW27386   2.225   6.178   7.416
 6767SOL    HW227387   2.172   6.258   7.423
 6767SOL    HW327388   2.295   6.190   7.481
 6767SOL    MW427389   2.227   6.191   7.424
 6768SOL     OW27390   2.611   5.728   7.123
 6768SOL    HW227391   2.588   5.636   7.125
 6768SOL    HW327392   2.697   5.730   7.080
 6768SOL    MW427393   2.618   5.718   7.119
 6769SOL     OW27394   2.295   6.252   7.162
 6769SOL    HW227395   2.375   6.302   7.148
 6769SOL    HW327396   2.286   6.246   7.257
 6769SOL    MW427397   2.304   6.258   7.172
 6770SOL     OW27398   2.616   7.402   6.536
 6770SOL    HW227399   2.705   7.417   6.566
 6770SOL    HW327400   2.611   7.449   6.452
 6770SOL    MW427401   2.626   7.410   6.529
 6771SOL     OW27402   3.272   5.777   7.433
 6771SOL    HW227403   3.328   5.704   7.459
 6771SOL    HW327404   3.242   5.815   7.515
 6771SOL    MW427405   3.276   5.772   7.446
 6772SOL     OW27406   1.997   7.082   6.201
 6772SOL    HW227407   1.969   7.121   6.283
 6772SOL    HW327408   2.017   6.991   6.223
 6772SOL    MW427409   1.995   7.074   6.214
 6773SOL     OW27410   2.830   7.125   6.236
 6773SOL    HW227411   2.913   7.079   6.220
 6773SOL    HW327412   2.820   7.124   6.332
 6773SOL    MW427413   2.840   7.118   6.246
 6774SOL     OW27414   3.662   6.270   6.550
 6774SOL    HW227415   3.751   6.300   6.532
 6774SOL    HW327416   3.642   6.210   6.479
 6774SOL    MW427417   3.671   6.267   6.539
 6775SOL     OW27418   3.513   6.449   7.430
 6775SOL    HW227419   3.568   6.373   7.411
 6775SOL    HW327420   3.515   6.457   7.525
 6775SOL    MW427421   3.521   6.440   7.438
 6776SOL     OW27422   2.563   7.182   5.641
 6776SOL    HW227423   2.503   7.251   5.611
 6776SOL    HW327424   2.508   7.124   5.694
 6776SOL    MW427425   2.547   7.184   5.643
 6777SOL     OW27426   3.001   5.827   5.864
 6777SOL    HW227427   2.934   5.803   5.801
 6777SOL    HW327428   3.066   5.876   5.813
 6777SOL    MW427429   3.001   5.829   5.849
 6778SOL     OW27430   2.808   6.011   6.949
 6778SOL    HW227431   2.727   6.052   6.977
 6778SOL    HW327432   2.855   6.079   6.901
 6778SOL    MW427433   2.803   6.026   6.947
 6779SOL     OW27434   3.068   6.349   6.572
 6779SOL    HW227435   3.081   6.443   6.582
 6779SOL    HW327436   3.029   6.339   6.486
 6779SOL    MW427437   3.064   6.360   6.562
 6780SOL     OW27438   2.520   6.544   6.376
 6780SOL    HW227439   2.431   6.535   6.409
 6780SOL    HW327440   2.524   6.634   6.344
 6780SOL    MW427441   2.509   6.555   6.376
 6781SOL     OW27442   3.319   6.127   6.371
 6781SOL    HW227443   3.264   6.048   6.370
 6781SOL    HW327444   3.301   6.168   6.455
 6781SOL    MW427445   3.309   6.122   6.380
 6782SOL     OW27446   2.290   5.814   7.188
 6782SOL    HW227447   2.211   5.832   7.240
 6782SOL    HW327448   2.285   5.876   7.115
 6782SOL    MW427449   2.280   5.824   7.185
 6783SOL     OW27450   2.938   6.331   6.328
 6783SOL    HW227451   2.875   6.263   6.352
 6783SOL    HW327452   2.958   6.312   6.236
 6783SOL    MW427453   2.932   6.318   6.320
 6784SOL     OW27454   2.686   6.635   6.054
 6784SOL    HW227455   2.688   6.609   5.961
 6784SOL    HW327456   2.744   6.572   6.097
 6784SOL    MW427457   2.694   6.624   6.048
 6785SOL     OW27458   3.239   7.195   6.826
 6785SOL    HW227459   3.164   7.241   6.864
 6785SOL    HW327460   3.221   7.102   6.843
 6785SOL    MW427461   3.228   7.189   6.834
 6786SOL     OW27462   3.243   7.403   6.256
 6786SOL    HW227463   3.186   7.356   6.195
 6786SOL    HW327464   3.329   7.364   6.243
 6786SOL    MW427465   3.246   7.394   6.246
 6787SOL     OW27466   3.196   5.879   6.387
 6787SOL    HW227467   3.224   5.811   6.448
 6787SOL    HW327468   3.110   5.850   6.357
 6787SOL    MW427469   3.189   5.866   6.391
 6788SOL     OW27470   2.001   6.813   6.321
 6788SOL    HW227471   2.065   6.845   6.384
 6788SOL    HW327472   2.050   6.749   6.269
 6788SOL    MW427473   2.016   6.809   6.322
 6789SOL     OW27474   2.501   6.889   7.303
 6789SOL    HW227475   2.549   6.972   7.290
 6789SOL    HW327476   2.558   6.837   7.359
 6789SOL    MW427477   2.515   6.893   7.309
 6790SOL     OW27478   2.077   7.131   7.443
 6790SOL    HW227479   2.133   7.055   7.458
 6790SOL    HW327480   2.026   7.109   7.365
 6790SOL    MW427481   2.077   7.118   7.434
 6791SOL     OW27482   3.176   5.983   5.722
 6791SOL    HW227483   3.149   6.049   5.658
 6791SOL    HW327484   3.246   6.026   5.772
 6791SOL    MW427485   3.181   5.996   5.719
 6792SOL     OW27486   2.844   5.688   5.659
 6792SOL    HW227487   2.900   5.680   5.581
 6792SOL    HW327488   2.821   5.598   5.681
 6792SOL    MW427489   2.849   5.675   5.652
 6793SOL     OW27490   2.962   6.968   7.052
 6793SOL    HW227491   2.873   6.974   7.020
 6793SOL    HW327492   3.006   7.047   7.020
 6793SOL    MW427493   2.957   6.978   7.044
 6794SOL     OW27494   2.255   5.636   7.394
 6794SOL    HW227495   2.183   5.601   7.342
 6794SOL    HW327496   2.313   5.677   7.329
 6794SOL    MW427497   2.253   5.637   7.379
 6795SOL     OW27498   2.279   7.126   6.693
 6795SOL    HW227499   2.324   7.188   6.750
 6795SOL    HW327500   2.186   7.145   6.706
 6795SOL    MW427501   2.272   7.136   6.700
 6796SOL     OW27502   3.719   6.655   7.047
 6796SOL    HW227503   3.634   6.668   7.006
 6796SOL    HW327504   3.699   6.619   7.134
 6796SOL    MW427505   3.706   6.651   7.052
 6797SOL     OW27506   2.701   7.194   6.801
 6797SOL    HW227507   2.725   7.183   6.710
 6797SOL    HW327508   2.624   7.251   6.799
 6797SOL    MW427509   2.693   7.199   6.790
 6798SOL     OW27510   2.343   6.577   5.656
 6798SOL    HW227511   2.266   6.590   5.712
 6798SOL    HW327512   2.307   6.541   5.575
 6798SOL    MW427513   2.329   6.573   5.653
 6799SOL     OW27514   2.996   6.550   5.899
 6799SOL    HW227515   2.906   6.571   5.874
 6799SOL    HW327516   3.023   6.623   5.955
 6799SOL    MW427517   2.988   6.562   5.902
 6800SOL     OW27518   2.496   6.899   6.591
 6800SOL    HW227519   2.489   6.878   6.685
 6800SOL    HW327520   2.414   6.867   6.554
 6800SOL    MW427521   2.484   6.893   6.598
 6801SOL     OW27522   3.360   5.909   6.993
 6801SOL    HW227523   3.307   5.911   7.073
 6801SOL    HW327524   3.345   5.822   6.956
 6801SOL    MW427525   3.352   5.899   6.998
 6802SOL     OW27526   3.696   5.833   6.866
 6802SOL    HW227527   3.677   5.900   6.801
 6802SOL    HW327528   3.753   5.771   6.821
 6802SOL    MW427529   3.700   5.834   6.852
 6803SOL     OW27530   1.942   6.991   7.254
 6803SOL    HW227531   1.986   6.924   7.200
 6803SOL    HW327532   1.857   6.953   7.274
 6803SOL    MW427533   1.937   6.977   7.250
 6804SOL     OW27534   2.625   5.666   6.306
 6804SOL    HW227535   2.554   5.727   6.288
 6804SOL    HW327536   2.676   5.663   6.225
 6804SOL    MW427537   2.621   5.672   6.293
 6805SOL     OW27538   2.978   7.299   6.964
 6805SOL    HW227539   2.898   7.284   6.914
 6805SOL    HW327540   2.985   7.394   6.971
 6805SOL    MW427541   2.969   7.310   6.958
 6806SOL     OW27542   3.092   7.264   6.454
 6806SOL    HW227543   3.139   7.337   6.413
 6806SOL    HW327544   3.013   7.303   6.490
 6806SOL    MW427545   3.087   7.279   6.453
 6807SOL     OW27546   3.500   7.359   6.729
 6807SOL    HW227547   3.543   7.329   6.809
 6807SOL    HW327548   3.419   7.307   6.726
 6807SOL    MW427549   3.495   7.348   6.739
 6808SOL     OW27550   2.585   6.323   7.436
 6808SOL    HW227551   2.655   6.265   7.408
 6808SOL    HW327552   2.528   6.268   7.491
 6808SOL    MW427553   2.587   6.310   7.440
 6809SOL     OW27554   3.372   6.535   7.069
 6809SOL    HW227555   3.377   6.588   7.149
 6809SOL    HW327556   3.334   6.452   7.097
 6809SOL    MW427557   3.368   6.530   7.084
 6810SOL     OW27558   3.012   5.670   7.315
 6810SOL    HW227559   3.007   5.577   7.296
 6810SOL    HW327560   3.095   5.681   7.361
 6810SOL    MW427561   3.020   5.659   7.319
 6811SOL     OW27562   2.386   6.190   5.769
 6811SOL    HW227563   2.352   6.246   5.839
 6811SOL    HW327564   2.457   6.140   5.809
 6811SOL    MW427565   2.392   6.191   5.783
 6812SOL     OW27566   3.482   6.941   6.591
 6812SOL    HW227567   3.517   6.923   6.504
 6812SOL    HW327568   3.387   6.942   6.578
 6812SOL    MW427569   3.474   6.938   6.578
 6813SOL     OW27570   2.911   6.589   6.960
 6813SOL    HW227571   2.954   6.624   7.038
 6813SOL    HW327572   2.894   6.666   6.906
 6813SOL    MW427573   2.914   6.604   6.963
 6814SOL     OW27574   3.442   6.076   5.833
 6814SOL    HW227575   3.434   6.147   5.770
 6814SOL    HW327576   3.460   6.120   5.916
 6814SOL    MW427577   3.443   6.090   5.835
 6815SOL     OW27578   2.302   5.731   6.262
 6815SOL    HW227579   2.352   5.774   6.193
 6815SOL    HW327580   2.217   5.775   6.262
 6815SOL    MW427581   2.299   5.744   6.253
 6816SOL     OW27582   2.061   6.793   7.122
 6816SOL    HW227583   2.089   6.746   7.200
 6816SOL    HW327584   1.982   6.748   7.093
 6816SOL    MW427585   2.054   6.782   7.128
 6817SOL     OW27586   2.569   6.120   7.089
 6817SOL    HW227587   2.541   6.208   7.113
 6817SOL    HW327588   2.538   6.064   7.160
 6817SOL    MW427589   2.561   6.123   7.101
 6818SOL     OW27590   3.111   6.338   5.808
 6818SOL    HW227591   3.158   6.356   5.727
 6818SOL    HW327592   3.077   6.422   5.836
 6818SOL    MW427593   3.113   6.352   5.801
 6819SOL     OW27594   2.224   6.516   6.302
 6819SOL    HW227595   2.282   6.572   6.250
 6819SOL    HW327596   2.268   6.431   6.304
 6819SOL    MW427597   2.237   6.513   6.295
 6820SOL     OW27598   3.364   5.868   6.139
 6820SOL    HW227599   3.286   5.818   6.164
 6820SOL    HW327600   3.335   5.959   6.139
 6820SOL    MW427601   3.350   5.872   6.142
 6821SOL     OW27602   2.950   5.830   6.298
 6821SOL    HW227603   2.970   5.905   6.242
 6821SOL    HW327604   2.930   5.869   6.383
 6821SOL    MW427605   2.951   5.846   6.302
 6822SOL     OW27606   3.710   6.603   7.317
 6822SOL    HW227607   3.623   6.583   7.353
 6822SOL    HW327608   3.764   6.529   7.342
 6822SOL    MW427609   3.705   6.592   7.325
 6823SOL     OW27610   1.931   7.116   6.474
 6823SOL    HW227611   1.963   7.120   6.565
 6823SOL    HW327612   1.836   7.124   6.482
 6823SOL    MW427613   1.923   7.119   6.487
 6824SOL     OW27614   1.886   6.242   6.021
 6824SOL    HW227615   1.826   6.214   6.091
 6824SOL    HW327616   1.960   6.182   6.027
 6824SOL    MW427617   1.888   6.231   6.030
 6825SOL     OW27618   3.454   7.454   7.455
 6825SOL    HW227619   3.499   7.378   7.420
 6825SOL    HW327620   3.492   7.467   7.542
 6825SOL    MW427621   3.464   7.447   7.461
 6826SOL     OW27622   3.054   6.973   6.181
 6826SOL    HW227623   3.077   6.924   6.259
 6826SOL    HW327624   3.135   7.015   6.153
 6826SOL    MW427625   3.067   6.973   6.188
 6827SOL     OW27626   2.312   5.981   6.910
 6827SOL    HW227627   2.345   6.062   6.950
 6827SOL    HW327628   2.285   6.007   6.822
 6827SOL    MW427629   2.311   5.995   6.904
 6828SOL     OW27630   2.266   5.948   6.646
 6828SOL    HW227631   2.296   5.862   6.617
 6828SOL    HW327632   2.171   5.941   6.649
 6828SOL    MW427633   2.258   5.937   6.644
 6829SOL     OW27634   3.095   6.157   7.337
 6829SOL    HW227635   3.147   6.092   7.290
 6829SOL    HW327636   3.053   6.208   7.267
 6829SOL    MW427637   3.096   6.154   7.320
 6830SOL     OW27638   3.194   5.952   7.198
 6830SOL    HW227639   3.101   5.936   7.185
 6830SOL    HW327640   3.220   5.890   7.266
 6830SOL    MW427641   3.184   5.942   7.205
 6831SOL     OW27642   2.409   5.726   6.537
 6831SOL    HW227643   2.419   5.635   6.563
 6831SOL    HW327644   2.365   5.722   6.452
 6831SOL    MW427645   2.405   5.714   6.529
 6832SOL     OW27646   2.503   7.341   7.083
 6832SOL    HW227647   2.420   7.326   7.128
 6832SOL    HW327648   2.562   7.274   7.118
 6832SOL    MW427649   2.501   7.331   7.093
 6833SOL     OW27650   3.560   6.048   6.708
 6833SOL    HW227651   3.493   6.081   6.768
 6833SOL    HW327652   3.603   6.126   6.674
 6833SOL    MW427653   3.558   6.063   6.712
 6834SOL     OW27654   3.738   6.768   6.678
 6834SOL    HW227655   3.731   6.708   6.603
 6834SOL    HW327656   3.664   6.828   6.667
 6834SOL    MW427657   3.728   6.768   6.667
 6835SOL     OW27658   3.203   6.125   6.875
 6835SOL    HW227659   3.224   6.126   6.782
 6835SOL    HW327660   3.248   6.047   6.908
 6835SOL    MW427661   3.210   6.115   6.867
 6836SOL     OW27662   3.696   6.256   7.417
 6836SOL    HW227663   3.733   6.201   7.486
 6836SOL    HW327664   3.721   6.213   7.335
 6836SOL    MW427665   3.703   6.244   7.416
 6837SOL     OW27666   3.243   6.554   7.468
 6837SOL    HW227667   3.309   6.502   7.422
 6837SOL    HW327668   3.263   6.541   7.561
 6837SOL    MW427669   3.254   6.545   7.475
 6838SOL     OW27670   3.194   5.640   5.817
 6838SOL    HW227671   3.268   5.684   5.860
 6838SOL    HW327672   3.118   5.694   5.839
 6838SOL    MW427673   3.194   5.652   5.825
 6839SOL     OW27674   3.254   6.415   6.095
 6839SOL    HW227675   3.169   6.385   6.065
 6839SOL    HW327676   3.246   6.422   6.190
 6839SOL    MW427677   3.242   6.413   6.104
 6840SOL     OW27678   2.330   6.878   6.826
 6840SOL    HW227679   2.342   6.905   6.917
 6840SOL    HW327680   2.311   6.959   6.779
 6840SOL    MW427681   2.329   6.893   6.831
 6841SOL     OW27682   2.614   5.858   6.649
 6841SOL    HW227683   2.587   5.860   6.740
 6841SOL    HW327684   2.544   5.810   6.604
 6841SOL    MW427685   2.602   5.854   6.656
 6842SOL     OW27686   2.468   7.350   6.811
 6842SOL    HW227687   2.520   7.427   6.788
 6842SOL    HW327688   2.477   7.342   6.906
 6842SOL    MW427689   2.477   7.357   6.822
 6843SOL     OW27690   3.370   6.935   7.043
 6843SOL    HW227691   3.355   6.864   7.106
 6843SOL    HW327692   3.416   6.893   6.971
 6843SOL    MW427693   3.376   6.919   7.043
 6844SOL     OW27694   2.444   6.666   7.160
 6844SOL    HW227695   2.481   6.671   7.072
 6844SOL    HW327696   2.483   6.739   7.207
 6844SOL    MW427697   2.454   6.676   7.155
 6845SOL     OW27698   2.624   6.709   6.972
 6845SOL    HW227699   2.683   6.655   7.025
 6845SOL    HW327700   2.639   6.681   6.882
 6845SOL    MW427701   2.634   6.698   6.968
 6846SOL     OW27702   2.627   6.081   5.821
 6846SOL    HW227703   2.700   6.130   5.784
 6846SOL    HW327704   2.643   5.990   5.795
 6846SOL    MW427705   2.639   6.076   5.814
 6847SOL     OW27706   3.435   7.198   7.144
 6847SOL    HW227707   3.477   7.183   7.229
 6847SOL    HW327708   3.426   7.111   7.106
 6847SOL    MW427709   3.439   7.186   7.151
 6848SOL     OW27710   3.095   5.677   6.735
 6848SOL    HW227711   3.150   5.686   6.657
 6848SOL    HW327712   3.150   5.711   6.806
 6848SOL    MW427713   3.109   5.682   6.734
 6849SOL     OW27714   2.102   6.590   5.919
 6849SOL    HW227715   2.039   6.606   5.848
 6849SOL    HW327716   2.049   6.553   5.990
 6849SOL    MW427717   2.087   6.587   5.919
 6850SOL     OW27718   2.256   7.333   6.499
 6850SOL    HW227719   2.260   7.244   6.534
 6850SOL    HW327720   2.282   7.324   6.408
 6850SOL    MW427721   2.259   7.321   6.491
 6851SOL     OW27722   2.873   6.811   6.742
 6851SOL    HW227723   2.805   6.745   6.758
 6851SOL    HW327724   2.891   6.805   6.649
 6851SOL    MW427725   2.866   6.802   6.733
 6852SOL     OW27726   1.962   7.086   6.993
 6852SOL    HW227727   1.952   7.044   7.079
 6852SOL    HW327728   1.883   7.139   6.983
 6852SOL    MW427729   1.951   7.087   7.004
 6853SOL     OW27730   2.866   5.950   6.563
 6853SOL    HW227731   2.796   5.902   6.608
 6853SOL    HW327732   2.898   6.013   6.627
 6853SOL    MW427733   2.861   5.952   6.577
 6854SOL     OW27734   2.517   6.386   7.183
 6854SOL    HW227735   2.510   6.481   7.171
 6854SOL    HW327736   2.526   6.375   7.278
 6854SOL    MW427737   2.518   6.398   7.193
 6855SOL     OW27738   2.238   6.901   7.441
 6855SOL    HW227739   2.310   6.903   7.378
 6855SOL    HW327740   2.208   6.810   7.440
 6855SOL    MW427741   2.243   6.890   7.433
 6856SOL     OW27742   3.322   5.664   6.908
 6856SOL    HW227743   3.393   5.610   6.872
 6856SOL    HW327744   3.321   5.643   7.001
 6856SOL    MW427745   3.331   5.655   6.916
 6857SOL     OW27746   3.522   7.194   7.392
 6857SOL    HW227747   3.495   7.191   7.483
 6857SOL    HW327748   3.618   7.198   7.395
 6857SOL    MW427749   3.532   7.194   7.404
 6858SOL     OW27750   2.333   6.056   6.376
 6858SOL    HW227751   2.404   6.004   6.339
 6858SOL    HW327752   2.319   6.021   6.463
 6858SOL    MW427753   2.341   6.045   6.383
 6859SOL     OW27754   1.888   7.391   7.448
 6859SOL    HW227755   1.938   7.369   7.370
 6859SOL    HW327756   1.896   7.486   7.456
 6859SOL    MW427757   1.896   7.400   7.439
 6860SOL     OW27758   2.649   7.149   6.452
 6860SOL    HW227759   2.577   7.086   6.465
 6860SOL    HW327760   2.610   7.234   6.470
 6860SOL    MW427761   2.633   7.152   6.455
 6861SOL     OW27762   2.969   5.997   6.100
 6861SOL    HW227763   2.991   5.934   6.032
 6861SOL    HW327764   2.874   5.989   6.111
 6861SOL    MW427765   2.959   5.988   6.092
 6862SOL     OW27766   2.054   5.687   6.032
 6862SOL    HW227767   2.125   5.708   5.971
 6862SOL    HW327768   2.008   5.615   5.990
 6862SOL    MW427769   2.058   5.681   6.018
 6863SOL     OW27770   1.885   6.154   7.175
 6863SOL    HW227771   1.949   6.220   7.150
 6863SOL    HW327772   1.804   6.181   7.132
 6863SOL    MW427773   1.883   6.166   7.167
 6864SOL     OW27774   3.623   7.061   6.132
 6864SOL    HW227775   3.593   6.994   6.193
 6864SOL    HW327776   3.717   7.067   6.146
 6864SOL    MW427777   3.631   7.053   6.142
 6865SOL     OW27778   2.841   5.658   6.115
 6865SOL    HW227779   2.878   5.717   6.180
 6865SOL    HW327780   2.818   5.714   6.041
 6865SOL    MW427781   2.842   5.673   6.114
 6866SOL     OW27782   2.070   6.380   7.116
 6866SOL    HW227783   2.091   6.449   7.054
 6866SOL    HW327784   2.150   6.327   7.121
 6866SOL    MW427785   2.083   6.381   7.110
 6867SOL     OW27786   2.055   6.395   7.383
 6867SOL    HW227787   1.981   6.339   7.409
 6867SOL    HW327788   2.050   6.398   7.288
 6867SOL    MW427789   2.044   6.388   7.373
 6868SOL     OW27790   2.221   5.682   6.833
 6868SOL    HW227791   2.264   5.766   6.853
 6868SOL    HW327792   2.294   5.620   6.826
 6868SOL    MW427793   2.236   5.685   6.834
 6869SOL     OW27794   2.262   6.349   6.011
 6869SOL    HW227795   2.262   6.444   5.996
 6869SOL    HW327796   2.339   6.333   6.065
 6869SOL    MW427797   2.272   6.360   6.016
 6870SOL     OW27798   3.038   6.208   7.075
 6870SOL    HW227799   3.074   6.181   6.991
 6870SOL    HW327800   2.951   6.242   7.054
 6870SOL    MW427801   3.032   6.209   7.062
 6871SOL     OW27802   2.021   6.080   6.300
 6871SOL    HW227803   2.083   6.087   6.373
 6871SOL    HW327804   2.021   5.987   6.277
 6871SOL    MW427805   2.029   6.069   6.307
 6872SOL     OW27806   3.568   7.420   5.832
 6872SOL    HW227807   3.635   7.453   5.772
 6872SOL    HW327808   3.525   7.499   5.866
 6872SOL    MW427809   3.570   7.435   5.828
 6873SOL     OW27810   2.703   6.341   6.784
 6873SOL    HW227811   2.661   6.259   6.760
 6873SOL    HW327812   2.704   6.340   6.880
 6873SOL    MW427813   2.696   6.330   6.793
 6874SOL     OW27814   3.374   7.474   7.183
 6874SOL    HW227815   3.377   7.380   7.166
 6874SOL    HW327816   3.397   7.482   7.275
 6874SOL    MW427817   3.377   7.462   7.193
 6875SOL     OW27818   2.507   5.811   6.889
 6875SOL    HW227819   2.438   5.874   6.910
 6875SOL    HW327820   2.534   5.775   6.974
 6875SOL    MW427821   2.501   5.814   6.902
 6876SOL     OW27822   1.890   6.652   5.758
 6876SOL    HW227823   1.859   6.717   5.821
 6876SOL    HW327824   1.839   6.574   5.777
 6876SOL    MW427825   1.880   6.649   5.768
 6877SOL     OW27826   3.302   5.664   6.506
 6877SOL    HW227827   3.390   5.673   6.543
 6877SOL    HW327828   3.312   5.605   6.432
 6877SOL    MW427829   3.316   5.658   6.500
 6878SOL     OW27830   3.334   6.403   6.350
 6878SOL    HW227831   3.414   6.418   6.299
 6878SOL    HW327832   3.327   6.308   6.356
 6878SOL    MW427833   3.343   6.392   6.345
 6879SOL     OW27834   2.474   7.452   5.700
 6879SOL    HW227835   2.379   7.452   5.692
 6879SOL    HW327836   2.490   7.398   5.778
 6879SOL    MW427837   2.464   7.446   5.709
 6880SOL     OW27838   2.784   6.329   7.047
 6880SOL    HW227839   2.853   6.396   7.044
 6880SOL    HW327840   2.717   6.367   7.103
 6880SOL    MW427841   2.785   6.342   7.054
 6881SOL     OW27842   2.202   6.629   7.295
 6881SOL    HW227843   2.156   6.545   7.297
 6881SOL    HW327844   2.259   6.623   7.219
 6881SOL    MW427845   2.204   6.617   7.287
 6882SOL     OW27846   3.319   6.272   5.615
 6882SOL    HW227847   3.247   6.248   5.557
 6882SOL    HW327848   3.385   6.309   5.557
 6882SOL    MW427849   3.318   6.274   5.600
 6883SOL     OW27850   2.453   7.004   6.296
 6883SOL    HW227851   2.518   6.937   6.317
 6883SOL    HW327852   2.505   7.081   6.273
 6883SOL    MW427853   2.468   7.006   6.295
 6884SOL     OW27854   2.714   6.169   6.426
 6884SOL    HW227855   2.654   6.187   6.498
 6884SOL    HW327856   2.748   6.081   6.445
 6884SOL    MW427857   2.710   6.159   6.439
 6885SOL     OW27858   3.655   5.668   7.095
 6885SOL    HW227859   3.576   5.714   7.123
 6885SOL    HW327860   3.690   5.722   7.024
 6885SOL    MW427861   3.649   5.681   7.089
 6886SOL     OW27862   2.939   6.752   6.445
 6886SOL    HW227863   3.031   6.733   6.463
 6886SOL    HW327864   2.912   6.682   6.385
 6886SOL    MW427865   2.947   6.740   6.439
 6887SOL     OW27866   2.732   6.572   5.800
 6887SOL    HW227867   2.718   6.484   5.765
 6887SOL    HW327868   2.683   6.629   5.741
 6887SOL    MW427869   2.724   6.567   5.788
 6888SOL     OW27870   3.213   6.990   6.541
 6888SOL    HW227871   3.186   7.074   6.506
 6888SOL    HW327872   3.173   6.985   6.628
 6888SOL    MW427873   3.206   6.999   6.547
 6889SOL     OW27874   3.132   6.938   6.809
 6889SOL    HW227875   3.143   6.905   6.898
 6889SOL    HW327876   3.051   6.897   6.778
 6889SOL    MW427877   3.122   6.930   6.815
 6890SOL     OW27878   2.145   6.296   6.579
 6890SOL    HW227879   2.095   6.295   6.660
 6890SOL    HW327880   2.165   6.388   6.563
 6890SOL    MW427881   2.141   6.308   6.587
 6891SOL     OW27882   3.212   7.060   7.341
 6891SOL    HW227883   3.212   7.154   7.357
 6891SOL    HW327884   3.257   7.050   7.257
 6891SOL    MW427885   3.218   7.070   7.332
 6892SOL     OW27886   3.451   5.778   5.902
 6892SOL    HW227887   3.444   5.782   5.997
 6892SOL    HW327888   3.463   5.869   5.875
 6892SOL    MW427889   3.452   5.791   5.910
 6893SOL     OW27890   2.740   6.341   6.016
 6893SOL    HW227891   2.720   6.327   5.923
 6893SOL    HW327892   2.833   6.320   6.023
 6893SOL    MW427893   2.750   6.336   6.005
 6894SOL     OW27894   2.067   5.964   7.320
 6894SOL    HW227895   2.024   6.023   7.257
 6894SOL    HW327896   2.135   6.019   7.360
 6894SOL    MW427897   2.071   5.979   7.317
 6895SOL     OW27898   3.179   6.584   6.865
 6895SOL    HW227899   3.242   6.581   6.938
 6895SOL    HW327900   3.095   6.602   6.907
 6895SOL    MW427901   3.175   6.586   6.880
 6896SOL     OW27902   2.723   7.299   6.054
 6896SOL    HW227903   2.781   7.370   6.081
 6896SOL    HW327904   2.746   7.227   6.112
 6896SOL    MW427905   2.734   7.299   6.065
 6897SOL     OW27906   3.518   5.761   6.644
 6897SOL    HW227907   3.563   5.679   6.663
 6897SOL    HW327908   3.538   5.817   6.720
 6897SOL    MW427909   3.528   5.757   6.656
 6898SOL     OW27910   1.966   5.604   6.743
 6898SOL    HW227911   1.957   5.605   6.648
 6898SOL    HW327912   2.060   5.616   6.758
 6898SOL    MW427913   1.978   5.607   6.734
 6899SOL     OW27914   3.603   6.797   6.363
 6899SOL    HW227915   3.582   6.743   6.286
 6899SOL    HW327916   3.699   6.795   6.367
 6899SOL    MW427917   3.612   6.790   6.352
 6900SOL     OW27918   2.295   6.942   7.106
 6900SOL    HW227919   2.216   6.892   7.129
 6900SOL    HW327920   2.365   6.901   7.156
 6900SOL    MW427921   2.293   6.930   7.116
 6901SOL     OW27922   2.179   5.731   5.789
 6901SOL    HW227923   2.108   5.786   5.757
 6901SOL    HW327924   2.221   5.697   5.710
 6901SOL    MW427925   2.175   5.733   5.775
 6902SOL     OW27926   3.303   6.228   6.625
 6902SOL    HW227927   3.226   6.274   6.591
 6902SOL    HW327928   3.360   6.297   6.659
 6902SOL    MW427929   3.300   6.243   6.625
 6903SOL     OW27930   1.935   5.830   5.638
 6903SOL    HW227931   1.902   5.909   5.682
 6903SOL    HW327932   1.990   5.863   5.567
 6903SOL    MW427933   1.938   5.844   5.635
 6904SOL     OW27934   1.969   7.087   5.827
 6904SOL    HW227935   1.986   7.171   5.869
 6904SOL    HW327936   2.004   7.096   5.739
 6904SOL    MW427937   1.974   7.100   5.821
 6905SOL     OW27938   3.241   7.176   6.044
 6905SOL    HW227939   3.304   7.166   5.973
 6905SOL    HW327940   3.158   7.196   5.999
 6905SOL    MW427941   3.238   7.177   6.029
 6906SOL     OW27942   5.472   0.839   0.257
 6906SOL    HW227943   5.513   0.781   0.322
 6906SOL    HW327944   5.379   0.831   0.274
 6906SOL    MW427945   5.466   0.831   0.267
 6907SOL     OW27946   5.338   0.771   1.252
 6907SOL    HW227947   5.293   0.838   1.303
 6907SOL    HW327948   5.426   0.807   1.238
 6907SOL    MW427949   5.344   0.784   1.256
 6908SOL     OW27950   4.266   1.022   0.486
 6908SOL    HW227951   4.356   0.997   0.470
 6908SOL    HW327952   4.262   1.115   0.463
 6908SOL    MW427953   4.278   1.031   0.481
 6909SOL     OW27954   5.382   1.725   0.628
 6909SOL    HW227955   5.394   1.671   0.706
 6909SOL    HW327956   5.419   1.673   0.557
 6909SOL    MW427957   5.388   1.710   0.629
 6910SOL     OW27958   4.761   1.610   1.629
 6910SOL    HW227959   4.802   1.646   1.550
 6910SOL    HW327960   4.796   1.521   1.636
 6910SOL    MW427961   4.772   1.603   1.620
 6911SOL     OW27962   5.318   1.165   1.233
 6911SOL    HW227963   5.239   1.130   1.191
 6911SOL    HW327964   5.345   1.237   1.177
 6911SOL    MW427965   5.311   1.170   1.220
 6912SOL     OW27966   4.550   0.478   0.499
 6912SOL    HW227967   4.525   0.566   0.527
 6912SOL    HW327968   4.547   0.481   0.403
 6912SOL    MW427969   4.546   0.490   0.491
 6913SOL     OW27970   3.992   0.506   0.427
 6913SOL    HW227971   4.024   0.594   0.409
 6913SOL    HW327972   3.980   0.504   0.522
 6913SOL    MW427973   3.995   0.518   0.439
 6914SOL     OW27974   4.070   0.919   1.328
 6914SOL    HW227975   4.133   0.866   1.279
 6914SOL    HW327976   4.051   0.993   1.271
 6914SOL    MW427977   4.076   0.921   1.315
 6915SOL     OW27978   4.391   0.261   0.514
 6915SOL    HW227979   4.449   0.337   0.516
 6915SOL    HW327980   4.326   0.282   0.447
 6915SOL    MW427981   4.390   0.273   0.505
 6916SOL     OW27982   4.478   1.188   0.689
 6916SOL    HW227983   4.558   1.191   0.741
 6916SOL    HW327984   4.506   1.155   0.603
 6916SOL    MW427985   4.492   1.184   0.684
 6917SOL     OW27986   4.503   1.529   1.592
 6917SOL    HW227987   4.587   1.555   1.631
 6917SOL    HW327988   4.527   1.473   1.518
 6917SOL    MW427989   4.517   1.525   1.587
 6918SOL     OW27990   4.255   0.692   0.680
 6918SOL    HW227991   4.240   0.612   0.731
 6918SOL    HW327992   4.337   0.727   0.714
 6918SOL    MW427993   4.263   0.684   0.692
 6919SOL     OW27994   4.592   1.378   1.365
 6919SOL    HW227995   4.556   1.444   1.305
 6919SOL    HW327996   4.520   1.316   1.378
 6919SOL    MW427997   4.578   1.378   1.359
 6920SOL     OW27998   4.397   0.518   1.057
 6920SOL    HW227999   4.303   0.514   1.075
 6920SOL    HW328000   4.427   0.427   1.066
 6920SOL    MW428001   4.388   0.506   1.060
 6921SOL     OW28002   4.143   0.932   0.961
 6921SOL    HW228003   4.098   0.939   0.877
 6921SOL    HW328004   4.123   1.015   1.005
 6921SOL    MW428005   4.135   0.944   0.955
 6922SOL     OW28006   3.840   1.778   0.836
 6922SOL    HW228007   3.929   1.770   0.871
 6922SOL    HW328008   3.804   1.690   0.841
 6922SOL    MW428009   3.847   1.765   0.841
 6923SOL     OW28010   5.105   1.170   0.205
 6923SOL    HW228011   5.023   1.206   0.171
 6923SOL    HW328012   5.173   1.213   0.154
 6923SOL    MW428013   5.103   1.180   0.193
 6924SOL     OW28014   4.104   1.305   0.871
 6924SOL    HW228015   4.080   1.358   0.947
 6924SOL    HW328016   4.160   1.363   0.819
 6924SOL    MW428017   4.108   1.320   0.874
 6925SOL     OW28018   4.666   0.949   0.681
 6925SOL    HW228019   4.580   0.936   0.721
 6925SOL    HW328020   4.719   0.876   0.713
 6925SOL    MW428021   4.662   0.938   0.690
 6926SOL     OW28022   4.074   1.601   1.466
 6926SOL    HW228023   3.982   1.577   1.451
 6926SOL    HW328024   4.118   1.518   1.483
 6926SOL    MW428025   4.068   1.586   1.465
 6927SOL     OW28026   4.657   1.311   0.398
 6927SOL    HW228027   4.634   1.373   0.466
 6927SOL    HW328028   4.614   1.229   0.424
 6927SOL    MW428029   4.649   1.307   0.409
 6928SOL     OW28030   5.530   0.312   0.854
 6928SOL    HW228031   5.467   0.292   0.923
 6928SOL    HW328032   5.520   0.241   0.791
 6928SOL    MW428033   5.520   0.299   0.855
 6929SOL     OW28034   4.154   0.284   0.366
 6929SOL    HW228035   4.128   0.246   0.282
 6929SOL    HW328036   4.091   0.354   0.382
 6929SOL    MW428037   4.143   0.287   0.357
 6930SOL     OW28038   3.989   1.245   0.403
 6930SOL    HW228039   3.937   1.313   0.359
 6930SOL    HW328040   3.986   1.171   0.343
 6930SOL    MW428041   3.981   1.244   0.390
 6931SOL     OW28042   4.651   1.708   0.181
 6931SOL    HW228043   4.606   1.724   0.264
 6931SOL    HW328044   4.582   1.673   0.123
 6931SOL    MW428045   4.637   1.705   0.183
 6932SOL     OW28046   5.586   0.481   0.156
 6932SOL    HW228047   5.495   0.483   0.184
 6932SOL    HW328048   5.631   0.543   0.214
 6932SOL    MW428049   5.579   0.489   0.166
 6933SOL     OW28050   5.331   1.084   0.506
 6933SOL    HW228051   5.241   1.084   0.541
 6933SOL    HW328052   5.324   1.130   0.423
 6933SOL    MW428053   5.318   1.090   0.500
 6934SOL     OW28054   5.131   0.719   1.578
 6934SOL    HW228055   5.200   0.657   1.555
 6934SOL    HW328056   5.056   0.693   1.525
 6934SOL    MW428057   5.131   0.706   1.569
 6935SOL     OW28058   3.872   1.599   1.130
 6935SOL    HW228059   3.855   1.545   1.207
 6935SOL    HW328060   3.860   1.689   1.160
 6935SOL    MW428061   3.869   1.603   1.144
 6936SOL     OW28062   4.867   1.106   1.570
 6936SOL    HW228063   4.852   1.199   1.555
 6936SOL    HW328064   4.962   1.096   1.570
 6936SOL    MW428065   4.876   1.116   1.567
 6937SOL     OW28066   4.663   0.530   1.771
 6937SOL    HW228067   4.753   0.531   1.738
 6937SOL    HW328068   4.622   0.455   1.729
 6937SOL    MW428069   4.669   0.520   1.762
 6938SOL     OW28070   5.238   1.062   0.898
 6938SOL    HW228071   5.241   0.996   0.829
 6938SOL    HW328072   5.323   1.105   0.894
 6938SOL    MW428073   5.250   1.058   0.889
 6939SOL     OW28074   4.858   0.665   0.467
 6939SOL    HW228075   4.884   0.689   0.378
 6939SOL    HW328076   4.840   0.572   0.463
 6939SOL    MW428077   4.860   0.657   0.454
 6940SOL     OW28078   5.523   1.285   0.318
 6940SOL    HW228079   5.479   1.326   0.393
 6940SOL    HW328080   5.580   1.353   0.283
 6940SOL    MW428081   5.525   1.299   0.323
 6941SOL     OW28082   4.443   0.334   1.721
 6941SOL    HW228083   4.453   0.260   1.661
 6941SOL    HW328084   4.479   0.303   1.804
 6941SOL    MW428085   4.449   0.320   1.723
 6942SOL     OW28086   4.179   1.701   0.636
 6942SOL    HW228087   4.211   1.789   0.614
 6942SOL    HW328088   4.132   1.673   0.558
 6942SOL    MW428089   4.178   1.709   0.623
 6943SOL     OW28090   5.563   0.063   0.685
 6943SOL    HW228091   5.617   0.014   0.747
 6943SOL    HW328092   5.506  -0.003   0.646
 6943SOL    MW428093   5.563   0.047   0.687
 6944SOL     OW28094   3.895   1.761   0.213
 6944SOL    HW228095   3.924   1.851   0.205
 6944SOL    HW328096   3.845   1.744   0.134
 6944SOL    MW428097   3.893   1.769   0.202
 6945SOL     OW28098   4.682   0.016   1.098
 6945SOL    HW228099   4.641   0.094   1.060
 6945SOL    HW328100   4.776   0.034   1.093
 6945SOL    MW428101   4.688   0.028   1.093
 6946SOL     OW28102   5.299   1.569   0.184
 6946SOL    HW228103   5.347   1.638   0.230
 6946SOL    HW328104   5.220   1.613   0.153
 6946SOL    MW428105   5.294   1.583   0.187
 6947SOL     OW28106   4.697   0.694   0.128
 6947SOL    HW228107   4.699   0.641   0.049
 6947SOL    HW328108   4.785   0.731   0.134
 6947SOL    MW428109   4.709   0.693   0.117
 6948SOL     OW28110   5.311   0.620   0.464
 6948SOL    HW228111   5.350   0.620   0.551
 6948SOL    HW328112   5.252   0.696   0.464
 6948SOL    MW428113   5.308   0.631   0.475
 6949SOL     OW28114   4.628   0.987   1.593
 6949SOL    HW228115   4.605   0.967   1.683
 6949SOL    HW328116   4.713   1.031   1.598
 6949SOL    MW428117   4.635   0.990   1.605
 6950SOL     OW28118   4.708   0.124   1.353
 6950SOL    HW228119   4.714   0.086   1.266
 6950SOL    HW328120   4.697   0.218   1.338
 6950SOL    MW428121   4.709   0.132   1.341
 6951SOL     OW28122   4.797   0.613   1.187
 6951SOL    HW228123   4.872   0.642   1.134
 6951SOL    HW328124   4.729   0.678   1.171
 6951SOL    MW428125   4.798   0.625   1.177
 6952SOL     OW28126   5.347   0.581   1.464
 6952SOL    HW228127   5.328   0.490   1.443
 6952SOL    HW328128   5.325   0.630   1.385
 6952SOL    MW428129   5.342   0.574   1.451
 6953SOL     OW28130   5.489   1.675   1.368
 6953SOL    HW228131   5.417   1.637   1.419
 6953SOL    HW328132   5.506   1.760   1.409
 6953SOL    MW428133   5.483   1.680   1.380
 6954SOL     OW28134   4.794   0.319   1.570
 6954SOL    HW228135   4.760   0.358   1.489
 6954SOL    HW328136   4.772   0.227   1.563
 6954SOL    MW428137   4.787   0.312   1.560
 6955SOL     OW28138   5.203   1.133   1.646
 6955SOL    HW228139   5.285   1.174   1.676
 6955SOL    HW328140   5.166   1.095   1.726
 6955SOL    MW428141   5.209   1.134   1.661
 6956SOL     OW28142   5.498   0.506   0.630
 6956SOL    HW228143   5.587   0.475   0.647
 6956SOL    HW328144   5.441   0.446   0.678
 6956SOL    MW428145   5.501   0.494   0.639
 6957SOL     OW28146   3.924   0.220   0.659
 6957SOL    HW228147   3.915   0.160   0.585
 6957SOL    HW328148   3.857   0.191   0.722
 6957SOL    MW428149   3.914   0.207   0.657
 6958SOL     OW28150   4.867   1.313   0.220
 6958SOL    HW228151   4.817   1.315   0.302
 6958SOL    HW328152   4.801   1.331   0.152
 6958SOL    MW428153   4.853   1.315   0.222
 6959SOL     OW28154   3.871   0.393   1.022
 6959SOL    HW228155   3.843   0.484   1.031
 6959SOL    HW328156   3.808   0.354   0.961
 6959SOL    MW428157   3.858   0.399   1.016
 6960SOL     OW28158   4.330   1.731   0.328
 6960SOL    HW228159   4.251   1.689   0.361
 6960SOL    HW328160   4.396   1.714   0.395
 6960SOL    MW428161   4.329   1.723   0.341
 6961SOL     OW28162   5.458   1.251   1.725
 6961SOL    HW228163   5.508   1.177   1.757
 6961SOL    HW328164   5.404   1.278   1.800
 6961SOL    MW428165   5.458   1.245   1.738
 6962SOL     OW28166   4.466   1.146   0.035
 6962SOL    HW228167   4.388   1.092   0.022
 6962SOL    HW328168   4.437   1.219   0.088
 6962SOL    MW428169   4.452   1.148   0.040
 6963SOL     OW28170   5.592   0.886   1.227
 6963SOL    HW228171   5.608   0.924   1.140
 6963SOL    HW328172   5.626   0.952   1.288
 6963SOL    MW428173   5.599   0.899   1.223
 6964SOL     OW28174   5.384   1.595   0.896
 6964SOL    HW228175   5.413   1.662   0.957
 6964SOL    HW328176   5.365   1.519   0.951
 6964SOL    MW428177   5.386   1.595   0.911
 6965SOL     OW28178   5.047   1.662   0.103
 6965SOL    HW228179   4.973   1.625   0.153
 6965SOL    HW328180   5.055   1.752   0.136
 6965SOL    MW428181   5.038   1.669   0.115
 6966SOL     OW28182   3.855   0.668   1.192
 6966SOL    HW228183   3.917   0.698   1.258
 6966SOL    HW328184   3.789   0.737   1.186
 6966SOL    MW428185   3.854   0.681   1.199
 6967SOL     OW28186   5.271   1.336   0.045
 6967SOL    HW228187   5.218   1.385  -0.019
 6967SOL    HW328188   5.302   1.402   0.106
 6967SOL    MW428189   5.269   1.350   0.043
 6968SOL     OW28190   4.496   0.225   0.100
 6968SOL    HW228191   4.444   0.145   0.088
 6968SOL    HW328192   4.583   0.202   0.068
 6968SOL    MW428193   4.499   0.211   0.094
 6969SOL     OW28194   3.950   1.777   1.644
 6969SOL    HW228195   3.924   1.845   1.582
 6969SOL    HW328196   3.998   1.714   1.592
 6969SOL    MW428197   3.952   1.777   1.630
 6970SOL     OW28198   4.002   1.096   1.151
 6970SOL    HW228199   4.055   1.171   1.176
 6970SOL    HW328200   3.921   1.134   1.117
 6970SOL    MW428201   3.998   1.111   1.151
 6971SOL     OW28202   4.542   1.000   1.139
 6971SOL    HW228203   4.570   0.909   1.151
 6971SOL    HW328204   4.471   0.994   1.075
 6971SOL    MW428205   4.535   0.988   1.134
 6972SOL     OW28206   3.857   0.865   0.557
 6972SOL    HW228207   3.948   0.880   0.584
 6972SOL    HW328208   3.860   0.786   0.503
 6972SOL    MW428209   3.869   0.857   0.555
 6973SOL     OW28210   4.093   0.573   1.811
 6973SOL    HW228211   4.040   0.653   1.818
 6973SOL    HW328212   4.163   0.585   1.876
 6973SOL    MW428213   4.095   0.586   1.819
 6974SOL     OW28214   4.479   0.123   1.518
 6974SOL    HW228215   4.456   0.031   1.520
 6974SOL    HW328216   4.565   0.125   1.475
 6974SOL    MW428217   4.486   0.113   1.514
 6975SOL     OW28218   4.163   0.647   1.557
 6975SOL    HW228219   4.243   0.697   1.543
 6975SOL    HW328220   4.154   0.641   1.652
 6975SOL    MW428221   4.172   0.653   1.567
 6976SOL     OW28222   4.484   1.797   0.931
 6976SOL    HW228223   4.573   1.812   0.961
 6976SOL    HW328224   4.479   1.844   0.847
 6976SOL    MW428225   4.494   1.805   0.924
 6977SOL     OW28226   5.140   0.172   1.828
 6977SOL    HW228227   5.196   0.099   1.854
 6977SOL    HW328228   5.110   0.210   1.910
 6977SOL    MW428229   5.144   0.167   1.841
 6978SOL     OW28230   3.865   1.477   0.596
 6978SOL    HW228231   3.837   1.516   0.678
 6978SOL    HW328232   3.885   1.386   0.618
 6978SOL    MW428233   3.863   1.469   0.609
 6979SOL     OW28234   4.698   1.520   0.631
 6979SOL    HW228235   4.781   1.474   0.615
 6979SOL    HW328236   4.688   1.519   0.727
 6979SOL    MW428237   4.708   1.513   0.641
 6980SOL     OW28238   5.530   0.665   0.945
 6980SOL    HW228239   5.619   0.695   0.927
 6980SOL    HW328240   5.510   0.605   0.874
 6980SOL    MW428241   5.539   0.662   0.934
 6981SOL     OW28242   5.381   0.844   1.825
 6981SOL    HW228243   5.436   0.768   1.806
 6981SOL    HW328244   5.383   0.852   1.920
 6981SOL    MW428245   5.389   0.835   1.833
 6982SOL     OW28246   4.431   1.577   0.036
 6982SOL    HW228247   4.371   1.646   0.006
 6982SOL    HW328248   4.376   1.519   0.089
 6982SOL    MW428249   4.415   1.579   0.038
 6983SOL     OW28250   4.869   0.222   0.259
 6983SOL    HW228251   4.802   0.198   0.196
 6983SOL    HW328252   4.934   0.271   0.208
 6983SOL    MW428253   4.869   0.224   0.244
 6984SOL     OW28254   4.676   0.406   1.344
 6984SOL    HW228255   4.595   0.447   1.372
 6984SOL    HW328256   4.723   0.474   1.296
 6984SOL    MW428257   4.671   0.421   1.342
 6985SOL     OW28258   4.936   0.744   0.967
 6985SOL    HW228259   4.949   0.838   0.977
 6985SOL    HW328260   4.897   0.734   0.881
 6985SOL    MW428261   4.932   0.755   0.957
 6986SOL     OW28262   4.388   0.939   0.771
 6986SOL    HW228263   4.299   0.930   0.804
 6986SOL    HW328264   4.392   1.029   0.739
 6986SOL    MW428265   4.377   0.950   0.771
 6987SOL     OW28266   5.187   0.522   0.766
 6987SOL    HW228267   5.132   0.443   0.765
 6987SOL    HW328268   5.169   0.563   0.850
 6987SOL    MW428269   5.177   0.517   0.775
 6988SOL     OW28270   4.158   0.209   1.583
 6988SOL    HW228271   4.079   0.227   1.635
 6988SOL    HW328272   4.153   0.271   1.510
 6988SOL    MW428273   4.148   0.219   1.580
 6989SOL     OW28274   4.806   0.726   0.723
 6989SOL    HW228275   4.743   0.658   0.747
 6989SOL    HW328276   4.826   0.707   0.631
 6989SOL    MW428277   4.800   0.713   0.715
 6990SOL     OW28278   4.062   1.621   0.425
 6990SOL    HW228279   4.023   1.668   0.351
 6990SOL    HW328280   3.996   1.556   0.450
 6990SOL    MW428281   4.049   1.619   0.419
 6991SOL     OW28282   4.554   1.030   0.449
 6991SOL    HW228283   4.556   1.004   0.356
 6991SOL    HW328284   4.612   0.967   0.492
 6991SOL    MW428285   4.562   1.019   0.443
 6992SOL     OW28286   5.107   1.590   1.221
 6992SOL    HW228287   5.032   1.636   1.259
 6992SOL    HW328288   5.089   1.497   1.238
 6992SOL    MW428289   5.096   1.584   1.229
 6993SOL     OW28290   5.111   1.798   0.651
 6993SOL    HW228291   5.054   1.751   0.590
 6993SOL    HW328292   5.197   1.759   0.638
 6993SOL    MW428293   5.114   1.789   0.641
 6994SOL     OW28294   5.064   0.274   0.782
 6994SOL    HW228295   5.092   0.206   0.843
 6994SOL    HW328296   4.978   0.245   0.752
 6994SOL    MW428297   5.057   0.261   0.786
 6995SOL     OW28298   3.869   1.208   0.716
 6995SOL    HW228299   3.933   1.240   0.779
 6995SOL    HW328300   3.918   1.144   0.664
 6995SOL    MW428301   3.884   1.204   0.717
 6996SOL     OW28302   4.369   1.284   1.698
 6996SOL    HW228303   4.417   1.367   1.685
 6996SOL    HW328304   4.426   1.232   1.754
 6996SOL    MW428305   4.383   1.288   1.704
 6997SOL     OW28306   3.945   1.526   1.838
 6997SOL    HW228307   4.001   1.450   1.853
 6997SOL    HW328308   3.894   1.504   1.760
 6997SOL    MW428309   3.945   1.513   1.829
 6998SOL     OW28310   5.044   0.378   0.117
 6998SOL    HW228311   5.017   0.444   0.053
 6998SOL    HW328312   5.114   0.421   0.167
 6998SOL    MW428313   5.049   0.391   0.114
 6999SOL     OW28314   4.712   0.083   0.054
 6999SOL    HW228315   4.768   0.075  -0.024
 6999SOL    HW328316   4.689  -0.007   0.076
 6999SOL    MW428317   4.717   0.070   0.047
 7000SOL     OW28318   5.217   0.934   0.259
 7000SOL    HW228319   5.184   1.023   0.249
 7000SOL    HW328320   5.182   0.905   0.344
 7000SOL    MW428321   5.207   0.943   0.270
 7001SOL     OW28322   4.830   1.363   1.447
 7001SOL    HW228323   4.741   1.369   1.415
 7001SOL    HW328324   4.874   1.442   1.415
 7001SOL    MW428325   4.825   1.373   1.439
 7002SOL     OW28326   4.123   0.031   1.789
 7002SOL    HW228327   4.051  -0.004   1.737
 7002SOL    HW328328   4.181   0.072   1.724
 7002SOL    MW428329   4.121   0.032   1.774
 7003SOL     OW28330   4.147   1.521   1.088
 7003SOL    HW228331   4.192   1.583   1.145
 7003SOL    HW328332   4.054   1.540   1.101
 7003SOL    MW428333   4.140   1.531   1.095
 7004SOL     OW28334   5.587   1.050   1.442
 7004SOL    HW228335   5.502   1.063   1.401
 7004SOL    HW328336   5.567   1.014   1.529
 7004SOL    MW428337   5.574   1.046   1.447
 7005SOL     OW28338   4.569   1.589   1.196
 7005SOL    HW228339   4.593   1.578   1.105
 7005SOL    HW328340   4.492   1.646   1.194
 7005SOL    MW428341   4.561   1.594   1.185
 7006SOL     OW28342   4.211   0.972   0.051
 7006SOL    HW228343   4.134   0.985   0.107
 7006SOL    HW328344   4.175   0.936  -0.030
 7006SOL    MW428345   4.197   0.968   0.048
 7007SOL     OW28346   4.864   0.945   0.294
 7007SOL    HW228347   4.774   0.966   0.269
 7007SOL    HW328348   4.891   1.018   0.350
 7007SOL    MW428349   4.856   0.957   0.297
 7008SOL     OW28350   4.364   1.294   0.986
 7008SOL    HW228351   4.357   1.273   1.080
 7008SOL    HW328352   4.282   1.262   0.949
 7008SOL    MW428353   4.352   1.288   0.993
 7009SOL     OW28354   5.228   0.304   1.388
 7009SOL    HW228355   5.175   0.306   1.468
 7009SOL    HW328356   5.213   0.217   1.351
 7009SOL    MW428357   5.220   0.294   1.393
 7010SOL     OW28358   5.564   0.228   1.261
 7010SOL    HW228359   5.545   0.295   1.196
 7010SOL    HW328360   5.621   0.166   1.216
 7010SOL    MW428361   5.568   0.229   1.247
 7011SOL     OW28362   3.810   1.386   1.649
 7011SOL    HW228363   3.854   1.319   1.595
 7011SOL    HW328364   3.725   1.348   1.669
 7011SOL    MW428365   3.805   1.372   1.645
 7012SOL     OW28366   4.493   0.061   0.701
 7012SOL    HW228367   4.422   0.122   0.683
 7012SOL    HW328368   4.544   0.058   0.620
 7012SOL    MW428369   4.489   0.067   0.688
 7013SOL     OW28370   4.251   1.301   0.450
 7013SOL    HW228371   4.244   1.333   0.540
 7013SOL    HW328372   4.161   1.285   0.422
 7013SOL    MW428373   4.239   1.303   0.457
 7014SOL     OW28374   4.846   1.694   1.359
 7014SOL    HW228375   4.766   1.679   1.309
 7014SOL    HW328376   4.853   1.789   1.366
 7014SOL    MW428377   4.837   1.705   1.353
 7015SOL     OW28378   4.960   1.659   0.849
 7015SOL    HW228379   5.007   1.732   0.808
 7015SOL    HW328380   4.881   1.698   0.885
 7015SOL    MW428381   4.955   1.674   0.848
 7016SOL     OW28382   5.368   1.754   1.124
 7016SOL    HW228383   5.411   1.724   1.204
 7016SOL    HW328384   5.287   1.702   1.121
 7016SOL    MW428385   5.363   1.743   1.134
 7017SOL     OW28386   4.453   0.718   1.831
 7017SOL    HW228387   4.523   0.660   1.803
 7017SOL    HW328388   4.396   0.663   1.886
 7017SOL    MW428389   4.455   0.705   1.835
 7018SOL     OW28390   5.240   0.930   1.464
 7018SOL    HW228391   5.245   0.983   1.544
 7018SOL    HW328392   5.202   0.847   1.492
 7018SOL    MW428393   5.236   0.925   1.479
 7019SOL     OW28394   4.880   0.065   1.710
 7019SOL    HW228395   4.875  -0.028   1.691
 7019SOL    HW328396   4.963   0.076   1.756
 7019SOL    MW428397   4.888   0.054   1.714
 7020SOL     OW28398   4.254   0.585   0.164
 7020SOL    HW228399   4.220   0.641   0.234
 7020SOL    HW328400   4.325   0.535   0.204
 7020SOL    MW428401   4.260   0.586   0.178
 7021SOL     OW28402   5.350   1.336   0.986
 7021SOL    HW228403   5.385   1.318   0.899
 7021SOL    HW328404   5.255   1.337   0.973
 7021SOL    MW428405   5.342   1.333   0.973
 7022SOL     OW28406   4.779   0.984   1.355
 7022SOL    HW228407   4.822   1.019   1.433
 7022SOL    HW328408   4.762   1.061   1.301
 7022SOL    MW428409   4.782   0.999   1.358
 7023SOL     OW28410   5.310   0.471   0.228
 7023SOL    HW228411   5.302   0.542   0.165
 7023SOL    HW328412   5.328   0.515   0.311
 7023SOL    MW428413   5.311   0.485   0.230
 7024SOL     OW28414   4.170   0.126   0.657
 7024SOL    HW228415   4.220   0.169   0.588
 7024SOL    HW328416   4.085   0.170   0.657
 7024SOL    MW428417   4.167   0.139   0.648
 7025SOL     OW28418   3.929   1.188   1.517
 7025SOL    HW228419   3.957   1.141   1.595
 7025SOL    HW328420   3.850   1.143   1.488
 7025SOL    MW428421   3.922   1.177   1.523
 7026SOL     OW28422   4.437   0.515   1.484
 7026SOL    HW228423   4.409   0.603   1.508
 7026SOL    HW328424   4.406   0.459   1.555
 7026SOL    MW428425   4.429   0.518   1.496
 7027SOL     OW28426   4.979   0.733   0.203
 7027SOL    HW228427   5.026   0.751   0.122
 7027SOL    HW328428   4.945   0.817   0.231
 7027SOL    MW428429   4.981   0.747   0.196
 7028SOL     OW28430   4.092   0.911   0.697
 7028SOL    HW228431   4.150   0.967   0.645
 7028SOL    HW328432   4.136   0.826   0.699
 7028SOL    MW428433   4.105   0.908   0.690
 7029SOL     OW28434   5.232   0.263   0.534
 7029SOL    HW228435   5.154   0.213   0.559
 7029SOL    HW328436   5.203   0.354   0.534
 7029SOL    MW428437   5.218   0.267   0.537
 7030SOL     OW28438   4.818   0.225   0.693
 7030SOL    HW228439   4.838   0.300   0.637
 7030SOL    HW328440   4.798   0.264   0.778
 7030SOL    MW428441   4.819   0.241   0.697
 7031SOL     OW28442   4.714   1.475   0.025
 7031SOL    HW228443   4.741   1.553  -0.023
 7031SOL    HW328444   4.621   1.490   0.044
 7031SOL    MW428445   4.705   1.488   0.021
 7032SOL     OW28446   5.578   0.998   1.712
 7032SOL    HW228447   5.491   0.978   1.748
 7032SOL    HW328448   5.632   0.924   1.737
 7032SOL    MW428449   5.573   0.987   1.720
 7033SOL     OW28450   3.799   1.511   0.869
 7033SOL    HW228451   3.831   1.515   0.960
 7033SOL    HW328452   3.704   1.519   0.877
 7033SOL    MW428453   3.791   1.514   0.882
 7034SOL     OW28454   3.754   0.637   0.416
 7034SOL    HW228455   3.694   0.609   0.486
 7034SOL    HW328456   3.828   0.577   0.422
 7034SOL    MW428457   3.756   0.626   0.425
 7035SOL     OW28458   5.322   1.849   1.850
 7035SOL    HW228459   5.367   1.773   1.815
 7035SOL    HW328460   5.360   1.862   1.937
 7035SOL    MW428461   5.332   1.842   1.856
 7036SOL     OW28462   4.922   1.368   0.576
 7036SOL    HW228463   4.945   1.319   0.654
 7036SOL    HW328464   5.003   1.410   0.548
 7036SOL    MW428465   4.935   1.368   0.583
 7037SOL     OW28466   4.180   0.376   1.305
 7037SOL    HW228467   4.213   0.457   1.345
 7037SOL    HW328468   4.153   0.402   1.217
 7037SOL    MW428469   4.179   0.390   1.299
 7038SOL     OW28470   4.134   0.343   1.041
 7038SOL    HW228471   4.164   0.257   1.012
 7038SOL    HW328472   4.039   0.336   1.044
 7038SOL    MW428473   4.126   0.332   1.039
 7039SOL     OW28474   4.963   0.552   1.732
 7039SOL    HW228475   5.015   0.487   1.685
 7039SOL    HW328476   4.921   0.603   1.662
 7039SOL    MW428477   4.964   0.549   1.715
 7040SOL     OW28478   5.062   0.347   1.593
 7040SOL    HW228479   4.969   0.331   1.580
 7040SOL    HW328480   5.088   0.285   1.661
 7040SOL    MW428481   5.052   0.337   1.600
 7041SOL     OW28482   4.277   0.121   0.932
 7041SOL    HW228483   4.287   0.030   0.958
 7041SOL    HW328484   4.233   0.117   0.847
 7041SOL    MW428485   4.273   0.109   0.924
 7042SOL     OW28486   4.371   1.736   1.478
 7042SOL    HW228487   4.288   1.721   1.523
 7042SOL    HW328488   4.430   1.669   1.513
 7042SOL    MW428489   4.369   1.726   1.488
 7043SOL     OW28490   5.428   0.443   1.103
 7043SOL    HW228491   5.361   0.476   1.163
 7043SOL    HW328492   5.471   0.521   1.069
 7043SOL    MW428493   5.426   0.458   1.107
 7044SOL     OW28494   5.606   1.163   1.073
 7044SOL    HW228495   5.599   1.103   0.998
 7044SOL    HW328496   5.532   1.223   1.062
 7044SOL    MW428497   5.596   1.163   1.062
 7045SOL     OW28498   4.988   1.025   0.991
 7045SOL    HW228499   5.002   0.997   1.082
 7045SOL    HW328500   5.074   1.056   0.963
 7045SOL    MW428501   5.001   1.026   1.000
 7046SOL     OW28502   5.071   0.520   1.270
 7046SOL    HW228503   5.092   0.521   1.177
 7046SOL    HW328504   5.116   0.442   1.303
 7046SOL    MW428505   5.078   0.510   1.262
 7047SOL     OW28506   5.564   0.651   1.812
 7047SOL    HW228507   5.601   0.596   1.881
 7047SOL    HW328508   5.589   0.608   1.730
 7047SOL    MW428509   5.571   0.639   1.811
 7048SOL     OW28510   5.111   0.949   1.863
 7048SOL    HW228511   5.177   0.897   1.817
 7048SOL    HW328512   5.131   0.936   1.956
 7048SOL    MW428513   5.122   0.940   1.870
 7049SOL     OW28514   5.062   0.035   0.212
 7049SOL    HW228515   5.136   0.079   0.255
 7049SOL    HW328516   4.986   0.089   0.234
 7049SOL    MW428517   5.062   0.047   0.220
 7050SOL     OW28518   5.122   0.810   0.490
 7050SOL    HW228519   5.037   0.780   0.460
 7050SOL    HW328520   5.114   0.817   0.585
 7050SOL    MW428521   5.110   0.808   0.499
 7051SOL     OW28522   4.198   1.273   1.221
 7051SOL    HW228523   4.210   1.300   1.312
 7051SOL    HW328524   4.179   1.354   1.174
 7051SOL    MW428525   4.197   1.288   1.226
 7052SOL     OW28526   4.482   0.253   1.044
 7052SOL    HW228527   4.455   0.255   1.135
 7052SOL    HW328528   4.412   0.205   0.999
 7052SOL    MW428529   4.470   0.249   1.051
 7053SOL     OW28530   4.336   1.745   1.206
 7053SOL    HW228531   4.388   1.822   1.183
 7053SOL    HW328532   4.345   1.737   1.301
 7053SOL    MW428533   4.345   1.752   1.217
 7054SOL     OW28534   5.238   1.330   1.438
 7054SOL    HW228535   5.223   1.259   1.501
 7054SOL    HW328536   5.284   1.288   1.366
 7054SOL    MW428537   5.244   1.314   1.438
 7055SOL     OW28538   4.312   1.061   1.555
 7055SOL    HW228539   4.349   1.066   1.467
 7055SOL    HW328540   4.351   1.134   1.602
 7055SOL    MW428541   4.322   1.071   1.550
 7056SOL     OW28542   4.492   1.104   1.367
 7056SOL    HW228543   4.551   1.050   1.420
 7056SOL    HW328544   4.507   1.076   1.277
 7056SOL    MW428545   4.502   1.093   1.363
 7057SOL     OW28546   4.495   0.476   0.216
 7057SOL    HW228547   4.568   0.525   0.179
 7057SOL    HW328548   4.511   0.385   0.190
 7057SOL    MW428549   4.507   0.471   0.209
 7058SOL     OW28550   5.303   1.593   1.539
 7058SOL    HW228551   5.345   1.578   1.624
 7058SOL    HW328552   5.294   1.506   1.501
 7058SOL    MW428553   5.307   1.581   1.546
 7059SOL     OW28554   4.963   0.072   1.130
 7059SOL    HW228555   5.018   0.081   1.052
 7059SOL    HW328556   5.018   0.106   1.201
 7059SOL    MW428557   4.977   0.077   1.129
 7060SOL     OW28558   3.970   0.985   0.314
 7060SOL    HW228559   3.907   1.001   0.243
 7060SOL    HW328560   3.917   0.948   0.385
 7060SOL    MW428561   3.955   0.982   0.314
 7061SOL     OW28562   4.326   1.339   0.173
 7061SOL    HW228563   4.341   1.315   0.265
 7061SOL    HW328564   4.234   1.317   0.157
 7061SOL    MW428565   4.316   1.332   0.183
 7062SOL     OW28566   4.865   1.570   0.325
 7062SOL    HW228567   4.873   1.488   0.276
 7062SOL    HW328568   4.784   1.609   0.292
 7062SOL    MW428569   4.855   1.565   0.315
 7063SOL     OW28570   4.124   1.728   0.894
 7063SOL    HW228571   4.128   1.639   0.929
 7063SOL    HW328572   4.150   1.719   0.803
 7063SOL    MW428573   4.127   1.716   0.886
 7064SOL     OW28574   4.741   1.206   1.137
 7064SOL    HW228575   4.673   1.140   1.153
 7064SOL    HW328576   4.759   1.200   1.044
 7064SOL    MW428577   4.734   1.197   1.128
 7065SOL     OW28578   3.830   1.481   1.388
 7065SOL    HW228579   3.820   1.439   1.474
 7065SOL    HW328580   3.751   1.534   1.378
 7065SOL    MW428581   3.819   1.482   1.399
 7066SOL     OW28582   4.734   0.345   0.958
 7066SOL    HW228583   4.664   0.297   1.003
 7066SOL    HW328584   4.766   0.408   1.022
 7066SOL    MW428585   4.729   0.347   0.972
 7067SOL     OW28586   4.385   0.781   1.578
 7067SOL    HW228587   4.378   0.876   1.566
 7067SOL    HW328588   4.394   0.770   1.673
 7067SOL    MW428589   4.386   0.793   1.588
 7068SOL     OW28590   4.106   1.296   1.836
 7068SOL    HW228591   4.178   1.298   1.773
 7068SOL    HW328592   4.076   1.205   1.835
 7068SOL    MW428593   4.111   1.285   1.828
 7069SOL     OW28594   5.190   0.059   1.303
 7069SOL    HW228595   5.261   0.005   1.267
 7069SOL    HW328596   5.189   0.038   1.396
 7069SOL    MW428597   5.199   0.050   1.311
 7070SOL     OW28598   5.390   1.589   1.787
 7070SOL    HW228599   5.363   1.586   1.878
 7070SOL    HW328600   5.486   1.593   1.790
 7070SOL    MW428601   5.400   1.589   1.799
 7071SOL     OW28602   4.201   0.451   0.771
 7071SOL    HW228603   4.272   0.399   0.734
 7071SOL    HW328604   4.187   0.416   0.858
 7071SOL    MW428605   4.209   0.440   0.778
 7072SOL     OW28606   3.756   1.786   1.843
 7072SOL    HW228607   3.806   1.764   1.765
 7072SOL    HW328608   3.764   1.881   1.851
 7072SOL    MW428609   3.764   1.795   1.834
 7073SOL     OW28610   4.517   1.544   0.847
 7073SOL    HW228611   4.445   1.481   0.860
 7073SOL    HW328612   4.478   1.629   0.865
 7073SOL    MW428613   4.501   1.547   0.850
 7074SOL     OW28614   4.837   0.392   0.495
 7074SOL    HW228615   4.859   0.329   0.427
 7074SOL    HW328616   4.742   0.384   0.506
 7074SOL    MW428617   4.827   0.383   0.487
 7075SOL     OW28618   3.922   0.082   0.427
 7075SOL    HW228619   3.993   0.103   0.366
 7075SOL    HW328620   3.876   0.010   0.385
 7075SOL    MW428621   3.926   0.076   0.413
 7076SOL     OW28622   3.753   0.549   1.570
 7076SOL    HW228623   3.817   0.615   1.545
 7076SOL    HW328624   3.672   0.576   1.527
 7076SOL    MW428625   3.751   0.561   1.562
 7077SOL     OW28626   5.491   1.456   0.527
 7077SOL    HW228627   5.461   1.389   0.588
 7077SOL    HW328628   5.585   1.462   0.541
 7077SOL    MW428629   5.499   1.448   0.537
 7078SOL     OW28630   5.047   1.133   0.457
 7078SOL    HW228631   5.019   1.219   0.490
 7078SOL    HW328632   5.075   1.149   0.367
 7078SOL    MW428633   5.047   1.147   0.449
 7079SOL     OW28634   4.709   0.053   0.510
 7079SOL    HW228635   4.746   0.112   0.575
 7079SOL    HW328636   4.686   0.109   0.436
 7079SOL    MW428637   4.710   0.068   0.509
 7080SOL     OW28638   5.562   0.935   0.932
 7080SOL    HW228639   5.553   0.967   0.843
 7080SOL    HW328640   5.515   0.851   0.932
 7080SOL    MW428641   5.555   0.928   0.922
 7081SOL     OW28642   3.938   0.775   1.511
 7081SOL    HW228643   3.959   0.844   1.449
 7081SOL    HW328644   4.018   0.722   1.516
 7081SOL    MW428645   3.951   0.776   1.505
 7082SOL     OW28646   5.474   0.866   0.633
 7082SOL    HW228647   5.568   0.855   0.621
 7082SOL    HW328648   5.450   0.938   0.574
 7082SOL    MW428649   5.484   0.874   0.624
 7083SOL     OW28650   3.923   0.790   1.778
 7083SOL    HW228651   3.849   0.734   1.804
 7083SOL    HW328652   3.918   0.793   1.683
 7083SOL    MW428653   3.912   0.783   1.768
 7084SOL     OW28654   4.089   0.077   1.228
 7084SOL    HW228655   4.132   0.161   1.248
 7084SOL    HW328656   4.162   0.015   1.221
 7084SOL    MW428657   4.104   0.080   1.229
 7085SOL     OW28658   4.130   0.744   0.406
 7085SOL    HW228659   4.130   0.839   0.391
 7085SOL    HW328660   4.207   0.728   0.460
 7085SOL    MW428661   4.140   0.755   0.411
 7086SOL     OW28662   4.906   0.603   1.470
 7086SOL    HW228663   4.942   0.576   1.386
 7086SOL    HW328664   4.819   0.637   1.449
 7086SOL    MW428665   4.900   0.604   1.457
 7087SOL     OW28666   3.889   0.475   0.695
 7087SOL    HW228667   3.951   0.482   0.768
 7087SOL    HW328668   3.889   0.382   0.672
 7087SOL    MW428669   3.897   0.464   0.702
 7088SOL     OW28670   5.436   1.815   0.227
 7088SOL    HW228671   5.503   1.848   0.167
 7088SOL    HW328672   5.393   1.894   0.261
 7088SOL    MW428673   5.438   1.830   0.223
 7089SOL     OW28674   4.571   0.736   1.179
 7089SOL    HW228675   4.529   0.654   1.155
 7089SOL    HW328676   4.572   0.735   1.275
 7089SOL    MW428677   4.564   0.725   1.188
 7090SOL     OW28678   5.242   1.869   1.578
 7090SOL    HW228679   5.245   1.775   1.561
 7090SOL    HW328680   5.265   1.877   1.670
 7090SOL    MW428681   5.245   1.857   1.588
 7091SOL     OW28682   4.375   0.206   1.284
 7091SOL    HW228683   4.306   0.269   1.305
 7091SOL    HW328684   4.402   0.170   1.369
 7091SOL    MW428685   4.369   0.209   1.297
 7092SOL     OW28686   3.758   1.047   0.153
 7092SOL    HW228687   3.727   1.112   0.216
 7092SOL    HW328688   3.707   0.969   0.172
 7092SOL    MW428689   3.748   1.044   0.163
 7093SOL     OW28690   5.170   0.059   0.901
 7093SOL    HW228691   5.258   0.068   0.938
 7093SOL    HW328692   5.180   0.000   0.827
 7093SOL    MW428693   5.184   0.053   0.895
 7094SOL     OW28694   5.202   0.798   0.745
 7094SOL    HW228695   5.282   0.813   0.694
 7094SOL    HW328696   5.195   0.703   0.751
 7094SOL    MW428697   5.211   0.787   0.740
 7095SOL     OW28698   4.342   1.847   0.095
 7095SOL    HW228699   4.247   1.847   0.087
 7095SOL    HW328700   4.358   1.793   0.173
 7095SOL    MW428701   4.332   1.841   0.104
 7096SOL     OW28702   4.652   0.724   1.442
 7096SOL    HW228703   4.721   0.791   1.439
 7096SOL    HW328704   4.585   0.762   1.498
 7096SOL    MW428705   4.653   0.737   1.449
 7097SOL     OW28706   4.070   1.024   1.690
 7097SOL    HW228707   4.024   0.940   1.692
 7097SOL    HW328708   4.127   1.018   1.614
 7097SOL    MW428709   4.072   1.012   1.682
 7098SOL     OW28710   5.187   0.667   0.011
 7098SOL    HW228711   5.115   0.643  -0.047
 7098SOL    HW328712   5.253   0.704  -0.047
 7098SOL    MW428713   5.186   0.669  -0.004
 7099SOL     OW28714   4.321   1.399   0.691
 7099SOL    HW228715   4.386   1.332   0.712
 7099SOL    HW328716   4.373   1.476   0.668
 7099SOL    MW428717   4.336   1.401   0.690
 7100SOL     OW28718   4.582   0.564   0.821
 7100SOL    HW228719   4.522   0.582   0.893
 7100SOL    HW328720   4.616   0.476   0.840
 7100SOL    MW428721   4.578   0.554   0.834
 7101SOL     OW28722   5.523   0.063   1.490
 7101SOL    HW228723   5.444   0.109   1.518
 7101SOL    HW328724   5.558   0.117   1.419
 7101SOL    MW428725   5.517   0.076   1.484
 7102SOL     OW28726   4.807   1.147   0.840
 7102SOL    HW228727   4.899   1.128   0.858
 7102SOL    HW328728   4.780   1.077   0.780
 7102SOL    MW428729   4.815   1.135   0.834
 7103SOL     OW28730   4.600   0.967   0.195
 7103SOL    HW228731   4.586   0.879   0.160
 7103SOL    HW328732   4.551   1.024   0.136
 7103SOL    MW428733   4.592   0.962   0.183
 7104SOL     OW28734   5.081   1.385   0.936
 7104SOL    HW228735   5.054   1.469   0.901
 7104SOL    HW328736   5.041   1.380   1.023
 7104SOL    MW428737   5.074   1.394   0.942
 7105SOL     OW28738   5.000   1.333   1.204
 7105SOL    HW228739   5.011   1.300   1.293
 7105SOL    HW328740   4.919   1.292   1.173
 7105SOL    MW428741   4.990   1.325   1.210
 7106SOL     OW28742   4.013   0.691   0.974
 7106SOL    HW228743   3.963   0.690   1.055
 7106SOL    HW328744   4.033   0.783   0.958
 7106SOL    MW428745   4.009   0.703   0.982
 7107SOL     OW28746   5.080   1.455   1.736
 7107SOL    HW228747   5.080   1.549   1.752
 7107SOL    HW328748   5.125   1.445   1.652
 7107SOL    MW428749   5.086   1.465   1.727
 7108SOL     OW28750   5.319   0.173   0.297
 7108SOL    HW228751   5.312   0.177   0.392
 7108SOL    HW328752   5.331   0.264   0.270
 7108SOL    MW428753   5.320   0.186   0.305
 7109SOL     OW28754   4.608   0.736   0.411
 7109SOL    HW228755   4.588   0.722   0.318
 7109SOL    HW328756   4.701   0.715   0.418
 7109SOL    MW428757   4.618   0.731   0.400
 7110SOL     OW28758   3.935   0.359   1.715
 7110SOL    HW228759   3.892   0.418   1.652
 7110SOL    HW328760   4.003   0.414   1.755
 7110SOL    MW428761   3.939   0.374   1.712
 7111SOL     OW28762   5.047   0.979   1.260
 7111SOL    HW228763   5.110   0.976   1.333
 7111SOL    HW328764   4.963   0.997   1.302
 7111SOL    MW428765   5.043   0.981   1.275
 7112SOL     OW28766   4.591   1.694   0.449
 7112SOL    HW228767   4.649   1.765   0.476
 7112SOL    HW328768   4.614   1.622   0.507
 7112SOL    MW428769   4.602   1.694   0.460
 7113SOL     OW28770   5.386   0.156   1.039
 7113SOL    HW228771   5.431   0.074   1.058
 7113SOL    HW328772   5.406   0.212   1.115
 7113SOL    MW428773   5.396   0.152   1.051
 7114SOL     OW28774   3.834  -0.001   1.138
 7114SOL    HW228775   3.825   0.000   1.043
 7114SOL    HW328776   3.928   0.011   1.153
 7114SOL    MW428777   3.846   0.002   1.129
 7115SOL     OW28778   5.471   1.192   0.758
 7115SOL    HW228779   5.450   1.138   0.681
 7115SOL    HW328780   5.567   1.190   0.762
 7115SOL    MW428781   5.480   1.185   0.747
 7116SOL     OW28782   4.163   1.337   1.501
 7116SOL    HW228783   4.084   1.287   1.524
 7116SOL    HW328784   4.233   1.296   1.551
 7116SOL    MW428785   4.161   1.325   1.511
 7117SOL     OW28786   4.047   0.126   0.184
 7117SOL    HW228787   3.976   0.181   0.152
 7117SOL    HW328788   4.089   0.092   0.105
 7117SOL    MW428789   4.043   0.128   0.170
 7118SOL     OW28790   5.171   0.623   1.020
 7118SOL    HW228791   5.094   0.669   0.986
 7118SOL    HW328792   5.228   0.692   1.054
 7118SOL    MW428793   5.168   0.638   1.020
 7119SOL     OW28794   3.803   0.225   0.033
 7119SOL    HW228795   3.770   0.304   0.077
 7119SOL    HW328796   3.858   0.258  -0.038
 7119SOL    MW428797   3.806   0.239   0.030
 7120SOL     OW28798   3.837   1.482   0.222
 7120SOL    HW228799   3.854   1.566   0.264
 7120SOL    HW328800   3.872   1.491   0.134
 7120SOL    MW428801   3.842   1.495   0.216
 7121SOL     OW28802   5.109   1.571   0.439
 7121SOL    HW228803   5.172   1.561   0.368
 7121SOL    HW328804   5.026   1.591   0.394
 7121SOL    MW428805   5.106   1.572   0.424
 7122SOL     OW28806   5.472   0.839   2.125
 7122SOL    HW228807   5.513   0.781   2.190
 7122SOL    HW328808   5.379   0.831   2.142
 7122SOL    MW428809   5.466   0.831   2.135
 7123SOL     OW28810   5.338   0.771   3.120
 7123SOL    HW228811   5.293   0.838   3.171
 7123SOL    HW328812   5.426   0.807   3.106
 7123SOL    MW428813   5.344   0.784   3.124
 7124SOL     OW28814   4.266   1.022   2.354
 7124SOL    HW228815   4.356   0.997   2.338
 7124SOL    HW328816   4.262   1.115   2.331
 7124SOL    MW428817   4.278   1.031   2.349
 7125SOL     OW28818   5.382   1.725   2.496
 7125SOL    HW228819   5.394   1.671   2.574
 7125SOL    HW328820   5.419   1.673   2.425
 7125SOL    MW428821   5.388   1.710   2.497
 7126SOL     OW28822   4.761   1.610   3.497
 7126SOL    HW228823   4.802   1.646   3.418
 7126SOL    HW328824   4.796   1.521   3.504
 7126SOL    MW428825   4.772   1.603   3.488
 7127SOL     OW28826   5.318   1.165   3.101
 7127SOL    HW228827   5.239   1.130   3.059
 7127SOL    HW328828   5.345   1.237   3.045
 7127SOL    MW428829   5.311   1.170   3.088
 7128SOL     OW28830   4.550   0.478   2.367
 7128SOL    HW228831   4.525   0.566   2.395
 7128SOL    HW328832   4.547   0.481   2.271
 7128SOL    MW428833   4.546   0.490   2.359
 7129SOL     OW28834   3.992   0.506   2.295
 7129SOL    HW228835   4.024   0.594   2.277
 7129SOL    HW328836   3.980   0.504   2.390
 7129SOL    MW428837   3.995   0.518   2.307
 7130SOL     OW28838   4.070   0.919   3.196
 7130SOL    HW228839   4.133   0.866   3.147
 7130SOL    HW328840   4.051   0.993   3.139
 7130SOL    MW428841   4.076   0.921   3.183
 7131SOL     OW28842   4.391   0.261   2.382
 7131SOL    HW228843   4.449   0.337   2.384
 7131SOL    HW328844   4.326   0.282   2.315
 7131SOL    MW428845   4.390   0.273   2.373
 7132SOL     OW28846   4.478   1.188   2.557
 7132SOL    HW228847   4.558   1.191   2.609
 7132SOL    HW328848   4.506   1.155   2.471
 7132SOL    MW428849   4.492   1.184   2.552
 7133SOL     OW28850   4.503   1.529   3.460
 7133SOL    HW228851   4.587   1.555   3.499
 7133SOL    HW328852   4.527   1.473   3.386
 7133SOL    MW428853   4.517   1.525   3.455
 7134SOL     OW28854   4.255   0.692   2.548
 7134SOL    HW228855   4.240   0.612   2.599
 7134SOL    HW328856   4.337   0.727   2.582
 7134SOL    MW428857   4.263   0.684   2.560
 7135SOL     OW28858   4.592   1.378   3.233
 7135SOL    HW228859   4.556   1.444   3.173
 7135SOL    HW328860   4.520   1.316   3.246
 7135SOL    MW428861   4.578   1.378   3.227
 7136SOL     OW28862   4.397   0.518   2.925
 7136SOL    HW228863   4.303   0.514   2.943
 7136SOL    HW328864   4.427   0.427   2.934
 7136SOL    MW428865   4.388   0.506   2.928
 7137SOL     OW28866   4.143   0.932   2.829
 7137SOL    HW228867   4.098   0.939   2.745
 7137SOL    HW328868   4.123   1.015   2.873
 7137SOL    MW428869   4.135   0.944   2.823
 7138SOL     OW28870   3.840   1.778   2.704
 7138SOL    HW228871   3.929   1.770   2.739
 7138SOL    HW328872   3.804   1.690   2.709
 7138SOL    MW428873   3.847   1.765   2.709
 7139SOL     OW28874   5.105   1.170   2.073
 7139SOL    HW228875   5.023   1.206   2.039
 7139SOL    HW328876   5.173   1.213   2.022
 7139SOL    MW428877   5.103   1.180   2.061
 7140SOL     OW28878   4.104   1.305   2.739
 7140SOL    HW228879   4.080   1.358   2.815
 7140SOL    HW328880   4.160   1.363   2.687
 7140SOL    MW428881   4.108   1.320   2.742
 7141SOL     OW28882   4.666   0.949   2.549
 7141SOL    HW228883   4.580   0.936   2.589
 7141SOL    HW328884   4.719   0.876   2.581
 7141SOL    MW428885   4.662   0.938   2.558
 7142SOL     OW28886   4.074   1.601   3.334
 7142SOL    HW228887   3.982   1.577   3.319
 7142SOL    HW328888   4.118   1.518   3.351
 7142SOL    MW428889   4.068   1.586   3.333
 7143SOL     OW28890   4.657   1.311   2.266
 7143SOL    HW228891   4.634   1.373   2.334
 7143SOL    HW328892   4.614   1.229   2.292
 7143SOL    MW428893   4.649   1.307   2.277
 7144SOL     OW28894   5.530   0.312   2.722
 7144SOL    HW228895   5.467   0.292   2.791
 7144SOL    HW328896   5.520   0.241   2.659
 7144SOL    MW428897   5.520   0.299   2.723
 7145SOL     OW28898   4.154   0.284   2.234
 7145SOL    HW228899   4.128   0.246   2.150
 7145SOL    HW328900   4.091   0.354   2.250
 7145SOL    MW428901   4.143   0.287   2.225
 7146SOL     OW28902   3.989   1.245   2.271
 7146SOL    HW228903   3.937   1.313   2.227
 7146SOL    HW328904   3.986   1.171   2.211
 7146SOL    MW428905   3.981   1.244   2.258
 7147SOL     OW28906   4.651   1.708   2.049
 7147SOL    HW228907   4.606   1.724   2.132
 7147SOL    HW328908   4.582   1.673   1.991
 7147SOL    MW428909   4.637   1.705   2.051
 7148SOL     OW28910   5.586   0.481   2.024
 7148SOL    HW228911   5.495   0.483   2.052
 7148SOL    HW328912   5.631   0.543   2.082
 7148SOL    MW428913   5.579   0.489   2.034
 7149SOL     OW28914   5.331   1.084   2.374
 7149SOL    HW228915   5.241   1.084   2.409
 7149SOL    HW328916   5.324   1.130   2.291
 7149SOL    MW428917   5.318   1.090   2.368
 7150SOL     OW28918   5.131   0.719   3.446
 7150SOL    HW228919   5.200   0.657   3.423
 7150SOL    HW328920   5.056   0.693   3.393
 7150SOL    MW428921   5.131   0.706   3.437
 7151SOL     OW28922   3.872   1.599   2.998
 7151SOL    HW228923   3.855   1.545   3.075
 7151SOL    HW328924   3.860   1.689   3.028
 7151SOL    MW428925   3.869   1.603   3.012
 7152SOL     OW28926   4.867   1.106   3.438
 7152SOL    HW228927   4.852   1.199   3.423
 7152SOL    HW328928   4.962   1.096   3.438
 7152SOL    MW428929   4.876   1.116   3.435
 7153SOL     OW28930   4.663   0.530   3.639
 7153SOL    HW228931   4.753   0.531   3.606
 7153SOL    HW328932   4.622   0.455   3.597
 7153SOL    MW428933   4.669   0.520   3.630
 7154SOL     OW28934   5.238   1.062   2.766
 7154SOL    HW228935   5.241   0.996   2.697
 7154SOL    HW328936   5.323   1.105   2.762
 7154SOL    MW428937   5.250   1.058   2.757
 7155SOL     OW28938   4.858   0.665   2.335
 7155SOL    HW228939   4.884   0.689   2.246
 7155SOL    HW328940   4.840   0.572   2.331
 7155SOL    MW428941   4.860   0.657   2.322
 7156SOL     OW28942   5.523   1.285   2.186
 7156SOL    HW228943   5.479   1.326   2.261
 7156SOL    HW328944   5.580   1.353   2.151
 7156SOL    MW428945   5.525   1.299   2.191
 7157SOL     OW28946   4.443   0.334   3.589
 7157SOL    HW228947   4.453   0.260   3.529
 7157SOL    HW328948   4.479   0.303   3.672
 7157SOL    MW428949   4.449   0.320   3.591
 7158SOL     OW28950   4.179   1.701   2.504
 7158SOL    HW228951   4.211   1.789   2.482
 7158SOL    HW328952   4.132   1.673   2.426
 7158SOL    MW428953   4.178   1.709   2.491
 7159SOL     OW28954   5.563   0.063   2.553
 7159SOL    HW228955   5.617   0.014   2.615
 7159SOL    HW328956   5.506  -0.003   2.514
 7159SOL    MW428957   5.563   0.047   2.555
 7160SOL     OW28958   3.895   1.761   2.081
 7160SOL    HW228959   3.924   1.851   2.073
 7160SOL    HW328960   3.845   1.744   2.002
 7160SOL    MW428961   3.893   1.769   2.070
 7161SOL     OW28962   4.682   0.016   2.966
 7161SOL    HW228963   4.641   0.094   2.928
 7161SOL    HW328964   4.776   0.034   2.961
 7161SOL    MW428965   4.688   0.028   2.961
 7162SOL     OW28966   5.299   1.569   2.052
 7162SOL    HW228967   5.347   1.638   2.098
 7162SOL    HW328968   5.220   1.613   2.021
 7162SOL    MW428969   5.294   1.583   2.055
 7163SOL     OW28970   4.697   0.694   1.996
 7163SOL    HW228971   4.699   0.641   1.917
 7163SOL    HW328972   4.785   0.731   2.002
 7163SOL    MW428973   4.709   0.693   1.985
 7164SOL     OW28974   5.311   0.620   2.332
 7164SOL    HW228975   5.350   0.620   2.419
 7164SOL    HW328976   5.252   0.696   2.332
 7164SOL    MW428977   5.308   0.631   2.343
 7165SOL     OW28978   4.628   0.987   3.461
 7165SOL    HW228979   4.605   0.967   3.551
 7165SOL    HW328980   4.713   1.031   3.466
 7165SOL    MW428981   4.635   0.990   3.473
 7166SOL     OW28982   4.708   0.124   3.221
 7166SOL    HW228983   4.714   0.086   3.134
 7166SOL    HW328984   4.697   0.218   3.206
 7166SOL    MW428985   4.709   0.132   3.209
 7167SOL     OW28986   4.797   0.613   3.055
 7167SOL    HW228987   4.872   0.642   3.002
 7167SOL    HW328988   4.729   0.678   3.039
 7167SOL    MW428989   4.798   0.625   3.045
 7168SOL     OW28990   5.347   0.581   3.332
 7168SOL    HW228991   5.328   0.490   3.311
 7168SOL    HW328992   5.325   0.630   3.253
 7168SOL    MW428993   5.342   0.574   3.319
 7169SOL     OW28994   5.489   1.675   3.236
 7169SOL    HW228995   5.417   1.637   3.287
 7169SOL    HW328996   5.506   1.760   3.277
 7169SOL    MW428997   5.483   1.680   3.248
 7170SOL     OW28998   4.794   0.319   3.438
 7170SOL    HW228999   4.760   0.358   3.357
 7170SOL    HW329000   4.772   0.227   3.431
 7170SOL    MW429001   4.787   0.312   3.428
 7171SOL     OW29002   5.203   1.133   3.514
 7171SOL    HW229003   5.285   1.174   3.544
 7171SOL    HW329004   5.166   1.095   3.594
 7171SOL    MW429005   5.209   1.134   3.529
 7172SOL     OW29006   5.498   0.506   2.498
 7172SOL    HW229007   5.587   0.475   2.515
 7172SOL    HW329008   5.441   0.446   2.546
 7172SOL    MW429009   5.501   0.494   2.507
 7173SOL     OW29010   3.924   0.220   2.527
 7173SOL    HW229011   3.915   0.160   2.453
 7173SOL    HW329012   3.857   0.191   2.590
 7173SOL    MW429013   3.914   0.207   2.525
 7174SOL     OW29014   4.867   1.313   2.088
 7174SOL    HW229015   4.817   1.315   2.170
 7174SOL    HW329016   4.801   1.331   2.020
 7174SOL    MW429017   4.853   1.315   2.090
 7175SOL     OW29018   3.871   0.393   2.890
 7175SOL    HW229019   3.843   0.484   2.899
 7175SOL    HW329020   3.808   0.354   2.829
 7175SOL    MW429021   3.858   0.399   2.884
 7176SOL     OW29022   4.330   1.731   2.196
 7176SOL    HW229023   4.251   1.689   2.229
 7176SOL    HW329024   4.396   1.714   2.263
 7176SOL    MW429025   4.329   1.723   2.209
 7177SOL     OW29026   5.458   1.251   3.593
 7177SOL    HW229027   5.508   1.177   3.625
 7177SOL    HW329028   5.404   1.278   3.668
 7177SOL    MW429029   5.458   1.245   3.606
 7178SOL     OW29030   4.466   1.146   1.903
 7178SOL    HW229031   4.388   1.092   1.890
 7178SOL    HW329032   4.437   1.219   1.956
 7178SOL    MW429033   4.452   1.148   1.908
 7179SOL     OW29034   5.592   0.886   3.095
 7179SOL    HW229035   5.608   0.924   3.008
 7179SOL    HW329036   5.626   0.952   3.156
 7179SOL    MW429037   5.599   0.899   3.091
 7180SOL     OW29038   5.384   1.595   2.764
 7180SOL    HW229039   5.413   1.662   2.825
 7180SOL    HW329040   5.365   1.519   2.819
 7180SOL    MW429041   5.386   1.595   2.779
 7181SOL     OW29042   5.047   1.662   1.971
 7181SOL    HW229043   4.973   1.625   2.021
 7181SOL    HW329044   5.055   1.752   2.004
 7181SOL    MW429045   5.038   1.669   1.983
 7182SOL     OW29046   3.855   0.668   3.060
 7182SOL    HW229047   3.917   0.698   3.126
 7182SOL    HW329048   3.789   0.737   3.054
 7182SOL    MW429049   3.854   0.681   3.067
 7183SOL     OW29050   5.271   1.336   1.913
 7183SOL    HW229051   5.218   1.385   1.849
 7183SOL    HW329052   5.302   1.402   1.974
 7183SOL    MW429053   5.269   1.350   1.911
 7184SOL     OW29054   4.496   0.225   1.968
 7184SOL    HW229055   4.444   0.145   1.956
 7184SOL    HW329056   4.583   0.202   1.936
 7184SOL    MW429057   4.499   0.211   1.962
 7185SOL     OW29058   3.950   1.777   3.512
 7185SOL    HW229059   3.924   1.845   3.450
 7185SOL    HW329060   3.998   1.714   3.460
 7185SOL    MW429061   3.952   1.777   3.498
 7186SOL     OW29062   4.002   1.096   3.019
 7186SOL    HW229063   4.055   1.171   3.044
 7186SOL    HW329064   3.921   1.134   2.985
 7186SOL    MW429065   3.998   1.111   3.019
 7187SOL     OW29066   4.542   1.000   3.007
 7187SOL    HW229067   4.570   0.909   3.019
 7187SOL    HW329068   4.471   0.994   2.943
 7187SOL    MW429069   4.535   0.988   3.002
 7188SOL     OW29070   3.857   0.865   2.425
 7188SOL    HW229071   3.948   0.880   2.452
 7188SOL    HW329072   3.860   0.786   2.371
 7188SOL    MW429073   3.869   0.857   2.423
 7189SOL     OW29074   4.093   0.573   3.679
 7189SOL    HW229075   4.040   0.653   3.686
 7189SOL    HW329076   4.163   0.585   3.744
 7189SOL    MW429077   4.095   0.586   3.687
 7190SOL     OW29078   4.479   0.123   3.386
 7190SOL    HW229079   4.456   0.031   3.388
 7190SOL    HW329080   4.565   0.125   3.343
 7190SOL    MW429081   4.486   0.113   3.382
 7191SOL     OW29082   4.163   0.647   3.425
 7191SOL    HW229083   4.243   0.697   3.411
 7191SOL    HW329084   4.154   0.641   3.520
 7191SOL    MW429085   4.172   0.653   3.435
 7192SOL     OW29086   4.484   1.797   2.799
 7192SOL    HW229087   4.573   1.812   2.829
 7192SOL    HW329088   4.479   1.844   2.715
 7192SOL    MW429089   4.494   1.805   2.792
 7193SOL     OW29090   5.140   0.172   3.696
 7193SOL    HW229091   5.196   0.099   3.722
 7193SOL    HW329092   5.110   0.210   3.778
 7193SOL    MW429093   5.144   0.167   3.709
 7194SOL     OW29094   3.865   1.477   2.464
 7194SOL    HW229095   3.837   1.516   2.546
 7194SOL    HW329096   3.885   1.386   2.486
 7194SOL    MW429097   3.863   1.469   2.477
 7195SOL     OW29098   4.698   1.520   2.499
 7195SOL    HW229099   4.781   1.474   2.483
 7195SOL    HW329100   4.688   1.519   2.595
 7195SOL    MW429101   4.708   1.513   2.509
 7196SOL     OW29102   5.530   0.665   2.813
 7196SOL    HW229103   5.619   0.695   2.795
 7196SOL    HW329104   5.510   0.605   2.742
 7196SOL    MW429105   5.539   0.662   2.802
 7197SOL     OW29106   5.381   0.844   3.693
 7197SOL    HW229107   5.436   0.768   3.674
 7197SOL    HW329108   5.383   0.852   3.788
 7197SOL    MW429109   5.389   0.835   3.701
 7198SOL     OW29110   4.431   1.577   1.904
 7198SOL    HW229111   4.371   1.646   1.874
 7198SOL    HW329112   4.376   1.519   1.957
 7198SOL    MW429113   4.415   1.579   1.906
 7199SOL     OW29114   4.869   0.222   2.127
 7199SOL    HW229115   4.802   0.198   2.064
 7199SOL    HW329116   4.934   0.271   2.076
 7199SOL    MW429117   4.869   0.224   2.112
 7200SOL     OW29118   4.676   0.406   3.212
 7200SOL    HW229119   4.595   0.447   3.240
 7200SOL    HW329120   4.723   0.474   3.164
 7200SOL    MW429121   4.671   0.421   3.210
 7201SOL     OW29122   4.936   0.744   2.835
 7201SOL    HW229123   4.949   0.838   2.845
 7201SOL    HW329124   4.897   0.734   2.749
 7201SOL    MW429125   4.932   0.755   2.825
 7202SOL     OW29126   4.388   0.939   2.639
 7202SOL    HW229127   4.299   0.930   2.672
 7202SOL    HW329128   4.392   1.029   2.607
 7202SOL    MW429129   4.377   0.950   2.639
 7203SOL     OW29130   5.187   0.522   2.634
 7203SOL    HW229131   5.132   0.443   2.633
 7203SOL    HW329132   5.169   0.563   2.718
 7203SOL    MW429133   5.177   0.517   2.643
 7204SOL     OW29134   4.158   0.209   3.451
 7204SOL    HW229135   4.079   0.227   3.503
 7204SOL    HW329136   4.153   0.271   3.378
 7204SOL    MW429137   4.148   0.219   3.448
 7205SOL     OW29138   4.806   0.726   2.591
 7205SOL    HW229139   4.743   0.658   2.615
 7205SOL    HW329140   4.826   0.707   2.499
 7205SOL    MW429141   4.800   0.713   2.583
 7206SOL     OW29142   4.062   1.621   2.293
 7206SOL    HW229143   4.023   1.668   2.219
 7206SOL    HW329144   3.996   1.556   2.318
 7206SOL    MW429145   4.049   1.619   2.287
 7207SOL     OW29146   4.554   1.030   2.317
 7207SOL    HW229147   4.556   1.004   2.224
 7207SOL    HW329148   4.612   0.967   2.360
 7207SOL    MW429149   4.562   1.019   2.311
 7208SOL     OW29150   5.107   1.590   3.089
 7208SOL    HW229151   5.032   1.636   3.127
 7208SOL    HW329152   5.089   1.497   3.106
 7208SOL    MW429153   5.096   1.584   3.097
 7209SOL     OW29154   5.111   1.798   2.519
 7209SOL    HW229155   5.054   1.751   2.458
 7209SOL    HW329156   5.197   1.759   2.506
 7209SOL    MW429157   5.114   1.789   2.509
 7210SOL     OW29158   5.064   0.274   2.650
 7210SOL    HW229159   5.092   0.206   2.711
 7210SOL    HW329160   4.978   0.245   2.620
 7210SOL    MW429161   5.057   0.261   2.654
 7211SOL     OW29162   3.869   1.208   2.584
 7211SOL    HW229163   3.933   1.240   2.647
 7211SOL    HW329164   3.918   1.144   2.532
 7211SOL    MW429165   3.884   1.204   2.585
 7212SOL     OW29166   4.369   1.284   3.566
 7212SOL    HW229167   4.417   1.367   3.553
 7212SOL    HW329168   4.426   1.232   3.622
 7212SOL    MW429169   4.383   1.288   3.572
 7213SOL     OW29170   3.945   1.526   3.706
 7213SOL    HW229171   4.001   1.450   3.721
 7213SOL    HW329172   3.894   1.504   3.628
 7213SOL    MW429173   3.945   1.513   3.697
 7214SOL     OW29174   5.044   0.378   1.985
 7214SOL    HW229175   5.017   0.444   1.921
 7214SOL    HW329176   5.114   0.421   2.035
 7214SOL    MW429177   5.049   0.391   1.982
 7215SOL     OW29178   4.712   0.083   1.922
 7215SOL    HW229179   4.768   0.075   1.844
 7215SOL    HW329180   4.689  -0.007   1.944
 7215SOL    MW429181   4.717   0.070   1.915
 7216SOL     OW29182   5.217   0.934   2.127
 7216SOL    HW229183   5.184   1.023   2.117
 7216SOL    HW329184   5.182   0.905   2.212
 7216SOL    MW429185   5.207   0.943   2.138
 7217SOL     OW29186   4.830   1.363   3.315
 7217SOL    HW229187   4.741   1.369   3.283
 7217SOL    HW329188   4.874   1.442   3.283
 7217SOL    MW429189   4.825   1.373   3.307
 7218SOL     OW29190   4.123   0.031   3.657
 7218SOL    HW229191   4.051  -0.004   3.605
 7218SOL    HW329192   4.181   0.072   3.592
 7218SOL    MW429193   4.121   0.032   3.642
 7219SOL     OW29194   4.147   1.521   2.956
 7219SOL    HW229195   4.192   1.583   3.013
 7219SOL    HW329196   4.054   1.540   2.969
 7219SOL    MW429197   4.140   1.531   2.963
 7220SOL     OW29198   5.587   1.050   3.310
 7220SOL    HW229199   5.502   1.063   3.269
 7220SOL    HW329200   5.567   1.014   3.397
 7220SOL    MW429201   5.574   1.046   3.315
 7221SOL     OW29202   4.569   1.589   3.064
 7221SOL    HW229203   4.593   1.578   2.973
 7221SOL    HW329204   4.492   1.646   3.062
 7221SOL    MW429205   4.561   1.594   3.053
 7222SOL     OW29206   4.211   0.972   1.919
 7222SOL    HW229207   4.134   0.985   1.975
 7222SOL    HW329208   4.175   0.936   1.838
 7222SOL    MW429209   4.197   0.968   1.916
 7223SOL     OW29210   4.864   0.945   2.162
 7223SOL    HW229211   4.774   0.966   2.137
 7223SOL    HW329212   4.891   1.018   2.218
 7223SOL    MW429213   4.856   0.957   2.165
 7224SOL     OW29214   4.364   1.294   2.854
 7224SOL    HW229215   4.357   1.273   2.948
 7224SOL    HW329216   4.282   1.262   2.817
 7224SOL    MW429217   4.352   1.288   2.861
 7225SOL     OW29218   5.228   0.304   3.256
 7225SOL    HW229219   5.175   0.306   3.336
 7225SOL    HW329220   5.213   0.217   3.219
 7225SOL    MW429221   5.220   0.294   3.261
 7226SOL     OW29222   5.564   0.228   3.129
 7226SOL    HW229223   5.545   0.295   3.064
 7226SOL    HW329224   5.621   0.166   3.084
 7226SOL    MW429225   5.568   0.229   3.115
 7227SOL     OW29226   3.810   1.386   3.517
 7227SOL    HW229227   3.854   1.319   3.463
 7227SOL    HW329228   3.725   1.348   3.537
 7227SOL    MW429229   3.805   1.372   3.513
 7228SOL     OW29230   4.493   0.061   2.569
 7228SOL    HW229231   4.422   0.122   2.551
 7228SOL    HW329232   4.544   0.058   2.488
 7228SOL    MW429233   4.489   0.067   2.556
 7229SOL     OW29234   4.251   1.301   2.318
 7229SOL    HW229235   4.244   1.333   2.408
 7229SOL    HW329236   4.161   1.285   2.290
 7229SOL    MW429237   4.239   1.303   2.325
 7230SOL     OW29238   4.846   1.694   3.227
 7230SOL    HW229239   4.766   1.679   3.177
 7230SOL    HW329240   4.853   1.789   3.234
 7230SOL    MW429241   4.837   1.705   3.221
 7231SOL     OW29242   4.960   1.659   2.717
 7231SOL    HW229243   5.007   1.732   2.676
 7231SOL    HW329244   4.881   1.698   2.753
 7231SOL    MW429245   4.955   1.674   2.716
 7232SOL     OW29246   5.368   1.754   2.992
 7232SOL    HW229247   5.411   1.724   3.072
 7232SOL    HW329248   5.287   1.702   2.989
 7232SOL    MW429249   5.363   1.743   3.002
 7233SOL     OW29250   4.453   0.718   3.699
 7233SOL    HW229251   4.523   0.660   3.671
 7233SOL    HW329252   4.396   0.663   3.754
 7233SOL    MW429253   4.455   0.705   3.703
 7234SOL     OW29254   5.240   0.930   3.332
 7234SOL    HW229255   5.245   0.983   3.412
 7234SOL    HW329256   5.202   0.847   3.360
 7234SOL    MW429257   5.236   0.925   3.347
 7235SOL     OW29258   4.880   0.065   3.578
 7235SOL    HW229259   4.875  -0.028   3.559
 7235SOL    HW329260   4.963   0.076   3.624
 7235SOL    MW429261   4.888   0.054   3.582
 7236SOL     OW29262   4.254   0.585   2.032
 7236SOL    HW229263   4.220   0.641   2.102
 7236SOL    HW329264   4.325   0.535   2.072
 7236SOL    MW429265   4.260   0.586   2.046
 7237SOL     OW29266   5.350   1.336   2.854
 7237SOL    HW229267   5.385   1.318   2.767
 7237SOL    HW329268   5.255   1.337   2.841
 7237SOL    MW429269   5.342   1.333   2.841
 7238SOL     OW29270   4.779   0.984   3.223
 7238SOL    HW229271   4.822   1.019   3.301
 7238SOL    HW329272   4.762   1.061   3.169
 7238SOL    MW429273   4.782   0.999   3.226
 7239SOL     OW29274   5.310   0.471   2.096
 7239SOL    HW229275   5.302   0.542   2.033
 7239SOL    HW329276   5.328   0.515   2.179
 7239SOL    MW429277   5.311   0.485   2.098
 7240SOL     OW29278   4.170   0.126   2.525
 7240SOL    HW229279   4.220   0.169   2.456
 7240SOL    HW329280   4.085   0.170   2.525
 7240SOL    MW429281   4.167   0.139   2.516
 7241SOL     OW29282   3.929   1.188   3.385
 7241SOL    HW229283   3.957   1.141   3.463
 7241SOL    HW329284   3.850   1.143   3.356
 7241SOL    MW429285   3.922   1.177   3.391
 7242SOL     OW29286   4.437   0.515   3.352
 7242SOL    HW229287   4.409   0.603   3.376
 7242SOL    HW329288   4.406   0.459   3.423
 7242SOL    MW429289   4.429   0.518   3.364
 7243SOL     OW29290   4.979   0.733   2.071
 7243SOL    HW229291   5.026   0.751   1.990
 7243SOL    HW329292   4.945   0.817   2.099
 7243SOL    MW429293   4.981   0.747   2.064
 7244SOL     OW29294   4.092   0.911   2.565
 7244SOL    HW229295   4.150   0.967   2.513
 7244SOL    HW329296   4.136   0.826   2.567
 7244SOL    MW429297   4.105   0.908   2.558
 7245SOL     OW29298   5.232   0.263   2.402
 7245SOL    HW229299   5.154   0.213   2.427
 7245SOL    HW329300   5.203   0.354   2.402
 7245SOL    MW429301   5.218   0.267   2.405
 7246SOL     OW29302   4.818   0.225   2.561
 7246SOL    HW229303   4.838   0.300   2.505
 7246SOL    HW329304   4.798   0.264   2.646
 7246SOL    MW429305   4.819   0.241   2.565
 7247SOL     OW29306   4.714   1.475   1.893
 7247SOL    HW229307   4.741   1.553   1.845
 7247SOL    HW329308   4.621   1.490   1.912
 7247SOL    MW429309   4.705   1.488   1.889
 7248SOL     OW29310   5.578   0.998   3.580
 7248SOL    HW229311   5.491   0.978   3.616
 7248SOL    HW329312   5.632   0.924   3.605
 7248SOL    MW429313   5.573   0.987   3.588
 7249SOL     OW29314   3.799   1.511   2.737
 7249SOL    HW229315   3.831   1.515   2.828
 7249SOL    HW329316   3.704   1.519   2.745
 7249SOL    MW429317   3.791   1.514   2.750
 7250SOL     OW29318   3.754   0.637   2.284
 7250SOL    HW229319   3.694   0.609   2.354
 7250SOL    HW329320   3.828   0.577   2.290
 7250SOL    MW429321   3.756   0.626   2.293
 7251SOL     OW29322   5.322   1.849   3.718
 7251SOL    HW229323   5.367   1.773   3.683
 7251SOL    HW329324   5.360   1.862   3.805
 7251SOL    MW429325   5.332   1.842   3.724
 7252SOL     OW29326   4.922   1.368   2.444
 7252SOL    HW229327   4.945   1.319   2.522
 7252SOL    HW329328   5.003   1.410   2.416
 7252SOL    MW429329   4.935   1.368   2.451
 7253SOL     OW29330   4.180   0.376   3.173
 7253SOL    HW229331   4.213   0.457   3.213
 7253SOL    HW329332   4.153   0.402   3.085
 7253SOL    MW429333   4.179   0.390   3.167
 7254SOL     OW29334   4.134   0.343   2.909
 7254SOL    HW229335   4.164   0.257   2.880
 7254SOL    HW329336   4.039   0.336   2.912
 7254SOL    MW429337   4.126   0.332   2.907
 7255SOL     OW29338   4.963   0.552   3.600
 7255SOL    HW229339   5.015   0.487   3.553
 7255SOL    HW329340   4.921   0.603   3.530
 7255SOL    MW429341   4.964   0.549   3.583
 7256SOL     OW29342   5.062   0.347   3.461
 7256SOL    HW229343   4.969   0.331   3.448
 7256SOL    HW329344   5.088   0.285   3.529
 7256SOL    MW429345   5.052   0.337   3.468
 7257SOL     OW29346   4.277   0.121   2.800
 7257SOL    HW229347   4.287   0.030   2.826
 7257SOL    HW329348   4.233   0.117   2.715
 7257SOL    MW429349   4.273   0.109   2.792
 7258SOL     OW29350   4.371   1.736   3.346
 7258SOL    HW229351   4.288   1.721   3.391
 7258SOL    HW329352   4.430   1.669   3.381
 7258SOL    MW429353   4.369   1.726   3.356
 7259SOL     OW29354   5.428   0.443   2.971
 7259SOL    HW229355   5.361   0.476   3.031
 7259SOL    HW329356   5.471   0.521   2.937
 7259SOL    MW429357   5.426   0.458   2.975
 7260SOL     OW29358   5.606   1.163   2.941
 7260SOL    HW229359   5.599   1.103   2.866
 7260SOL    HW329360   5.532   1.223   2.930
 7260SOL    MW429361   5.596   1.163   2.930
 7261SOL     OW29362   4.988   1.025   2.859
 7261SOL    HW229363   5.002   0.997   2.950
 7261SOL    HW329364   5.074   1.056   2.831
 7261SOL    MW429365   5.001   1.026   2.868
 7262SOL     OW29366   5.071   0.520   3.138
 7262SOL    HW229367   5.092   0.521   3.045
 7262SOL    HW329368   5.116   0.442   3.171
 7262SOL    MW429369   5.078   0.510   3.130
 7263SOL     OW29370   5.564   0.651   3.680
 7263SOL    HW229371   5.601   0.596   3.749
 7263SOL    HW329372   5.589   0.608   3.598
 7263SOL    MW429373   5.571   0.639   3.679
 7264SOL     OW29374   5.111   0.949   3.731
 7264SOL    HW229375   5.177   0.897   3.685
 7264SOL    HW329376   5.131   0.936   3.824
 7264SOL    MW429377   5.122   0.940   3.738
 7265SOL     OW29378   5.062   0.035   2.080
 7265SOL    HW229379   5.136   0.079   2.123
 7265SOL    HW329380   4.986   0.089   2.102
 7265SOL    MW429381   5.062   0.047   2.088
 7266SOL     OW29382   5.122   0.810   2.358
 7266SOL    HW229383   5.037   0.780   2.328
 7266SOL    HW329384   5.114   0.817   2.453
 7266SOL    MW429385   5.110   0.808   2.367
 7267SOL     OW29386   4.198   1.273   3.089
 7267SOL    HW229387   4.210   1.300   3.180
 7267SOL    HW329388   4.179   1.354   3.042
 7267SOL    MW429389   4.197   1.288   3.094
 7268SOL     OW29390   4.482   0.253   2.912
 7268SOL    HW229391   4.455   0.255   3.003
 7268SOL    HW329392   4.412   0.205   2.867
 7268SOL    MW429393   4.470   0.249   2.919
 7269SOL     OW29394   4.336   1.745   3.074
 7269SOL    HW229395   4.388   1.822   3.051
 7269SOL    HW329396   4.345   1.737   3.169
 7269SOL    MW429397   4.345   1.752   3.085
 7270SOL     OW29398   5.238   1.330   3.306
 7270SOL    HW229399   5.223   1.259   3.369
 7270SOL    HW329400   5.284   1.288   3.234
 7270SOL    MW429401   5.244   1.314   3.306
 7271SOL     OW29402   4.312   1.061   3.423
 7271SOL    HW229403   4.349   1.066   3.335
 7271SOL    HW329404   4.351   1.134   3.470
 7271SOL    MW429405   4.322   1.071   3.418
 7272SOL     OW29406   4.492   1.104   3.235
 7272SOL    HW229407   4.551   1.050   3.288
 7272SOL    HW329408   4.507   1.076   3.145
 7272SOL    MW429409   4.502   1.093   3.231
 7273SOL     OW29410   4.495   0.476   2.084
 7273SOL    HW229411   4.568   0.525   2.047
 7273SOL    HW329412   4.511   0.385   2.058
 7273SOL    MW429413   4.507   0.471   2.077
 7274SOL     OW29414   5.303   1.593   3.407
 7274SOL    HW229415   5.345   1.578   3.492
 7274SOL    HW329416   5.294   1.506   3.369
 7274SOL    MW429417   5.307   1.581   3.414
 7275SOL     OW29418   4.963   0.072   2.998
 7275SOL    HW229419   5.018   0.081   2.920
 7275SOL    HW329420   5.018   0.106   3.069
 7275SOL    MW429421   4.977   0.077   2.997
 7276SOL     OW29422   3.970   0.985   2.182
 7276SOL    HW229423   3.907   1.001   2.111
 7276SOL    HW329424   3.917   0.948   2.253
 7276SOL    MW429425   3.955   0.982   2.182
 7277SOL     OW29426   4.326   1.339   2.041
 7277SOL    HW229427   4.341   1.315   2.133
 7277SOL    HW329428   4.234   1.317   2.025
 7277SOL    MW429429   4.316   1.332   2.051
 7278SOL     OW29430   4.865   1.570   2.193
 7278SOL    HW229431   4.873   1.488   2.144
 7278SOL    HW329432   4.784   1.609   2.160
 7278SOL    MW429433   4.855   1.565   2.183
 7279SOL     OW29434   4.124   1.728   2.762
 7279SOL    HW229435   4.128   1.639   2.797
 7279SOL    HW329436   4.150   1.719   2.671
 7279SOL    MW429437   4.127   1.716   2.754
 7280SOL     OW29438   4.741   1.206   3.005
 7280SOL    HW229439   4.673   1.140   3.021
 7280SOL    HW329440   4.759   1.200   2.912
 7280SOL    MW429441   4.734   1.197   2.996
 7281SOL     OW29442   3.830   1.481   3.256
 7281SOL    HW229443   3.820   1.439   3.342
 7281SOL    HW329444   3.751   1.534   3.246
 7281SOL    MW429445   3.819   1.482   3.267
 7282SOL     OW29446   4.734   0.345   2.826
 7282SOL    HW229447   4.664   0.297   2.871
 7282SOL    HW329448   4.766   0.408   2.890
 7282SOL    MW429449   4.729   0.347   2.840
 7283SOL     OW29450   4.385   0.781   3.446
 7283SOL    HW229451   4.378   0.876   3.434
 7283SOL    HW329452   4.394   0.770   3.541
 7283SOL    MW429453   4.386   0.793   3.456
 7284SOL     OW29454   4.106   1.296   3.704
 7284SOL    HW229455   4.178   1.298   3.641
 7284SOL    HW329456   4.076   1.205   3.703
 7284SOL    MW429457   4.111   1.285   3.696
 7285SOL     OW29458   5.190   0.059   3.171
 7285SOL    HW229459   5.261   0.005   3.135
 7285SOL    HW329460   5.189   0.038   3.264
 7285SOL    MW429461   5.199   0.050   3.179
 7286SOL     OW29462   5.390   1.589   3.655
 7286SOL    HW229463   5.363   1.586   3.746
 7286SOL    HW329464   5.486   1.593   3.658
 7286SOL    MW429465   5.400   1.589   3.667
 7287SOL     OW29466   4.201   0.451   2.639
 7287SOL    HW229467   4.272   0.399   2.602
 7287SOL    HW329468   4.187   0.416   2.726
 7287SOL    MW429469   4.209   0.440   2.646
 7288SOL     OW29470   3.756   1.786   3.711
 7288SOL    HW229471   3.806   1.764   3.633
 7288SOL    HW329472   3.764   1.881   3.719
 7288SOL    MW429473   3.764   1.795   3.702
 7289SOL     OW29474   4.517   1.544   2.715
 7289SOL    HW229475   4.445   1.481   2.728
 7289SOL    HW329476   4.478   1.629   2.733
 7289SOL    MW429477   4.501   1.547   2.718
 7290SOL     OW29478   4.837   0.392   2.363
 7290SOL    HW229479   4.859   0.329   2.295
 7290SOL    HW329480   4.742   0.384   2.374
 7290SOL    MW429481   4.827   0.383   2.355
 7291SOL     OW29482   3.922   0.082   2.295
 7291SOL    HW229483   3.993   0.103   2.234
 7291SOL    HW329484   3.876   0.010   2.253
 7291SOL    MW429485   3.926   0.076   2.281
 7292SOL     OW29486   3.753   0.549   3.438
 7292SOL    HW229487   3.817   0.615   3.413
 7292SOL    HW329488   3.672   0.576   3.395
 7292SOL    MW429489   3.751   0.561   3.430
 7293SOL     OW29490   5.491   1.456   2.395
 7293SOL    HW229491   5.461   1.389   2.456
 7293SOL    HW329492   5.585   1.462   2.409
 7293SOL    MW429493   5.499   1.448   2.405
 7294SOL     OW29494   5.047   1.133   2.325
 7294SOL    HW229495   5.019   1.219   2.358
 7294SOL    HW329496   5.075   1.149   2.235
 7294SOL    MW429497   5.047   1.147   2.317
 7295SOL     OW29498   4.709   0.053   2.378
 7295SOL    HW229499   4.746   0.112   2.443
 7295SOL    HW329500   4.686   0.109   2.304
 7295SOL    MW429501   4.710   0.068   2.377
 7296SOL     OW29502   5.562   0.935   2.800
 7296SOL    HW229503   5.553   0.967   2.711
 7296SOL    HW329504   5.515   0.851   2.800
 7296SOL    MW429505   5.555   0.928   2.790
 7297SOL     OW29506   3.938   0.775   3.379
 7297SOL    HW229507   3.959   0.844   3.317
 7297SOL    HW329508   4.018   0.722   3.384
 7297SOL    MW429509   3.951   0.776   3.373
 7298SOL     OW29510   5.474   0.866   2.501
 7298SOL    HW229511   5.568   0.855   2.489
 7298SOL    HW329512   5.450   0.938   2.442
 7298SOL    MW429513   5.484   0.874   2.492
 7299SOL     OW29514   3.923   0.790   3.646
 7299SOL    HW229515   3.849   0.734   3.672
 7299SOL    HW329516   3.918   0.793   3.551
 7299SOL    MW429517   3.912   0.783   3.636
 7300SOL     OW29518   4.089   0.077   3.096
 7300SOL    HW229519   4.132   0.161   3.116
 7300SOL    HW329520   4.162   0.015   3.089
 7300SOL    MW429521   4.104   0.080   3.097
 7301SOL     OW29522   4.130   0.744   2.274
 7301SOL    HW229523   4.130   0.839   2.259
 7301SOL    HW329524   4.207   0.728   2.328
 7301SOL    MW429525   4.140   0.755   2.279
 7302SOL     OW29526   4.906   0.603   3.338
 7302SOL    HW229527   4.942   0.576   3.254
 7302SOL    HW329528   4.819   0.637   3.317
 7302SOL    MW429529   4.900   0.604   3.325
 7303SOL     OW29530   3.889   0.475   2.563
 7303SOL    HW229531   3.951   0.482   2.636
 7303SOL    HW329532   3.889   0.382   2.540
 7303SOL    MW429533   3.897   0.464   2.570
 7304SOL     OW29534   5.436   1.815   2.095
 7304SOL    HW229535   5.503   1.848   2.035
 7304SOL    HW329536   5.393   1.894   2.129
 7304SOL    MW429537   5.438   1.830   2.091
 7305SOL     OW29538   4.571   0.736   3.047
 7305SOL    HW229539   4.529   0.654   3.023
 7305SOL    HW329540   4.572   0.735   3.143
 7305SOL    MW429541   4.564   0.725   3.056
 7306SOL     OW29542   5.242   1.869   3.446
 7306SOL    HW229543   5.245   1.775   3.429
 7306SOL    HW329544   5.265   1.877   3.538
 7306SOL    MW429545   5.245   1.857   3.456
 7307SOL     OW29546   4.375   0.206   3.152
 7307SOL    HW229547   4.306   0.269   3.173
 7307SOL    HW329548   4.402   0.170   3.237
 7307SOL    MW429549   4.369   0.209   3.165
 7308SOL     OW29550   3.758   1.047   2.021
 7308SOL    HW229551   3.727   1.112   2.084
 7308SOL    HW329552   3.707   0.969   2.040
 7308SOL    MW429553   3.748   1.044   2.031
 7309SOL     OW29554   5.170   0.059   2.769
 7309SOL    HW229555   5.258   0.068   2.806
 7309SOL    HW329556   5.180   0.000   2.695
 7309SOL    MW429557   5.184   0.053   2.763
 7310SOL     OW29558   5.202   0.798   2.613
 7310SOL    HW229559   5.282   0.813   2.562
 7310SOL    HW329560   5.195   0.703   2.619
 7310SOL    MW429561   5.211   0.787   2.608
 7311SOL     OW29562   4.342   1.847   1.963
 7311SOL    HW229563   4.247   1.847   1.955
 7311SOL    HW329564   4.358   1.793   2.041
 7311SOL    MW429565   4.332   1.841   1.972
 7312SOL     OW29566   4.652   0.724   3.310
 7312SOL    HW229567   4.721   0.791   3.307
 7312SOL    HW329568   4.585   0.762   3.366
 7312SOL    MW429569   4.653   0.737   3.317
 7313SOL     OW29570   4.070   1.024   3.558
 7313SOL    HW229571   4.024   0.940   3.560
 7313SOL    HW329572   4.127   1.018   3.482
 7313SOL    MW429573   4.072   1.012   3.550
 7314SOL     OW29574   5.187   0.667   1.879
 7314SOL    HW229575   5.115   0.643   1.821
 7314SOL    HW329576   5.253   0.704   1.821
 7314SOL    MW429577   5.186   0.669   1.864
 7315SOL     OW29578   4.321   1.399   2.559
 7315SOL    HW229579   4.386   1.332   2.580
 7315SOL    HW329580   4.373   1.476   2.536
 7315SOL    MW429581   4.336   1.401   2.558
 7316SOL     OW29582   4.582   0.564   2.689
 7316SOL    HW229583   4.522   0.582   2.761
 7316SOL    HW329584   4.616   0.476   2.708
 7316SOL    MW429585   4.578   0.554   2.702
 7317SOL     OW29586   5.523   0.063   3.358
 7317SOL    HW229587   5.444   0.109   3.386
 7317SOL    HW329588   5.558   0.117   3.287
 7317SOL    MW429589   5.517   0.076   3.352
 7318SOL     OW29590   4.807   1.147   2.708
 7318SOL    HW229591   4.899   1.128   2.726
 7318SOL    HW329592   4.780   1.077   2.648
 7318SOL    MW429593   4.815   1.135   2.702
 7319SOL     OW29594   4.600   0.967   2.063
 7319SOL    HW229595   4.586   0.879   2.028
 7319SOL    HW329596   4.551   1.024   2.004
 7319SOL    MW429597   4.592   0.962   2.051
 7320SOL     OW29598   5.081   1.385   2.804
 7320SOL    HW229599   5.054   1.469   2.769
 7320SOL    HW329600   5.041   1.380   2.891
 7320SOL    MW429601   5.074   1.394   2.810
 7321SOL     OW29602   5.000   1.333   3.072
 7321SOL    HW229603   5.011   1.300   3.161
 7321SOL    HW329604   4.919   1.292   3.041
 7321SOL    MW429605   4.990   1.325   3.078
 7322SOL     OW29606   4.013   0.691   2.842
 7322SOL    HW229607   3.963   0.690   2.923
 7322SOL    HW329608   4.033   0.783   2.826
 7322SOL    MW429609   4.009   0.703   2.850
 7323SOL     OW29610   5.080   1.455   3.604
 7323SOL    HW229611   5.080   1.549   3.620
 7323SOL    HW329612   5.125   1.445   3.520
 7323SOL    MW429613   5.086   1.465   3.595
 7324SOL     OW29614   5.319   0.173   2.165
 7324SOL    HW229615   5.312   0.177   2.260
 7324SOL    HW329616   5.331   0.264   2.138
 7324SOL    MW429617   5.320   0.186   2.173
 7325SOL     OW29618   4.608   0.736   2.279
 7325SOL    HW229619   4.588   0.722   2.186
 7325SOL    HW329620   4.701   0.715   2.286
 7325SOL    MW429621   4.618   0.731   2.268
 7326SOL     OW29622   3.935   0.359   3.583
 7326SOL    HW229623   3.892   0.418   3.520
 7326SOL    HW329624   4.003   0.414   3.623
 7326SOL    MW429625   3.939   0.374   3.580
 7327SOL     OW29626   5.047   0.979   3.128
 7327SOL    HW229627   5.110   0.976   3.201
 7327SOL    HW329628   4.963   0.997   3.170
 7327SOL    MW429629   5.043   0.981   3.143
 7328SOL     OW29630   4.591   1.694   2.317
 7328SOL    HW229631   4.649   1.765   2.344
 7328SOL    HW329632   4.614   1.622   2.375
 7328SOL    MW429633   4.602   1.694   2.328
 7329SOL     OW29634   5.386   0.156   2.907
 7329SOL    HW229635   5.431   0.074   2.926
 7329SOL    HW329636   5.406   0.212   2.983
 7329SOL    MW429637   5.396   0.152   2.919
 7330SOL     OW29638   3.834  -0.001   3.006
 7330SOL    HW229639   3.825   0.000   2.911
 7330SOL    HW329640   3.928   0.011   3.021
 7330SOL    MW429641   3.846   0.002   2.997
 7331SOL     OW29642   5.471   1.192   2.626
 7331SOL    HW229643   5.450   1.138   2.549
 7331SOL    HW329644   5.567   1.190   2.630
 7331SOL    MW429645   5.480   1.185   2.615
 7332SOL     OW29646   4.163   1.337   3.369
 7332SOL    HW229647   4.084   1.287   3.392
 7332SOL    HW329648   4.233   1.296   3.419
 7332SOL    MW429649   4.161   1.325   3.379
 7333SOL     OW29650   4.047   0.126   2.052
 7333SOL    HW229651   3.976   0.181   2.020
 7333SOL    HW329652   4.089   0.092   1.973
 7333SOL    MW429653   4.043   0.128   2.038
 7334SOL     OW29654   5.171   0.623   2.888
 7334SOL    HW229655   5.094   0.669   2.854
 7334SOL    HW329656   5.228   0.692   2.922
 7334SOL    MW429657   5.168   0.638   2.888
 7335SOL     OW29658   3.803   0.225   1.901
 7335SOL    HW229659   3.770   0.304   1.945
 7335SOL    HW329660   3.858   0.258   1.830
 7335SOL    MW429661   3.806   0.239   1.898
 7336SOL     OW29662   3.837   1.482   2.090
 7336SOL    HW229663   3.854   1.566   2.132
 7336SOL    HW329664   3.872   1.491   2.002
 7336SOL    MW429665   3.842   1.495   2.084
 7337SOL     OW29666   5.109   1.571   2.307
 7337SOL    HW229667   5.172   1.561   2.236
 7337SOL    HW329668   5.026   1.591   2.262
 7337SOL    MW429669   5.106   1.572   2.292
 7338SOL     OW29670   5.472   0.839   3.993
 7338SOL    HW229671   5.513   0.781   4.058
 7338SOL    HW329672   5.379   0.831   4.010
 7338SOL    MW429673   5.466   0.831   4.003
 7339SOL     OW29674   5.338   0.771   4.988
 7339SOL    HW229675   5.293   0.838   5.039
 7339SOL    HW329676   5.426   0.807   4.974
 7339SOL    MW429677   5.344   0.784   4.992
 7340SOL     OW29678   4.266   1.022   4.222
 7340SOL    HW229679   4.356   0.997   4.206
 7340SOL    HW329680   4.262   1.115   4.199
 7340SOL    MW429681   4.278   1.031   4.217
 7341SOL     OW29682   5.382   1.725   4.364
 7341SOL    HW229683   5.394   1.671   4.442
 7341SOL    HW329684   5.419   1.673   4.293
 7341SOL    MW429685   5.388   1.710   4.365
 7342SOL     OW29686   4.761   1.610   5.365
 7342SOL    HW229687   4.802   1.646   5.286
 7342SOL    HW329688   4.796   1.521   5.372
 7342SOL    MW429689   4.772   1.603   5.356
 7343SOL     OW29690   5.318   1.165   4.969
 7343SOL    HW229691   5.239   1.130   4.927
 7343SOL    HW329692   5.345   1.237   4.913
 7343SOL    MW429693   5.311   1.170   4.956
 7344SOL     OW29694   4.550   0.478   4.235
 7344SOL    HW229695   4.525   0.566   4.263
 7344SOL    HW329696   4.547   0.481   4.139
 7344SOL    MW429697   4.546   0.490   4.227
 7345SOL     OW29698   3.992   0.506   4.163
 7345SOL    HW229699   4.024   0.594   4.145
 7345SOL    HW329700   3.980   0.504   4.258
 7345SOL    MW429701   3.995   0.518   4.175
 7346SOL     OW29702   4.070   0.919   5.064
 7346SOL    HW229703   4.133   0.866   5.015
 7346SOL    HW329704   4.051   0.993   5.007
 7346SOL    MW429705   4.076   0.921   5.051
 7347SOL     OW29706   4.391   0.261   4.250
 7347SOL    HW229707   4.449   0.337   4.252
 7347SOL    HW329708   4.326   0.282   4.183
 7347SOL    MW429709   4.390   0.273   4.241
 7348SOL     OW29710   4.478   1.188   4.425
 7348SOL    HW229711   4.558   1.191   4.477
 7348SOL    HW329712   4.506   1.155   4.339
 7348SOL    MW429713   4.492   1.184   4.420
 7349SOL     OW29714   4.503   1.529   5.328
 7349SOL    HW229715   4.587   1.555   5.367
 7349SOL    HW329716   4.527   1.473   5.254
 7349SOL    MW429717   4.517   1.525   5.323
 7350SOL     OW29718   4.255   0.692   4.416
 7350SOL    HW229719   4.240   0.612   4.467
 7350SOL    HW329720   4.337   0.727   4.450
 7350SOL    MW429721   4.263   0.684   4.428
 7351SOL     OW29722   4.592   1.378   5.101
 7351SOL    HW229723   4.556   1.444   5.041
 7351SOL    HW329724   4.520   1.316   5.114
 7351SOL    MW429725   4.578   1.378   5.095
 7352SOL     OW29726   4.397   0.518   4.793
 7352SOL    HW229727   4.303   0.514   4.811
 7352SOL    HW329728   4.427   0.427   4.802
 7352SOL    MW429729   4.388   0.506   4.796
 7353SOL     OW29730   4.143   0.932   4.697
 7353SOL    HW229731   4.098   0.939   4.613
 7353SOL    HW329732   4.123   1.015   4.741
 7353SOL    MW429733   4.135   0.944   4.691
 7354SOL     OW29734   3.840   1.778   4.572
 7354SOL    HW229735   3.929   1.770   4.607
 7354SOL    HW329736   3.804   1.690   4.577
 7354SOL    MW429737   3.847   1.765   4.577
 7355SOL     OW29738   5.105   1.170   3.941
 7355SOL    HW229739   5.023   1.206   3.907
 7355SOL    HW329740   5.173   1.213   3.890
 7355SOL    MW429741   5.103   1.180   3.929
 7356SOL     OW29742   4.104   1.305   4.607
 7356SOL    HW229743   4.080   1.358   4.683
 7356SOL    HW329744   4.160   1.363   4.555
 7356SOL    MW429745   4.108   1.320   4.610
 7357SOL     OW29746   4.666   0.949   4.417
 7357SOL    HW229747   4.580   0.936   4.457
 7357SOL    HW329748   4.719   0.876   4.449
 7357SOL    MW429749   4.662   0.938   4.426
 7358SOL     OW29750   4.074   1.601   5.202
 7358SOL    HW229751   3.982   1.577   5.187
 7358SOL    HW329752   4.118   1.518   5.219
 7358SOL    MW429753   4.068   1.586   5.201
 7359SOL     OW29754   4.657   1.311   4.134
 7359SOL    HW229755   4.634   1.373   4.202
 7359SOL    HW329756   4.614   1.229   4.160
 7359SOL    MW429757   4.649   1.307   4.145
 7360SOL     OW29758   5.530   0.312   4.590
 7360SOL    HW229759   5.467   0.292   4.659
 7360SOL    HW329760   5.520   0.241   4.527
 7360SOL    MW429761   5.520   0.299   4.591
 7361SOL     OW29762   4.154   0.284   4.102
 7361SOL    HW229763   4.128   0.246   4.018
 7361SOL    HW329764   4.091   0.354   4.118
 7361SOL    MW429765   4.143   0.287   4.093
 7362SOL     OW29766   3.989   1.245   4.139
 7362SOL    HW229767   3.937   1.313   4.095
 7362SOL    HW329768   3.986   1.171   4.079
 7362SOL    MW429769   3.981   1.244   4.126
 7363SOL     OW29770   4.651   1.708   3.917
 7363SOL    HW229771   4.606   1.724   4.000
 7363SOL    HW329772   4.582   1.673   3.859
 7363SOL    MW429773   4.637   1.705   3.919
 7364SOL     OW29774   5.586   0.481   3.892
 7364SOL    HW229775   5.495   0.483   3.920
 7364SOL    HW329776   5.631   0.543   3.950
 7364SOL    MW429777   5.579   0.489   3.902
 7365SOL     OW29778   5.331   1.084   4.242
 7365SOL    HW229779   5.241   1.084   4.277
 7365SOL    HW329780   5.324   1.130   4.159
 7365SOL    MW429781   5.318   1.090   4.236
 7366SOL     OW29782   5.131   0.719   5.314
 7366SOL    HW229783   5.200   0.657   5.291
 7366SOL    HW329784   5.056   0.693   5.261
 7366SOL    MW429785   5.131   0.706   5.305
 7367SOL     OW29786   3.872   1.599   4.866
 7367SOL    HW229787   3.855   1.545   4.943
 7367SOL    HW329788   3.860   1.689   4.896
 7367SOL    MW429789   3.869   1.603   4.880
 7368SOL     OW29790   4.867   1.106   5.306
 7368SOL    HW229791   4.852   1.199   5.291
 7368SOL    HW329792   4.962   1.096   5.306
 7368SOL    MW429793   4.876   1.116   5.303
 7369SOL     OW29794   4.663   0.530   5.507
 7369SOL    HW229795   4.753   0.531   5.474
 7369SOL    HW329796   4.622   0.455   5.465
 7369SOL    MW429797   4.669   0.520   5.498
 7370SOL     OW29798   5.238   1.062   4.634
 7370SOL    HW229799   5.241   0.996   4.565
 7370SOL    HW329800   5.323   1.105   4.630
 7370SOL    MW429801   5.250   1.058   4.625
 7371SOL     OW29802   4.858   0.665   4.203
 7371SOL    HW229803   4.884   0.689   4.114
 7371SOL    HW329804   4.840   0.572   4.199
 7371SOL    MW429805   4.860   0.657   4.190
 7372SOL     OW29806   5.523   1.285   4.054
 7372SOL    HW229807   5.479   1.326   4.129
 7372SOL    HW329808   5.580   1.353   4.019
 7372SOL    MW429809   5.525   1.299   4.059
 7373SOL     OW29810   4.443   0.334   5.457
 7373SOL    HW229811   4.453   0.260   5.397
 7373SOL    HW329812   4.479   0.303   5.540
 7373SOL    MW429813   4.449   0.320   5.459
 7374SOL     OW29814   4.179   1.701   4.372
 7374SOL    HW229815   4.211   1.789   4.350
 7374SOL    HW329816   4.132   1.673   4.294
 7374SOL    MW429817   4.178   1.709   4.359
 7375SOL     OW29818   5.563   0.063   4.421
 7375SOL    HW229819   5.617   0.014   4.483
 7375SOL    HW329820   5.506  -0.003   4.382
 7375SOL    MW429821   5.563   0.047   4.423
 7376SOL     OW29822   3.895   1.761   3.949
 7376SOL    HW229823   3.924   1.851   3.941
 7376SOL    HW329824   3.845   1.744   3.870
 7376SOL    MW429825   3.893   1.769   3.938
 7377SOL     OW29826   4.682   0.016   4.834
 7377SOL    HW229827   4.641   0.094   4.796
 7377SOL    HW329828   4.776   0.034   4.829
 7377SOL    MW429829   4.688   0.028   4.829
 7378SOL     OW29830   5.299   1.569   3.920
 7378SOL    HW229831   5.347   1.638   3.966
 7378SOL    HW329832   5.220   1.613   3.889
 7378SOL    MW429833   5.294   1.583   3.923
 7379SOL     OW29834   4.697   0.694   3.864
 7379SOL    HW229835   4.699   0.641   3.785
 7379SOL    HW329836   4.785   0.731   3.870
 7379SOL    MW429837   4.709   0.693   3.853
 7380SOL     OW29838   5.311   0.620   4.200
 7380SOL    HW229839   5.350   0.620   4.287
 7380SOL    HW329840   5.252   0.696   4.200
 7380SOL    MW429841   5.308   0.631   4.211
 7381SOL     OW29842   4.628   0.987   5.329
 7381SOL    HW229843   4.605   0.967   5.419
 7381SOL    HW329844   4.713   1.031   5.334
 7381SOL    MW429845   4.635   0.990   5.341
 7382SOL     OW29846   4.708   0.124   5.089
 7382SOL    HW229847   4.714   0.086   5.002
 7382SOL    HW329848   4.697   0.218   5.074
 7382SOL    MW429849   4.709   0.132   5.077
 7383SOL     OW29850   4.797   0.613   4.923
 7383SOL    HW229851   4.872   0.642   4.870
 7383SOL    HW329852   4.729   0.678   4.907
 7383SOL    MW429853   4.798   0.625   4.913
 7384SOL     OW29854   5.347   0.581   5.200
 7384SOL    HW229855   5.328   0.490   5.179
 7384SOL    HW329856   5.325   0.630   5.121
 7384SOL    MW429857   5.342   0.574   5.187
 7385SOL     OW29858   5.489   1.675   5.104
 7385SOL    HW229859   5.417   1.637   5.155
 7385SOL    HW329860   5.506   1.760   5.145
 7385SOL    MW429861   5.483   1.680   5.116
 7386SOL     OW29862   4.794   0.319   5.306
 7386SOL    HW229863   4.760   0.358   5.225
 7386SOL    HW329864   4.772   0.227   5.299
 7386SOL    MW429865   4.787   0.312   5.296
 7387SOL     OW29866   5.203   1.133   5.382
 7387SOL    HW229867   5.285   1.174   5.412
 7387SOL    HW329868   5.166   1.095   5.462
 7387SOL    MW429869   5.209   1.134   5.397
 7388SOL     OW29870   5.498   0.506   4.366
 7388SOL    HW229871   5.587   0.475   4.383
 7388SOL    HW329872   5.441   0.446   4.414
 7388SOL    MW429873   5.501   0.494   4.375
 7389SOL     OW29874   3.924   0.220   4.395
 7389SOL    HW229875   3.915   0.160   4.321
 7389SOL    HW329876   3.857   0.191   4.458
 7389SOL    MW429877   3.914   0.207   4.393
 7390SOL     OW29878   4.867   1.313   3.956
 7390SOL    HW229879   4.817   1.315   4.038
 7390SOL    HW329880   4.801   1.331   3.888
 7390SOL    MW429881   4.853   1.315   3.958
 7391SOL     OW29882   3.871   0.393   4.758
 7391SOL    HW229883   3.843   0.484   4.767
 7391SOL    HW329884   3.808   0.354   4.697
 7391SOL    MW429885   3.858   0.399   4.752
 7392SOL     OW29886   4.330   1.731   4.064
 7392SOL    HW229887   4.251   1.689   4.097
 7392SOL    HW329888   4.396   1.714   4.131
 7392SOL    MW429889   4.329   1.723   4.077
 7393SOL     OW29890   5.458   1.251   5.461
 7393SOL    HW229891   5.508   1.177   5.493
 7393SOL    HW329892   5.404   1.278   5.536
 7393SOL    MW429893   5.458   1.245   5.474
 7394SOL     OW29894   4.466   1.146   3.771
 7394SOL    HW229895   4.388   1.092   3.758
 7394SOL    HW329896   4.437   1.219   3.824
 7394SOL    MW429897   4.452   1.148   3.776
 7395SOL     OW29898   5.592   0.886   4.963
 7395SOL    HW229899   5.608   0.924   4.876
 7395SOL    HW329900   5.626   0.952   5.024
 7395SOL    MW429901   5.599   0.899   4.959
 7396SOL     OW29902   5.384   1.595   4.632
 7396SOL    HW229903   5.413   1.662   4.693
 7396SOL    HW329904   5.365   1.519   4.687
 7396SOL    MW429905   5.386   1.595   4.647
 7397SOL     OW29906   5.047   1.662   3.839
 7397SOL    HW229907   4.973   1.625   3.889
 7397SOL    HW329908   5.055   1.752   3.872
 7397SOL    MW429909   5.038   1.669   3.851
 7398SOL     OW29910   3.855   0.668   4.928
 7398SOL    HW229911   3.917   0.698   4.994
 7398SOL    HW329912   3.789   0.737   4.922
 7398SOL    MW429913   3.854   0.681   4.935
 7399SOL     OW29914   5.271   1.336   3.781
 7399SOL    HW229915   5.218   1.385   3.717
 7399SOL    HW329916   5.302   1.402   3.842
 7399SOL    MW429917   5.269   1.350   3.779
 7400SOL     OW29918   4.496   0.225   3.836
 7400SOL    HW229919   4.444   0.145   3.824
 7400SOL    HW329920   4.583   0.202   3.804
 7400SOL    MW429921   4.499   0.211   3.830
 7401SOL     OW29922   3.950   1.777   5.380
 7401SOL    HW229923   3.924   1.845   5.318
 7401SOL    HW329924   3.998   1.714   5.328
 7401SOL    MW429925   3.952   1.777   5.366
 7402SOL     OW29926   4.002   1.096   4.887
 7402SOL    HW229927   4.055   1.171   4.912
 7402SOL    HW329928   3.921   1.134   4.853
 7402SOL    MW429929   3.998   1.111   4.887
 7403SOL     OW29930   4.542   1.000   4.875
 7403SOL    HW229931   4.570   0.909   4.887
 7403SOL    HW329932   4.471   0.994   4.811
 7403SOL    MW429933   4.535   0.988   4.870
 7404SOL     OW29934   3.857   0.865   4.293
 7404SOL    HW229935   3.948   0.880   4.320
 7404SOL    HW329936   3.860   0.786   4.239
 7404SOL    MW429937   3.869   0.857   4.291
 7405SOL     OW29938   4.093   0.573   5.547
 7405SOL    HW229939   4.040   0.653   5.554
 7405SOL    HW329940   4.163   0.585   5.612
 7405SOL    MW429941   4.095   0.586   5.555
 7406SOL     OW29942   4.479   0.123   5.254
 7406SOL    HW229943   4.456   0.031   5.256
 7406SOL    HW329944   4.565   0.125   5.211
 7406SOL    MW429945   4.486   0.113   5.250
 7407SOL     OW29946   4.163   0.647   5.293
 7407SOL    HW229947   4.243   0.697   5.279
 7407SOL    HW329948   4.154   0.641   5.388
 7407SOL    MW429949   4.172   0.653   5.303
 7408SOL     OW29950   4.484   1.797   4.667
 7408SOL    HW229951   4.573   1.812   4.697
 7408SOL    HW329952   4.479   1.844   4.583
 7408SOL    MW429953   4.494   1.805   4.660
 7409SOL     OW29954   5.140   0.172   5.564
 7409SOL    HW229955   5.196   0.099   5.590
 7409SOL    HW329956   5.110   0.210   5.646
 7409SOL    MW429957   5.144   0.167   5.577
 7410SOL     OW29958   3.865   1.477   4.332
 7410SOL    HW229959   3.837   1.516   4.414
 7410SOL    HW329960   3.885   1.386   4.354
 7410SOL    MW429961   3.863   1.469   4.345
 7411SOL     OW29962   4.698   1.520   4.367
 7411SOL    HW229963   4.781   1.474   4.351
 7411SOL    HW329964   4.688   1.519   4.463
 7411SOL    MW429965   4.708   1.513   4.377
 7412SOL     OW29966   5.530   0.665   4.681
 7412SOL    HW229967   5.619   0.695   4.663
 7412SOL    HW329968   5.510   0.605   4.610
 7412SOL    MW429969   5.539   0.662   4.670
 7413SOL     OW29970   5.381   0.844   5.561
 7413SOL    HW229971   5.436   0.768   5.542
 7413SOL    HW329972   5.383   0.852   5.656
 7413SOL    MW429973   5.389   0.835   5.569
 7414SOL     OW29974   4.431   1.577   3.772
 7414SOL    HW229975   4.371   1.646   3.742
 7414SOL    HW329976   4.376   1.519   3.825
 7414SOL    MW429977   4.415   1.579   3.774
 7415SOL     OW29978   4.869   0.222   3.995
 7415SOL    HW229979   4.802   0.198   3.932
 7415SOL    HW329980   4.934   0.271   3.944
 7415SOL    MW429981   4.869   0.224   3.980
 7416SOL     OW29982   4.676   0.406   5.080
 7416SOL    HW229983   4.595   0.447   5.108
 7416SOL    HW329984   4.723   0.474   5.032
 7416SOL    MW429985   4.671   0.421   5.078
 7417SOL     OW29986   4.936   0.744   4.703
 7417SOL    HW229987   4.949   0.838   4.713
 7417SOL    HW329988   4.897   0.734   4.617
 7417SOL    MW429989   4.932   0.755   4.693
 7418SOL     OW29990   4.388   0.939   4.507
 7418SOL    HW229991   4.299   0.930   4.540
 7418SOL    HW329992   4.392   1.029   4.475
 7418SOL    MW429993   4.377   0.950   4.507
 7419SOL     OW29994   5.187   0.522   4.502
 7419SOL    HW229995   5.132   0.443   4.501
 7419SOL    HW329996   5.169   0.563   4.586
 7419SOL    MW429997   5.177   0.517   4.511
 7420SOL     OW29998   4.158   0.209   5.319
 7420SOL    HW229999   4.079   0.227   5.371
 7420SOL    HW330000   4.153   0.271   5.246
 7420SOL    MW430001   4.148   0.219   5.316
 7421SOL     OW30002   4.806   0.726   4.459
 7421SOL    HW230003   4.743   0.658   4.483
 7421SOL    HW330004   4.826   0.707   4.367
 7421SOL    MW430005   4.800   0.713   4.451
 7422SOL     OW30006   4.062   1.621   4.161
 7422SOL    HW230007   4.023   1.668   4.087
 7422SOL    HW330008   3.996   1.556   4.186
 7422SOL    MW430009   4.049   1.619   4.155
 7423SOL     OW30010   4.554   1.030   4.185
 7423SOL    HW230011   4.556   1.004   4.092
 7423SOL    HW330012   4.612   0.967   4.228
 7423SOL    MW430013   4.562   1.019   4.179
 7424SOL     OW30014   5.107   1.590   4.957
 7424SOL    HW230015   5.032   1.636   4.995
 7424SOL    HW330016   5.089   1.497   4.974
 7424SOL    MW430017   5.096   1.584   4.965
 7425SOL     OW30018   5.111   1.798   4.387
 7425SOL    HW230019   5.054   1.751   4.326
 7425SOL    HW330020   5.197   1.759   4.374
 7425SOL    MW430021   5.114   1.789   4.377
 7426SOL     OW30022   5.064   0.274   4.518
 7426SOL    HW230023   5.092   0.206   4.579
 7426SOL    HW330024   4.978   0.245   4.488
 7426SOL    MW430025   5.057   0.261   4.522
 7427SOL     OW30026   3.869   1.208   4.452
 7427SOL    HW230027   3.933   1.240   4.515
 7427SOL    HW330028   3.918   1.144   4.400
 7427SOL    MW430029   3.884   1.204   4.453
 7428SOL     OW30030   4.369   1.284   5.434
 7428SOL    HW230031   4.417   1.367   5.421
 7428SOL    HW330032   4.426   1.232   5.490
 7428SOL    MW430033   4.383   1.288   5.440
 7429SOL     OW30034   3.945   1.526   5.574
 7429SOL    HW230035   4.001   1.450   5.589
 7429SOL    HW330036   3.894   1.504   5.496
 7429SOL    MW430037   3.945   1.513   5.565
 7430SOL     OW30038   5.044   0.378   3.853
 7430SOL    HW230039   5.017   0.444   3.789
 7430SOL    HW330040   5.114   0.421   3.903
 7430SOL    MW430041   5.049   0.391   3.850
 7431SOL     OW30042   4.712   0.083   3.790
 7431SOL    HW230043   4.768   0.075   3.712
 7431SOL    HW330044   4.689  -0.007   3.812
 7431SOL    MW430045   4.717   0.070   3.783
 7432SOL     OW30046   5.217   0.934   3.995
 7432SOL    HW230047   5.184   1.023   3.985
 7432SOL    HW330048   5.182   0.905   4.080
 7432SOL    MW430049   5.207   0.943   4.006
 7433SOL     OW30050   4.830   1.363   5.183
 7433SOL    HW230051   4.741   1.369   5.151
 7433SOL    HW330052   4.874   1.442   5.151
 7433SOL    MW430053   4.825   1.373   5.175
 7434SOL     OW30054   4.123   0.031   5.525
 7434SOL    HW230055   4.051  -0.004   5.473
 7434SOL    HW330056   4.181   0.072   5.460
 7434SOL    MW430057   4.121   0.032   5.510
 7435SOL     OW30058   4.147   1.521   4.824
 7435SOL    HW230059   4.192   1.583   4.881
 7435SOL    HW330060   4.054   1.540   4.837
 7435SOL    MW430061   4.140   1.531   4.831
 7436SOL     OW30062   5.587   1.050   5.178
 7436SOL    HW230063   5.502   1.063   5.137
 7436SOL    HW330064   5.567   1.014   5.265
 7436SOL    MW430065   5.574   1.046   5.183
 7437SOL     OW30066   4.569   1.589   4.932
 7437SOL    HW230067   4.593   1.578   4.841
 7437SOL    HW330068   4.492   1.646   4.930
 7437SOL    MW430069   4.561   1.594   4.921
 7438SOL     OW30070   4.211   0.972   3.787
 7438SOL    HW230071   4.134   0.985   3.843
 7438SOL    HW330072   4.175   0.936   3.706
 7438SOL    MW430073   4.197   0.968   3.784
 7439SOL     OW30074   4.864   0.945   4.030
 7439SOL    HW230075   4.774   0.966   4.005
 7439SOL    HW330076   4.891   1.018   4.086
 7439SOL    MW430077   4.856   0.957   4.033
 7440SOL     OW30078   4.364   1.294   4.722
 7440SOL    HW230079   4.357   1.273   4.816
 7440SOL    HW330080   4.282   1.262   4.685
 7440SOL    MW430081   4.352   1.288   4.729
 7441SOL     OW30082   5.228   0.304   5.124
 7441SOL    HW230083   5.175   0.306   5.204
 7441SOL    HW330084   5.213   0.217   5.087
 7441SOL    MW430085   5.220   0.294   5.129
 7442SOL     OW30086   5.564   0.228   4.997
 7442SOL    HW230087   5.545   0.295   4.932
 7442SOL    HW330088   5.621   0.166   4.952
 7442SOL    MW430089   5.568   0.229   4.983
 7443SOL     OW30090   3.810   1.386   5.385
 7443SOL    HW230091   3.854   1.319   5.331
 7443SOL    HW330092   3.725   1.348   5.405
 7443SOL    MW430093   3.805   1.372   5.381
 7444SOL     OW30094   4.493   0.061   4.437
 7444SOL    HW230095   4.422   0.122   4.419
 7444SOL    HW330096   4.544   0.058   4.356
 7444SOL    MW430097   4.489   0.067   4.424
 7445SOL     OW30098   4.251   1.301   4.186
 7445SOL    HW230099   4.244   1.333   4.276
 7445SOL    HW330100   4.161   1.285   4.158
 7445SOL    MW430101   4.239   1.303   4.193
 7446SOL     OW30102   4.846   1.694   5.095
 7446SOL    HW230103   4.766   1.679   5.045
 7446SOL    HW330104   4.853   1.789   5.102
 7446SOL    MW430105   4.837   1.705   5.089
 7447SOL     OW30106   4.960   1.659   4.585
 7447SOL    HW230107   5.007   1.732   4.544
 7447SOL    HW330108   4.881   1.698   4.621
 7447SOL    MW430109   4.955   1.674   4.584
 7448SOL     OW30110   5.368   1.754   4.860
 7448SOL    HW230111   5.411   1.724   4.940
 7448SOL    HW330112   5.287   1.702   4.857
 7448SOL    MW430113   5.363   1.743   4.870
 7449SOL     OW30114   4.453   0.718   5.567
 7449SOL    HW230115   4.523   0.660   5.539
 7449SOL    HW330116   4.396   0.663   5.622
 7449SOL    MW430117   4.455   0.705   5.571
 7450SOL     OW30118   5.240   0.930   5.200
 7450SOL    HW230119   5.245   0.983   5.280
 7450SOL    HW330120   5.202   0.847   5.228
 7450SOL    MW430121   5.236   0.925   5.215
 7451SOL     OW30122   4.880   0.065   5.446
 7451SOL    HW230123   4.875  -0.028   5.427
 7451SOL    HW330124   4.963   0.076   5.492
 7451SOL    MW430125   4.888   0.054   5.450
 7452SOL     OW30126   4.254   0.585   3.900
 7452SOL    HW230127   4.220   0.641   3.970
 7452SOL    HW330128   4.325   0.535   3.940
 7452SOL    MW430129   4.260   0.586   3.914
 7453SOL     OW30130   5.350   1.336   4.722
 7453SOL    HW230131   5.385   1.318   4.635
 7453SOL    HW330132   5.255   1.337   4.709
 7453SOL    MW430133   5.342   1.333   4.709
 7454SOL     OW30134   4.779   0.984   5.091
 7454SOL    HW230135   4.822   1.019   5.169
 7454SOL    HW330136   4.762   1.061   5.037
 7454SOL    MW430137   4.782   0.999   5.094
 7455SOL     OW30138   5.310   0.471   3.964
 7455SOL    HW230139   5.302   0.542   3.901
 7455SOL    HW330140   5.328   0.515   4.047
 7455SOL    MW430141   5.311   0.485   3.966
 7456SOL     OW30142   4.170   0.126   4.393
 7456SOL    HW230143   4.220   0.169   4.324
 7456SOL    HW330144   4.085   0.170   4.393
 7456SOL    MW430145   4.167   0.139   4.384
 7457SOL     OW30146   3.929   1.188   5.253
 7457SOL    HW230147   3.957   1.141   5.331
 7457SOL    HW330148   3.850   1.143   5.224
 7457SOL    MW430149   3.922   1.177   5.259
 7458SOL     OW30150   4.437   0.515   5.220
 7458SOL    HW230151   4.409   0.603   5.244
 7458SOL    HW330152   4.406   0.459   5.291
 7458SOL    MW430153   4.429   0.518   5.232
 7459SOL     OW30154   4.979   0.733   3.939
 7459SOL    HW230155   5.026   0.751   3.858
 7459SOL    HW330156   4.945   0.817   3.967
 7459SOL    MW430157   4.981   0.747   3.932
 7460SOL     OW30158   4.092   0.911   4.433
 7460SOL    HW230159   4.150   0.967   4.381
 7460SOL    HW330160   4.136   0.826   4.435
 7460SOL    MW430161   4.105   0.908   4.426
 7461SOL     OW30162   5.232   0.263   4.270
 7461SOL    HW230163   5.154   0.213   4.295
 7461SOL    HW330164   5.203   0.354   4.270
 7461SOL    MW430165   5.218   0.267   4.273
 7462SOL     OW30166   4.818   0.225   4.429
 7462SOL    HW230167   4.838   0.300   4.373
 7462SOL    HW330168   4.798   0.264   4.514
 7462SOL    MW430169   4.819   0.241   4.433
 7463SOL     OW30170   4.714   1.475   3.761
 7463SOL    HW230171   4.741   1.553   3.713
 7463SOL    HW330172   4.621   1.490   3.780
 7463SOL    MW430173   4.705   1.488   3.757
 7464SOL     OW30174   5.578   0.998   5.448
 7464SOL    HW230175   5.491   0.978   5.484
 7464SOL    HW330176   5.632   0.924   5.473
 7464SOL    MW430177   5.573   0.987   5.456
 7465SOL     OW30178   3.799   1.511   4.605
 7465SOL    HW230179   3.831   1.515   4.696
 7465SOL    HW330180   3.704   1.519   4.613
 7465SOL    MW430181   3.791   1.514   4.618
 7466SOL     OW30182   3.754   0.637   4.152
 7466SOL    HW230183   3.694   0.609   4.222
 7466SOL    HW330184   3.828   0.577   4.158
 7466SOL    MW430185   3.756   0.626   4.161
 7467SOL     OW30186   5.322   1.849   5.586
 7467SOL    HW230187   5.367   1.773   5.551
 7467SOL    HW330188   5.360   1.862   5.673
 7467SOL    MW430189   5.332   1.842   5.592
 7468SOL     OW30190   4.922   1.368   4.312
 7468SOL    HW230191   4.945   1.319   4.390
 7468SOL    HW330192   5.003   1.410   4.284
 7468SOL    MW430193   4.935   1.368   4.319
 7469SOL     OW30194   4.180   0.376   5.041
 7469SOL    HW230195   4.213   0.457   5.081
 7469SOL    HW330196   4.153   0.402   4.953
 7469SOL    MW430197   4.179   0.390   5.035
 7470SOL     OW30198   4.134   0.343   4.777
 7470SOL    HW230199   4.164   0.257   4.748
 7470SOL    HW330200   4.039   0.336   4.780
 7470SOL    MW430201   4.126   0.332   4.775
 7471SOL     OW30202   4.963   0.552   5.468
 7471SOL    HW230203   5.015   0.487   5.421
 7471SOL    HW330204   4.921   0.603   5.398
 7471SOL    MW430205   4.964   0.549   5.451
 7472SOL     OW30206   5.062   0.347   5.329
 7472SOL    HW230207   4.969   0.331   5.316
 7472SOL    HW330208   5.088   0.285   5.397
 7472SOL    MW430209   5.052   0.337   5.336
 7473SOL     OW30210   4.277   0.121   4.668
 7473SOL    HW230211   4.287   0.030   4.694
 7473SOL    HW330212   4.233   0.117   4.583
 7473SOL    MW430213   4.273   0.109   4.660
 7474SOL     OW30214   4.371   1.736   5.214
 7474SOL    HW230215   4.288   1.721   5.259
 7474SOL    HW330216   4.430   1.669   5.249
 7474SOL    MW430217   4.369   1.726   5.224
 7475SOL     OW30218   5.428   0.443   4.839
 7475SOL    HW230219   5.361   0.476   4.899
 7475SOL    HW330220   5.471   0.521   4.805
 7475SOL    MW430221   5.426   0.458   4.843
 7476SOL     OW30222   5.606   1.163   4.809
 7476SOL    HW230223   5.599   1.103   4.734
 7476SOL    HW330224   5.532   1.223   4.798
 7476SOL    MW430225   5.596   1.163   4.798
 7477SOL     OW30226   4.988   1.025   4.727
 7477SOL    HW230227   5.002   0.997   4.818
 7477SOL    HW330228   5.074   1.056   4.699
 7477SOL    MW430229   5.001   1.026   4.736
 7478SOL     OW30230   5.071   0.520   5.006
 7478SOL    HW230231   5.092   0.521   4.913
 7478SOL    HW330232   5.116   0.442   5.039
 7478SOL    MW430233   5.078   0.510   4.998
 7479SOL     OW30234   5.564   0.651   5.548
 7479SOL    HW230235   5.601   0.596   5.617
 7479SOL    HW330236   5.589   0.608   5.466
 7479SOL    MW430237   5.571   0.639   5.547
 7480SOL     OW30238   5.111   0.949   5.600
 7480SOL    HW230239   5.177   0.897   5.554
 7480SOL    HW330240   5.131   0.936   5.693
 7480SOL    MW430241   5.122   0.940   5.607
 7481SOL     OW30242   5.062   0.035   3.948
 7481SOL    HW230243   5.136   0.079   3.991
 7481SOL    HW330244   4.986   0.089   3.970
 7481SOL    MW430245   5.062   0.047   3.956
 7482SOL     OW30246   5.122   0.810   4.226
 7482SOL    HW230247   5.037   0.780   4.196
 7482SOL    HW330248   5.114   0.817   4.321
 7482SOL    MW430249   5.110   0.808   4.235
 7483SOL     OW30250   4.198   1.273   4.957
 7483SOL    HW230251   4.210   1.300   5.048
 7483SOL    HW330252   4.179   1.354   4.910
 7483SOL    MW430253   4.197   1.288   4.962
 7484SOL     OW30254   4.482   0.253   4.780
 7484SOL    HW230255   4.455   0.255   4.871
 7484SOL    HW330256   4.412   0.205   4.735
 7484SOL    MW430257   4.470   0.249   4.787
 7485SOL     OW30258   4.336   1.745   4.942
 7485SOL    HW230259   4.388   1.822   4.919
 7485SOL    HW330260   4.345   1.737   5.037
 7485SOL    MW430261   4.345   1.752   4.953
 7486SOL     OW30262   5.238   1.330   5.174
 7486SOL    HW230263   5.223   1.259   5.237
 7486SOL    HW330264   5.284   1.288   5.102
 7486SOL    MW430265   5.244   1.314   5.174
 7487SOL     OW30266   4.312   1.061   5.291
 7487SOL    HW230267   4.349   1.066   5.203
 7487SOL    HW330268   4.351   1.134   5.338
 7487SOL    MW430269   4.322   1.071   5.286
 7488SOL     OW30270   4.492   1.104   5.103
 7488SOL    HW230271   4.551   1.050   5.156
 7488SOL    HW330272   4.507   1.076   5.013
 7488SOL    MW430273   4.502   1.093   5.099
 7489SOL     OW30274   4.495   0.476   3.952
 7489SOL    HW230275   4.568   0.525   3.915
 7489SOL    HW330276   4.511   0.385   3.926
 7489SOL    MW430277   4.507   0.471   3.945
 7490SOL     OW30278   5.303   1.593   5.275
 7490SOL    HW230279   5.345   1.578   5.360
 7490SOL    HW330280   5.294   1.506   5.237
 7490SOL    MW430281   5.307   1.581   5.282
 7491SOL     OW30282   4.963   0.072   4.866
 7491SOL    HW230283   5.018   0.081   4.788
 7491SOL    HW330284   5.018   0.106   4.937
 7491SOL    MW430285   4.977   0.077   4.865
 7492SOL     OW30286   3.970   0.985   4.050
 7492SOL    HW230287   3.907   1.001   3.979
 7492SOL    HW330288   3.917   0.948   4.121
 7492SOL    MW430289   3.955   0.982   4.050
 7493SOL     OW30290   4.326   1.339   3.909
 7493SOL    HW230291   4.341   1.315   4.001
 7493SOL    HW330292   4.234   1.317   3.893
 7493SOL    MW430293   4.316   1.332   3.919
 7494SOL     OW30294   4.865   1.570   4.061
 7494SOL    HW230295   4.873   1.488   4.012
 7494SOL    HW330296   4.784   1.609   4.028
 7494SOL    MW430297   4.855   1.565   4.051
 7495SOL     OW30298   4.124   1.728   4.630
 7495SOL    HW230299   4.128   1.639   4.665
 7495SOL    HW330300   4.150   1.719   4.539
 7495SOL    MW430301   4.127   1.716   4.622
 7496SOL     OW30302   4.741   1.206   4.873
 7496SOL    HW230303   4.673   1.140   4.889
 7496SOL    HW330304   4.759   1.200   4.780
 7496SOL    MW430305   4.734   1.197   4.864
 7497SOL     OW30306   3.830   1.481   5.124
 7497SOL    HW230307   3.820   1.439   5.210
 7497SOL    HW330308   3.751   1.534   5.114
 7497SOL    MW430309   3.819   1.482   5.135
 7498SOL     OW30310   4.734   0.345   4.694
 7498SOL    HW230311   4.664   0.297   4.739
 7498SOL    HW330312   4.766   0.408   4.758
 7498SOL    MW430313   4.729   0.347   4.708
 7499SOL     OW30314   4.385   0.781   5.314
 7499SOL    HW230315   4.378   0.876   5.302
 7499SOL    HW330316   4.394   0.770   5.409
 7499SOL    MW430317   4.386   0.793   5.324
 7500SOL     OW30318   4.106   1.296   5.572
 7500SOL    HW230319   4.178   1.298   5.509
 7500SOL    HW330320   4.076   1.205   5.571
 7500SOL    MW430321   4.111   1.285   5.564
 7501SOL     OW30322   5.190   0.059   5.039
 7501SOL    HW230323   5.261   0.005   5.003
 7501SOL    HW330324   5.189   0.038   5.132
 7501SOL    MW430325   5.199   0.050   5.047
 7502SOL     OW30326   5.390   1.589   5.523
 7502SOL    HW230327   5.363   1.586   5.614
 7502SOL    HW330328   5.486   1.593   5.526
 7502SOL    MW430329   5.400   1.589   5.535
 7503SOL     OW30330   4.201   0.451   4.507
 7503SOL    HW230331   4.272   0.399   4.470
 7503SOL    HW330332   4.187   0.416   4.594
 7503SOL    MW430333   4.209   0.440   4.514
 7504SOL     OW30334   3.756   1.786   5.579
 7504SOL    HW230335   3.806   1.764   5.501
 7504SOL    HW330336   3.764   1.881   5.587
 7504SOL    MW430337   3.764   1.795   5.570
 7505SOL     OW30338   4.517   1.544   4.583
 7505SOL    HW230339   4.445   1.481   4.596
 7505SOL    HW330340   4.478   1.629   4.601
 7505SOL    MW430341   4.501   1.547   4.586
 7506SOL     OW30342   4.837   0.392   4.231
 7506SOL    HW230343   4.859   0.329   4.163
 7506SOL    HW330344   4.742   0.384   4.242
 7506SOL    MW430345   4.827   0.383   4.223
 7507SOL     OW30346   3.922   0.082   4.163
 7507SOL    HW230347   3.993   0.103   4.102
 7507SOL    HW330348   3.876   0.010   4.121
 7507SOL    MW430349   3.926   0.076   4.149
 7508SOL     OW30350   3.753   0.549   5.306
 7508SOL    HW230351   3.817   0.615   5.281
 7508SOL    HW330352   3.672   0.576   5.263
 7508SOL    MW430353   3.751   0.561   5.298
 7509SOL     OW30354   5.491   1.456   4.263
 7509SOL    HW230355   5.461   1.389   4.324
 7509SOL    HW330356   5.585   1.462   4.277
 7509SOL    MW430357   5.499   1.448   4.273
 7510SOL     OW30358   5.047   1.133   4.193
 7510SOL    HW230359   5.019   1.219   4.226
 7510SOL    HW330360   5.075   1.149   4.103
 7510SOL    MW430361   5.047   1.147   4.185
 7511SOL     OW30362   4.709   0.053   4.246
 7511SOL    HW230363   4.746   0.112   4.311
 7511SOL    HW330364   4.686   0.109   4.172
 7511SOL    MW430365   4.710   0.068   4.245
 7512SOL     OW30366   5.562   0.935   4.668
 7512SOL    HW230367   5.553   0.967   4.579
 7512SOL    HW330368   5.515   0.851   4.668
 7512SOL    MW430369   5.555   0.928   4.658
 7513SOL     OW30370   3.938   0.775   5.247
 7513SOL    HW230371   3.959   0.844   5.185
 7513SOL    HW330372   4.018   0.722   5.252
 7513SOL    MW430373   3.951   0.776   5.241
 7514SOL     OW30374   5.474   0.866   4.369
 7514SOL    HW230375   5.568   0.855   4.357
 7514SOL    HW330376   5.450   0.938   4.310
 7514SOL    MW430377   5.484   0.874   4.360
 7515SOL     OW30378   3.923   0.790   5.514
 7515SOL    HW230379   3.849   0.734   5.540
 7515SOL    HW330380   3.918   0.793   5.419
 7515SOL    MW430381   3.912   0.783   5.504
 7516SOL     OW30382   4.089   0.077   4.964
 7516SOL    HW230383   4.132   0.161   4.984
 7516SOL    HW330384   4.162   0.015   4.957
 7516SOL    MW430385   4.104   0.080   4.965
 7517SOL     OW30386   4.130   0.744   4.142
 7517SOL    HW230387   4.130   0.839   4.127
 7517SOL    HW330388   4.207   0.728   4.196
 7517SOL    MW430389   4.140   0.755   4.147
 7518SOL     OW30390   4.906   0.603   5.206
 7518SOL    HW230391   4.942   0.576   5.122
 7518SOL    HW330392   4.819   0.637   5.185
 7518SOL    MW430393   4.900   0.604   5.193
 7519SOL     OW30394   3.889   0.475   4.431
 7519SOL    HW230395   3.951   0.482   4.504
 7519SOL    HW330396   3.889   0.382   4.408
 7519SOL    MW430397   3.897   0.464   4.438
 7520SOL     OW30398   5.436   1.815   3.963
 7520SOL    HW230399   5.503   1.848   3.903
 7520SOL    HW330400   5.393   1.894   3.997
 7520SOL    MW430401   5.438   1.830   3.959
 7521SOL     OW30402   4.571   0.736   4.915
 7521SOL    HW230403   4.529   0.654   4.891
 7521SOL    HW330404   4.572   0.735   5.011
 7521SOL    MW430405   4.564   0.725   4.924
 7522SOL     OW30406   5.242   1.869   5.314
 7522SOL    HW230407   5.245   1.775   5.297
 7522SOL    HW330408   5.265   1.877   5.406
 7522SOL    MW430409   5.245   1.857   5.324
 7523SOL     OW30410   4.375   0.206   5.020
 7523SOL    HW230411   4.306   0.269   5.041
 7523SOL    HW330412   4.402   0.170   5.105
 7523SOL    MW430413   4.369   0.209   5.033
 7524SOL     OW30414   3.758   1.047   3.889
 7524SOL    HW230415   3.727   1.112   3.952
 7524SOL    HW330416   3.707   0.969   3.908
 7524SOL    MW430417   3.748   1.044   3.899
 7525SOL     OW30418   5.170   0.059   4.637
 7525SOL    HW230419   5.258   0.068   4.674
 7525SOL    HW330420   5.180   0.000   4.563
 7525SOL    MW430421   5.184   0.053   4.631
 7526SOL     OW30422   5.202   0.798   4.481
 7526SOL    HW230423   5.282   0.813   4.430
 7526SOL    HW330424   5.195   0.703   4.487
 7526SOL    MW430425   5.211   0.787   4.476
 7527SOL     OW30426   4.342   1.847   3.831
 7527SOL    HW230427   4.247   1.847   3.823
 7527SOL    HW330428   4.358   1.793   3.909
 7527SOL    MW430429   4.332   1.841   3.840
 7528SOL     OW30430   4.652   0.724   5.178
 7528SOL    HW230431   4.721   0.791   5.175
 7528SOL    HW330432   4.585   0.762   5.234
 7528SOL    MW430433   4.653   0.737   5.185
 7529SOL     OW30434   4.070   1.024   5.426
 7529SOL    HW230435   4.024   0.940   5.428
 7529SOL    HW330436   4.127   1.018   5.350
 7529SOL    MW430437   4.072   1.012   5.418
 7530SOL     OW30438   5.187   0.667   3.747
 7530SOL    HW230439   5.115   0.643   3.689
 7530SOL    HW330440   5.253   0.704   3.689
 7530SOL    MW430441   5.186   0.669   3.732
 7531SOL     OW30442   4.321   1.399   4.427
 7531SOL    HW230443   4.386   1.332   4.448
 7531SOL    HW330444   4.373   1.476   4.404
 7531SOL    MW430445   4.336   1.401   4.426
 7532SOL     OW30446   4.582   0.564   4.557
 7532SOL    HW230447   4.522   0.582   4.629
 7532SOL    HW330448   4.616   0.476   4.576
 7532SOL    MW430449   4.578   0.554   4.570
 7533SOL     OW30450   5.523   0.063   5.226
 7533SOL    HW230451   5.444   0.109   5.254
 7533SOL    HW330452   5.558   0.117   5.155
 7533SOL    MW430453   5.517   0.076   5.220
 7534SOL     OW30454   4.807   1.147   4.576
 7534SOL    HW230455   4.899   1.128   4.594
 7534SOL    HW330456   4.780   1.077   4.516
 7534SOL    MW430457   4.815   1.135   4.570
 7535SOL     OW30458   4.600   0.967   3.931
 7535SOL    HW230459   4.586   0.879   3.896
 7535SOL    HW330460   4.551   1.024   3.872
 7535SOL    MW430461   4.592   0.962   3.919
 7536SOL     OW30462   5.081   1.385   4.672
 7536SOL    HW230463   5.054   1.469   4.637
 7536SOL    HW330464   5.041   1.380   4.759
 7536SOL    MW430465   5.074   1.394   4.678
 7537SOL     OW30466   5.000   1.333   4.940
 7537SOL    HW230467   5.011   1.300   5.029
 7537SOL    HW330468   4.919   1.292   4.909
 7537SOL    MW430469   4.990   1.325   4.946
 7538SOL     OW30470   4.013   0.691   4.710
 7538SOL    HW230471   3.963   0.690   4.791
 7538SOL    HW330472   4.033   0.783   4.694
 7538SOL    MW430473   4.009   0.703   4.718
 7539SOL     OW30474   5.080   1.455   5.472
 7539SOL    HW230475   5.080   1.549   5.488
 7539SOL    HW330476   5.125   1.445   5.388
 7539SOL    MW430477   5.086   1.465   5.463
 7540SOL     OW30478   5.319   0.173   4.033
 7540SOL    HW230479   5.312   0.177   4.128
 7540SOL    HW330480   5.331   0.264   4.006
 7540SOL    MW430481   5.320   0.186   4.041
 7541SOL     OW30482   4.608   0.736   4.147
 7541SOL    HW230483   4.588   0.722   4.054
 7541SOL    HW330484   4.701   0.715   4.154
 7541SOL    MW430485   4.618   0.731   4.136
 7542SOL     OW30486   3.935   0.359   5.451
 7542SOL    HW230487   3.892   0.418   5.388
 7542SOL    HW330488   4.003   0.414   5.491
 7542SOL    MW430489   3.939   0.374   5.448
 7543SOL     OW30490   5.047   0.979   4.996
 7543SOL    HW230491   5.110   0.976   5.069
 7543SOL    HW330492   4.963   0.997   5.038
 7543SOL    MW430493   5.043   0.981   5.011
 7544SOL     OW30494   4.591   1.694   4.185
 7544SOL    HW230495   4.649   1.765   4.212
 7544SOL    HW330496   4.614   1.622   4.243
 7544SOL    MW430497   4.602   1.694   4.196
 7545SOL     OW30498   5.386   0.156   4.775
 7545SOL    HW230499   5.431   0.074   4.794
 7545SOL    HW330500   5.406   0.212   4.851
 7545SOL    MW430501   5.396   0.152   4.787
 7546SOL     OW30502   3.834  -0.001   4.874
 7546SOL    HW230503   3.825   0.000   4.779
 7546SOL    HW330504   3.928   0.011   4.889
 7546SOL    MW430505   3.846   0.002   4.865
 7547SOL     OW30506   5.471   1.192   4.494
 7547SOL    HW230507   5.450   1.138   4.417
 7547SOL    HW330508   5.567   1.190   4.498
 7547SOL    MW430509   5.480   1.185   4.483
 7548SOL     OW30510   4.163   1.337   5.237
 7548SOL    HW230511   4.084   1.287   5.260
 7548SOL    HW330512   4.233   1.296   5.287
 7548SOL    MW430513   4.161   1.325   5.247
 7549SOL     OW30514   4.047   0.126   3.920
 7549SOL    HW230515   3.976   0.181   3.888
 7549SOL    HW330516   4.089   0.092   3.841
 7549SOL    MW430517   4.043   0.128   3.906
 7550SOL     OW30518   5.171   0.623   4.756
 7550SOL    HW230519   5.094   0.669   4.722
 7550SOL    HW330520   5.228   0.692   4.790
 7550SOL    MW430521   5.168   0.638   4.756
 7551SOL     OW30522   3.803   0.225   3.769
 7551SOL    HW230523   3.770   0.304   3.813
 7551SOL    HW330524   3.858   0.258   3.698
 7551SOL    MW430525   3.806   0.239   3.766
 7552SOL     OW30526   3.837   1.482   3.958
 7552SOL    HW230527   3.854   1.566   4.000
 7552SOL    HW330528   3.872   1.491   3.870
 7552SOL    MW430529   3.842   1.495   3.952
 7553SOL     OW30530   5.109   1.571   4.175
 7553SOL    HW230531   5.172   1.561   4.104
 7553SOL    HW330532   5.026   1.591   4.130
 7553SOL    MW430533   5.106   1.572   4.160
 7554SOL     OW30534   5.472   0.839   5.862
 7554SOL    HW230535   5.513   0.781   5.927
 7554SOL    HW330536   5.379   0.831   5.879
 7554SOL    MW430537   5.466   0.831   5.872
 7555SOL     OW30538   5.338   0.771   6.857
 7555SOL    HW230539   5.293   0.838   6.908
 7555SOL    HW330540   5.426   0.807   6.843
 7555SOL    MW430541   5.344   0.784   6.861
 7556SOL     OW30542   4.266   1.022   6.091
 7556SOL    HW230543   4.356   0.997   6.075
 7556SOL    HW330544   4.262   1.115   6.068
 7556SOL    MW430545   4.278   1.031   6.086
 7557SOL     OW30546   5.382   1.725   6.233
 7557SOL    HW230547   5.394   1.671   6.311
 7557SOL    HW330548   5.419   1.673   6.162
 7557SOL    MW430549   5.388   1.710   6.234
 7558SOL     OW30550   4.761   1.610   7.234
 7558SOL    HW230551   4.802   1.646   7.155
 7558SOL    HW330552   4.796   1.521   7.241
 7558SOL    MW430553   4.772   1.603   7.225
 7559SOL     OW30554   5.318   1.165   6.838
 7559SOL    HW230555   5.239   1.130   6.796
 7559SOL    HW330556   5.345   1.237   6.782
 7559SOL    MW430557   5.311   1.170   6.825
 7560SOL     OW30558   4.550   0.478   6.104
 7560SOL    HW230559   4.525   0.566   6.132
 7560SOL    HW330560   4.547   0.481   6.008
 7560SOL    MW430561   4.546   0.490   6.096
 7561SOL     OW30562   3.992   0.506   6.032
 7561SOL    HW230563   4.024   0.594   6.014
 7561SOL    HW330564   3.980   0.504   6.127
 7561SOL    MW430565   3.995   0.518   6.044
 7562SOL     OW30566   4.070   0.919   6.933
 7562SOL    HW230567   4.133   0.866   6.884
 7562SOL    HW330568   4.051   0.993   6.876
 7562SOL    MW430569   4.076   0.921   6.920
 7563SOL     OW30570   4.391   0.261   6.119
 7563SOL    HW230571   4.449   0.337   6.121
 7563SOL    HW330572   4.326   0.282   6.052
 7563SOL    MW430573   4.390   0.273   6.110
 7564SOL     OW30574   4.478   1.188   6.294
 7564SOL    HW230575   4.558   1.191   6.346
 7564SOL    HW330576   4.506   1.155   6.208
 7564SOL    MW430577   4.492   1.184   6.289
 7565SOL     OW30578   4.503   1.529   7.197
 7565SOL    HW230579   4.587   1.555   7.236
 7565SOL    HW330580   4.527   1.473   7.123
 7565SOL    MW430581   4.517   1.525   7.192
 7566SOL     OW30582   4.255   0.692   6.285
 7566SOL    HW230583   4.240   0.612   6.336
 7566SOL    HW330584   4.337   0.727   6.319
 7566SOL    MW430585   4.263   0.684   6.297
 7567SOL     OW30586   4.592   1.378   6.970
 7567SOL    HW230587   4.556   1.444   6.910
 7567SOL    HW330588   4.520   1.316   6.983
 7567SOL    MW430589   4.578   1.378   6.964
 7568SOL     OW30590   4.397   0.518   6.662
 7568SOL    HW230591   4.303   0.514   6.680
 7568SOL    HW330592   4.427   0.427   6.671
 7568SOL    MW430593   4.388   0.506   6.665
 7569SOL     OW30594   4.143   0.932   6.566
 7569SOL    HW230595   4.098   0.939   6.482
 7569SOL    HW330596   4.123   1.015   6.610
 7569SOL    MW430597   4.135   0.944   6.560
 7570SOL     OW30598   3.840   1.778   6.441
 7570SOL    HW230599   3.929   1.770   6.476
 7570SOL    HW330600   3.804   1.690   6.446
 7570SOL    MW430601   3.847   1.765   6.446
 7571SOL     OW30602   5.105   1.170   5.810
 7571SOL    HW230603   5.023   1.206   5.776
 7571SOL    HW330604   5.173   1.213   5.759
 7571SOL    MW430605   5.103   1.180   5.798
 7572SOL     OW30606   4.104   1.305   6.476
 7572SOL    HW230607   4.080   1.358   6.552
 7572SOL    HW330608   4.160   1.363   6.424
 7572SOL    MW430609   4.108   1.320   6.479
 7573SOL     OW30610   4.666   0.949   6.286
 7573SOL    HW230611   4.580   0.936   6.326
 7573SOL    HW330612   4.719   0.876   6.318
 7573SOL    MW430613   4.662   0.938   6.295
 7574SOL     OW30614   4.074   1.601   7.071
 7574SOL    HW230615   3.982   1.577   7.056
 7574SOL    HW330616   4.118   1.518   7.088
 7574SOL    MW430617   4.068   1.586   7.070
 7575SOL     OW30618   4.657   1.311   6.003
 7575SOL    HW230619   4.634   1.373   6.071
 7575SOL    HW330620   4.614   1.229   6.029
 7575SOL    MW430621   4.649   1.307   6.014
 7576SOL     OW30622   5.530   0.312   6.459
 7576SOL    HW230623   5.467   0.292   6.528
 7576SOL    HW330624   5.520   0.241   6.396
 7576SOL    MW430625   5.520   0.299   6.460
 7577SOL     OW30626   4.154   0.284   5.971
 7577SOL    HW230627   4.128   0.246   5.887
 7577SOL    HW330628   4.091   0.354   5.987
 7577SOL    MW430629   4.143   0.287   5.962
 7578SOL     OW30630   3.989   1.245   6.008
 7578SOL    HW230631   3.937   1.313   5.964
 7578SOL    HW330632   3.986   1.171   5.948
 7578SOL    MW430633   3.981   1.244   5.995
 7579SOL     OW30634   4.651   1.708   5.786
 7579SOL    HW230635   4.606   1.724   5.869
 7579SOL    HW330636   4.582   1.673   5.728
 7579SOL    MW430637   4.637   1.705   5.788
 7580SOL     OW30638   5.586   0.481   5.761
 7580SOL    HW230639   5.495   0.483   5.789
 7580SOL    HW330640   5.631   0.543   5.819
 7580SOL    MW430641   5.579   0.489   5.771
 7581SOL     OW30642   5.331   1.084   6.111
 7581SOL    HW230643   5.241   1.084   6.146
 7581SOL    HW330644   5.324   1.130   6.028
 7581SOL    MW430645   5.318   1.090   6.105
 7582SOL     OW30646   5.131   0.719   7.183
 7582SOL    HW230647   5.200   0.657   7.160
 7582SOL    HW330648   5.056   0.693   7.130
 7582SOL    MW430649   5.131   0.706   7.174
 7583SOL     OW30650   3.872   1.599   6.735
 7583SOL    HW230651   3.855   1.545   6.812
 7583SOL    HW330652   3.860   1.689   6.765
 7583SOL    MW430653   3.869   1.603   6.749
 7584SOL     OW30654   4.867   1.106   7.175
 7584SOL    HW230655   4.852   1.199   7.160
 7584SOL    HW330656   4.962   1.096   7.175
 7584SOL    MW430657   4.876   1.116   7.172
 7585SOL     OW30658   4.663   0.530   7.376
 7585SOL    HW230659   4.753   0.531   7.343
 7585SOL    HW330660   4.622   0.455   7.334
 7585SOL    MW430661   4.669   0.520   7.367
 7586SOL     OW30662   5.238   1.062   6.503
 7586SOL    HW230663   5.241   0.996   6.434
 7586SOL    HW330664   5.323   1.105   6.499
 7586SOL    MW430665   5.250   1.058   6.494
 7587SOL     OW30666   4.858   0.665   6.072
 7587SOL    HW230667   4.884   0.689   5.983
 7587SOL    HW330668   4.840   0.572   6.068
 7587SOL    MW430669   4.860   0.657   6.059
 7588SOL     OW30670   5.523   1.285   5.923
 7588SOL    HW230671   5.479   1.326   5.998
 7588SOL    HW330672   5.580   1.353   5.888
 7588SOL    MW430673   5.525   1.299   5.928
 7589SOL     OW30674   4.443   0.334   7.326
 7589SOL    HW230675   4.453   0.260   7.266
 7589SOL    HW330676   4.479   0.303   7.409
 7589SOL    MW430677   4.449   0.320   7.328
 7590SOL     OW30678   4.179   1.701   6.241
 7590SOL    HW230679   4.211   1.789   6.219
 7590SOL    HW330680   4.132   1.673   6.163
 7590SOL    MW430681   4.178   1.709   6.228
 7591SOL     OW30682   5.563   0.063   6.290
 7591SOL    HW230683   5.617   0.014   6.352
 7591SOL    HW330684   5.506  -0.003   6.251
 7591SOL    MW430685   5.563   0.047   6.292
 7592SOL     OW30686   3.895   1.761   5.818
 7592SOL    HW230687   3.924   1.851   5.810
 7592SOL    HW330688   3.845   1.744   5.739
 7592SOL    MW430689   3.893   1.769   5.807
 7593SOL     OW30690   4.682   0.016   6.703
 7593SOL    HW230691   4.641   0.094   6.665
 7593SOL    HW330692   4.776   0.034   6.698
 7593SOL    MW430693   4.688   0.028   6.698
 7594SOL     OW30694   5.299   1.569   5.789
 7594SOL    HW230695   5.347   1.638   5.835
 7594SOL    HW330696   5.220   1.613   5.758
 7594SOL    MW430697   5.294   1.583   5.792
 7595SOL     OW30698   4.697   0.694   5.733
 7595SOL    HW230699   4.699   0.641   5.654
 7595SOL    HW330700   4.785   0.731   5.739
 7595SOL    MW430701   4.709   0.693   5.722
 7596SOL     OW30702   5.311   0.620   6.069
 7596SOL    HW230703   5.350   0.620   6.156
 7596SOL    HW330704   5.252   0.696   6.069
 7596SOL    MW430705   5.308   0.631   6.080
 7597SOL     OW30706   4.628   0.987   7.198
 7597SOL    HW230707   4.605   0.967   7.288
 7597SOL    HW330708   4.713   1.031   7.203
 7597SOL    MW430709   4.635   0.990   7.210
 7598SOL     OW30710   4.708   0.124   6.958
 7598SOL    HW230711   4.714   0.086   6.871
 7598SOL    HW330712   4.697   0.218   6.943
 7598SOL    MW430713   4.709   0.132   6.946
 7599SOL     OW30714   4.797   0.613   6.792
 7599SOL    HW230715   4.872   0.642   6.739
 7599SOL    HW330716   4.729   0.678   6.776
 7599SOL    MW430717   4.798   0.625   6.782
 7600SOL     OW30718   5.347   0.581   7.069
 7600SOL    HW230719   5.328   0.490   7.048
 7600SOL    HW330720   5.325   0.630   6.990
 7600SOL    MW430721   5.342   0.574   7.056
 7601SOL     OW30722   5.489   1.675   6.973
 7601SOL    HW230723   5.417   1.637   7.024
 7601SOL    HW330724   5.506   1.760   7.014
 7601SOL    MW430725   5.483   1.680   6.985
 7602SOL     OW30726   4.794   0.319   7.175
 7602SOL    HW230727   4.760   0.358   7.094
 7602SOL    HW330728   4.772   0.227   7.168
 7602SOL    MW430729   4.787   0.312   7.165
 7603SOL     OW30730   5.203   1.133   7.251
 7603SOL    HW230731   5.285   1.174   7.281
 7603SOL    HW330732   5.166   1.095   7.331
 7603SOL    MW430733   5.209   1.134   7.266
 7604SOL     OW30734   5.498   0.506   6.235
 7604SOL    HW230735   5.587   0.475   6.252
 7604SOL    HW330736   5.441   0.446   6.283
 7604SOL    MW430737   5.501   0.494   6.244
 7605SOL     OW30738   3.924   0.220   6.264
 7605SOL    HW230739   3.915   0.160   6.190
 7605SOL    HW330740   3.857   0.191   6.327
 7605SOL    MW430741   3.914   0.207   6.262
 7606SOL     OW30742   4.867   1.313   5.825
 7606SOL    HW230743   4.817   1.315   5.907
 7606SOL    HW330744   4.801   1.331   5.757
 7606SOL    MW430745   4.853   1.315   5.827
 7607SOL     OW30746   3.871   0.393   6.627
 7607SOL    HW230747   3.843   0.484   6.636
 7607SOL    HW330748   3.808   0.354   6.566
 7607SOL    MW430749   3.858   0.399   6.621
 7608SOL     OW30750   4.330   1.731   5.933
 7608SOL    HW230751   4.251   1.689   5.966
 7608SOL    HW330752   4.396   1.714   6.000
 7608SOL    MW430753   4.329   1.723   5.946
 7609SOL     OW30754   5.458   1.251   7.330
 7609SOL    HW230755   5.508   1.177   7.362
 7609SOL    HW330756   5.404   1.278   7.405
 7609SOL    MW430757   5.458   1.245   7.343
 7610SOL     OW30758   4.466   1.146   5.640
 7610SOL    HW230759   4.388   1.092   5.627
 7610SOL    HW330760   4.437   1.219   5.693
 7610SOL    MW430761   4.452   1.148   5.645
 7611SOL     OW30762   5.592   0.886   6.832
 7611SOL    HW230763   5.608   0.924   6.745
 7611SOL    HW330764   5.626   0.952   6.893
 7611SOL    MW430765   5.599   0.899   6.828
 7612SOL     OW30766   5.384   1.595   6.501
 7612SOL    HW230767   5.413   1.662   6.562
 7612SOL    HW330768   5.365   1.519   6.556
 7612SOL    MW430769   5.386   1.595   6.516
 7613SOL     OW30770   5.047   1.662   5.708
 7613SOL    HW230771   4.973   1.625   5.758
 7613SOL    HW330772   5.055   1.752   5.741
 7613SOL    MW430773   5.038   1.669   5.720
 7614SOL     OW30774   3.855   0.668   6.797
 7614SOL    HW230775   3.917   0.698   6.863
 7614SOL    HW330776   3.789   0.737   6.791
 7614SOL    MW430777   3.854   0.681   6.804
 7615SOL     OW30778   5.271   1.336   5.650
 7615SOL    HW230779   5.218   1.385   5.586
 7615SOL    HW330780   5.302   1.402   5.711
 7615SOL    MW430781   5.269   1.350   5.648
 7616SOL     OW30782   4.496   0.225   5.705
 7616SOL    HW230783   4.444   0.145   5.693
 7616SOL    HW330784   4.583   0.202   5.673
 7616SOL    MW430785   4.499   0.211   5.699
 7617SOL     OW30786   3.950   1.777   7.249
 7617SOL    HW230787   3.924   1.845   7.187
 7617SOL    HW330788   3.998   1.714   7.197
 7617SOL    MW430789   3.952   1.777   7.235
 7618SOL     OW30790   4.002   1.096   6.756
 7618SOL    HW230791   4.055   1.171   6.781
 7618SOL    HW330792   3.921   1.134   6.722
 7618SOL    MW430793   3.998   1.111   6.756
 7619SOL     OW30794   4.542   1.000   6.744
 7619SOL    HW230795   4.570   0.909   6.756
 7619SOL    HW330796   4.471   0.994   6.680
 7619SOL    MW430797   4.535   0.988   6.739
 7620SOL     OW30798   3.857   0.865   6.162
 7620SOL    HW230799   3.948   0.880   6.189
 7620SOL    HW330800   3.860   0.786   6.108
 7620SOL    MW430801   3.869   0.857   6.160
 7621SOL     OW30802   4.093   0.573   7.416
 7621SOL    HW230803   4.040   0.653   7.423
 7621SOL    HW330804   4.163   0.585   7.481
 7621SOL    MW430805   4.095   0.586   7.424
 7622SOL     OW30806   4.479   0.123   7.123
 7622SOL    HW230807   4.456   0.031   7.125
 7622SOL    HW330808   4.565   0.125   7.080
 7622SOL    MW430809   4.486   0.113   7.119
 7623SOL     OW30810   4.163   0.647   7.162
 7623SOL    HW230811   4.243   0.697   7.148
 7623SOL    HW330812   4.154   0.641   7.257
 7623SOL    MW430813   4.172   0.653   7.172
 7624SOL     OW30814   4.484   1.797   6.536
 7624SOL    HW230815   4.573   1.812   6.566
 7624SOL    HW330816   4.479   1.844   6.452
 7624SOL    MW430817   4.494   1.805   6.529
 7625SOL     OW30818   5.140   0.172   7.433
 7625SOL    HW230819   5.196   0.099   7.459
 7625SOL    HW330820   5.110   0.210   7.515
 7625SOL    MW430821   5.144   0.167   7.446
 7626SOL     OW30822   3.865   1.477   6.201
 7626SOL    HW230823   3.837   1.516   6.283
 7626SOL    HW330824   3.885   1.386   6.223
 7626SOL    MW430825   3.863   1.469   6.214
 7627SOL     OW30826   4.698   1.520   6.236
 7627SOL    HW230827   4.781   1.474   6.220
 7627SOL    HW330828   4.688   1.519   6.332
 7627SOL    MW430829   4.708   1.513   6.246
 7628SOL     OW30830   5.530   0.665   6.550
 7628SOL    HW230831   5.619   0.695   6.532
 7628SOL    HW330832   5.510   0.605   6.479
 7628SOL    MW430833   5.539   0.662   6.539
 7629SOL     OW30834   5.381   0.844   7.430
 7629SOL    HW230835   5.436   0.768   7.411
 7629SOL    HW330836   5.383   0.852   7.525
 7629SOL    MW430837   5.389   0.835   7.438
 7630SOL     OW30838   4.431   1.577   5.641
 7630SOL    HW230839   4.371   1.646   5.611
 7630SOL    HW330840   4.376   1.519   5.694
 7630SOL    MW430841   4.415   1.579   5.643
 7631SOL     OW30842   4.869   0.222   5.864
 7631SOL    HW230843   4.802   0.198   5.801
 7631SOL    HW330844   4.934   0.271   5.813
 7631SOL    MW430845   4.869   0.224   5.849
 7632SOL     OW30846   4.676   0.406   6.949
 7632SOL    HW230847   4.595   0.447   6.977
 7632SOL    HW330848   4.723   0.474   6.901
 7632SOL    MW430849   4.671   0.421   6.947
 7633SOL     OW30850   4.936   0.744   6.572
 7633SOL    HW230851   4.949   0.838   6.582
 7633SOL    HW330852   4.897   0.734   6.486
 7633SOL    MW430853   4.932   0.755   6.562
 7634SOL     OW30854   4.388   0.939   6.376
 7634SOL    HW230855   4.299   0.930   6.409
 7634SOL    HW330856   4.392   1.029   6.344
 7634SOL    MW430857   4.377   0.950   6.376
 7635SOL     OW30858   5.187   0.522   6.371
 7635SOL    HW230859   5.132   0.443   6.370
 7635SOL    HW330860   5.169   0.563   6.455
 7635SOL    MW430861   5.177   0.517   6.380
 7636SOL     OW30862   4.158   0.209   7.188
 7636SOL    HW230863   4.079   0.227   7.240
 7636SOL    HW330864   4.153   0.271   7.115
 7636SOL    MW430865   4.148   0.219   7.185
 7637SOL     OW30866   4.806   0.726   6.328
 7637SOL    HW230867   4.743   0.658   6.352
 7637SOL    HW330868   4.826   0.707   6.236
 7637SOL    MW430869   4.800   0.713   6.320
 7638SOL     OW30870   4.062   1.621   6.030
 7638SOL    HW230871   4.023   1.668   5.956
 7638SOL    HW330872   3.996   1.556   6.055
 7638SOL    MW430873   4.049   1.619   6.024
 7639SOL     OW30874   4.554   1.030   6.054
 7639SOL    HW230875   4.556   1.004   5.961
 7639SOL    HW330876   4.612   0.967   6.097
 7639SOL    MW430877   4.562   1.019   6.048
 7640SOL     OW30878   5.107   1.590   6.826
 7640SOL    HW230879   5.032   1.636   6.864
 7640SOL    HW330880   5.089   1.497   6.843
 7640SOL    MW430881   5.096   1.584   6.834
 7641SOL     OW30882   5.111   1.798   6.256
 7641SOL    HW230883   5.054   1.751   6.195
 7641SOL    HW330884   5.197   1.759   6.243
 7641SOL    MW430885   5.114   1.789   6.246
 7642SOL     OW30886   5.064   0.274   6.387
 7642SOL    HW230887   5.092   0.206   6.448
 7642SOL    HW330888   4.978   0.245   6.357
 7642SOL    MW430889   5.057   0.261   6.391
 7643SOL     OW30890   3.869   1.208   6.321
 7643SOL    HW230891   3.933   1.240   6.384
 7643SOL    HW330892   3.918   1.144   6.269
 7643SOL    MW430893   3.884   1.204   6.322
 7644SOL     OW30894   4.369   1.284   7.303
 7644SOL    HW230895   4.417   1.367   7.290
 7644SOL    HW330896   4.426   1.232   7.359
 7644SOL    MW430897   4.383   1.288   7.309
 7645SOL     OW30898   3.945   1.526   7.443
 7645SOL    HW230899   4.001   1.450   7.458
 7645SOL    HW330900   3.894   1.504   7.365
 7645SOL    MW430901   3.945   1.513   7.434
 7646SOL     OW30902   5.044   0.378   5.722
 7646SOL    HW230903   5.017   0.444   5.658
 7646SOL    HW330904   5.114   0.421   5.772
 7646SOL    MW430905   5.049   0.391   5.719
 7647SOL     OW30906   4.712   0.083   5.659
 7647SOL    HW230907   4.768   0.075   5.581
 7647SOL    HW330908   4.689  -0.007   5.681
 7647SOL    MW430909   4.717   0.070   5.652
 7648SOL     OW30910   5.217   0.934   5.864
 7648SOL    HW230911   5.184   1.023   5.854
 7648SOL    HW330912   5.182   0.905   5.949
 7648SOL    MW430913   5.207   0.943   5.875
 7649SOL     OW30914   4.830   1.363   7.052
 7649SOL    HW230915   4.741   1.369   7.020
 7649SOL    HW330916   4.874   1.442   7.020
 7649SOL    MW430917   4.825   1.373   7.044
 7650SOL     OW30918   4.123   0.031   7.394
 7650SOL    HW230919   4.051  -0.004   7.342
 7650SOL    HW330920   4.181   0.072   7.329
 7650SOL    MW430921   4.121   0.032   7.379
 7651SOL     OW30922   4.147   1.521   6.693
 7651SOL    HW230923   4.192   1.583   6.750
 7651SOL    HW330924   4.054   1.540   6.706
 7651SOL    MW430925   4.140   1.531   6.700
 7652SOL     OW30926   5.587   1.050   7.047
 7652SOL    HW230927   5.502   1.063   7.006
 7652SOL    HW330928   5.567   1.014   7.134
 7652SOL    MW430929   5.574   1.046   7.052
 7653SOL     OW30930   4.569   1.589   6.801
 7653SOL    HW230931   4.593   1.578   6.710
 7653SOL    HW330932   4.492   1.646   6.799
 7653SOL    MW430933   4.561   1.594   6.790
 7654SOL     OW30934   4.211   0.972   5.656
 7654SOL    HW230935   4.134   0.985   5.712
 7654SOL    HW330936   4.175   0.936   5.575
 7654SOL    MW430937   4.197   0.968   5.653
 7655SOL     OW30938   4.864   0.945   5.899
 7655SOL    HW230939   4.774   0.966   5.874
 7655SOL    HW330940   4.891   1.018   5.955
 7655SOL    MW430941   4.856   0.957   5.902
 7656SOL     OW30942   4.364   1.294   6.591
 7656SOL    HW230943   4.357   1.273   6.685
 7656SOL    HW330944   4.282   1.262   6.554
 7656SOL    MW430945   4.352   1.288   6.598
 7657SOL     OW30946   5.228   0.304   6.993
 7657SOL    HW230947   5.175   0.306   7.073
 7657SOL    HW330948   5.213   0.217   6.956
 7657SOL    MW430949   5.220   0.294   6.998
 7658SOL     OW30950   5.564   0.228   6.866
 7658SOL    HW230951   5.545   0.295   6.801
 7658SOL    HW330952   5.621   0.166   6.821
 7658SOL    MW430953   5.568   0.229   6.852
 7659SOL     OW30954   3.810   1.386   7.254
 7659SOL    HW230955   3.854   1.319   7.200
 7659SOL    HW330956   3.725   1.348   7.274
 7659SOL    MW430957   3.805   1.372   7.250
 7660SOL     OW30958   4.493   0.061   6.306
 7660SOL    HW230959   4.422   0.122   6.288
 7660SOL    HW330960   4.544   0.058   6.225
 7660SOL    MW430961   4.489   0.067   6.293
 7661SOL     OW30962   4.251   1.301   6.055
 7661SOL    HW230963   4.244   1.333   6.145
 7661SOL    HW330964   4.161   1.285   6.027
 7661SOL    MW430965   4.239   1.303   6.062
 7662SOL     OW30966   4.846   1.694   6.964
 7662SOL    HW230967   4.766   1.679   6.914
 7662SOL    HW330968   4.853   1.789   6.971
 7662SOL    MW430969   4.837   1.705   6.958
 7663SOL     OW30970   4.960   1.659   6.454
 7663SOL    HW230971   5.007   1.732   6.413
 7663SOL    HW330972   4.881   1.698   6.490
 7663SOL    MW430973   4.955   1.674   6.453
 7664SOL     OW30974   5.368   1.754   6.729
 7664SOL    HW230975   5.411   1.724   6.809
 7664SOL    HW330976   5.287   1.702   6.726
 7664SOL    MW430977   5.363   1.743   6.739
 7665SOL     OW30978   4.453   0.718   7.436
 7665SOL    HW230979   4.523   0.660   7.408
 7665SOL    HW330980   4.396   0.663   7.491
 7665SOL    MW430981   4.455   0.705   7.440
 7666SOL     OW30982   5.240   0.930   7.069
 7666SOL    HW230983   5.245   0.983   7.149
 7666SOL    HW330984   5.202   0.847   7.097
 7666SOL    MW430985   5.236   0.925   7.084
 7667SOL     OW30986   4.880   0.065   7.315
 7667SOL    HW230987   4.875  -0.028   7.296
 7667SOL    HW330988   4.963   0.076   7.361
 7667SOL    MW430989   4.888   0.054   7.319
 7668SOL     OW30990   4.254   0.585   5.769
 7668SOL    HW230991   4.220   0.641   5.839
 7668SOL    HW330992   4.325   0.535   5.809
 7668SOL    MW430993   4.260   0.586   5.783
 7669SOL     OW30994   5.350   1.336   6.591
 7669SOL    HW230995   5.385   1.318   6.504
 7669SOL    HW330996   5.255   1.337   6.578
 7669SOL    MW430997   5.342   1.333   6.578
 7670SOL     OW30998   4.779   0.984   6.960
 7670SOL    HW230999   4.822   1.019   7.038
 7670SOL    HW331000   4.762   1.061   6.906
 7670SOL    MW431001   4.782   0.999   6.963
 7671SOL     OW31002   5.310   0.471   5.833
 7671SOL    HW231003   5.302   0.542   5.770
 7671SOL    HW331004   5.328   0.515   5.916
 7671SOL    MW431005   5.311   0.485   5.835
 7672SOL     OW31006   4.170   0.126   6.262
 7672SOL    HW231007   4.220   0.169   6.193
 7672SOL    HW331008   4.085   0.170   6.262
 7672SOL    MW431009   4.167   0.139   6.253
 7673SOL     OW31010   3.929   1.188   7.122
 7673SOL    HW231011   3.957   1.141   7.200
 7673SOL    HW331012   3.850   1.143   7.093
 7673SOL    MW431013   3.922   1.177   7.128
 7674SOL     OW31014   4.437   0.515   7.089
 7674SOL    HW231015   4.409   0.603   7.113
 7674SOL    HW331016   4.406   0.459   7.160
 7674SOL    MW431017   4.429   0.518   7.101
 7675SOL     OW31018   4.979   0.733   5.808
 7675SOL    HW231019   5.026   0.751   5.727
 7675SOL    HW331020   4.945   0.817   5.836
 7675SOL    MW431021   4.981   0.747   5.801
 7676SOL     OW31022   4.092   0.911   6.302
 7676SOL    HW231023   4.150   0.967   6.250
 7676SOL    HW331024   4.136   0.826   6.304
 7676SOL    MW431025   4.105   0.908   6.295
 7677SOL     OW31026   5.232   0.263   6.139
 7677SOL    HW231027   5.154   0.213   6.164
 7677SOL    HW331028   5.203   0.354   6.139
 7677SOL    MW431029   5.218   0.267   6.142
 7678SOL     OW31030   4.818   0.225   6.298
 7678SOL    HW231031   4.838   0.300   6.242
 7678SOL    HW331032   4.798   0.264   6.383
 7678SOL    MW431033   4.819   0.241   6.302
 7679SOL     OW31034   4.714   1.475   5.630
 7679SOL    HW231035   4.741   1.553   5.582
 7679SOL    HW331036   4.621   1.490   5.649
 7679SOL    MW431037   4.705   1.488   5.626
 7680SOL     OW31038   5.578   0.998   7.317
 7680SOL    HW231039   5.491   0.978   7.353
 7680SOL    HW331040   5.632   0.924   7.342
 7680SOL    MW431041   5.573   0.987   7.325
 7681SOL     OW31042   3.799   1.511   6.474
 7681SOL    HW231043   3.831   1.515   6.565
 7681SOL    HW331044   3.704   1.519   6.482
 7681SOL    MW431045   3.791   1.514   6.487
 7682SOL     OW31046   3.754   0.637   6.021
 7682SOL    HW231047   3.694   0.609   6.091
 7682SOL    HW331048   3.828   0.577   6.027
 7682SOL    MW431049   3.756   0.626   6.030
 7683SOL     OW31050   5.322   1.849   7.455
 7683SOL    HW231051   5.367   1.773   7.420
 7683SOL    HW331052   5.360   1.862   7.542
 7683SOL    MW431053   5.332   1.842   7.461
 7684SOL     OW31054   4.922   1.368   6.181
 7684SOL    HW231055   4.945   1.319   6.259
 7684SOL    HW331056   5.003   1.410   6.153
 7684SOL    MW431057   4.935   1.368   6.188
 7685SOL     OW31058   4.180   0.376   6.910
 7685SOL    HW231059   4.213   0.457   6.950
 7685SOL    HW331060   4.153   0.402   6.822
 7685SOL    MW431061   4.179   0.390   6.904
 7686SOL     OW31062   4.134   0.343   6.646
 7686SOL    HW231063   4.164   0.257   6.617
 7686SOL    HW331064   4.039   0.336   6.649
 7686SOL    MW431065   4.126   0.332   6.644
 7687SOL     OW31066   4.963   0.552   7.337
 7687SOL    HW231067   5.015   0.487   7.290
 7687SOL    HW331068   4.921   0.603   7.267
 7687SOL    MW431069   4.964   0.549   7.320
 7688SOL     OW31070   5.062   0.347   7.198
 7688SOL    HW231071   4.969   0.331   7.185
 7688SOL    HW331072   5.088   0.285   7.266
 7688SOL    MW431073   5.052   0.337   7.205
 7689SOL     OW31074   4.277   0.121   6.537
 7689SOL    HW231075   4.287   0.030   6.563
 7689SOL    HW331076   4.233   0.117   6.452
 7689SOL    MW431077   4.273   0.109   6.529
 7690SOL     OW31078   4.371   1.736   7.083
 7690SOL    HW231079   4.288   1.721   7.128
 7690SOL    HW331080   4.430   1.669   7.118
 7690SOL    MW431081   4.369   1.726   7.093
 7691SOL     OW31082   5.428   0.443   6.708
 7691SOL    HW231083   5.361   0.476   6.768
 7691SOL    HW331084   5.471   0.521   6.674
 7691SOL    MW431085   5.426   0.458   6.712
 7692SOL     OW31086   5.606   1.163   6.678
 7692SOL    HW231087   5.599   1.103   6.603
 7692SOL    HW331088   5.532   1.223   6.667
 7692SOL    MW431089   5.596   1.163   6.667
 7693SOL     OW31090   4.988   1.025   6.596
 7693SOL    HW231091   5.002   0.997   6.687
 7693SOL    HW331092   5.074   1.056   6.568
 7693SOL    MW431093   5.001   1.026   6.605
 7694SOL     OW31094   5.071   0.520   6.875
 7694SOL    HW231095   5.092   0.521   6.782
 7694SOL    HW331096   5.116   0.442   6.908
 7694SOL    MW431097   5.078   0.510   6.867
 7695SOL     OW31098   5.564   0.651   7.417
 7695SOL    HW231099   5.601   0.596   7.486
 7695SOL    HW331100   5.589   0.608   7.335
 7695SOL    MW431101   5.571   0.639   7.416
 7696SOL     OW31102   5.111   0.949   7.468
 7696SOL    HW231103   5.177   0.897   7.422
 7696SOL    HW331104   5.131   0.936   7.561
 7696SOL    MW431105   5.122   0.940   7.475
 7697SOL     OW31106   5.062   0.035   5.817
 7697SOL    HW231107   5.136   0.079   5.860
 7697SOL    HW331108   4.986   0.089   5.839
 7697SOL    MW431109   5.062   0.047   5.825
 7698SOL     OW31110   5.122   0.810   6.095
 7698SOL    HW231111   5.037   0.780   6.065
 7698SOL    HW331112   5.114   0.817   6.190
 7698SOL    MW431113   5.110   0.808   6.104
 7699SOL     OW31114   4.198   1.273   6.826
 7699SOL    HW231115   4.210   1.300   6.917
 7699SOL    HW331116   4.179   1.354   6.779
 7699SOL    MW431117   4.197   1.288   6.831
 7700SOL     OW31118   4.482   0.253   6.649
 7700SOL    HW231119   4.455   0.255   6.740
 7700SOL    HW331120   4.412   0.205   6.604
 7700SOL    MW431121   4.470   0.249   6.656
 7701SOL     OW31122   4.336   1.745   6.811
 7701SOL    HW231123   4.388   1.822   6.788
 7701SOL    HW331124   4.345   1.737   6.906
 7701SOL    MW431125   4.345   1.752   6.822
 7702SOL     OW31126   5.238   1.330   7.043
 7702SOL    HW231127   5.223   1.259   7.106
 7702SOL    HW331128   5.284   1.288   6.971
 7702SOL    MW431129   5.244   1.314   7.043
 7703SOL     OW31130   4.312   1.061   7.160
 7703SOL    HW231131   4.349   1.066   7.072
 7703SOL    HW331132   4.351   1.134   7.207
 7703SOL    MW431133   4.322   1.071   7.155
 7704SOL     OW31134   4.492   1.104   6.972
 7704SOL    HW231135   4.551   1.050   7.025
 7704SOL    HW331136   4.507   1.076   6.882
 7704SOL    MW431137   4.502   1.093   6.968
 7705SOL     OW31138   4.495   0.476   5.821
 7705SOL    HW231139   4.568   0.525   5.784
 7705SOL    HW331140   4.511   0.385   5.795
 7705SOL    MW431141   4.507   0.471   5.814
 7706SOL     OW31142   5.303   1.593   7.144
 7706SOL    HW231143   5.345   1.578   7.229
 7706SOL    HW331144   5.294   1.506   7.106
 7706SOL    MW431145   5.307   1.581   7.151
 7707SOL     OW31146   4.963   0.072   6.735
 7707SOL    HW231147   5.018   0.081   6.657
 7707SOL    HW331148   5.018   0.106   6.806
 7707SOL    MW431149   4.977   0.077   6.734
 7708SOL     OW31150   3.970   0.985   5.919
 7708SOL    HW231151   3.907   1.001   5.848
 7708SOL    HW331152   3.917   0.948   5.990
 7708SOL    MW431153   3.955   0.982   5.919
 7709SOL     OW31154   4.326   1.339   5.778
 7709SOL    HW231155   4.341   1.315   5.870
 7709SOL    HW331156   4.234   1.317   5.762
 7709SOL    MW431157   4.316   1.332   5.788
 7710SOL     OW31158   4.865   1.570   5.930
 7710SOL    HW231159   4.873   1.488   5.881
 7710SOL    HW331160   4.784   1.609   5.897
 7710SOL    MW431161   4.855   1.565   5.920
 7711SOL     OW31162   4.124   1.728   6.499
 7711SOL    HW231163   4.128   1.639   6.534
 7711SOL    HW331164   4.150   1.719   6.408
 7711SOL    MW431165   4.127   1.716   6.491
 7712SOL     OW31166   4.741   1.206   6.742
 7712SOL    HW231167   4.673   1.140   6.758
 7712SOL    HW331168   4.759   1.200   6.649
 7712SOL    MW431169   4.734   1.197   6.733
 7713SOL     OW31170   3.830   1.481   6.993
 7713SOL    HW231171   3.820   1.439   7.079
 7713SOL    HW331172   3.751   1.534   6.983
 7713SOL    MW431173   3.819   1.482   7.004
 7714SOL     OW31174   4.734   0.345   6.563
 7714SOL    HW231175   4.664   0.297   6.608
 7714SOL    HW331176   4.766   0.408   6.627
 7714SOL    MW431177   4.729   0.347   6.577
 7715SOL     OW31178   4.385   0.781   7.183
 7715SOL    HW231179   4.378   0.876   7.171
 7715SOL    HW331180   4.394   0.770   7.278
 7715SOL    MW431181   4.386   0.793   7.193
 7716SOL     OW31182   4.106   1.296   7.441
 7716SOL    HW231183   4.178   1.298   7.378
 7716SOL    HW331184   4.076   1.205   7.440
 7716SOL    MW431185   4.111   1.285   7.433
 7717SOL     OW31186   5.190   0.059   6.908
 7717SOL    HW231187   5.261   0.005   6.872
 7717SOL    HW331188   5.189   0.038   7.001
 7717SOL    MW431189   5.199   0.050   6.916
 7718SOL     OW31190   5.390   1.589   7.392
 7718SOL    HW231191   5.363   1.586   7.483
 7718SOL    HW331192   5.486   1.593   7.395
 7718SOL    MW431193   5.400   1.589   7.404
 7719SOL     OW31194   4.201   0.451   6.376
 7719SOL    HW231195   4.272   0.399   6.339
 7719SOL    HW331196   4.187   0.416   6.463
 7719SOL    MW431197   4.209   0.440   6.383
 7720SOL     OW31198   3.756   1.786   7.448
 7720SOL    HW231199   3.806   1.764   7.370
 7720SOL    HW331200   3.764   1.881   7.456
 7720SOL    MW431201   3.764   1.795   7.439
 7721SOL     OW31202   4.517   1.544   6.452
 7721SOL    HW231203   4.445   1.481   6.465
 7721SOL    HW331204   4.478   1.629   6.470
 7721SOL    MW431205   4.501   1.547   6.455
 7722SOL     OW31206   4.837   0.392   6.100
 7722SOL    HW231207   4.859   0.329   6.032
 7722SOL    HW331208   4.742   0.384   6.111
 7722SOL    MW431209   4.827   0.383   6.092
 7723SOL     OW31210   3.922   0.082   6.032
 7723SOL    HW231211   3.993   0.103   5.971
 7723SOL    HW331212   3.876   0.010   5.990
 7723SOL    MW431213   3.926   0.076   6.018
 7724SOL     OW31214   3.753   0.549   7.175
 7724SOL    HW231215   3.817   0.615   7.150
 7724SOL    HW331216   3.672   0.576   7.132
 7724SOL    MW431217   3.751   0.561   7.167
 7725SOL     OW31218   5.491   1.456   6.132
 7725SOL    HW231219   5.461   1.389   6.193
 7725SOL    HW331220   5.585   1.462   6.146
 7725SOL    MW431221   5.499   1.448   6.142
 7726SOL     OW31222   5.047   1.133   6.062
 7726SOL    HW231223   5.019   1.219   6.095
 7726SOL    HW331224   5.075   1.149   5.972
 7726SOL    MW431225   5.047   1.147   6.054
 7727SOL     OW31226   4.709   0.053   6.115
 7727SOL    HW231227   4.746   0.112   6.180
 7727SOL    HW331228   4.686   0.109   6.041
 7727SOL    MW431229   4.710   0.068   6.114
 7728SOL     OW31230   5.562   0.935   6.537
 7728SOL    HW231231   5.553   0.967   6.448
 7728SOL    HW331232   5.515   0.851   6.537
 7728SOL    MW431233   5.555   0.928   6.527
 7729SOL     OW31234   3.938   0.775   7.116
 7729SOL    HW231235   3.959   0.844   7.054
 7729SOL    HW331236   4.018   0.722   7.121
 7729SOL    MW431237   3.951   0.776   7.110
 7730SOL     OW31238   5.474   0.866   6.238
 7730SOL    HW231239   5.568   0.855   6.226
 7730SOL    HW331240   5.450   0.938   6.179
 7730SOL    MW431241   5.484   0.874   6.229
 7731SOL     OW31242   3.923   0.790   7.383
 7731SOL    HW231243   3.849   0.734   7.409
 7731SOL    HW331244   3.918   0.793   7.288
 7731SOL    MW431245   3.912   0.783   7.373
 7732SOL     OW31246   4.089   0.077   6.833
 7732SOL    HW231247   4.132   0.161   6.853
 7732SOL    HW331248   4.162   0.015   6.826
 7732SOL    MW431249   4.104   0.080   6.834
 7733SOL     OW31250   4.130   0.744   6.011
 7733SOL    HW231251   4.130   0.839   5.996
 7733SOL    HW331252   4.207   0.728   6.065
 7733SOL    MW431253   4.140   0.755   6.016
 7734SOL     OW31254   4.906   0.603   7.075
 7734SOL    HW231255   4.942   0.576   6.991
 7734SOL    HW331256   4.819   0.637   7.054
 7734SOL    MW431257   4.900   0.604   7.062
 7735SOL     OW31258   3.889   0.475   6.300
 7735SOL    HW231259   3.951   0.482   6.373
 7735SOL    HW331260   3.889   0.382   6.277
 7735SOL    MW431261   3.897   0.464   6.307
 7736SOL     OW31262   5.436   1.815   5.832
 7736SOL    HW231263   5.503   1.848   5.772
 7736SOL    HW331264   5.393   1.894   5.866
 7736SOL    MW431265   5.438   1.830   5.828
 7737SOL     OW31266   4.571   0.736   6.784
 7737SOL    HW231267   4.529   0.654   6.760
 7737SOL    HW331268   4.572   0.735   6.880
 7737SOL    MW431269   4.564   0.725   6.793
 7738SOL     OW31270   5.242   1.869   7.183
 7738SOL    HW231271   5.245   1.775   7.166
 7738SOL    HW331272   5.265   1.877   7.275
 7738SOL    MW431273   5.245   1.857   7.193
 7739SOL     OW31274   4.375   0.206   6.889
 7739SOL    HW231275   4.306   0.269   6.910
 7739SOL    HW331276   4.402   0.170   6.974
 7739SOL    MW431277   4.369   0.209   6.902
 7740SOL     OW31278   3.758   1.047   5.758
 7740SOL    HW231279   3.727   1.112   5.821
 7740SOL    HW331280   3.707   0.969   5.777
 7740SOL    MW431281   3.748   1.044   5.768
 7741SOL     OW31282   5.170   0.059   6.506
 7741SOL    HW231283   5.258   0.068   6.543
 7741SOL    HW331284   5.180   0.000   6.432
 7741SOL    MW431285   5.184   0.053   6.500
 7742SOL     OW31286   5.202   0.798   6.350
 7742SOL    HW231287   5.282   0.813   6.299
 7742SOL    HW331288   5.195   0.703   6.356
 7742SOL    MW431289   5.211   0.787   6.345
 7743SOL     OW31290   4.342   1.847   5.700
 7743SOL    HW231291   4.247   1.847   5.692
 7743SOL    HW331292   4.358   1.793   5.778
 7743SOL    MW431293   4.332   1.841   5.709
 7744SOL     OW31294   4.652   0.724   7.047
 7744SOL    HW231295   4.721   0.791   7.044
 7744SOL    HW331296   4.585   0.762   7.103
 7744SOL    MW431297   4.653   0.737   7.054
 7745SOL     OW31298   4.070   1.024   7.295
 7745SOL    HW231299   4.024   0.940   7.297
 7745SOL    HW331300   4.127   1.018   7.219
 7745SOL    MW431301   4.072   1.012   7.287
 7746SOL     OW31302   5.187   0.667   5.615
 7746SOL    HW231303   5.115   0.643   5.557
 7746SOL    HW331304   5.253   0.704   5.557
 7746SOL    MW431305   5.186   0.669   5.600
 7747SOL     OW31306   4.321   1.399   6.296
 7747SOL    HW231307   4.386   1.332   6.317
 7747SOL    HW331308   4.373   1.476   6.273
 7747SOL    MW431309   4.336   1.401   6.295
 7748SOL     OW31310   4.582   0.564   6.426
 7748SOL    HW231311   4.522   0.582   6.498
 7748SOL    HW331312   4.616   0.476   6.445
 7748SOL    MW431313   4.578   0.554   6.439
 7749SOL     OW31314   5.523   0.063   7.095
 7749SOL    HW231315   5.444   0.109   7.123
 7749SOL    HW331316   5.558   0.117   7.024
 7749SOL    MW431317   5.517   0.076   7.089
 7750SOL     OW31318   4.807   1.147   6.445
 7750SOL    HW231319   4.899   1.128   6.463
 7750SOL    HW331320   4.780   1.077   6.385
 7750SOL    MW431321   4.815   1.135   6.439
 7751SOL     OW31322   4.600   0.967   5.800
 7751SOL    HW231323   4.586   0.879   5.765
 7751SOL    HW331324   4.551   1.024   5.741
 7751SOL    MW431325   4.592   0.962   5.788
 7752SOL     OW31326   5.081   1.385   6.541
 7752SOL    HW231327   5.054   1.469   6.506
 7752SOL    HW331328   5.041   1.380   6.628
 7752SOL    MW431329   5.074   1.394   6.547
 7753SOL     OW31330   5.000   1.333   6.809
 7753SOL    HW231331   5.011   1.300   6.898
 7753SOL    HW331332   4.919   1.292   6.778
 7753SOL    MW431333   4.990   1.325   6.815
 7754SOL     OW31334   4.013   0.691   6.579
 7754SOL    HW231335   3.963   0.690   6.660
 7754SOL    HW331336   4.033   0.783   6.563
 7754SOL    MW431337   4.009   0.703   6.587
 7755SOL     OW31338   5.080   1.455   7.341
 7755SOL    HW231339   5.080   1.549   7.357
 7755SOL    HW331340   5.125   1.445   7.257
 7755SOL    MW431341   5.086   1.465   7.332
 7756SOL     OW31342   5.319   0.173   5.902
 7756SOL    HW231343   5.312   0.177   5.997
 7756SOL    HW331344   5.331   0.264   5.875
 7756SOL    MW431345   5.320   0.186   5.910
 7757SOL     OW31346   4.608   0.736   6.016
 7757SOL    HW231347   4.588   0.722   5.923
 7757SOL    HW331348   4.701   0.715   6.023
 7757SOL    MW431349   4.618   0.731   6.005
 7758SOL     OW31350   3.935   0.359   7.320
 7758SOL    HW231351   3.892   0.418   7.257
 7758SOL    HW331352   4.003   0.414   7.360
 7758SOL    MW431353   3.939   0.374   7.317
 7759SOL     OW31354   5.047   0.979   6.865
 7759SOL    HW231355   5.110   0.976   6.938
 7759SOL    HW331356   4.963   0.997   6.907
 7759SOL    MW431357   5.043   0.981   6.880
 7760SOL     OW31358   4.591   1.694   6.054
 7760SOL    HW231359   4.649   1.765   6.081
 7760SOL    HW331360   4.614   1.622   6.112
 7760SOL    MW431361   4.602   1.694   6.065
 7761SOL     OW31362   5.386   0.156   6.644
 7761SOL    HW231363   5.431   0.074   6.663
 7761SOL    HW331364   5.406   0.212   6.720
 7761SOL    MW431365   5.396   0.152   6.656
 7762SOL     OW31366   3.834  -0.001   6.743
 7762SOL    HW231367   3.825   0.000   6.648
 7762SOL    HW331368   3.928   0.011   6.758
 7762SOL    MW431369   3.846   0.002   6.734
 7763SOL     OW31370   5.471   1.192   6.363
 7763SOL    HW231371   5.450   1.138   6.286
 7763SOL    HW331372   5.567   1.190   6.367
 7763SOL    MW431373   5.480   1.185   6.352
 7764SOL     OW31374   4.163   1.337   7.106
 7764SOL    HW231375   4.084   1.287   7.129
 7764SOL    HW331376   4.233   1.296   7.156
 7764SOL    MW431377   4.161   1.325   7.116
 7765SOL     OW31378   4.047   0.126   5.789
 7765SOL    HW231379   3.976   0.181   5.757
 7765SOL    HW331380   4.089   0.092   5.710
 7765SOL    MW431381   4.043   0.128   5.775
 7766SOL     OW31382   5.171   0.623   6.625
 7766SOL    HW231383   5.094   0.669   6.591
 7766SOL    HW331384   5.228   0.692   6.659
 7766SOL    MW431385   5.168   0.638   6.625
 7767SOL     OW31386   3.803   0.225   5.638
 7767SOL    HW231387   3.770   0.304   5.682
 7767SOL    HW331388   3.858   0.258   5.567
 7767SOL    MW431389   3.806   0.239   5.635
 7768SOL     OW31390   3.837   1.482   5.827
 7768SOL    HW231391   3.854   1.566   5.869
 7768SOL    HW331392   3.872   1.491   5.739
 7768SOL    MW431393   3.842   1.495   5.821
 7769SOL     OW31394   5.109   1.571   6.044
 7769SOL    HW231395   5.172   1.561   5.973
 7769SOL    HW331396   5.026   1.591   5.999
 7769SOL    MW431397   5.106   1.572   6.029
 7770SOL     OW31398   5.472   2.707   0.257
 7770SOL    HW231399   5.513   2.649   0.322
 7770SOL    HW331400   5.379   2.699   0.274
 7770SOL    MW431401   5.466   2.699   0.267
 7771SOL     OW31402   5.338   2.639   1.252
 7771SOL    HW231403   5.293   2.706   1.303
 7771SOL    HW331404   5.426   2.675   1.238
 7771SOL    MW431405   5.344   2.652   1.256
 7772SOL     OW31406   4.266   2.890   0.486
 7772SOL    HW231407   4.356   2.865   0.470
 7772SOL    HW331408   4.262   2.983   0.463
 7772SOL    MW431409   4.278   2.899   0.481
 7773SOL     OW31410   5.382   3.593   0.628
 7773SOL    HW231411   5.394   3.539   0.706
 7773SOL    HW331412   5.419   3.541   0.557
 7773SOL    MW431413   5.388   3.578   0.629
 7774SOL     OW31414   4.761   3.478   1.629
 7774SOL    HW231415   4.802   3.514   1.550
 7774SOL    HW331416   4.796   3.389   1.636
 7774SOL    MW431417   4.772   3.471   1.620
 7775SOL     OW31418   5.318   3.033   1.233
 7775SOL    HW231419   5.239   2.998   1.191
 7775SOL    HW331420   5.345   3.105   1.177
 7775SOL    MW431421   5.311   3.038   1.220
 7776SOL     OW31422   4.550   2.346   0.499
 7776SOL    HW231423   4.525   2.434   0.527
 7776SOL    HW331424   4.547   2.349   0.403
 7776SOL    MW431425   4.546   2.358   0.491
 7777SOL     OW31426   3.992   2.374   0.427
 7777SOL    HW231427   4.024   2.462   0.409
 7777SOL    HW331428   3.980   2.372   0.522
 7777SOL    MW431429   3.995   2.386   0.439
 7778SOL     OW31430   4.070   2.787   1.328
 7778SOL    HW231431   4.133   2.734   1.279
 7778SOL    HW331432   4.051   2.861   1.271
 7778SOL    MW431433   4.076   2.789   1.315
 7779SOL     OW31434   4.391   2.129   0.514
 7779SOL    HW231435   4.449   2.205   0.516
 7779SOL    HW331436   4.326   2.150   0.447
 7779SOL    MW431437   4.390   2.141   0.505
 7780SOL     OW31438   4.478   3.056   0.689
 7780SOL    HW231439   4.558   3.059   0.741
 7780SOL    HW331440   4.506   3.023   0.603
 7780SOL    MW431441   4.492   3.052   0.684
 7781SOL     OW31442   4.503   3.397   1.592
 7781SOL    HW231443   4.587   3.423   1.631
 7781SOL    HW331444   4.527   3.341   1.518
 7781SOL    MW431445   4.517   3.393   1.587
 7782SOL     OW31446   4.255   2.560   0.680
 7782SOL    HW231447   4.240   2.480   0.731
 7782SOL    HW331448   4.337   2.595   0.714
 7782SOL    MW431449   4.263   2.552   0.692
 7783SOL     OW31450   4.592   3.246   1.365
 7783SOL    HW231451   4.556   3.312   1.305
 7783SOL    HW331452   4.520   3.184   1.378
 7783SOL    MW431453   4.578   3.246   1.359
 7784SOL     OW31454   4.397   2.386   1.057
 7784SOL    HW231455   4.303   2.382   1.075
 7784SOL    HW331456   4.427   2.295   1.066
 7784SOL    MW431457   4.388   2.374   1.060
 7785SOL     OW31458   4.143   2.800   0.961
 7785SOL    HW231459   4.098   2.807   0.877
 7785SOL    HW331460   4.123   2.883   1.005
 7785SOL    MW431461   4.135   2.812   0.955
 7786SOL     OW31462   3.840   3.646   0.836
 7786SOL    HW231463   3.929   3.638   0.871
 7786SOL    HW331464   3.804   3.558   0.841
 7786SOL    MW431465   3.847   3.633   0.841
 7787SOL     OW31466   5.105   3.038   0.205
 7787SOL    HW231467   5.023   3.074   0.171
 7787SOL    HW331468   5.173   3.081   0.154
 7787SOL    MW431469   5.103   3.048   0.193
 7788SOL     OW31470   4.104   3.173   0.871
 7788SOL    HW231471   4.080   3.226   0.947
 7788SOL    HW331472   4.160   3.231   0.819
 7788SOL    MW431473   4.108   3.188   0.874
 7789SOL     OW31474   4.666   2.817   0.681
 7789SOL    HW231475   4.580   2.804   0.721
 7789SOL    HW331476   4.719   2.744   0.713
 7789SOL    MW431477   4.662   2.806   0.690
 7790SOL     OW31478   4.074   3.469   1.466
 7790SOL    HW231479   3.982   3.445   1.451
 7790SOL    HW331480   4.118   3.386   1.483
 7790SOL    MW431481   4.068   3.454   1.465
 7791SOL     OW31482   4.657   3.179   0.398
 7791SOL    HW231483   4.634   3.241   0.466
 7791SOL    HW331484   4.614   3.097   0.424
 7791SOL    MW431485   4.649   3.175   0.409
 7792SOL     OW31486   5.530   2.180   0.854
 7792SOL    HW231487   5.467   2.160   0.923
 7792SOL    HW331488   5.520   2.109   0.791
 7792SOL    MW431489   5.520   2.167   0.855
 7793SOL     OW31490   4.154   2.152   0.366
 7793SOL    HW231491   4.128   2.114   0.282
 7793SOL    HW331492   4.091   2.222   0.382
 7793SOL    MW431493   4.143   2.155   0.357
 7794SOL     OW31494   3.989   3.113   0.403
 7794SOL    HW231495   3.937   3.181   0.359
 7794SOL    HW331496   3.986   3.039   0.343
 7794SOL    MW431497   3.981   3.112   0.390
 7795SOL     OW31498   4.651   3.576   0.181
 7795SOL    HW231499   4.606   3.592   0.264
 7795SOL    HW331500   4.582   3.541   0.123
 7795SOL    MW431501   4.637   3.573   0.183
 7796SOL     OW31502   5.586   2.349   0.156
 7796SOL    HW231503   5.495   2.351   0.184
 7796SOL    HW331504   5.631   2.411   0.214
 7796SOL    MW431505   5.579   2.357   0.166
 7797SOL     OW31506   5.331   2.952   0.506
 7797SOL    HW231507   5.241   2.952   0.541
 7797SOL    HW331508   5.324   2.998   0.423
 7797SOL    MW431509   5.318   2.958   0.500
 7798SOL     OW31510   5.131   2.587   1.578
 7798SOL    HW231511   5.200   2.525   1.555
 7798SOL    HW331512   5.056   2.561   1.525
 7798SOL    MW431513   5.131   2.574   1.569
 7799SOL     OW31514   3.872   3.467   1.130
 7799SOL    HW231515   3.855   3.413   1.207
 7799SOL    HW331516   3.860   3.557   1.160
 7799SOL    MW431517   3.869   3.471   1.144
 7800SOL     OW31518   4.867   2.974   1.570
 7800SOL    HW231519   4.852   3.067   1.555
 7800SOL    HW331520   4.962   2.964   1.570
 7800SOL    MW431521   4.876   2.984   1.567
 7801SOL     OW31522   4.663   2.398   1.771
 7801SOL    HW231523   4.753   2.399   1.738
 7801SOL    HW331524   4.622   2.323   1.729
 7801SOL    MW431525   4.669   2.388   1.762
 7802SOL     OW31526   5.238   2.930   0.898
 7802SOL    HW231527   5.241   2.864   0.829
 7802SOL    HW331528   5.323   2.973   0.894
 7802SOL    MW431529   5.250   2.926   0.889
 7803SOL     OW31530   4.858   2.533   0.467
 7803SOL    HW231531   4.884   2.557   0.378
 7803SOL    HW331532   4.840   2.440   0.463
 7803SOL    MW431533   4.860   2.525   0.454
 7804SOL     OW31534   5.523   3.153   0.318
 7804SOL    HW231535   5.479   3.194   0.393
 7804SOL    HW331536   5.580   3.221   0.283
 7804SOL    MW431537   5.525   3.167   0.323
 7805SOL     OW31538   4.443   2.202   1.721
 7805SOL    HW231539   4.453   2.128   1.661
 7805SOL    HW331540   4.479   2.171   1.804
 7805SOL    MW431541   4.449   2.188   1.723
 7806SOL     OW31542   4.179   3.569   0.636
 7806SOL    HW231543   4.211   3.657   0.614
 7806SOL    HW331544   4.132   3.541   0.558
 7806SOL    MW431545   4.178   3.577   0.623
 7807SOL     OW31546   5.563   1.931   0.685
 7807SOL    HW231547   5.617   1.882   0.747
 7807SOL    HW331548   5.506   1.865   0.646
 7807SOL    MW431549   5.563   1.915   0.687
 7808SOL     OW31550   3.895   3.629   0.213
 7808SOL    HW231551   3.924   3.719   0.205
 7808SOL    HW331552   3.845   3.612   0.134
 7808SOL    MW431553   3.893   3.637   0.202
 7809SOL     OW31554   4.682   1.884   1.098
 7809SOL    HW231555   4.641   1.962   1.060
 7809SOL    HW331556   4.776   1.902   1.093
 7809SOL    MW431557   4.688   1.896   1.093
 7810SOL     OW31558   5.299   3.437   0.184
 7810SOL    HW231559   5.347   3.506   0.230
 7810SOL    HW331560   5.220   3.481   0.153
 7810SOL    MW431561   5.294   3.451   0.187
 7811SOL     OW31562   4.697   2.562   0.128
 7811SOL    HW231563   4.699   2.509   0.049
 7811SOL    HW331564   4.785   2.599   0.134
 7811SOL    MW431565   4.709   2.561   0.117
 7812SOL     OW31566   5.311   2.488   0.464
 7812SOL    HW231567   5.350   2.488   0.551
 7812SOL    HW331568   5.252   2.564   0.464
 7812SOL    MW431569   5.308   2.499   0.475
 7813SOL     OW31570   4.628   2.855   1.593
 7813SOL    HW231571   4.605   2.835   1.683
 7813SOL    HW331572   4.713   2.899   1.598
 7813SOL    MW431573   4.635   2.858   1.605
 7814SOL     OW31574   4.708   1.992   1.353
 7814SOL    HW231575   4.714   1.954   1.266
 7814SOL    HW331576   4.697   2.086   1.338
 7814SOL    MW431577   4.709   2.000   1.341
 7815SOL     OW31578   4.797   2.481   1.187
 7815SOL    HW231579   4.872   2.510   1.134
 7815SOL    HW331580   4.729   2.546   1.171
 7815SOL    MW431581   4.798   2.493   1.177
 7816SOL     OW31582   5.347   2.449   1.464
 7816SOL    HW231583   5.328   2.358   1.443
 7816SOL    HW331584   5.325   2.498   1.385
 7816SOL    MW431585   5.342   2.442   1.451
 7817SOL     OW31586   5.489   3.543   1.368
 7817SOL    HW231587   5.417   3.505   1.419
 7817SOL    HW331588   5.506   3.628   1.409
 7817SOL    MW431589   5.483   3.548   1.380
 7818SOL     OW31590   4.794   2.187   1.570
 7818SOL    HW231591   4.760   2.226   1.489
 7818SOL    HW331592   4.772   2.095   1.563
 7818SOL    MW431593   4.787   2.180   1.560
 7819SOL     OW31594   5.203   3.001   1.646
 7819SOL    HW231595   5.285   3.042   1.676
 7819SOL    HW331596   5.166   2.963   1.726
 7819SOL    MW431597   5.209   3.002   1.661
 7820SOL     OW31598   5.498   2.374   0.630
 7820SOL    HW231599   5.587   2.343   0.647
 7820SOL    HW331600   5.441   2.314   0.678
 7820SOL    MW431601   5.501   2.362   0.639
 7821SOL     OW31602   3.924   2.088   0.659
 7821SOL    HW231603   3.915   2.028   0.585
 7821SOL    HW331604   3.857   2.059   0.722
 7821SOL    MW431605   3.914   2.075   0.657
 7822SOL     OW31606   4.867   3.181   0.220
 7822SOL    HW231607   4.817   3.183   0.302
 7822SOL    HW331608   4.801   3.199   0.152
 7822SOL    MW431609   4.853   3.183   0.222
 7823SOL     OW31610   3.871   2.261   1.022
 7823SOL    HW231611   3.843   2.352   1.031
 7823SOL    HW331612   3.808   2.222   0.961
 7823SOL    MW431613   3.858   2.267   1.016
 7824SOL     OW31614   4.330   3.599   0.328
 7824SOL    HW231615   4.251   3.557   0.361
 7824SOL    HW331616   4.396   3.582   0.395
 7824SOL    MW431617   4.329   3.591   0.341
 7825SOL     OW31618   5.458   3.119   1.725
 7825SOL    HW231619   5.508   3.045   1.757
 7825SOL    HW331620   5.404   3.146   1.800
 7825SOL    MW431621   5.458   3.113   1.738
 7826SOL     OW31622   4.466   3.014   0.035
 7826SOL    HW231623   4.388   2.960   0.022
 7826SOL    HW331624   4.437   3.087   0.088
 7826SOL    MW431625   4.452   3.016   0.040
 7827SOL     OW31626   5.592   2.754   1.227
 7827SOL    HW231627   5.608   2.792   1.140
 7827SOL    HW331628   5.626   2.820   1.288
 7827SOL    MW431629   5.599   2.767   1.223
 7828SOL     OW31630   5.384   3.463   0.896
 7828SOL    HW231631   5.413   3.530   0.957
 7828SOL    HW331632   5.365   3.387   0.951
 7828SOL    MW431633   5.386   3.463   0.911
 7829SOL     OW31634   5.047   3.530   0.103
 7829SOL    HW231635   4.973   3.493   0.153
 7829SOL    HW331636   5.055   3.620   0.136
 7829SOL    MW431637   5.038   3.537   0.115
 7830SOL     OW31638   3.855   2.536   1.192
 7830SOL    HW231639   3.917   2.566   1.258
 7830SOL    HW331640   3.789   2.605   1.186
 7830SOL    MW431641   3.854   2.549   1.199
 7831SOL     OW31642   5.271   3.204   0.045
 7831SOL    HW231643   5.218   3.253  -0.019
 7831SOL    HW331644   5.302   3.270   0.106
 7831SOL    MW431645   5.269   3.218   0.043
 7832SOL     OW31646   4.496   2.093   0.100
 7832SOL    HW231647   4.444   2.013   0.088
 7832SOL    HW331648   4.583   2.070   0.068
 7832SOL    MW431649   4.499   2.079   0.094
 7833SOL     OW31650   3.950   3.645   1.644
 7833SOL    HW231651   3.924   3.713   1.582
 7833SOL    HW331652   3.998   3.582   1.592
 7833SOL    MW431653   3.952   3.645   1.630
 7834SOL     OW31654   4.002   2.964   1.151
 7834SOL    HW231655   4.055   3.039   1.176
 7834SOL    HW331656   3.921   3.002   1.117
 7834SOL    MW431657   3.998   2.979   1.151
 7835SOL     OW31658   4.542   2.868   1.139
 7835SOL    HW231659   4.570   2.777   1.151
 7835SOL    HW331660   4.471   2.862   1.075
 7835SOL    MW431661   4.535   2.856   1.134
 7836SOL     OW31662   3.857   2.733   0.557
 7836SOL    HW231663   3.948   2.748   0.584
 7836SOL    HW331664   3.860   2.654   0.503
 7836SOL    MW431665   3.869   2.725   0.555
 7837SOL     OW31666   4.093   2.441   1.811
 7837SOL    HW231667   4.040   2.521   1.818
 7837SOL    HW331668   4.163   2.453   1.876
 7837SOL    MW431669   4.095   2.454   1.819
 7838SOL     OW31670   4.479   1.991   1.518
 7838SOL    HW231671   4.456   1.899   1.520
 7838SOL    HW331672   4.565   1.993   1.475
 7838SOL    MW431673   4.486   1.981   1.514
 7839SOL     OW31674   4.163   2.515   1.557
 7839SOL    HW231675   4.243   2.565   1.543
 7839SOL    HW331676   4.154   2.509   1.652
 7839SOL    MW431677   4.172   2.521   1.567
 7840SOL     OW31678   4.484   3.665   0.931
 7840SOL    HW231679   4.573   3.680   0.961
 7840SOL    HW331680   4.479   3.712   0.847
 7840SOL    MW431681   4.494   3.673   0.924
 7841SOL     OW31682   5.140   2.040   1.828
 7841SOL    HW231683   5.196   1.967   1.854
 7841SOL    HW331684   5.110   2.078   1.910
 7841SOL    MW431685   5.144   2.035   1.841
 7842SOL     OW31686   3.865   3.345   0.596
 7842SOL    HW231687   3.837   3.384   0.678
 7842SOL    HW331688   3.885   3.254   0.618
 7842SOL    MW431689   3.863   3.337   0.609
 7843SOL     OW31690   4.698   3.388   0.631
 7843SOL    HW231691   4.781   3.342   0.615
 7843SOL    HW331692   4.688   3.387   0.727
 7843SOL    MW431693   4.708   3.381   0.641
 7844SOL     OW31694   5.530   2.533   0.945
 7844SOL    HW231695   5.619   2.563   0.927
 7844SOL    HW331696   5.510   2.473   0.874
 7844SOL    MW431697   5.539   2.530   0.934
 7845SOL     OW31698   5.381   2.712   1.825
 7845SOL    HW231699   5.436   2.636   1.806
 7845SOL    HW331700   5.383   2.720   1.920
 7845SOL    MW431701   5.389   2.703   1.833
 7846SOL     OW31702   4.431   3.445   0.036
 7846SOL    HW231703   4.371   3.514   0.006
 7846SOL    HW331704   4.376   3.387   0.089
 7846SOL    MW431705   4.415   3.447   0.038
 7847SOL     OW31706   4.869   2.090   0.259
 7847SOL    HW231707   4.802   2.066   0.196
 7847SOL    HW331708   4.934   2.139   0.208
 7847SOL    MW431709   4.869   2.092   0.244
 7848SOL     OW31710   4.676   2.274   1.344
 7848SOL    HW231711   4.595   2.315   1.372
 7848SOL    HW331712   4.723   2.342   1.296
 7848SOL    MW431713   4.671   2.289   1.342
 7849SOL     OW31714   4.936   2.612   0.967
 7849SOL    HW231715   4.949   2.706   0.977
 7849SOL    HW331716   4.897   2.602   0.881
 7849SOL    MW431717   4.932   2.623   0.957
 7850SOL     OW31718   4.388   2.807   0.771
 7850SOL    HW231719   4.299   2.798   0.804
 7850SOL    HW331720   4.392   2.897   0.739
 7850SOL    MW431721   4.377   2.818   0.771
 7851SOL     OW31722   5.187   2.390   0.766
 7851SOL    HW231723   5.132   2.311   0.765
 7851SOL    HW331724   5.169   2.431   0.850
 7851SOL    MW431725   5.177   2.385   0.775
 7852SOL     OW31726   4.158   2.077   1.583
 7852SOL    HW231727   4.079   2.095   1.635
 7852SOL    HW331728   4.153   2.139   1.510
 7852SOL    MW431729   4.148   2.087   1.580
 7853SOL     OW31730   4.806   2.594   0.723
 7853SOL    HW231731   4.743   2.526   0.747
 7853SOL    HW331732   4.826   2.575   0.631
 7853SOL    MW431733   4.800   2.581   0.715
 7854SOL     OW31734   4.062   3.489   0.425
 7854SOL    HW231735   4.023   3.536   0.351
 7854SOL    HW331736   3.996   3.424   0.450
 7854SOL    MW431737   4.049   3.487   0.419
 7855SOL     OW31738   4.554   2.898   0.449
 7855SOL    HW231739   4.556   2.872   0.356
 7855SOL    HW331740   4.612   2.835   0.492
 7855SOL    MW431741   4.562   2.887   0.443
 7856SOL     OW31742   5.107   3.458   1.221
 7856SOL    HW231743   5.032   3.504   1.259
 7856SOL    HW331744   5.089   3.365   1.238
 7856SOL    MW431745   5.096   3.452   1.229
 7857SOL     OW31746   5.111   3.666   0.651
 7857SOL    HW231747   5.054   3.619   0.590
 7857SOL    HW331748   5.197   3.627   0.638
 7857SOL    MW431749   5.114   3.657   0.641
 7858SOL     OW31750   5.064   2.142   0.782
 7858SOL    HW231751   5.092   2.074   0.843
 7858SOL    HW331752   4.978   2.113   0.752
 7858SOL    MW431753   5.057   2.129   0.786
 7859SOL     OW31754   3.869   3.076   0.716
 7859SOL    HW231755   3.933   3.108   0.779
 7859SOL    HW331756   3.918   3.012   0.664
 7859SOL    MW431757   3.884   3.072   0.717
 7860SOL     OW31758   4.369   3.152   1.698
 7860SOL    HW231759   4.417   3.235   1.685
 7860SOL    HW331760   4.426   3.100   1.754
 7860SOL    MW431761   4.383   3.156   1.704
 7861SOL     OW31762   3.945   3.394   1.838
 7861SOL    HW231763   4.001   3.318   1.853
 7861SOL    HW331764   3.894   3.372   1.760
 7861SOL    MW431765   3.945   3.381   1.829
 7862SOL     OW31766   5.044   2.246   0.117
 7862SOL    HW231767   5.017   2.312   0.053
 7862SOL    HW331768   5.114   2.289   0.167
 7862SOL    MW431769   5.049   2.259   0.114
 7863SOL     OW31770   4.712   1.951   0.054
 7863SOL    HW231771   4.768   1.943  -0.024
 7863SOL    HW331772   4.689   1.861   0.076
 7863SOL    MW431773   4.717   1.938   0.047
 7864SOL     OW31774   5.217   2.802   0.259
 7864SOL    HW231775   5.184   2.891   0.249
 7864SOL    HW331776   5.182   2.773   0.344
 7864SOL    MW431777   5.207   2.811   0.270
 7865SOL     OW31778   4.830   3.231   1.447
 7865SOL    HW231779   4.741   3.237   1.415
 7865SOL    HW331780   4.874   3.310   1.415
 7865SOL    MW431781   4.825   3.241   1.439
 7866SOL     OW31782   4.123   1.899   1.789
 7866SOL    HW231783   4.051   1.864   1.737
 7866SOL    HW331784   4.181   1.940   1.724
 7866SOL    MW431785   4.121   1.900   1.774
 7867SOL     OW31786   4.147   3.389   1.088
 7867SOL    HW231787   4.192   3.451   1.145
 7867SOL    HW331788   4.054   3.408   1.101
 7867SOL    MW431789   4.140   3.399   1.095
 7868SOL     OW31790   5.587   2.918   1.442
 7868SOL    HW231791   5.502   2.931   1.401
 7868SOL    HW331792   5.567   2.882   1.529
 7868SOL    MW431793   5.574   2.914   1.447
 7869SOL     OW31794   4.569   3.457   1.196
 7869SOL    HW231795   4.593   3.446   1.105
 7869SOL    HW331796   4.492   3.514   1.194
 7869SOL    MW431797   4.561   3.462   1.185
 7870SOL     OW31798   4.211   2.840   0.051
 7870SOL    HW231799   4.134   2.853   0.107
 7870SOL    HW331800   4.175   2.804  -0.030
 7870SOL    MW431801   4.197   2.836   0.048
 7871SOL     OW31802   4.864   2.813   0.294
 7871SOL    HW231803   4.774   2.834   0.269
 7871SOL    HW331804   4.891   2.886   0.350
 7871SOL    MW431805   4.856   2.825   0.297
 7872SOL     OW31806   4.364   3.162   0.986
 7872SOL    HW231807   4.357   3.141   1.080
 7872SOL    HW331808   4.282   3.130   0.949
 7872SOL    MW431809   4.352   3.156   0.993
 7873SOL     OW31810   5.228   2.172   1.388
 7873SOL    HW231811   5.175   2.174   1.468
 7873SOL    HW331812   5.213   2.085   1.351
 7873SOL    MW431813   5.220   2.162   1.393
 7874SOL     OW31814   5.564   2.096   1.261
 7874SOL    HW231815   5.545   2.163   1.196
 7874SOL    HW331816   5.621   2.034   1.216
 7874SOL    MW431817   5.568   2.097   1.247
 7875SOL     OW31818   3.810   3.254   1.649
 7875SOL    HW231819   3.854   3.187   1.595
 7875SOL    HW331820   3.725   3.216   1.669
 7875SOL    MW431821   3.805   3.240   1.645
 7876SOL     OW31822   4.493   1.929   0.701
 7876SOL    HW231823   4.422   1.990   0.683
 7876SOL    HW331824   4.544   1.926   0.620
 7876SOL    MW431825   4.489   1.935   0.688
 7877SOL     OW31826   4.251   3.169   0.450
 7877SOL    HW231827   4.244   3.201   0.540
 7877SOL    HW331828   4.161   3.153   0.422
 7877SOL    MW431829   4.239   3.171   0.457
 7878SOL     OW31830   4.846   3.562   1.359
 7878SOL    HW231831   4.766   3.547   1.309
 7878SOL    HW331832   4.853   3.657   1.366
 7878SOL    MW431833   4.837   3.573   1.353
 7879SOL     OW31834   4.960   3.527   0.849
 7879SOL    HW231835   5.007   3.600   0.808
 7879SOL    HW331836   4.881   3.566   0.885
 7879SOL    MW431837   4.955   3.542   0.848
 7880SOL     OW31838   5.368   3.622   1.124
 7880SOL    HW231839   5.411   3.592   1.204
 7880SOL    HW331840   5.287   3.570   1.121
 7880SOL    MW431841   5.363   3.611   1.134
 7881SOL     OW31842   4.453   2.586   1.831
 7881SOL    HW231843   4.523   2.528   1.803
 7881SOL    HW331844   4.396   2.531   1.886
 7881SOL    MW431845   4.455   2.573   1.835
 7882SOL     OW31846   5.240   2.798   1.464
 7882SOL    HW231847   5.245   2.851   1.544
 7882SOL    HW331848   5.202   2.715   1.492
 7882SOL    MW431849   5.236   2.793   1.479
 7883SOL     OW31850   4.880   1.933   1.710
 7883SOL    HW231851   4.875   1.840   1.691
 7883SOL    HW331852   4.963   1.944   1.756
 7883SOL    MW431853   4.888   1.922   1.714
 7884SOL     OW31854   4.254   2.453   0.164
 7884SOL    HW231855   4.220   2.509   0.234
 7884SOL    HW331856   4.325   2.403   0.204
 7884SOL    MW431857   4.260   2.454   0.178
 7885SOL     OW31858   5.350   3.204   0.986
 7885SOL    HW231859   5.385   3.186   0.899
 7885SOL    HW331860   5.255   3.205   0.973
 7885SOL    MW431861   5.342   3.201   0.973
 7886SOL     OW31862   4.779   2.852   1.355
 7886SOL    HW231863   4.822   2.887   1.433
 7886SOL    HW331864   4.762   2.929   1.301
 7886SOL    MW431865   4.782   2.867   1.358
 7887SOL     OW31866   5.310   2.339   0.228
 7887SOL    HW231867   5.302   2.410   0.165
 7887SOL    HW331868   5.328   2.383   0.311
 7887SOL    MW431869   5.311   2.353   0.230
 7888SOL     OW31870   4.170   1.994   0.657
 7888SOL    HW231871   4.220   2.037   0.588
 7888SOL    HW331872   4.085   2.038   0.657
 7888SOL    MW431873   4.167   2.007   0.648
 7889SOL     OW31874   3.929   3.056   1.517
 7889SOL    HW231875   3.957   3.009   1.595
 7889SOL    HW331876   3.850   3.011   1.488
 7889SOL    MW431877   3.922   3.045   1.523
 7890SOL     OW31878   4.437   2.383   1.484
 7890SOL    HW231879   4.409   2.471   1.508
 7890SOL    HW331880   4.406   2.327   1.555
 7890SOL    MW431881   4.429   2.386   1.496
 7891SOL     OW31882   4.979   2.601   0.203
 7891SOL    HW231883   5.026   2.619   0.122
 7891SOL    HW331884   4.945   2.685   0.231
 7891SOL    MW431885   4.981   2.615   0.196
 7892SOL     OW31886   4.092   2.779   0.697
 7892SOL    HW231887   4.150   2.835   0.645
 7892SOL    HW331888   4.136   2.694   0.699
 7892SOL    MW431889   4.105   2.776   0.690
 7893SOL     OW31890   5.232   2.131   0.534
 7893SOL    HW231891   5.154   2.081   0.559
 7893SOL    HW331892   5.203   2.222   0.534
 7893SOL    MW431893   5.218   2.135   0.537
 7894SOL     OW31894   4.818   2.093   0.693
 7894SOL    HW231895   4.838   2.168   0.637
 7894SOL    HW331896   4.798   2.132   0.778
 7894SOL    MW431897   4.819   2.109   0.697
 7895SOL     OW31898   4.714   3.343   0.025
 7895SOL    HW231899   4.741   3.421  -0.023
 7895SOL    HW331900   4.621   3.358   0.044
 7895SOL    MW431901   4.705   3.356   0.021
 7896SOL     OW31902   5.578   2.866   1.712
 7896SOL    HW231903   5.491   2.846   1.748
 7896SOL    HW331904   5.632   2.792   1.737
 7896SOL    MW431905   5.573   2.855   1.720
 7897SOL     OW31906   3.799   3.379   0.869
 7897SOL    HW231907   3.831   3.383   0.960
 7897SOL    HW331908   3.704   3.387   0.877
 7897SOL    MW431909   3.791   3.382   0.882
 7898SOL     OW31910   3.754   2.505   0.416
 7898SOL    HW231911   3.694   2.477   0.486
 7898SOL    HW331912   3.828   2.445   0.422
 7898SOL    MW431913   3.756   2.494   0.425
 7899SOL     OW31914   5.322   3.717   1.850
 7899SOL    HW231915   5.367   3.641   1.815
 7899SOL    HW331916   5.360   3.730   1.937
 7899SOL    MW431917   5.332   3.710   1.856
 7900SOL     OW31918   4.922   3.236   0.576
 7900SOL    HW231919   4.945   3.187   0.654
 7900SOL    HW331920   5.003   3.278   0.548
 7900SOL    MW431921   4.935   3.236   0.583
 7901SOL     OW31922   4.180   2.244   1.305
 7901SOL    HW231923   4.213   2.325   1.345
 7901SOL    HW331924   4.153   2.270   1.217
 7901SOL    MW431925   4.179   2.258   1.299
 7902SOL     OW31926   4.134   2.211   1.041
 7902SOL    HW231927   4.164   2.125   1.012
 7902SOL    HW331928   4.039   2.204   1.044
 7902SOL    MW431929   4.126   2.200   1.039
 7903SOL     OW31930   4.963   2.420   1.732
 7903SOL    HW231931   5.015   2.355   1.685
 7903SOL    HW331932   4.921   2.471   1.662
 7903SOL    MW431933   4.964   2.417   1.715
 7904SOL     OW31934   5.062   2.215   1.593
 7904SOL    HW231935   4.969   2.199   1.580
 7904SOL    HW331936   5.088   2.153   1.661
 7904SOL    MW431937   5.052   2.205   1.600
 7905SOL     OW31938   4.277   1.989   0.932
 7905SOL    HW231939   4.287   1.898   0.958
 7905SOL    HW331940   4.233   1.985   0.847
 7905SOL    MW431941   4.273   1.977   0.924
 7906SOL     OW31942   4.371   3.604   1.478
 7906SOL    HW231943   4.288   3.589   1.523
 7906SOL    HW331944   4.430   3.537   1.513
 7906SOL    MW431945   4.369   3.594   1.488
 7907SOL     OW31946   5.428   2.311   1.103
 7907SOL    HW231947   5.361   2.344   1.163
 7907SOL    HW331948   5.471   2.389   1.069
 7907SOL    MW431949   5.426   2.326   1.107
 7908SOL     OW31950   5.606   3.031   1.073
 7908SOL    HW231951   5.599   2.971   0.998
 7908SOL    HW331952   5.532   3.091   1.062
 7908SOL    MW431953   5.596   3.031   1.062
 7909SOL     OW31954   4.988   2.893   0.991
 7909SOL    HW231955   5.002   2.865   1.082
 7909SOL    HW331956   5.074   2.924   0.963
 7909SOL    MW431957   5.001   2.894   1.000
 7910SOL     OW31958   5.071   2.388   1.270
 7910SOL    HW231959   5.092   2.389   1.177
 7910SOL    HW331960   5.116   2.310   1.303
 7910SOL    MW431961   5.078   2.378   1.262
 7911SOL     OW31962   5.564   2.519   1.812
 7911SOL    HW231963   5.601   2.464   1.881
 7911SOL    HW331964   5.589   2.476   1.730
 7911SOL    MW431965   5.571   2.507   1.811
 7912SOL     OW31966   5.111   2.817   1.863
 7912SOL    HW231967   5.177   2.765   1.817
 7912SOL    HW331968   5.131   2.804   1.956
 7912SOL    MW431969   5.122   2.808   1.870
 7913SOL     OW31970   5.062   1.903   0.212
 7913SOL    HW231971   5.136   1.947   0.255
 7913SOL    HW331972   4.986   1.957   0.234
 7913SOL    MW431973   5.062   1.915   0.220
 7914SOL     OW31974   5.122   2.678   0.490
 7914SOL    HW231975   5.037   2.648   0.460
 7914SOL    HW331976   5.114   2.685   0.585
 7914SOL    MW431977   5.110   2.676   0.499
 7915SOL     OW31978   4.198   3.141   1.221
 7915SOL    HW231979   4.210   3.168   1.312
 7915SOL    HW331980   4.179   3.222   1.174
 7915SOL    MW431981   4.197   3.156   1.226
 7916SOL     OW31982   4.482   2.121   1.044
 7916SOL    HW231983   4.455   2.123   1.135
 7916SOL    HW331984   4.412   2.073   0.999
 7916SOL    MW431985   4.470   2.117   1.051
 7917SOL     OW31986   4.336   3.613   1.206
 7917SOL    HW231987   4.388   3.690   1.183
 7917SOL    HW331988   4.345   3.605   1.301
 7917SOL    MW431989   4.345   3.620   1.217
 7918SOL     OW31990   5.238   3.198   1.438
 7918SOL    HW231991   5.223   3.127   1.501
 7918SOL    HW331992   5.284   3.156   1.366
 7918SOL    MW431993   5.244   3.182   1.438
 7919SOL     OW31994   4.312   2.929   1.555
 7919SOL    HW231995   4.349   2.934   1.467
 7919SOL    HW331996   4.351   3.002   1.602
 7919SOL    MW431997   4.322   2.939   1.550
 7920SOL     OW31998   4.492   2.972   1.367
 7920SOL    HW231999   4.551   2.918   1.420
 7920SOL    HW332000   4.507   2.944   1.277
 7920SOL    MW432001   4.502   2.961   1.363
 7921SOL     OW32002   4.495   2.344   0.216
 7921SOL    HW232003   4.568   2.393   0.179
 7921SOL    HW332004   4.511   2.253   0.190
 7921SOL    MW432005   4.507   2.339   0.209
 7922SOL     OW32006   5.303   3.461   1.539
 7922SOL    HW232007   5.345   3.446   1.624
 7922SOL    HW332008   5.294   3.374   1.501
 7922SOL    MW432009   5.307   3.449   1.546
 7923SOL     OW32010   4.963   1.940   1.130
 7923SOL    HW232011   5.018   1.949   1.052
 7923SOL    HW332012   5.018   1.974   1.201
 7923SOL    MW432013   4.977   1.945   1.129
 7924SOL     OW32014   3.970   2.853   0.314
 7924SOL    HW232015   3.907   2.869   0.243
 7924SOL    HW332016   3.917   2.816   0.385
 7924SOL    MW432017   3.955   2.850   0.314
 7925SOL     OW32018   4.326   3.207   0.173
 7925SOL    HW232019   4.341   3.183   0.265
 7925SOL    HW332020   4.234   3.185   0.157
 7925SOL    MW432021   4.316   3.200   0.183
 7926SOL     OW32022   4.865   3.438   0.325
 7926SOL    HW232023   4.873   3.356   0.276
 7926SOL    HW332024   4.784   3.477   0.292
 7926SOL    MW432025   4.855   3.433   0.315
 7927SOL     OW32026   4.124   3.596   0.894
 7927SOL    HW232027   4.128   3.507   0.929
 7927SOL    HW332028   4.150   3.587   0.803
 7927SOL    MW432029   4.127   3.584   0.886
 7928SOL     OW32030   4.741   3.074   1.137
 7928SOL    HW232031   4.673   3.008   1.153
 7928SOL    HW332032   4.759   3.068   1.044
 7928SOL    MW432033   4.734   3.065   1.128
 7929SOL     OW32034   3.830   3.349   1.388
 7929SOL    HW232035   3.820   3.307   1.474
 7929SOL    HW332036   3.751   3.402   1.378
 7929SOL    MW432037   3.819   3.350   1.399
 7930SOL     OW32038   4.734   2.213   0.958
 7930SOL    HW232039   4.664   2.165   1.003
 7930SOL    HW332040   4.766   2.276   1.022
 7930SOL    MW432041   4.729   2.215   0.972
 7931SOL     OW32042   4.385   2.649   1.578
 7931SOL    HW232043   4.378   2.744   1.566
 7931SOL    HW332044   4.394   2.638   1.673
 7931SOL    MW432045   4.386   2.661   1.588
 7932SOL     OW32046   4.106   3.164   1.836
 7932SOL    HW232047   4.178   3.166   1.773
 7932SOL    HW332048   4.076   3.073   1.835
 7932SOL    MW432049   4.111   3.153   1.828
 7933SOL     OW32050   5.190   1.927   1.303
 7933SOL    HW232051   5.261   1.873   1.267
 7933SOL    HW332052   5.189   1.906   1.396
 7933SOL    MW432053   5.199   1.918   1.311
 7934SOL     OW32054   5.390   3.457   1.787
 7934SOL    HW232055   5.363   3.454   1.878
 7934SOL    HW332056   5.486   3.461   1.790
 7934SOL    MW432057   5.400   3.457   1.799
 7935SOL     OW32058   4.201   2.319   0.771
 7935SOL    HW232059   4.272   2.267   0.734
 7935SOL    HW332060   4.187   2.284   0.858
 7935SOL    MW432061   4.209   2.308   0.778
 7936SOL     OW32062   3.756   3.654   1.843
 7936SOL    HW232063   3.806   3.632   1.765
 7936SOL    HW332064   3.764   3.749   1.851
 7936SOL    MW432065   3.764   3.663   1.834
 7937SOL     OW32066   4.517   3.412   0.847
 7937SOL    HW232067   4.445   3.349   0.860
 7937SOL    HW332068   4.478   3.497   0.865
 7937SOL    MW432069   4.501   3.415   0.850
 7938SOL     OW32070   4.837   2.260   0.495
 7938SOL    HW232071   4.859   2.197   0.427
 7938SOL    HW332072   4.742   2.252   0.506
 7938SOL    MW432073   4.827   2.251   0.487
 7939SOL     OW32074   3.922   1.950   0.427
 7939SOL    HW232075   3.993   1.971   0.366
 7939SOL    HW332076   3.876   1.878   0.385
 7939SOL    MW432077   3.926   1.944   0.413
 7940SOL     OW32078   3.753   2.417   1.570
 7940SOL    HW232079   3.817   2.483   1.545
 7940SOL    HW332080   3.672   2.444   1.527
 7940SOL    MW432081   3.751   2.429   1.562
 7941SOL     OW32082   5.491   3.324   0.527
 7941SOL    HW232083   5.461   3.257   0.588
 7941SOL    HW332084   5.585   3.330   0.541
 7941SOL    MW432085   5.499   3.316   0.537
 7942SOL     OW32086   5.047   3.001   0.457
 7942SOL    HW232087   5.019   3.087   0.490
 7942SOL    HW332088   5.075   3.017   0.367
 7942SOL    MW432089   5.047   3.015   0.449
 7943SOL     OW32090   4.709   1.921   0.510
 7943SOL    HW232091   4.746   1.980   0.575
 7943SOL    HW332092   4.686   1.977   0.436
 7943SOL    MW432093   4.710   1.936   0.509
 7944SOL     OW32094   5.562   2.803   0.932
 7944SOL    HW232095   5.553   2.835   0.843
 7944SOL    HW332096   5.515   2.719   0.932
 7944SOL    MW432097   5.555   2.796   0.922
 7945SOL     OW32098   3.938   2.643   1.511
 7945SOL    HW232099   3.959   2.712   1.449
 7945SOL    HW332100   4.018   2.590   1.516
 7945SOL    MW432101   3.951   2.644   1.505
 7946SOL     OW32102   5.474   2.734   0.633
 7946SOL    HW232103   5.568   2.723   0.621
 7946SOL    HW332104   5.450   2.806   0.574
 7946SOL    MW432105   5.484   2.742   0.624
 7947SOL     OW32106   3.923   2.658   1.778
 7947SOL    HW232107   3.849   2.602   1.804
 7947SOL    HW332108   3.918   2.661   1.683
 7947SOL    MW432109   3.912   2.651   1.768
 7948SOL     OW32110   4.089   1.945   1.228
 7948SOL    HW232111   4.132   2.029   1.248
 7948SOL    HW332112   4.162   1.883   1.221
 7948SOL    MW432113   4.104   1.948   1.229
 7949SOL     OW32114   4.130   2.612   0.406
 7949SOL    HW232115   4.130   2.707   0.391
 7949SOL    HW332116   4.207   2.596   0.460
 7949SOL    MW432117   4.140   2.623   0.411
 7950SOL     OW32118   4.906   2.471   1.470
 7950SOL    HW232119   4.942   2.444   1.386
 7950SOL    HW332120   4.819   2.505   1.449
 7950SOL    MW432121   4.900   2.472   1.457
 7951SOL     OW32122   3.889   2.343   0.695
 7951SOL    HW232123   3.951   2.350   0.768
 7951SOL    HW332124   3.889   2.250   0.672
 7951SOL    MW432125   3.897   2.332   0.702
 7952SOL     OW32126   5.436   3.683   0.227
 7952SOL    HW232127   5.503   3.716   0.167
 7952SOL    HW332128   5.393   3.762   0.261
 7952SOL    MW432129   5.438   3.698   0.223
 7953SOL     OW32130   4.571   2.604   1.179
 7953SOL    HW232131   4.529   2.522   1.155
 7953SOL    HW332132   4.572   2.603   1.275
 7953SOL    MW432133   4.564   2.593   1.188
 7954SOL     OW32134   5.242   3.737   1.578
 7954SOL    HW232135   5.245   3.643   1.561
 7954SOL    HW332136   5.265   3.745   1.670
 7954SOL    MW432137   5.245   3.725   1.588
 7955SOL     OW32138   4.375   2.074   1.284
 7955SOL    HW232139   4.306   2.137   1.305
 7955SOL    HW332140   4.402   2.038   1.369
 7955SOL    MW432141   4.369   2.077   1.297
 7956SOL     OW32142   3.758   2.915   0.153
 7956SOL    HW232143   3.727   2.980   0.216
 7956SOL    HW332144   3.707   2.837   0.172
 7956SOL    MW432145   3.748   2.912   0.163
 7957SOL     OW32146   5.170   1.927   0.901
 7957SOL    HW232147   5.258   1.936   0.938
 7957SOL    HW332148   5.180   1.868   0.827
 7957SOL    MW432149   5.184   1.921   0.895
 7958SOL     OW32150   5.202   2.666   0.745
 7958SOL    HW232151   5.282   2.681   0.694
 7958SOL    HW332152   5.195   2.571   0.751
 7958SOL    MW432153   5.211   2.655   0.740
 7959SOL     OW32154   4.342   3.715   0.095
 7959SOL    HW232155   4.247   3.715   0.087
 7959SOL    HW332156   4.358   3.661   0.173
 7959SOL    MW432157   4.332   3.709   0.104
 7960SOL     OW32158   4.652   2.592   1.442
 7960SOL    HW232159   4.721   2.659   1.439
 7960SOL    HW332160   4.585   2.630   1.498
 7960SOL    MW432161   4.653   2.605   1.449
 7961SOL     OW32162   4.070   2.892   1.690
 7961SOL    HW232163   4.024   2.808   1.692
 7961SOL    HW332164   4.127   2.886   1.614
 7961SOL    MW432165   4.072   2.880   1.682
 7962SOL     OW32166   5.187   2.535   0.011
 7962SOL    HW232167   5.115   2.511  -0.047
 7962SOL    HW332168   5.253   2.572  -0.047
 7962SOL    MW432169   5.186   2.537  -0.004
 7963SOL     OW32170   4.321   3.267   0.691
 7963SOL    HW232171   4.386   3.200   0.712
 7963SOL    HW332172   4.373   3.344   0.668
 7963SOL    MW432173   4.336   3.269   0.690
 7964SOL     OW32174   4.582   2.432   0.821
 7964SOL    HW232175   4.522   2.450   0.893
 7964SOL    HW332176   4.616   2.344   0.840
 7964SOL    MW432177   4.578   2.422   0.834
 7965SOL     OW32178   5.523   1.931   1.490
 7965SOL    HW232179   5.444   1.977   1.518
 7965SOL    HW332180   5.558   1.985   1.419
 7965SOL    MW432181   5.517   1.944   1.484
 7966SOL     OW32182   4.807   3.015   0.840
 7966SOL    HW232183   4.899   2.996   0.858
 7966SOL    HW332184   4.780   2.945   0.780
 7966SOL    MW432185   4.815   3.003   0.834
 7967SOL     OW32186   4.600   2.835   0.195
 7967SOL    HW232187   4.586   2.747   0.160
 7967SOL    HW332188   4.551   2.892   0.136
 7967SOL    MW432189   4.592   2.830   0.183
 7968SOL     OW32190   5.081   3.253   0.936
 7968SOL    HW232191   5.054   3.337   0.901
 7968SOL    HW332192   5.041   3.248   1.023
 7968SOL    MW432193   5.074   3.262   0.942
 7969SOL     OW32194   5.000   3.201   1.204
 7969SOL    HW232195   5.011   3.168   1.293
 7969SOL    HW332196   4.919   3.160   1.173
 7969SOL    MW432197   4.990   3.193   1.210
 7970SOL     OW32198   4.013   2.559   0.974
 7970SOL    HW232199   3.963   2.558   1.055
 7970SOL    HW332200   4.033   2.651   0.958
 7970SOL    MW432201   4.009   2.571   0.982
 7971SOL     OW32202   5.080   3.323   1.736
 7971SOL    HW232203   5.080   3.417   1.752
 7971SOL    HW332204   5.125   3.313   1.652
 7971SOL    MW432205   5.086   3.333   1.727
 7972SOL     OW32206   5.319   2.041   0.297
 7972SOL    HW232207   5.312   2.045   0.392
 7972SOL    HW332208   5.331   2.132   0.270
 7972SOL    MW432209   5.320   2.054   0.305
 7973SOL     OW32210   4.608   2.604   0.411
 7973SOL    HW232211   4.588   2.590   0.318
 7973SOL    HW332212   4.701   2.583   0.418
 7973SOL    MW432213   4.618   2.599   0.400
 7974SOL     OW32214   3.935   2.227   1.715
 7974SOL    HW232215   3.892   2.286   1.652
 7974SOL    HW332216   4.003   2.282   1.755
 7974SOL    MW432217   3.939   2.242   1.712
 7975SOL     OW32218   5.047   2.847   1.260
 7975SOL    HW232219   5.110   2.844   1.333
 7975SOL    HW332220   4.963   2.865   1.302
 7975SOL    MW432221   5.043   2.849   1.275
 7976SOL     OW32222   4.591   3.562   0.449
 7976SOL    HW232223   4.649   3.633   0.476
 7976SOL    HW332224   4.614   3.490   0.507
 7976SOL    MW432225   4.602   3.562   0.460
 7977SOL     OW32226   5.386   2.024   1.039
 7977SOL    HW232227   5.431   1.942   1.058
 7977SOL    HW332228   5.406   2.080   1.115
 7977SOL    MW432229   5.396   2.020   1.051
 7978SOL     OW32230   3.834   1.867   1.138
 7978SOL    HW232231   3.825   1.868   1.043
 7978SOL    HW332232   3.928   1.879   1.153
 7978SOL    MW432233   3.846   1.870   1.129
 7979SOL     OW32234   5.471   3.060   0.758
 7979SOL    HW232235   5.450   3.006   0.681
 7979SOL    HW332236   5.567   3.058   0.762
 7979SOL    MW432237   5.480   3.053   0.747
 7980SOL     OW32238   4.163   3.205   1.501
 7980SOL    HW232239   4.084   3.155   1.524
 7980SOL    HW332240   4.233   3.164   1.551
 7980SOL    MW432241   4.161   3.193   1.511
 7981SOL     OW32242   4.047   1.994   0.184
 7981SOL    HW232243   3.976   2.049   0.152
 7981SOL    HW332244   4.089   1.960   0.105
 7981SOL    MW432245   4.043   1.996   0.170
 7982SOL     OW32246   5.171   2.491   1.020
 7982SOL    HW232247   5.094   2.537   0.986
 7982SOL    HW332248   5.228   2.560   1.054
 7982SOL    MW432249   5.168   2.506   1.020
 7983SOL     OW32250   3.803   2.093   0.033
 7983SOL    HW232251   3.770   2.172   0.077
 7983SOL    HW332252   3.858   2.126  -0.038
 7983SOL    MW432253   3.806   2.107   0.030
 7984SOL     OW32254   3.837   3.350   0.222
 7984SOL    HW232255   3.854   3.434   0.264
 7984SOL    HW332256   3.872   3.359   0.134
 7984SOL    MW432257   3.842   3.363   0.216
 7985SOL     OW32258   5.109   3.439   0.439
 7985SOL    HW232259   5.172   3.429   0.368
 7985SOL    HW332260   5.026   3.459   0.394
 7985SOL    MW432261   5.106   3.440   0.424
 7986SOL     OW32262   5.472   2.707   2.125
 7986SOL    HW232263   5.513   2.649   2.190
 7986SOL    HW332264   5.379   2.699   2.142
 7986SOL    MW432265   5.466   2.699   2.135
 7987SOL     OW32266   5.338   2.639   3.120
 7987SOL    HW232267   5.293   2.706   3.171
 7987SOL    HW332268   5.426   2.675   3.106
 7987SOL    MW432269   5.344   2.652   3.124
 7988SOL     OW32270   4.266   2.890   2.354
 7988SOL    HW232271   4.356   2.865   2.338
 7988SOL    HW332272   4.262   2.983   2.331
 7988SOL    MW432273   4.278   2.899   2.349
 7989SOL     OW32274   5.382   3.593   2.496
 7989SOL    HW232275   5.394   3.539   2.574
 7989SOL    HW332276   5.419   3.541   2.425
 7989SOL    MW432277   5.388   3.578   2.497
 7990SOL     OW32278   4.761   3.478   3.497
 7990SOL    HW232279   4.802   3.514   3.418
 7990SOL    HW332280   4.796   3.389   3.504
 7990SOL    MW432281   4.772   3.471   3.488
 7991SOL     OW32282   5.318   3.033   3.101
 7991SOL    HW232283   5.239   2.998   3.059
 7991SOL    HW332284   5.345   3.105   3.045
 7991SOL    MW432285   5.311   3.038   3.088
 7992SOL     OW32286   4.550   2.346   2.367
 7992SOL    HW232287   4.525   2.434   2.395
 7992SOL    HW332288   4.547   2.349   2.271
 7992SOL    MW432289   4.546   2.358   2.359
 7993SOL     OW32290   3.992   2.374   2.295
 7993SOL    HW232291   4.024   2.462   2.277
 7993SOL    HW332292   3.980   2.372   2.390
 7993SOL    MW432293   3.995   2.386   2.307
 7994SOL     OW32294   4.070   2.787   3.196
 7994SOL    HW232295   4.133   2.734   3.147
 7994SOL    HW332296   4.051   2.861   3.139
 7994SOL    MW432297   4.076   2.789   3.183
 7995SOL     OW32298   4.391   2.129   2.382
 7995SOL    HW232299   4.449   2.205   2.384
 7995SOL    HW332300   4.326   2.150   2.315
 7995SOL    MW432301   4.390   2.141   2.373
 7996SOL     OW32302   4.478   3.056   2.557
 7996SOL    HW232303   4.558   3.059   2.609
 7996SOL    HW332304   4.506   3.023   2.471
 7996SOL    MW432305   4.492   3.052   2.552
 7997SOL     OW32306   4.503   3.397   3.460
 7997SOL    HW232307   4.587   3.423   3.499
 7997SOL    HW332308   4.527   3.341   3.386
 7997SOL    MW432309   4.517   3.393   3.455
 7998SOL     OW32310   4.255   2.560   2.548
 7998SOL    HW232311   4.240   2.480   2.599
 7998SOL    HW332312   4.337   2.595   2.582
 7998SOL    MW432313   4.263   2.552   2.560
 7999SOL     OW32314   4.592   3.246   3.233
 7999SOL    HW232315   4.556   3.312   3.173
 7999SOL    HW332316   4.520   3.184   3.246
 7999SOL    MW432317   4.578   3.246   3.227
 8000SOL     OW32318   4.397   2.386   2.925
 8000SOL    HW232319   4.303   2.382   2.943
 8000SOL    HW332320   4.427   2.295   2.934
 8000SOL    MW432321   4.388   2.374   2.928
 8001SOL     OW32322   4.143   2.800   2.829
 8001SOL    HW232323   4.098   2.807   2.745
 8001SOL    HW332324   4.123   2.883   2.873
 8001SOL    MW432325   4.135   2.812   2.823
 8002SOL     OW32326   3.840   3.646   2.704
 8002SOL    HW232327   3.929   3.638   2.739
 8002SOL    HW332328   3.804   3.558   2.709
 8002SOL    MW432329   3.847   3.633   2.709
 8003SOL     OW32330   5.105   3.038   2.073
 8003SOL    HW232331   5.023   3.074   2.039
 8003SOL    HW332332   5.173   3.081   2.022
 8003SOL    MW432333   5.103   3.048   2.061
 8004SOL     OW32334   4.104   3.173   2.739
 8004SOL    HW232335   4.080   3.226   2.815
 8004SOL    HW332336   4.160   3.231   2.687
 8004SOL    MW432337   4.108   3.188   2.742
 8005SOL     OW32338   4.666   2.817   2.549
 8005SOL    HW232339   4.580   2.804   2.589
 8005SOL    HW332340   4.719   2.744   2.581
 8005SOL    MW432341   4.662   2.806   2.558
 8006SOL     OW32342   4.074   3.469   3.334
 8006SOL    HW232343   3.982   3.445   3.319
 8006SOL    HW332344   4.118   3.386   3.351
 8006SOL    MW432345   4.068   3.454   3.333
 8007SOL     OW32346   4.657   3.179   2.266
 8007SOL    HW232347   4.634   3.241   2.334
 8007SOL    HW332348   4.614   3.097   2.292
 8007SOL    MW432349   4.649   3.175   2.277
 8008SOL     OW32350   5.530   2.180   2.722
 8008SOL    HW232351   5.467   2.160   2.791
 8008SOL    HW332352   5.520   2.109   2.659
 8008SOL    MW432353   5.520   2.167   2.723
 8009SOL     OW32354   4.154   2.152   2.234
 8009SOL    HW232355   4.128   2.114   2.150
 8009SOL    HW332356   4.091   2.222   2.250
 8009SOL    MW432357   4.143   2.155   2.225
 8010SOL     OW32358   3.989   3.113   2.271
 8010SOL    HW232359   3.937   3.181   2.227
 8010SOL    HW332360   3.986   3.039   2.211
 8010SOL    MW432361   3.981   3.112   2.258
 8011SOL     OW32362   4.651   3.576   2.049
 8011SOL    HW232363   4.606   3.592   2.132
 8011SOL    HW332364   4.582   3.541   1.991
 8011SOL    MW432365   4.637   3.573   2.051
 8012SOL     OW32366   5.586   2.349   2.024
 8012SOL    HW232367   5.495   2.351   2.052
 8012SOL    HW332368   5.631   2.411   2.082
 8012SOL    MW432369   5.579   2.357   2.034
 8013SOL     OW32370   5.331   2.952   2.374
 8013SOL    HW232371   5.241   2.952   2.409
 8013SOL    HW332372   5.324   2.998   2.291
 8013SOL    MW432373   5.318   2.958   2.368
 8014SOL     OW32374   5.131   2.587   3.446
 8014SOL    HW232375   5.200   2.525   3.423
 8014SOL    HW332376   5.056   2.561   3.393
 8014SOL    MW432377   5.131   2.574   3.437
 8015SOL     OW32378   3.872   3.467   2.998
 8015SOL    HW232379   3.855   3.413   3.075
 8015SOL    HW332380   3.860   3.557   3.028
 8015SOL    MW432381   3.869   3.471   3.012
 8016SOL     OW32382   4.867   2.974   3.438
 8016SOL    HW232383   4.852   3.067   3.423
 8016SOL    HW332384   4.962   2.964   3.438
 8016SOL    MW432385   4.876   2.984   3.435
 8017SOL     OW32386   4.663   2.398   3.639
 8017SOL    HW232387   4.753   2.399   3.606
 8017SOL    HW332388   4.622   2.323   3.597
 8017SOL    MW432389   4.669   2.388   3.630
 8018SOL     OW32390   5.238   2.930   2.766
 8018SOL    HW232391   5.241   2.864   2.697
 8018SOL    HW332392   5.323   2.973   2.762
 8018SOL    MW432393   5.250   2.926   2.757
 8019SOL     OW32394   4.858   2.533   2.335
 8019SOL    HW232395   4.884   2.557   2.246
 8019SOL    HW332396   4.840   2.440   2.331
 8019SOL    MW432397   4.860   2.525   2.322
 8020SOL     OW32398   5.523   3.153   2.186
 8020SOL    HW232399   5.479   3.194   2.261
 8020SOL    HW332400   5.580   3.221   2.151
 8020SOL    MW432401   5.525   3.167   2.191
 8021SOL     OW32402   4.443   2.202   3.589
 8021SOL    HW232403   4.453   2.128   3.529
 8021SOL    HW332404   4.479   2.171   3.672
 8021SOL    MW432405   4.449   2.188   3.591
 8022SOL     OW32406   4.179   3.569   2.504
 8022SOL    HW232407   4.211   3.657   2.482
 8022SOL    HW332408   4.132   3.541   2.426
 8022SOL    MW432409   4.178   3.577   2.491
 8023SOL     OW32410   5.563   1.931   2.553
 8023SOL    HW232411   5.617   1.882   2.615
 8023SOL    HW332412   5.506   1.865   2.514
 8023SOL    MW432413   5.563   1.915   2.555
 8024SOL     OW32414   3.895   3.629   2.081
 8024SOL    HW232415   3.924   3.719   2.073
 8024SOL    HW332416   3.845   3.612   2.002
 8024SOL    MW432417   3.893   3.637   2.070
 8025SOL     OW32418   4.682   1.884   2.966
 8025SOL    HW232419   4.641   1.962   2.928
 8025SOL    HW332420   4.776   1.902   2.961
 8025SOL    MW432421   4.688   1.896   2.961
 8026SOL     OW32422   5.299   3.437   2.052
 8026SOL    HW232423   5.347   3.506   2.098
 8026SOL    HW332424   5.220   3.481   2.021
 8026SOL    MW432425   5.294   3.451   2.055
 8027SOL     OW32426   4.697   2.562   1.996
 8027SOL    HW232427   4.699   2.509   1.917
 8027SOL    HW332428   4.785   2.599   2.002
 8027SOL    MW432429   4.709   2.561   1.985
 8028SOL     OW32430   5.311   2.488   2.332
 8028SOL    HW232431   5.350   2.488   2.419
 8028SOL    HW332432   5.252   2.564   2.332
 8028SOL    MW432433   5.308   2.499   2.343
 8029SOL     OW32434   4.628   2.855   3.461
 8029SOL    HW232435   4.605   2.835   3.551
 8029SOL    HW332436   4.713   2.899   3.466
 8029SOL    MW432437   4.635   2.858   3.473
 8030SOL     OW32438   4.708   1.992   3.221
 8030SOL    HW232439   4.714   1.954   3.134
 8030SOL    HW332440   4.697   2.086   3.206
 8030SOL    MW432441   4.709   2.000   3.209
 8031SOL     OW32442   4.797   2.481   3.055
 8031SOL    HW232443   4.872   2.510   3.002
 8031SOL    HW332444   4.729   2.546   3.039
 8031SOL    MW432445   4.798   2.493   3.045
 8032SOL     OW32446   5.347   2.449   3.332
 8032SOL    HW232447   5.328   2.358   3.311
 8032SOL    HW332448   5.325   2.498   3.253
 8032SOL    MW432449   5.342   2.442   3.319
 8033SOL     OW32450   5.489   3.543   3.236
 8033SOL    HW232451   5.417   3.505   3.287
 8033SOL    HW332452   5.506   3.628   3.277
 8033SOL    MW432453   5.483   3.548   3.248
 8034SOL     OW32454   4.794   2.187   3.438
 8034SOL    HW232455   4.760   2.226   3.357
 8034SOL    HW332456   4.772   2.095   3.431
 8034SOL    MW432457   4.787   2.180   3.428
 8035SOL     OW32458   5.203   3.001   3.514
 8035SOL    HW232459   5.285   3.042   3.544
 8035SOL    HW332460   5.166   2.963   3.594
 8035SOL    MW432461   5.209   3.002   3.529
 8036SOL     OW32462   5.498   2.374   2.498
 8036SOL    HW232463   5.587   2.343   2.515
 8036SOL    HW332464   5.441   2.314   2.546
 8036SOL    MW432465   5.501   2.362   2.507
 8037SOL     OW32466   3.924   2.088   2.527
 8037SOL    HW232467   3.915   2.028   2.453
 8037SOL    HW332468   3.857   2.059   2.590
 8037SOL    MW432469   3.914   2.075   2.525
 8038SOL     OW32470   4.867   3.181   2.088
 8038SOL    HW232471   4.817   3.183   2.170
 8038SOL    HW332472   4.801   3.199   2.020
 8038SOL    MW432473   4.853   3.183   2.090
 8039SOL     OW32474   3.871   2.261   2.890
 8039SOL    HW232475   3.843   2.352   2.899
 8039SOL    HW332476   3.808   2.222   2.829
 8039SOL    MW432477   3.858   2.267   2.884
 8040SOL     OW32478   4.330   3.599   2.196
 8040SOL    HW232479   4.251   3.557   2.229
 8040SOL    HW332480   4.396   3.582   2.263
 8040SOL    MW432481   4.329   3.591   2.209
 8041SOL     OW32482   5.458   3.119   3.593
 8041SOL    HW232483   5.508   3.045   3.625
 8041SOL    HW332484   5.404   3.146   3.668
 8041SOL    MW432485   5.458   3.113   3.606
 8042SOL     OW32486   4.466   3.014   1.903
 8042SOL    HW232487   4.388   2.960   1.890
 8042SOL    HW332488   4.437   3.087   1.956
 8042SOL    MW432489   4.452   3.016   1.908
 8043SOL     OW32490   5.592   2.754   3.095
 8043SOL    HW232491   5.608   2.792   3.008
 8043SOL    HW332492   5.626   2.820   3.156
 8043SOL    MW432493   5.599   2.767   3.091
 8044SOL     OW32494   5.384   3.463   2.764
 8044SOL    HW232495   5.413   3.530   2.825
 8044SOL    HW332496   5.365   3.387   2.819
 8044SOL    MW432497   5.386   3.463   2.779
 8045SOL     OW32498   5.047   3.530   1.971
 8045SOL    HW232499   4.973   3.493   2.021
 8045SOL    HW332500   5.055   3.620   2.004
 8045SOL    MW432501   5.038   3.537   1.983
 8046SOL     OW32502   3.855   2.536   3.060
 8046SOL    HW232503   3.917   2.566   3.126
 8046SOL    HW332504   3.789   2.605   3.054
 8046SOL    MW432505   3.854   2.549   3.067
 8047SOL     OW32506   5.271   3.204   1.913
 8047SOL    HW232507   5.218   3.253   1.849
 8047SOL    HW332508   5.302   3.270   1.974
 8047SOL    MW432509   5.269   3.218   1.911
 8048SOL     OW32510   4.496   2.093   1.968
 8048SOL    HW232511   4.444   2.013   1.956
 8048SOL    HW332512   4.583   2.070   1.936
 8048SOL    MW432513   4.499   2.079   1.962
 8049SOL     OW32514   3.950   3.645   3.512
 8049SOL    HW232515   3.924   3.713   3.450
 8049SOL    HW332516   3.998   3.582   3.460
 8049SOL    MW432517   3.952   3.645   3.498
 8050SOL     OW32518   4.002   2.964   3.019
 8050SOL    HW232519   4.055   3.039   3.044
 8050SOL    HW332520   3.921   3.002   2.985
 8050SOL    MW432521   3.998   2.979   3.019
 8051SOL     OW32522   4.542   2.868   3.007
 8051SOL    HW232523   4.570   2.777   3.019
 8051SOL    HW332524   4.471   2.862   2.943
 8051SOL    MW432525   4.535   2.856   3.002
 8052SOL     OW32526   3.857   2.733   2.425
 8052SOL    HW232527   3.948   2.748   2.452
 8052SOL    HW332528   3.860   2.654   2.371
 8052SOL    MW432529   3.869   2.725   2.423
 8053SOL     OW32530   4.093   2.441   3.679
 8053SOL    HW232531   4.040   2.521   3.686
 8053SOL    HW332532   4.163   2.453   3.744
 8053SOL    MW432533   4.095   2.454   3.687
 8054SOL     OW32534   4.479   1.991   3.386
 8054SOL    HW232535   4.456   1.899   3.388
 8054SOL    HW332536   4.565   1.993   3.343
 8054SOL    MW432537   4.486   1.981   3.382
 8055SOL     OW32538   4.163   2.515   3.425
 8055SOL    HW232539   4.243   2.565   3.411
 8055SOL    HW332540   4.154   2.509   3.520
 8055SOL    MW432541   4.172   2.521   3.435
 8056SOL     OW32542   4.484   3.665   2.799
 8056SOL    HW232543   4.573   3.680   2.829
 8056SOL    HW332544   4.479   3.712   2.715
 8056SOL    MW432545   4.494   3.673   2.792
 8057SOL     OW32546   5.140   2.040   3.696
 8057SOL    HW232547   5.196   1.967   3.722
 8057SOL    HW332548   5.110   2.078   3.778
 8057SOL    MW432549   5.144   2.035   3.709
 8058SOL     OW32550   3.865   3.345   2.464
 8058SOL    HW232551   3.837   3.384   2.546
 8058SOL    HW332552   3.885   3.254   2.486
 8058SOL    MW432553   3.863   3.337   2.477
 8059SOL     OW32554   4.698   3.388   2.499
 8059SOL    HW232555   4.781   3.342   2.483
 8059SOL    HW332556   4.688   3.387   2.595
 8059SOL    MW432557   4.708   3.381   2.509
 8060SOL     OW32558   5.530   2.533   2.813
 8060SOL    HW232559   5.619   2.563   2.795
 8060SOL    HW332560   5.510   2.473   2.742
 8060SOL    MW432561   5.539   2.530   2.802
 8061SOL     OW32562   5.381   2.712   3.693
 8061SOL    HW232563   5.436   2.636   3.674
 8061SOL    HW332564   5.383   2.720   3.788
 8061SOL    MW432565   5.389   2.703   3.701
 8062SOL     OW32566   4.431   3.445   1.904
 8062SOL    HW232567   4.371   3.514   1.874
 8062SOL    HW332568   4.376   3.387   1.957
 8062SOL    MW432569   4.415   3.447   1.906
 8063SOL     OW32570   4.869   2.090   2.127
 8063SOL    HW232571   4.802   2.066   2.064
 8063SOL    HW332572   4.934   2.139   2.076
 8063SOL    MW432573   4.869   2.092   2.112
 8064SOL     OW32574   4.676   2.274   3.212
 8064SOL    HW232575   4.595   2.315   3.240
 8064SOL    HW332576   4.723   2.342   3.164
 8064SOL    MW432577   4.671   2.289   3.210
 8065SOL     OW32578   4.936   2.612   2.835
 8065SOL    HW232579   4.949   2.706   2.845
 8065SOL    HW332580   4.897   2.602   2.749
 8065SOL    MW432581   4.932   2.623   2.825
 8066SOL     OW32582   4.388   2.807   2.639
 8066SOL    HW232583   4.299   2.798   2.672
 8066SOL    HW332584   4.392   2.897   2.607
 8066SOL    MW432585   4.377   2.818   2.639
 8067SOL     OW32586   5.187   2.390   2.634
 8067SOL    HW232587   5.132   2.311   2.633
 8067SOL    HW332588   5.169   2.431   2.718
 8067SOL    MW432589   5.177   2.385   2.643
 8068SOL     OW32590   4.158   2.077   3.451
 8068SOL    HW232591   4.079   2.095   3.503
 8068SOL    HW332592   4.153   2.139   3.378
 8068SOL    MW432593   4.148   2.087   3.448
 8069SOL     OW32594   4.806   2.594   2.591
 8069SOL    HW232595   4.743   2.526   2.615
 8069SOL    HW332596   4.826   2.575   2.499
 8069SOL    MW432597   4.800   2.581   2.583
 8070SOL     OW32598   4.062   3.489   2.293
 8070SOL    HW232599   4.023   3.536   2.219
 8070SOL    HW332600   3.996   3.424   2.318
 8070SOL    MW432601   4.049   3.487   2.287
 8071SOL     OW32602   4.554   2.898   2.317
 8071SOL    HW232603   4.556   2.872   2.224
 8071SOL    HW332604   4.612   2.835   2.360
 8071SOL    MW432605   4.562   2.887   2.311
 8072SOL     OW32606   5.107   3.458   3.089
 8072SOL    HW232607   5.032   3.504   3.127
 8072SOL    HW332608   5.089   3.365   3.106
 8072SOL    MW432609   5.096   3.452   3.097
 8073SOL     OW32610   5.111   3.666   2.519
 8073SOL    HW232611   5.054   3.619   2.458
 8073SOL    HW332612   5.197   3.627   2.506
 8073SOL    MW432613   5.114   3.657   2.509
 8074SOL     OW32614   5.064   2.142   2.650
 8074SOL    HW232615   5.092   2.074   2.711
 8074SOL    HW332616   4.978   2.113   2.620
 8074SOL    MW432617   5.057   2.129   2.654
 8075SOL     OW32618   3.869   3.076   2.584
 8075SOL    HW232619   3.933   3.108   2.647
 8075SOL    HW332620   3.918   3.012   2.532
 8075SOL    MW432621   3.884   3.072   2.585
 8076SOL     OW32622   4.369   3.152   3.566
 8076SOL    HW232623   4.417   3.235   3.553
 8076SOL    HW332624   4.426   3.100   3.622
 8076SOL    MW432625   4.383   3.156   3.572
 8077SOL     OW32626   3.945   3.394   3.706
 8077SOL    HW232627   4.001   3.318   3.721
 8077SOL    HW332628   3.894   3.372   3.628
 8077SOL    MW432629   3.945   3.381   3.697
 8078SOL     OW32630   5.044   2.246   1.985
 8078SOL    HW232631   5.017   2.312   1.921
 8078SOL    HW332632   5.114   2.289   2.035
 8078SOL    MW432633   5.049   2.259   1.982
 8079SOL     OW32634   4.712   1.951   1.922
 8079SOL    HW232635   4.768   1.943   1.844
 8079SOL    HW332636   4.689   1.861   1.944
 8079SOL    MW432637   4.717   1.938   1.915
 8080SOL     OW32638   5.217   2.802   2.127
 8080SOL    HW232639   5.184   2.891   2.117
 8080SOL    HW332640   5.182   2.773   2.212
 8080SOL    MW432641   5.207   2.811   2.138
 8081SOL     OW32642   4.830   3.231   3.315
 8081SOL    HW232643   4.741   3.237   3.283
 8081SOL    HW332644   4.874   3.310   3.283
 8081SOL    MW432645   4.825   3.241   3.307
 8082SOL     OW32646   4.123   1.899   3.657
 8082SOL    HW232647   4.051   1.864   3.605
 8082SOL    HW332648   4.181   1.940   3.592
 8082SOL    MW432649   4.121   1.900   3.642
 8083SOL     OW32650   4.147   3.389   2.956
 8083SOL    HW232651   4.192   3.451   3.013
 8083SOL    HW332652   4.054   3.408   2.969
 8083SOL    MW432653   4.140   3.399   2.963
 8084SOL     OW32654   5.587   2.918   3.310
 8084SOL    HW232655   5.502   2.931   3.269
 8084SOL    HW332656   5.567   2.882   3.397
 8084SOL    MW432657   5.574   2.914   3.315
 8085SOL     OW32658   4.569   3.457   3.064
 8085SOL    HW232659   4.593   3.446   2.973
 8085SOL    HW332660   4.492   3.514   3.062
 8085SOL    MW432661   4.561   3.462   3.053
 8086SOL     OW32662   4.211   2.840   1.919
 8086SOL    HW232663   4.134   2.853   1.975
 8086SOL    HW332664   4.175   2.804   1.838
 8086SOL    MW432665   4.197   2.836   1.916
 8087SOL     OW32666   4.864   2.813   2.162
 8087SOL    HW232667   4.774   2.834   2.137
 8087SOL    HW332668   4.891   2.886   2.218
 8087SOL    MW432669   4.856   2.825   2.165
 8088SOL     OW32670   4.364   3.162   2.854
 8088SOL    HW232671   4.357   3.141   2.948
 8088SOL    HW332672   4.282   3.130   2.817
 8088SOL    MW432673   4.352   3.156   2.861
 8089SOL     OW32674   5.228   2.172   3.256
 8089SOL    HW232675   5.175   2.174   3.336
 8089SOL    HW332676   5.213   2.085   3.219
 8089SOL    MW432677   5.220   2.162   3.261
 8090SOL     OW32678   5.564   2.096   3.129
 8090SOL    HW232679   5.545   2.163   3.064
 8090SOL    HW332680   5.621   2.034   3.084
 8090SOL    MW432681   5.568   2.097   3.115
 8091SOL     OW32682   3.810   3.254   3.517
 8091SOL    HW232683   3.854   3.187   3.463
 8091SOL    HW332684   3.725   3.216   3.537
 8091SOL    MW432685   3.805   3.240   3.513
 8092SOL     OW32686   4.493   1.929   2.569
 8092SOL    HW232687   4.422   1.990   2.551
 8092SOL    HW332688   4.544   1.926   2.488
 8092SOL    MW432689   4.489   1.935   2.556
 8093SOL     OW32690   4.251   3.169   2.318
 8093SOL    HW232691   4.244   3.201   2.408
 8093SOL    HW332692   4.161   3.153   2.290
 8093SOL    MW432693   4.239   3.171   2.325
 8094SOL     OW32694   4.846   3.562   3.227
 8094SOL    HW232695   4.766   3.547   3.177
 8094SOL    HW332696   4.853   3.657   3.234
 8094SOL    MW432697   4.837   3.573   3.221
 8095SOL     OW32698   4.960   3.527   2.717
 8095SOL    HW232699   5.007   3.600   2.676
 8095SOL    HW332700   4.881   3.566   2.753
 8095SOL    MW432701   4.955   3.542   2.716
 8096SOL     OW32702   5.368   3.622   2.992
 8096SOL    HW232703   5.411   3.592   3.072
 8096SOL    HW332704   5.287   3.570   2.989
 8096SOL    MW432705   5.363   3.611   3.002
 8097SOL     OW32706   4.453   2.586   3.699
 8097SOL    HW232707   4.523   2.528   3.671
 8097SOL    HW332708   4.396   2.531   3.754
 8097SOL    MW432709   4.455   2.573   3.703
 8098SOL     OW32710   5.240   2.798   3.332
 8098SOL    HW232711   5.245   2.851   3.412
 8098SOL    HW332712   5.202   2.715   3.360
 8098SOL    MW432713   5.236   2.793   3.347
 8099SOL     OW32714   4.880   1.933   3.578
 8099SOL    HW232715   4.875   1.840   3.559
 8099SOL    HW332716   4.963   1.944   3.624
 8099SOL    MW432717   4.888   1.922   3.582
 8100SOL     OW32718   4.254   2.453   2.032
 8100SOL    HW232719   4.220   2.509   2.102
 8100SOL    HW332720   4.325   2.403   2.072
 8100SOL    MW432721   4.260   2.454   2.046
 8101SOL     OW32722   5.350   3.204   2.854
 8101SOL    HW232723   5.385   3.186   2.767
 8101SOL    HW332724   5.255   3.205   2.841
 8101SOL    MW432725   5.342   3.201   2.841
 8102SOL     OW32726   4.779   2.852   3.223
 8102SOL    HW232727   4.822   2.887   3.301
 8102SOL    HW332728   4.762   2.929   3.169
 8102SOL    MW432729   4.782   2.867   3.226
 8103SOL     OW32730   5.310   2.339   2.096
 8103SOL    HW232731   5.302   2.410   2.033
 8103SOL    HW332732   5.328   2.383   2.179
 8103SOL    MW432733   5.311   2.353   2.098
 8104SOL     OW32734   4.170   1.994   2.525
 8104SOL    HW232735   4.220   2.037   2.456
 8104SOL    HW332736   4.085   2.038   2.525
 8104SOL    MW432737   4.167   2.007   2.516
 8105SOL     OW32738   3.929   3.056   3.385
 8105SOL    HW232739   3.957   3.009   3.463
 8105SOL    HW332740   3.850   3.011   3.356
 8105SOL    MW432741   3.922   3.045   3.391
 8106SOL     OW32742   4.437   2.383   3.352
 8106SOL    HW232743   4.409   2.471   3.376
 8106SOL    HW332744   4.406   2.327   3.423
 8106SOL    MW432745   4.429   2.386   3.364
 8107SOL     OW32746   4.979   2.601   2.071
 8107SOL    HW232747   5.026   2.619   1.990
 8107SOL    HW332748   4.945   2.685   2.099
 8107SOL    MW432749   4.981   2.615   2.064
 8108SOL     OW32750   4.092   2.779   2.565
 8108SOL    HW232751   4.150   2.835   2.513
 8108SOL    HW332752   4.136   2.694   2.567
 8108SOL    MW432753   4.105   2.776   2.558
 8109SOL     OW32754   5.232   2.131   2.402
 8109SOL    HW232755   5.154   2.081   2.427
 8109SOL    HW332756   5.203   2.222   2.402
 8109SOL    MW432757   5.218   2.135   2.405
 8110SOL     OW32758   4.818   2.093   2.561
 8110SOL    HW232759   4.838   2.168   2.505
 8110SOL    HW332760   4.798   2.132   2.646
 8110SOL    MW432761   4.819   2.109   2.565
 8111SOL     OW32762   4.714   3.343   1.893
 8111SOL    HW232763   4.741   3.421   1.845
 8111SOL    HW332764   4.621   3.358   1.912
 8111SOL    MW432765   4.705   3.356   1.889
 8112SOL     OW32766   5.578   2.866   3.580
 8112SOL    HW232767   5.491   2.846   3.616
 8112SOL    HW332768   5.632   2.792   3.605
 8112SOL    MW432769   5.573   2.855   3.588
 8113SOL     OW32770   3.799   3.379   2.737
 8113SOL    HW232771   3.831   3.383   2.828
 8113SOL    HW332772   3.704   3.387   2.745
 8113SOL    MW432773   3.791   3.382   2.750
 8114SOL     OW32774   3.754   2.505   2.284
 8114SOL    HW232775   3.694   2.477   2.354
 8114SOL    HW332776   3.828   2.445   2.290
 8114SOL    MW432777   3.756   2.494   2.293
 8115SOL     OW32778   5.322   3.717   3.718
 8115SOL    HW232779   5.367   3.641   3.683
 8115SOL    HW332780   5.360   3.730   3.805
 8115SOL    MW432781   5.332   3.710   3.724
 8116SOL     OW32782   4.922   3.236   2.444
 8116SOL    HW232783   4.945   3.187   2.522
 8116SOL    HW332784   5.003   3.278   2.416
 8116SOL    MW432785   4.935   3.236   2.451
 8117SOL     OW32786   4.180   2.244   3.173
 8117SOL    HW232787   4.213   2.325   3.213
 8117SOL    HW332788   4.153   2.270   3.085
 8117SOL    MW432789   4.179   2.258   3.167
 8118SOL     OW32790   4.134   2.211   2.909
 8118SOL    HW232791   4.164   2.125   2.880
 8118SOL    HW332792   4.039   2.204   2.912
 8118SOL    MW432793   4.126   2.200   2.907
 8119SOL     OW32794   4.963   2.420   3.600
 8119SOL    HW232795   5.015   2.355   3.553
 8119SOL    HW332796   4.921   2.471   3.530
 8119SOL    MW432797   4.964   2.417   3.583
 8120SOL     OW32798   5.062   2.215   3.461
 8120SOL    HW232799   4.969   2.199   3.448
 8120SOL    HW332800   5.088   2.153   3.529
 8120SOL    MW432801   5.052   2.205   3.468
 8121SOL     OW32802   4.277   1.989   2.800
 8121SOL    HW232803   4.287   1.898   2.826
 8121SOL    HW332804   4.233   1.985   2.715
 8121SOL    MW432805   4.273   1.977   2.792
 8122SOL     OW32806   4.371   3.604   3.346
 8122SOL    HW232807   4.288   3.589   3.391
 8122SOL    HW332808   4.430   3.537   3.381
 8122SOL    MW432809   4.369   3.594   3.356
 8123SOL     OW32810   5.428   2.311   2.971
 8123SOL    HW232811   5.361   2.344   3.031
 8123SOL    HW332812   5.471   2.389   2.937
 8123SOL    MW432813   5.426   2.326   2.975
 8124SOL     OW32814   5.606   3.031   2.941
 8124SOL    HW232815   5.599   2.971   2.866
 8124SOL    HW332816   5.532   3.091   2.930
 8124SOL    MW432817   5.596   3.031   2.930
 8125SOL     OW32818   4.988   2.893   2.859
 8125SOL    HW232819   5.002   2.865   2.950
 8125SOL    HW332820   5.074   2.924   2.831
 8125SOL    MW432821   5.001   2.894   2.868
 8126SOL     OW32822   5.071   2.388   3.138
 8126SOL    HW232823   5.092   2.389   3.045
 8126SOL    HW332824   5.116   2.310   3.171
 8126SOL    MW432825   5.078   2.378   3.130
 8127SOL     OW32826   5.564   2.519   3.680
 8127SOL    HW232827   5.601   2.464   3.749
 8127SOL    HW332828   5.589   2.476   3.598
 8127SOL    MW432829   5.571   2.507   3.679
 8128SOL     OW32830   5.111   2.817   3.731
 8128SOL    HW232831   5.177   2.765   3.685
 8128SOL    HW332832   5.131   2.804   3.824
 8128SOL    MW432833   5.122   2.808   3.738
 8129SOL     OW32834   5.062   1.903   2.080
 8129SOL    HW232835   5.136   1.947   2.123
 8129SOL    HW332836   4.986   1.957   2.102
 8129SOL    MW432837   5.062   1.915   2.088
 8130SOL     OW32838   5.122   2.678   2.358
 8130SOL    HW232839   5.037   2.648   2.328
 8130SOL    HW332840   5.114   2.685   2.453
 8130SOL    MW432841   5.110   2.676   2.367
 8131SOL     OW32842   4.198   3.141   3.089
 8131SOL    HW232843   4.210   3.168   3.180
 8131SOL    HW332844   4.179   3.222   3.042
 8131SOL    MW432845   4.197   3.156   3.094
 8132SOL     OW32846   4.482   2.121   2.912
 8132SOL    HW232847   4.455   2.123   3.003
 8132SOL    HW332848   4.412   2.073   2.867
 8132SOL    MW432849   4.470   2.117   2.919
 8133SOL     OW32850   4.336   3.613   3.074
 8133SOL    HW232851   4.388   3.690   3.051
 8133SOL    HW332852   4.345   3.605   3.169
 8133SOL    MW432853   4.345   3.620   3.085
 8134SOL     OW32854   5.238   3.198   3.306
 8134SOL    HW232855   5.223   3.127   3.369
 8134SOL    HW332856   5.284   3.156   3.234
 8134SOL    MW432857   5.244   3.182   3.306
 8135SOL     OW32858   4.312   2.929   3.423
 8135SOL    HW232859   4.349   2.934   3.335
 8135SOL    HW332860   4.351   3.002   3.470
 8135SOL    MW432861   4.322   2.939   3.418
 8136SOL     OW32862   4.492   2.972   3.235
 8136SOL    HW232863   4.551   2.918   3.288
 8136SOL    HW332864   4.507   2.944   3.145
 8136SOL    MW432865   4.502   2.961   3.231
 8137SOL     OW32866   4.495   2.344   2.084
 8137SOL    HW232867   4.568   2.393   2.047
 8137SOL    HW332868   4.511   2.253   2.058
 8137SOL    MW432869   4.507   2.339   2.077
 8138SOL     OW32870   5.303   3.461   3.407
 8138SOL    HW232871   5.345   3.446   3.492
 8138SOL    HW332872   5.294   3.374   3.369
 8138SOL    MW432873   5.307   3.449   3.414
 8139SOL     OW32874   4.963   1.940   2.998
 8139SOL    HW232875   5.018   1.949   2.920
 8139SOL    HW332876   5.018   1.974   3.069
 8139SOL    MW432877   4.977   1.945   2.997
 8140SOL     OW32878   3.970   2.853   2.182
 8140SOL    HW232879   3.907   2.869   2.111
 8140SOL    HW332880   3.917   2.816   2.253
 8140SOL    MW432881   3.955   2.850   2.182
 8141SOL     OW32882   4.326   3.207   2.041
 8141SOL    HW232883   4.341   3.183   2.133
 8141SOL    HW332884   4.234   3.185   2.025
 8141SOL    MW432885   4.316   3.200   2.051
 8142SOL     OW32886   4.865   3.438   2.193
 8142SOL    HW232887   4.873   3.356   2.144
 8142SOL    HW332888   4.784   3.477   2.160
 8142SOL    MW432889   4.855   3.433   2.183
 8143SOL     OW32890   4.124   3.596   2.762
 8143SOL    HW232891   4.128   3.507   2.797
 8143SOL    HW332892   4.150   3.587   2.671
 8143SOL    MW432893   4.127   3.584   2.754
 8144SOL     OW32894   4.741   3.074   3.005
 8144SOL    HW232895   4.673   3.008   3.021
 8144SOL    HW332896   4.759   3.068   2.912
 8144SOL    MW432897   4.734   3.065   2.996
 8145SOL     OW32898   3.830   3.349   3.256
 8145SOL    HW232899   3.820   3.307   3.342
 8145SOL    HW332900   3.751   3.402   3.246
 8145SOL    MW432901   3.819   3.350   3.267
 8146SOL     OW32902   4.734   2.213   2.826
 8146SOL    HW232903   4.664   2.165   2.871
 8146SOL    HW332904   4.766   2.276   2.890
 8146SOL    MW432905   4.729   2.215   2.840
 8147SOL     OW32906   4.385   2.649   3.446
 8147SOL    HW232907   4.378   2.744   3.434
 8147SOL    HW332908   4.394   2.638   3.541
 8147SOL    MW432909   4.386   2.661   3.456
 8148SOL     OW32910   4.106   3.164   3.704
 8148SOL    HW232911   4.178   3.166   3.641
 8148SOL    HW332912   4.076   3.073   3.703
 8148SOL    MW432913   4.111   3.153   3.696
 8149SOL     OW32914   5.190   1.927   3.171
 8149SOL    HW232915   5.261   1.873   3.135
 8149SOL    HW332916   5.189   1.906   3.264
 8149SOL    MW432917   5.199   1.918   3.179
 8150SOL     OW32918   5.390   3.457   3.655
 8150SOL    HW232919   5.363   3.454   3.746
 8150SOL    HW332920   5.486   3.461   3.658
 8150SOL    MW432921   5.400   3.457   3.667
 8151SOL     OW32922   4.201   2.319   2.639
 8151SOL    HW232923   4.272   2.267   2.602
 8151SOL    HW332924   4.187   2.284   2.726
 8151SOL    MW432925   4.209   2.308   2.646
 8152SOL     OW32926   3.756   3.654   3.711
 8152SOL    HW232927   3.806   3.632   3.633
 8152SOL    HW332928   3.764   3.749   3.719
 8152SOL    MW432929   3.764   3.663   3.702
 8153SOL     OW32930   4.517   3.412   2.715
 8153SOL    HW232931   4.445   3.349   2.728
 8153SOL    HW332932   4.478   3.497   2.733
 8153SOL    MW432933   4.501   3.415   2.718
 8154SOL     OW32934   4.837   2.260   2.363
 8154SOL    HW232935   4.859   2.197   2.295
 8154SOL    HW332936   4.742   2.252   2.374
 8154SOL    MW432937   4.827   2.251   2.355
 8155SOL     OW32938   3.922   1.950   2.295
 8155SOL    HW232939   3.993   1.971   2.234
 8155SOL    HW332940   3.876   1.878   2.253
 8155SOL    MW432941   3.926   1.944   2.281
 8156SOL     OW32942   3.753   2.417   3.438
 8156SOL    HW232943   3.817   2.483   3.413
 8156SOL    HW332944   3.672   2.444   3.395
 8156SOL    MW432945   3.751   2.429   3.430
 8157SOL     OW32946   5.491   3.324   2.395
 8157SOL    HW232947   5.461   3.257   2.456
 8157SOL    HW332948   5.585   3.330   2.409
 8157SOL    MW432949   5.499   3.316   2.405
 8158SOL     OW32950   5.047   3.001   2.325
 8158SOL    HW232951   5.019   3.087   2.358
 8158SOL    HW332952   5.075   3.017   2.235
 8158SOL    MW432953   5.047   3.015   2.317
 8159SOL     OW32954   4.709   1.921   2.378
 8159SOL    HW232955   4.746   1.980   2.443
 8159SOL    HW332956   4.686   1.977   2.304
 8159SOL    MW432957   4.710   1.936   2.377
 8160SOL     OW32958   5.562   2.803   2.800
 8160SOL    HW232959   5.553   2.835   2.711
 8160SOL    HW332960   5.515   2.719   2.800
 8160SOL    MW432961   5.555   2.796   2.790
 8161SOL     OW32962   3.938   2.643   3.379
 8161SOL    HW232963   3.959   2.712   3.317
 8161SOL    HW332964   4.018   2.590   3.384
 8161SOL    MW432965   3.951   2.644   3.373
 8162SOL     OW32966   5.474   2.734   2.501
 8162SOL    HW232967   5.568   2.723   2.489
 8162SOL    HW332968   5.450   2.806   2.442
 8162SOL    MW432969   5.484   2.742   2.492
 8163SOL     OW32970   3.923   2.658   3.646
 8163SOL    HW232971   3.849   2.602   3.672
 8163SOL    HW332972   3.918   2.661   3.551
 8163SOL    MW432973   3.912   2.651   3.636
 8164SOL     OW32974   4.089   1.945   3.096
 8164SOL    HW232975   4.132   2.029   3.116
 8164SOL    HW332976   4.162   1.883   3.089
 8164SOL    MW432977   4.104   1.948   3.097
 8165SOL     OW32978   4.130   2.612   2.274
 8165SOL    HW232979   4.130   2.707   2.259
 8165SOL    HW332980   4.207   2.596   2.328
 8165SOL    MW432981   4.140   2.623   2.279
 8166SOL     OW32982   4.906   2.471   3.338
 8166SOL    HW232983   4.942   2.444   3.254
 8166SOL    HW332984   4.819   2.505   3.317
 8166SOL    MW432985   4.900   2.472   3.325
 8167SOL     OW32986   3.889   2.343   2.563
 8167SOL    HW232987   3.951   2.350   2.636
 8167SOL    HW332988   3.889   2.250   2.540
 8167SOL    MW432989   3.897   2.332   2.570
 8168SOL     OW32990   5.436   3.683   2.095
 8168SOL    HW232991   5.503   3.716   2.035
 8168SOL    HW332992   5.393   3.762   2.129
 8168SOL    MW432993   5.438   3.698   2.091
 8169SOL     OW32994   4.571   2.604   3.047
 8169SOL    HW232995   4.529   2.522   3.023
 8169SOL    HW332996   4.572   2.603   3.143
 8169SOL    MW432997   4.564   2.593   3.056
 8170SOL     OW32998   5.242   3.737   3.446
 8170SOL    HW232999   5.245   3.643   3.429
 8170SOL    HW333000   5.265   3.745   3.538
 8170SOL    MW433001   5.245   3.725   3.456
 8171SOL     OW33002   4.375   2.074   3.152
 8171SOL    HW233003   4.306   2.137   3.173
 8171SOL    HW333004   4.402   2.038   3.237
 8171SOL    MW433005   4.369   2.077   3.165
 8172SOL     OW33006   3.758   2.915   2.021
 8172SOL    HW233007   3.727   2.980   2.084
 8172SOL    HW333008   3.707   2.837   2.040
 8172SOL    MW433009   3.748   2.912   2.031
 8173SOL     OW33010   5.170   1.927   2.769
 8173SOL    HW233011   5.258   1.936   2.806
 8173SOL    HW333012   5.180   1.868   2.695
 8173SOL    MW433013   5.184   1.921   2.763
 8174SOL     OW33014   5.202   2.666   2.613
 8174SOL    HW233015   5.282   2.681   2.562
 8174SOL    HW333016   5.195   2.571   2.619
 8174SOL    MW433017   5.211   2.655   2.608
 8175SOL     OW33018   4.342   3.715   1.963
 8175SOL    HW233019   4.247   3.715   1.955
 8175SOL    HW333020   4.358   3.661   2.041
 8175SOL    MW433021   4.332   3.709   1.972
 8176SOL     OW33022   4.652   2.592   3.310
 8176SOL    HW233023   4.721   2.659   3.307
 8176SOL    HW333024   4.585   2.630   3.366
 8176SOL    MW433025   4.653   2.605   3.317
 8177SOL     OW33026   4.070   2.892   3.558
 8177SOL    HW233027   4.024   2.808   3.560
 8177SOL    HW333028   4.127   2.886   3.482
 8177SOL    MW433029   4.072   2.880   3.550
 8178SOL     OW33030   5.187   2.535   1.879
 8178SOL    HW233031   5.115   2.511   1.821
 8178SOL    HW333032   5.253   2.572   1.821
 8178SOL    MW433033   5.186   2.537   1.864
 8179SOL     OW33034   4.321   3.267   2.559
 8179SOL    HW233035   4.386   3.200   2.580
 8179SOL    HW333036   4.373   3.344   2.536
 8179SOL    MW433037   4.336   3.269   2.558
 8180SOL     OW33038   4.582   2.432   2.689
 8180SOL    HW233039   4.522   2.450   2.761
 8180SOL    HW333040   4.616   2.344   2.708
 8180SOL    MW433041   4.578   2.422   2.702
 8181SOL     OW33042   5.523   1.931   3.358
 8181SOL    HW233043   5.444   1.977   3.386
 8181SOL    HW333044   5.558   1.985   3.287
 8181SOL    MW433045   5.517   1.944   3.352
 8182SOL     OW33046   4.807   3.015   2.708
 8182SOL    HW233047   4.899   2.996   2.726
 8182SOL    HW333048   4.780   2.945   2.648
 8182SOL    MW433049   4.815   3.003   2.702
 8183SOL     OW33050   4.600   2.835   2.063
 8183SOL    HW233051   4.586   2.747   2.028
 8183SOL    HW333052   4.551   2.892   2.004
 8183SOL    MW433053   4.592   2.830   2.051
 8184SOL     OW33054   5.081   3.253   2.804
 8184SOL    HW233055   5.054   3.337   2.769
 8184SOL    HW333056   5.041   3.248   2.891
 8184SOL    MW433057   5.074   3.262   2.810
 8185SOL     OW33058   5.000   3.201   3.072
 8185SOL    HW233059   5.011   3.168   3.161
 8185SOL    HW333060   4.919   3.160   3.041
 8185SOL    MW433061   4.990   3.193   3.078
 8186SOL     OW33062   4.013   2.559   2.842
 8186SOL    HW233063   3.963   2.558   2.923
 8186SOL    HW333064   4.033   2.651   2.826
 8186SOL    MW433065   4.009   2.571   2.850
 8187SOL     OW33066   5.080   3.323   3.604
 8187SOL    HW233067   5.080   3.417   3.620
 8187SOL    HW333068   5.125   3.313   3.520
 8187SOL    MW433069   5.086   3.333   3.595
 8188SOL     OW33070   5.319   2.041   2.165
 8188SOL    HW233071   5.312   2.045   2.260
 8188SOL    HW333072   5.331   2.132   2.138
 8188SOL    MW433073   5.320   2.054   2.173
 8189SOL     OW33074   4.608   2.604   2.279
 8189SOL    HW233075   4.588   2.590   2.186
 8189SOL    HW333076   4.701   2.583   2.286
 8189SOL    MW433077   4.618   2.599   2.268
 8190SOL     OW33078   3.935   2.227   3.583
 8190SOL    HW233079   3.892   2.286   3.520
 8190SOL    HW333080   4.003   2.282   3.623
 8190SOL    MW433081   3.939   2.242   3.580
 8191SOL     OW33082   5.047   2.847   3.128
 8191SOL    HW233083   5.110   2.844   3.201
 8191SOL    HW333084   4.963   2.865   3.170
 8191SOL    MW433085   5.043   2.849   3.143
 8192SOL     OW33086   4.591   3.562   2.317
 8192SOL    HW233087   4.649   3.633   2.344
 8192SOL    HW333088   4.614   3.490   2.375
 8192SOL    MW433089   4.602   3.562   2.328
 8193SOL     OW33090   5.386   2.024   2.907
 8193SOL    HW233091   5.431   1.942   2.926
 8193SOL    HW333092   5.406   2.080   2.983
 8193SOL    MW433093   5.396   2.020   2.919
 8194SOL     OW33094   3.834   1.867   3.006
 8194SOL    HW233095   3.825   1.868   2.911
 8194SOL    HW333096   3.928   1.879   3.021
 8194SOL    MW433097   3.846   1.870   2.997
 8195SOL     OW33098   5.471   3.060   2.626
 8195SOL    HW233099   5.450   3.006   2.549
 8195SOL    HW333100   5.567   3.058   2.630
 8195SOL    MW433101   5.480   3.053   2.615
 8196SOL     OW33102   4.163   3.205   3.369
 8196SOL    HW233103   4.084   3.155   3.392
 8196SOL    HW333104   4.233   3.164   3.419
 8196SOL    MW433105   4.161   3.193   3.379
 8197SOL     OW33106   4.047   1.994   2.052
 8197SOL    HW233107   3.976   2.049   2.020
 8197SOL    HW333108   4.089   1.960   1.973
 8197SOL    MW433109   4.043   1.996   2.038
 8198SOL     OW33110   5.171   2.491   2.888
 8198SOL    HW233111   5.094   2.537   2.854
 8198SOL    HW333112   5.228   2.560   2.922
 8198SOL    MW433113   5.168   2.506   2.888
 8199SOL     OW33114   3.803   2.093   1.901
 8199SOL    HW233115   3.770   2.172   1.945
 8199SOL    HW333116   3.858   2.126   1.830
 8199SOL    MW433117   3.806   2.107   1.898
 8200SOL     OW33118   3.837   3.350   2.090
 8200SOL    HW233119   3.854   3.434   2.132
 8200SOL    HW333120   3.872   3.359   2.002
 8200SOL    MW433121   3.842   3.363   2.084
 8201SOL     OW33122   5.109   3.439   2.307
 8201SOL    HW233123   5.172   3.429   2.236
 8201SOL    HW333124   5.026   3.459   2.262
 8201SOL    MW433125   5.106   3.440   2.292
 8202SOL     OW33126   5.472   2.707   3.993
 8202SOL    HW233127   5.513   2.649   4.058
 8202SOL    HW333128   5.379   2.699   4.010
 8202SOL    MW433129   5.466   2.699   4.003
 8203SOL     OW33130   5.338   2.639   4.988
 8203SOL    HW233131   5.293   2.706   5.039
 8203SOL    HW333132   5.426   2.675   4.974
 8203SOL    MW433133   5.344   2.652   4.992
 8204SOL     OW33134   4.266   2.890   4.222
 8204SOL    HW233135   4.356   2.865   4.206
 8204SOL    HW333136   4.262   2.983   4.199
 8204SOL    MW433137   4.278   2.899   4.217
 8205SOL     OW33138   5.382   3.593   4.364
 8205SOL    HW233139   5.394   3.539   4.442
 8205SOL    HW333140   5.419   3.541   4.293
 8205SOL    MW433141   5.388   3.578   4.365
 8206SOL     OW33142   4.761   3.478   5.365
 8206SOL    HW233143   4.802   3.514   5.286
 8206SOL    HW333144   4.796   3.389   5.372
 8206SOL    MW433145   4.772   3.471   5.356
 8207SOL     OW33146   5.318   3.033   4.969
 8207SOL    HW233147   5.239   2.998   4.927
 8207SOL    HW333148   5.345   3.105   4.913
 8207SOL    MW433149   5.311   3.038   4.956
 8208SOL     OW33150   4.550   2.346   4.235
 8208SOL    HW233151   4.525   2.434   4.263
 8208SOL    HW333152   4.547   2.349   4.139
 8208SOL    MW433153   4.546   2.358   4.227
 8209SOL     OW33154   3.992   2.374   4.163
 8209SOL    HW233155   4.024   2.462   4.145
 8209SOL    HW333156   3.980   2.372   4.258
 8209SOL    MW433157   3.995   2.386   4.175
 8210SOL     OW33158   4.070   2.787   5.064
 8210SOL    HW233159   4.133   2.734   5.015
 8210SOL    HW333160   4.051   2.861   5.007
 8210SOL    MW433161   4.076   2.789   5.051
 8211SOL     OW33162   4.391   2.129   4.250
 8211SOL    HW233163   4.449   2.205   4.252
 8211SOL    HW333164   4.326   2.150   4.183
 8211SOL    MW433165   4.390   2.141   4.241
 8212SOL     OW33166   4.478   3.056   4.425
 8212SOL    HW233167   4.558   3.059   4.477
 8212SOL    HW333168   4.506   3.023   4.339
 8212SOL    MW433169   4.492   3.052   4.420
 8213SOL     OW33170   4.503   3.397   5.328
 8213SOL    HW233171   4.587   3.423   5.367
 8213SOL    HW333172   4.527   3.341   5.254
 8213SOL    MW433173   4.517   3.393   5.323
 8214SOL     OW33174   4.255   2.560   4.416
 8214SOL    HW233175   4.240   2.480   4.467
 8214SOL    HW333176   4.337   2.595   4.450
 8214SOL    MW433177   4.263   2.552   4.428
 8215SOL     OW33178   4.592   3.246   5.101
 8215SOL    HW233179   4.556   3.312   5.041
 8215SOL    HW333180   4.520   3.184   5.114
 8215SOL    MW433181   4.578   3.246   5.095
 8216SOL     OW33182   4.397   2.386   4.793
 8216SOL    HW233183   4.303   2.382   4.811
 8216SOL    HW333184   4.427   2.295   4.802
 8216SOL    MW433185   4.388   2.374   4.796
 8217SOL     OW33186   4.143   2.800   4.697
 8217SOL    HW233187   4.098   2.807   4.613
 8217SOL    HW333188   4.123   2.883   4.741
 8217SOL    MW433189   4.135   2.812   4.691
 8218SOL     OW33190   3.840   3.646   4.572
 8218SOL    HW233191   3.929   3.638   4.607
 8218SOL    HW333192   3.804   3.558   4.577
 8218SOL    MW433193   3.847   3.633   4.577
 8219SOL     OW33194   5.105   3.038   3.941
 8219SOL    HW233195   5.023   3.074   3.907
 8219SOL    HW333196   5.173   3.081   3.890
 8219SOL    MW433197   5.103   3.048   3.929
 8220SOL     OW33198   4.104   3.173   4.607
 8220SOL    HW233199   4.080   3.226   4.683
 8220SOL    HW333200   4.160   3.231   4.555
 8220SOL    MW433201   4.108   3.188   4.610
 8221SOL     OW33202   4.666   2.817   4.417
 8221SOL    HW233203   4.580   2.804   4.457
 8221SOL    HW333204   4.719   2.744   4.449
 8221SOL    MW433205   4.662   2.806   4.426
 8222SOL     OW33206   4.074   3.469   5.202
 8222SOL    HW233207   3.982   3.445   5.187
 8222SOL    HW333208   4.118   3.386   5.219
 8222SOL    MW433209   4.068   3.454   5.201
 8223SOL     OW33210   4.657   3.179   4.134
 8223SOL    HW233211   4.634   3.241   4.202
 8223SOL    HW333212   4.614   3.097   4.160
 8223SOL    MW433213   4.649   3.175   4.145
 8224SOL     OW33214   5.530   2.180   4.590
 8224SOL    HW233215   5.467   2.160   4.659
 8224SOL    HW333216   5.520   2.109   4.527
 8224SOL    MW433217   5.520   2.167   4.591
 8225SOL     OW33218   4.154   2.152   4.102
 8225SOL    HW233219   4.128   2.114   4.018
 8225SOL    HW333220   4.091   2.222   4.118
 8225SOL    MW433221   4.143   2.155   4.093
 8226SOL     OW33222   3.989   3.113   4.139
 8226SOL    HW233223   3.937   3.181   4.095
 8226SOL    HW333224   3.986   3.039   4.079
 8226SOL    MW433225   3.981   3.112   4.126
 8227SOL     OW33226   4.651   3.576   3.917
 8227SOL    HW233227   4.606   3.592   4.000
 8227SOL    HW333228   4.582   3.541   3.859
 8227SOL    MW433229   4.637   3.573   3.919
 8228SOL     OW33230   5.586   2.349   3.892
 8228SOL    HW233231   5.495   2.351   3.920
 8228SOL    HW333232   5.631   2.411   3.950
 8228SOL    MW433233   5.579   2.357   3.902
 8229SOL     OW33234   5.331   2.952   4.242
 8229SOL    HW233235   5.241   2.952   4.277
 8229SOL    HW333236   5.324   2.998   4.159
 8229SOL    MW433237   5.318   2.958   4.236
 8230SOL     OW33238   5.131   2.587   5.314
 8230SOL    HW233239   5.200   2.525   5.291
 8230SOL    HW333240   5.056   2.561   5.261
 8230SOL    MW433241   5.131   2.574   5.305
 8231SOL     OW33242   3.872   3.467   4.866
 8231SOL    HW233243   3.855   3.413   4.943
 8231SOL    HW333244   3.860   3.557   4.896
 8231SOL    MW433245   3.869   3.471   4.880
 8232SOL     OW33246   4.867   2.974   5.306
 8232SOL    HW233247   4.852   3.067   5.291
 8232SOL    HW333248   4.962   2.964   5.306
 8232SOL    MW433249   4.876   2.984   5.303
 8233SOL     OW33250   4.663   2.398   5.507
 8233SOL    HW233251   4.753   2.399   5.474
 8233SOL    HW333252   4.622   2.323   5.465
 8233SOL    MW433253   4.669   2.388   5.498
 8234SOL     OW33254   5.238   2.930   4.634
 8234SOL    HW233255   5.241   2.864   4.565
 8234SOL    HW333256   5.323   2.973   4.630
 8234SOL    MW433257   5.250   2.926   4.625
 8235SOL     OW33258   4.858   2.533   4.203
 8235SOL    HW233259   4.884   2.557   4.114
 8235SOL    HW333260   4.840   2.440   4.199
 8235SOL    MW433261   4.860   2.525   4.190
 8236SOL     OW33262   5.523   3.153   4.054
 8236SOL    HW233263   5.479   3.194   4.129
 8236SOL    HW333264   5.580   3.221   4.019
 8236SOL    MW433265   5.525   3.167   4.059
 8237SOL     OW33266   4.443   2.202   5.457
 8237SOL    HW233267   4.453   2.128   5.397
 8237SOL    HW333268   4.479   2.171   5.540
 8237SOL    MW433269   4.449   2.188   5.459
 8238SOL     OW33270   4.179   3.569   4.372
 8238SOL    HW233271   4.211   3.657   4.350
 8238SOL    HW333272   4.132   3.541   4.294
 8238SOL    MW433273   4.178   3.577   4.359
 8239SOL     OW33274   5.563   1.931   4.421
 8239SOL    HW233275   5.617   1.882   4.483
 8239SOL    HW333276   5.506   1.865   4.382
 8239SOL    MW433277   5.563   1.915   4.423
 8240SOL     OW33278   3.895   3.629   3.949
 8240SOL    HW233279   3.924   3.719   3.941
 8240SOL    HW333280   3.845   3.612   3.870
 8240SOL    MW433281   3.893   3.637   3.938
 8241SOL     OW33282   4.682   1.884   4.834
 8241SOL    HW233283   4.641   1.962   4.796
 8241SOL    HW333284   4.776   1.902   4.829
 8241SOL    MW433285   4.688   1.896   4.829
 8242SOL     OW33286   5.299   3.437   3.920
 8242SOL    HW233287   5.347   3.506   3.966
 8242SOL    HW333288   5.220   3.481   3.889
 8242SOL    MW433289   5.294   3.451   3.923
 8243SOL     OW33290   4.697   2.562   3.864
 8243SOL    HW233291   4.699   2.509   3.785
 8243SOL    HW333292   4.785   2.599   3.870
 8243SOL    MW433293   4.709   2.561   3.853
 8244SOL     OW33294   5.311   2.488   4.200
 8244SOL    HW233295   5.350   2.488   4.287
 8244SOL    HW333296   5.252   2.564   4.200
 8244SOL    MW433297   5.308   2.499   4.211
 8245SOL     OW33298   4.628   2.855   5.329
 8245SOL    HW233299   4.605   2.835   5.419
 8245SOL    HW333300   4.713   2.899   5.334
 8245SOL    MW433301   4.635   2.858   5.341
 8246SOL     OW33302   4.708   1.992   5.089
 8246SOL    HW233303   4.714   1.954   5.002
 8246SOL    HW333304   4.697   2.086   5.074
 8246SOL    MW433305   4.709   2.000   5.077
 8247SOL     OW33306   4.797   2.481   4.923
 8247SOL    HW233307   4.872   2.510   4.870
 8247SOL    HW333308   4.729   2.546   4.907
 8247SOL    MW433309   4.798   2.493   4.913
 8248SOL     OW33310   5.347   2.449   5.200
 8248SOL    HW233311   5.328   2.358   5.179
 8248SOL    HW333312   5.325   2.498   5.121
 8248SOL    MW433313   5.342   2.442   5.187
 8249SOL     OW33314   5.489   3.543   5.104
 8249SOL    HW233315   5.417   3.505   5.155
 8249SOL    HW333316   5.506   3.628   5.145
 8249SOL    MW433317   5.483   3.548   5.116
 8250SOL     OW33318   4.794   2.187   5.306
 8250SOL    HW233319   4.760   2.226   5.225
 8250SOL    HW333320   4.772   2.095   5.299
 8250SOL    MW433321   4.787   2.180   5.296
 8251SOL     OW33322   5.203   3.001   5.382
 8251SOL    HW233323   5.285   3.042   5.412
 8251SOL    HW333324   5.166   2.963   5.462
 8251SOL    MW433325   5.209   3.002   5.397
 8252SOL     OW33326   5.498   2.374   4.366
 8252SOL    HW233327   5.587   2.343   4.383
 8252SOL    HW333328   5.441   2.314   4.414
 8252SOL    MW433329   5.501   2.362   4.375
 8253SOL     OW33330   3.924   2.088   4.395
 8253SOL    HW233331   3.915   2.028   4.321
 8253SOL    HW333332   3.857   2.059   4.458
 8253SOL    MW433333   3.914   2.075   4.393
 8254SOL     OW33334   4.867   3.181   3.956
 8254SOL    HW233335   4.817   3.183   4.038
 8254SOL    HW333336   4.801   3.199   3.888
 8254SOL    MW433337   4.853   3.183   3.958
 8255SOL     OW33338   3.871   2.261   4.758
 8255SOL    HW233339   3.843   2.352   4.767
 8255SOL    HW333340   3.808   2.222   4.697
 8255SOL    MW433341   3.858   2.267   4.752
 8256SOL     OW33342   4.330   3.599   4.064
 8256SOL    HW233343   4.251   3.557   4.097
 8256SOL    HW333344   4.396   3.582   4.131
 8256SOL    MW433345   4.329   3.591   4.077
 8257SOL     OW33346   5.458   3.119   5.461
 8257SOL    HW233347   5.508   3.045   5.493
 8257SOL    HW333348   5.404   3.146   5.536
 8257SOL    MW433349   5.458   3.113   5.474
 8258SOL     OW33350   4.466   3.014   3.771
 8258SOL    HW233351   4.388   2.960   3.758
 8258SOL    HW333352   4.437   3.087   3.824
 8258SOL    MW433353   4.452   3.016   3.776
 8259SOL     OW33354   5.592   2.754   4.963
 8259SOL    HW233355   5.608   2.792   4.876
 8259SOL    HW333356   5.626   2.820   5.024
 8259SOL    MW433357   5.599   2.767   4.959
 8260SOL     OW33358   5.384   3.463   4.632
 8260SOL    HW233359   5.413   3.530   4.693
 8260SOL    HW333360   5.365   3.387   4.687
 8260SOL    MW433361   5.386   3.463   4.647
 8261SOL     OW33362   5.047   3.530   3.839
 8261SOL    HW233363   4.973   3.493   3.889
 8261SOL    HW333364   5.055   3.620   3.872
 8261SOL    MW433365   5.038   3.537   3.851
 8262SOL     OW33366   3.855   2.536   4.928
 8262SOL    HW233367   3.917   2.566   4.994
 8262SOL    HW333368   3.789   2.605   4.922
 8262SOL    MW433369   3.854   2.549   4.935
 8263SOL     OW33370   5.271   3.204   3.781
 8263SOL    HW233371   5.218   3.253   3.717
 8263SOL    HW333372   5.302   3.270   3.842
 8263SOL    MW433373   5.269   3.218   3.779
 8264SOL     OW33374   4.496   2.093   3.836
 8264SOL    HW233375   4.444   2.013   3.824
 8264SOL    HW333376   4.583   2.070   3.804
 8264SOL    MW433377   4.499   2.079   3.830
 8265SOL     OW33378   3.950   3.645   5.380
 8265SOL    HW233379   3.924   3.713   5.318
 8265SOL    HW333380   3.998   3.582   5.328
 8265SOL    MW433381   3.952   3.645   5.366
 8266SOL     OW33382   4.002   2.964   4.887
 8266SOL    HW233383   4.055   3.039   4.912
 8266SOL    HW333384   3.921   3.002   4.853
 8266SOL    MW433385   3.998   2.979   4.887
 8267SOL     OW33386   4.542   2.868   4.875
 8267SOL    HW233387   4.570   2.777   4.887
 8267SOL    HW333388   4.471   2.862   4.811
 8267SOL    MW433389   4.535   2.856   4.870
 8268SOL     OW33390   3.857   2.733   4.293
 8268SOL    HW233391   3.948   2.748   4.320
 8268SOL    HW333392   3.860   2.654   4.239
 8268SOL    MW433393   3.869   2.725   4.291
 8269SOL     OW33394   4.093   2.441   5.547
 8269SOL    HW233395   4.040   2.521   5.554
 8269SOL    HW333396   4.163   2.453   5.612
 8269SOL    MW433397   4.095   2.454   5.555
 8270SOL     OW33398   4.479   1.991   5.254
 8270SOL    HW233399   4.456   1.899   5.256
 8270SOL    HW333400   4.565   1.993   5.211
 8270SOL    MW433401   4.486   1.981   5.250
 8271SOL     OW33402   4.163   2.515   5.293
 8271SOL    HW233403   4.243   2.565   5.279
 8271SOL    HW333404   4.154   2.509   5.388
 8271SOL    MW433405   4.172   2.521   5.303
 8272SOL     OW33406   4.484   3.665   4.667
 8272SOL    HW233407   4.573   3.680   4.697
 8272SOL    HW333408   4.479   3.712   4.583
 8272SOL    MW433409   4.494   3.673   4.660
 8273SOL     OW33410   5.140   2.040   5.564
 8273SOL    HW233411   5.196   1.967   5.590
 8273SOL    HW333412   5.110   2.078   5.646
 8273SOL    MW433413   5.144   2.035   5.577
 8274SOL     OW33414   3.865   3.345   4.332
 8274SOL    HW233415   3.837   3.384   4.414
 8274SOL    HW333416   3.885   3.254   4.354
 8274SOL    MW433417   3.863   3.337   4.345
 8275SOL     OW33418   4.698   3.388   4.367
 8275SOL    HW233419   4.781   3.342   4.351
 8275SOL    HW333420   4.688   3.387   4.463
 8275SOL    MW433421   4.708   3.381   4.377
 8276SOL     OW33422   5.530   2.533   4.681
 8276SOL    HW233423   5.619   2.563   4.663
 8276SOL    HW333424   5.510   2.473   4.610
 8276SOL    MW433425   5.539   2.530   4.670
 8277SOL     OW33426   5.381   2.712   5.561
 8277SOL    HW233427   5.436   2.636   5.542
 8277SOL    HW333428   5.383   2.720   5.656
 8277SOL    MW433429   5.389   2.703   5.569
 8278SOL     OW33430   4.431   3.445   3.772
 8278SOL    HW233431   4.371   3.514   3.742
 8278SOL    HW333432   4.376   3.387   3.825
 8278SOL    MW433433   4.415   3.447   3.774
 8279SOL     OW33434   4.869   2.090   3.995
 8279SOL    HW233435   4.802   2.066   3.932
 8279SOL    HW333436   4.934   2.139   3.944
 8279SOL    MW433437   4.869   2.092   3.980
 8280SOL     OW33438   4.676   2.274   5.080
 8280SOL    HW233439   4.595   2.315   5.108
 8280SOL    HW333440   4.723   2.342   5.032
 8280SOL    MW433441   4.671   2.289   5.078
 8281SOL     OW33442   4.936   2.612   4.703
 8281SOL    HW233443   4.949   2.706   4.713
 8281SOL    HW333444   4.897   2.602   4.617
 8281SOL    MW433445   4.932   2.623   4.693
 8282SOL     OW33446   4.388   2.807   4.507
 8282SOL    HW233447   4.299   2.798   4.540
 8282SOL    HW333448   4.392   2.897   4.475
 8282SOL    MW433449   4.377   2.818   4.507
 8283SOL     OW33450   5.187   2.390   4.502
 8283SOL    HW233451   5.132   2.311   4.501
 8283SOL    HW333452   5.169   2.431   4.586
 8283SOL    MW433453   5.177   2.385   4.511
 8284SOL     OW33454   4.158   2.077   5.319
 8284SOL    HW233455   4.079   2.095   5.371
 8284SOL    HW333456   4.153   2.139   5.246
 8284SOL    MW433457   4.148   2.087   5.316
 8285SOL     OW33458   4.806   2.594   4.459
 8285SOL    HW233459   4.743   2.526   4.483
 8285SOL    HW333460   4.826   2.575   4.367
 8285SOL    MW433461   4.800   2.581   4.451
 8286SOL     OW33462   4.062   3.489   4.161
 8286SOL    HW233463   4.023   3.536   4.087
 8286SOL    HW333464   3.996   3.424   4.186
 8286SOL    MW433465   4.049   3.487   4.155
 8287SOL     OW33466   4.554   2.898   4.185
 8287SOL    HW233467   4.556   2.872   4.092
 8287SOL    HW333468   4.612   2.835   4.228
 8287SOL    MW433469   4.562   2.887   4.179
 8288SOL     OW33470   5.107   3.458   4.957
 8288SOL    HW233471   5.032   3.504   4.995
 8288SOL    HW333472   5.089   3.365   4.974
 8288SOL    MW433473   5.096   3.452   4.965
 8289SOL     OW33474   5.111   3.666   4.387
 8289SOL    HW233475   5.054   3.619   4.326
 8289SOL    HW333476   5.197   3.627   4.374
 8289SOL    MW433477   5.114   3.657   4.377
 8290SOL     OW33478   5.064   2.142   4.518
 8290SOL    HW233479   5.092   2.074   4.579
 8290SOL    HW333480   4.978   2.113   4.488
 8290SOL    MW433481   5.057   2.129   4.522
 8291SOL     OW33482   3.869   3.076   4.452
 8291SOL    HW233483   3.933   3.108   4.515
 8291SOL    HW333484   3.918   3.012   4.400
 8291SOL    MW433485   3.884   3.072   4.453
 8292SOL     OW33486   4.369   3.152   5.434
 8292SOL    HW233487   4.417   3.235   5.421
 8292SOL    HW333488   4.426   3.100   5.490
 8292SOL    MW433489   4.383   3.156   5.440
 8293SOL     OW33490   3.945   3.394   5.574
 8293SOL    HW233491   4.001   3.318   5.589
 8293SOL    HW333492   3.894   3.372   5.496
 8293SOL    MW433493   3.945   3.381   5.565
 8294SOL     OW33494   5.044   2.246   3.853
 8294SOL    HW233495   5.017   2.312   3.789
 8294SOL    HW333496   5.114   2.289   3.903
 8294SOL    MW433497   5.049   2.259   3.850
 8295SOL     OW33498   4.712   1.951   3.790
 8295SOL    HW233499   4.768   1.943   3.712
 8295SOL    HW333500   4.689   1.861   3.812
 8295SOL    MW433501   4.717   1.938   3.783
 8296SOL     OW33502   5.217   2.802   3.995
 8296SOL    HW233503   5.184   2.891   3.985
 8296SOL    HW333504   5.182   2.773   4.080
 8296SOL    MW433505   5.207   2.811   4.006
 8297SOL     OW33506   4.830   3.231   5.183
 8297SOL    HW233507   4.741   3.237   5.151
 8297SOL    HW333508   4.874   3.310   5.151
 8297SOL    MW433509   4.825   3.241   5.175
 8298SOL     OW33510   4.123   1.899   5.525
 8298SOL    HW233511   4.051   1.864   5.473
 8298SOL    HW333512   4.181   1.940   5.460
 8298SOL    MW433513   4.121   1.900   5.510
 8299SOL     OW33514   4.147   3.389   4.824
 8299SOL    HW233515   4.192   3.451   4.881
 8299SOL    HW333516   4.054   3.408   4.837
 8299SOL    MW433517   4.140   3.399   4.831
 8300SOL     OW33518   5.587   2.918   5.178
 8300SOL    HW233519   5.502   2.931   5.137
 8300SOL    HW333520   5.567   2.882   5.265
 8300SOL    MW433521   5.574   2.914   5.183
 8301SOL     OW33522   4.569   3.457   4.932
 8301SOL    HW233523   4.593   3.446   4.841
 8301SOL    HW333524   4.492   3.514   4.930
 8301SOL    MW433525   4.561   3.462   4.921
 8302SOL     OW33526   4.211   2.840   3.787
 8302SOL    HW233527   4.134   2.853   3.843
 8302SOL    HW333528   4.175   2.804   3.706
 8302SOL    MW433529   4.197   2.836   3.784
 8303SOL     OW33530   4.864   2.813   4.030
 8303SOL    HW233531   4.774   2.834   4.005
 8303SOL    HW333532   4.891   2.886   4.086
 8303SOL    MW433533   4.856   2.825   4.033
 8304SOL     OW33534   4.364   3.162   4.722
 8304SOL    HW233535   4.357   3.141   4.816
 8304SOL    HW333536   4.282   3.130   4.685
 8304SOL    MW433537   4.352   3.156   4.729
 8305SOL     OW33538   5.228   2.172   5.124
 8305SOL    HW233539   5.175   2.174   5.204
 8305SOL    HW333540   5.213   2.085   5.087
 8305SOL    MW433541   5.220   2.162   5.129
 8306SOL     OW33542   5.564   2.096   4.997
 8306SOL    HW233543   5.545   2.163   4.932
 8306SOL    HW333544   5.621   2.034   4.952
 8306SOL    MW433545   5.568   2.097   4.983
 8307SOL     OW33546   3.810   3.254   5.385
 8307SOL    HW233547   3.854   3.187   5.331
 8307SOL    HW333548   3.725   3.216   5.405
 8307SOL    MW433549   3.805   3.240   5.381
 8308SOL     OW33550   4.493   1.929   4.437
 8308SOL    HW233551   4.422   1.990   4.419
 8308SOL    HW333552   4.544   1.926   4.356
 8308SOL    MW433553   4.489   1.935   4.424
 8309SOL     OW33554   4.251   3.169   4.186
 8309SOL    HW233555   4.244   3.201   4.276
 8309SOL    HW333556   4.161   3.153   4.158
 8309SOL    MW433557   4.239   3.171   4.193
 8310SOL     OW33558   4.846   3.562   5.095
 8310SOL    HW233559   4.766   3.547   5.045
 8310SOL    HW333560   4.853   3.657   5.102
 8310SOL    MW433561   4.837   3.573   5.089
 8311SOL     OW33562   4.960   3.527   4.585
 8311SOL    HW233563   5.007   3.600   4.544
 8311SOL    HW333564   4.881   3.566   4.621
 8311SOL    MW433565   4.955   3.542   4.584
 8312SOL     OW33566   5.368   3.622   4.860
 8312SOL    HW233567   5.411   3.592   4.940
 8312SOL    HW333568   5.287   3.570   4.857
 8312SOL    MW433569   5.363   3.611   4.870
 8313SOL     OW33570   4.453   2.586   5.567
 8313SOL    HW233571   4.523   2.528   5.539
 8313SOL    HW333572   4.396   2.531   5.622
 8313SOL    MW433573   4.455   2.573   5.571
 8314SOL     OW33574   5.240   2.798   5.200
 8314SOL    HW233575   5.245   2.851   5.280
 8314SOL    HW333576   5.202   2.715   5.228
 8314SOL    MW433577   5.236   2.793   5.215
 8315SOL     OW33578   4.880   1.933   5.446
 8315SOL    HW233579   4.875   1.840   5.427
 8315SOL    HW333580   4.963   1.944   5.492
 8315SOL    MW433581   4.888   1.922   5.450
 8316SOL     OW33582   4.254   2.453   3.900
 8316SOL    HW233583   4.220   2.509   3.970
 8316SOL    HW333584   4.325   2.403   3.940
 8316SOL    MW433585   4.260   2.454   3.914
 8317SOL     OW33586   5.350   3.204   4.722
 8317SOL    HW233587   5.385   3.186   4.635
 8317SOL    HW333588   5.255   3.205   4.709
 8317SOL    MW433589   5.342   3.201   4.709
 8318SOL     OW33590   4.779   2.852   5.091
 8318SOL    HW233591   4.822   2.887   5.169
 8318SOL    HW333592   4.762   2.929   5.037
 8318SOL    MW433593   4.782   2.867   5.094
 8319SOL     OW33594   5.310   2.339   3.964
 8319SOL    HW233595   5.302   2.410   3.901
 8319SOL    HW333596   5.328   2.383   4.047
 8319SOL    MW433597   5.311   2.353   3.966
 8320SOL     OW33598   4.170   1.994   4.393
 8320SOL    HW233599   4.220   2.037   4.324
 8320SOL    HW333600   4.085   2.038   4.393
 8320SOL    MW433601   4.167   2.007   4.384
 8321SOL     OW33602   3.929   3.056   5.253
 8321SOL    HW233603   3.957   3.009   5.331
 8321SOL    HW333604   3.850   3.011   5.224
 8321SOL    MW433605   3.922   3.045   5.259
 8322SOL     OW33606   4.437   2.383   5.220
 8322SOL    HW233607   4.409   2.471   5.244
 8322SOL    HW333608   4.406   2.327   5.291
 8322SOL    MW433609   4.429   2.386   5.232
 8323SOL     OW33610   4.979   2.601   3.939
 8323SOL    HW233611   5.026   2.619   3.858
 8323SOL    HW333612   4.945   2.685   3.967
 8323SOL    MW433613   4.981   2.615   3.932
 8324SOL     OW33614   4.092   2.779   4.433
 8324SOL    HW233615   4.150   2.835   4.381
 8324SOL    HW333616   4.136   2.694   4.435
 8324SOL    MW433617   4.105   2.776   4.426
 8325SOL     OW33618   5.232   2.131   4.270
 8325SOL    HW233619   5.154   2.081   4.295
 8325SOL    HW333620   5.203   2.222   4.270
 8325SOL    MW433621   5.218   2.135   4.273
 8326SOL     OW33622   4.818   2.093   4.429
 8326SOL    HW233623   4.838   2.168   4.373
 8326SOL    HW333624   4.798   2.132   4.514
 8326SOL    MW433625   4.819   2.109   4.433
 8327SOL     OW33626   4.714   3.343   3.761
 8327SOL    HW233627   4.741   3.421   3.713
 8327SOL    HW333628   4.621   3.358   3.780
 8327SOL    MW433629   4.705   3.356   3.757
 8328SOL     OW33630   5.578   2.866   5.448
 8328SOL    HW233631   5.491   2.846   5.484
 8328SOL    HW333632   5.632   2.792   5.473
 8328SOL    MW433633   5.573   2.855   5.456
 8329SOL     OW33634   3.799   3.379   4.605
 8329SOL    HW233635   3.831   3.383   4.696
 8329SOL    HW333636   3.704   3.387   4.613
 8329SOL    MW433637   3.791   3.382   4.618
 8330SOL     OW33638   3.754   2.505   4.152
 8330SOL    HW233639   3.694   2.477   4.222
 8330SOL    HW333640   3.828   2.445   4.158
 8330SOL    MW433641   3.756   2.494   4.161
 8331SOL     OW33642   5.322   3.717   5.586
 8331SOL    HW233643   5.367   3.641   5.551
 8331SOL    HW333644   5.360   3.730   5.673
 8331SOL    MW433645   5.332   3.710   5.592
 8332SOL     OW33646   4.922   3.236   4.312
 8332SOL    HW233647   4.945   3.187   4.390
 8332SOL    HW333648   5.003   3.278   4.284
 8332SOL    MW433649   4.935   3.236   4.319
 8333SOL     OW33650   4.180   2.244   5.041
 8333SOL    HW233651   4.213   2.325   5.081
 8333SOL    HW333652   4.153   2.270   4.953
 8333SOL    MW433653   4.179   2.258   5.035
 8334SOL     OW33654   4.134   2.211   4.777
 8334SOL    HW233655   4.164   2.125   4.748
 8334SOL    HW333656   4.039   2.204   4.780
 8334SOL    MW433657   4.126   2.200   4.775
 8335SOL     OW33658   4.963   2.420   5.468
 8335SOL    HW233659   5.015   2.355   5.421
 8335SOL    HW333660   4.921   2.471   5.398
 8335SOL    MW433661   4.964   2.417   5.451
 8336SOL     OW33662   5.062   2.215   5.329
 8336SOL    HW233663   4.969   2.199   5.316
 8336SOL    HW333664   5.088   2.153   5.397
 8336SOL    MW433665   5.052   2.205   5.336
 8337SOL     OW33666   4.277   1.989   4.668
 8337SOL    HW233667   4.287   1.898   4.694
 8337SOL    HW333668   4.233   1.985   4.583
 8337SOL    MW433669   4.273   1.977   4.660
 8338SOL     OW33670   4.371   3.604   5.214
 8338SOL    HW233671   4.288   3.589   5.259
 8338SOL    HW333672   4.430   3.537   5.249
 8338SOL    MW433673   4.369   3.594   5.224
 8339SOL     OW33674   5.428   2.311   4.839
 8339SOL    HW233675   5.361   2.344   4.899
 8339SOL    HW333676   5.471   2.389   4.805
 8339SOL    MW433677   5.426   2.326   4.843
 8340SOL     OW33678   5.606   3.031   4.809
 8340SOL    HW233679   5.599   2.971   4.734
 8340SOL    HW333680   5.532   3.091   4.798
 8340SOL    MW433681   5.596   3.031   4.798
 8341SOL     OW33682   4.988   2.893   4.727
 8341SOL    HW233683   5.002   2.865   4.818
 8341SOL    HW333684   5.074   2.924   4.699
 8341SOL    MW433685   5.001   2.894   4.736
 8342SOL     OW33686   5.071   2.388   5.006
 8342SOL    HW233687   5.092   2.389   4.913
 8342SOL    HW333688   5.116   2.310   5.039
 8342SOL    MW433689   5.078   2.378   4.998
 8343SOL     OW33690   5.564   2.519   5.548
 8343SOL    HW233691   5.601   2.464   5.617
 8343SOL    HW333692   5.589   2.476   5.466
 8343SOL    MW433693   5.571   2.507   5.547
 8344SOL     OW33694   5.111   2.817   5.600
 8344SOL    HW233695   5.177   2.765   5.554
 8344SOL    HW333696   5.131   2.804   5.693
 8344SOL    MW433697   5.122   2.808   5.607
 8345SOL     OW33698   5.062   1.903   3.948
 8345SOL    HW233699   5.136   1.947   3.991
 8345SOL    HW333700   4.986   1.957   3.970
 8345SOL    MW433701   5.062   1.915   3.956
 8346SOL     OW33702   5.122   2.678   4.226
 8346SOL    HW233703   5.037   2.648   4.196
 8346SOL    HW333704   5.114   2.685   4.321
 8346SOL    MW433705   5.110   2.676   4.235
 8347SOL     OW33706   4.198   3.141   4.957
 8347SOL    HW233707   4.210   3.168   5.048
 8347SOL    HW333708   4.179   3.222   4.910
 8347SOL    MW433709   4.197   3.156   4.962
 8348SOL     OW33710   4.482   2.121   4.780
 8348SOL    HW233711   4.455   2.123   4.871
 8348SOL    HW333712   4.412   2.073   4.735
 8348SOL    MW433713   4.470   2.117   4.787
 8349SOL     OW33714   4.336   3.613   4.942
 8349SOL    HW233715   4.388   3.690   4.919
 8349SOL    HW333716   4.345   3.605   5.037
 8349SOL    MW433717   4.345   3.620   4.953
 8350SOL     OW33718   5.238   3.198   5.174
 8350SOL    HW233719   5.223   3.127   5.237
 8350SOL    HW333720   5.284   3.156   5.102
 8350SOL    MW433721   5.244   3.182   5.174
 8351SOL     OW33722   4.312   2.929   5.291
 8351SOL    HW233723   4.349   2.934   5.203
 8351SOL    HW333724   4.351   3.002   5.338
 8351SOL    MW433725   4.322   2.939   5.286
 8352SOL     OW33726   4.492   2.972   5.103
 8352SOL    HW233727   4.551   2.918   5.156
 8352SOL    HW333728   4.507   2.944   5.013
 8352SOL    MW433729   4.502   2.961   5.099
 8353SOL     OW33730   4.495   2.344   3.952
 8353SOL    HW233731   4.568   2.393   3.915
 8353SOL    HW333732   4.511   2.253   3.926
 8353SOL    MW433733   4.507   2.339   3.945
 8354SOL     OW33734   5.303   3.461   5.275
 8354SOL    HW233735   5.345   3.446   5.360
 8354SOL    HW333736   5.294   3.374   5.237
 8354SOL    MW433737   5.307   3.449   5.282
 8355SOL     OW33738   4.963   1.940   4.866
 8355SOL    HW233739   5.018   1.949   4.788
 8355SOL    HW333740   5.018   1.974   4.937
 8355SOL    MW433741   4.977   1.945   4.865
 8356SOL     OW33742   3.970   2.853   4.050
 8356SOL    HW233743   3.907   2.869   3.979
 8356SOL    HW333744   3.917   2.816   4.121
 8356SOL    MW433745   3.955   2.850   4.050
 8357SOL     OW33746   4.326   3.207   3.909
 8357SOL    HW233747   4.341   3.183   4.001
 8357SOL    HW333748   4.234   3.185   3.893
 8357SOL    MW433749   4.316   3.200   3.919
 8358SOL     OW33750   4.865   3.438   4.061
 8358SOL    HW233751   4.873   3.356   4.012
 8358SOL    HW333752   4.784   3.477   4.028
 8358SOL    MW433753   4.855   3.433   4.051
 8359SOL     OW33754   4.124   3.596   4.630
 8359SOL    HW233755   4.128   3.507   4.665
 8359SOL    HW333756   4.150   3.587   4.539
 8359SOL    MW433757   4.127   3.584   4.622
 8360SOL     OW33758   4.741   3.074   4.873
 8360SOL    HW233759   4.673   3.008   4.889
 8360SOL    HW333760   4.759   3.068   4.780
 8360SOL    MW433761   4.734   3.065   4.864
 8361SOL     OW33762   3.830   3.349   5.124
 8361SOL    HW233763   3.820   3.307   5.210
 8361SOL    HW333764   3.751   3.402   5.114
 8361SOL    MW433765   3.819   3.350   5.135
 8362SOL     OW33766   4.734   2.213   4.694
 8362SOL    HW233767   4.664   2.165   4.739
 8362SOL    HW333768   4.766   2.276   4.758
 8362SOL    MW433769   4.729   2.215   4.708
 8363SOL     OW33770   4.385   2.649   5.314
 8363SOL    HW233771   4.378   2.744   5.302
 8363SOL    HW333772   4.394   2.638   5.409
 8363SOL    MW433773   4.386   2.661   5.324
 8364SOL     OW33774   4.106   3.164   5.572
 8364SOL    HW233775   4.178   3.166   5.509
 8364SOL    HW333776   4.076   3.073   5.571
 8364SOL    MW433777   4.111   3.153   5.564
 8365SOL     OW33778   5.190   1.927   5.039
 8365SOL    HW233779   5.261   1.873   5.003
 8365SOL    HW333780   5.189   1.906   5.132
 8365SOL    MW433781   5.199   1.918   5.047
 8366SOL     OW33782   5.390   3.457   5.523
 8366SOL    HW233783   5.363   3.454   5.614
 8366SOL    HW333784   5.486   3.461   5.526
 8366SOL    MW433785   5.400   3.457   5.535
 8367SOL     OW33786   4.201   2.319   4.507
 8367SOL    HW233787   4.272   2.267   4.470
 8367SOL    HW333788   4.187   2.284   4.594
 8367SOL    MW433789   4.209   2.308   4.514
 8368SOL     OW33790   3.756   3.654   5.579
 8368SOL    HW233791   3.806   3.632   5.501
 8368SOL    HW333792   3.764   3.749   5.587
 8368SOL    MW433793   3.764   3.663   5.570
 8369SOL     OW33794   4.517   3.412   4.583
 8369SOL    HW233795   4.445   3.349   4.596
 8369SOL    HW333796   4.478   3.497   4.601
 8369SOL    MW433797   4.501   3.415   4.586
 8370SOL     OW33798   4.837   2.260   4.231
 8370SOL    HW233799   4.859   2.197   4.163
 8370SOL    HW333800   4.742   2.252   4.242
 8370SOL    MW433801   4.827   2.251   4.223
 8371SOL     OW33802   3.922   1.950   4.163
 8371SOL    HW233803   3.993   1.971   4.102
 8371SOL    HW333804   3.876   1.878   4.121
 8371SOL    MW433805   3.926   1.944   4.149
 8372SOL     OW33806   3.753   2.417   5.306
 8372SOL    HW233807   3.817   2.483   5.281
 8372SOL    HW333808   3.672   2.444   5.263
 8372SOL    MW433809   3.751   2.429   5.298
 8373SOL     OW33810   5.491   3.324   4.263
 8373SOL    HW233811   5.461   3.257   4.324
 8373SOL    HW333812   5.585   3.330   4.277
 8373SOL    MW433813   5.499   3.316   4.273
 8374SOL     OW33814   5.047   3.001   4.193
 8374SOL    HW233815   5.019   3.087   4.226
 8374SOL    HW333816   5.075   3.017   4.103
 8374SOL    MW433817   5.047   3.015   4.185
 8375SOL     OW33818   4.709   1.921   4.246
 8375SOL    HW233819   4.746   1.980   4.311
 8375SOL    HW333820   4.686   1.977   4.172
 8375SOL    MW433821   4.710   1.936   4.245
 8376SOL     OW33822   5.562   2.803   4.668
 8376SOL    HW233823   5.553   2.835   4.579
 8376SOL    HW333824   5.515   2.719   4.668
 8376SOL    MW433825   5.555   2.796   4.658
 8377SOL     OW33826   3.938   2.643   5.247
 8377SOL    HW233827   3.959   2.712   5.185
 8377SOL    HW333828   4.018   2.590   5.252
 8377SOL    MW433829   3.951   2.644   5.241
 8378SOL     OW33830   5.474   2.734   4.369
 8378SOL    HW233831   5.568   2.723   4.357
 8378SOL    HW333832   5.450   2.806   4.310
 8378SOL    MW433833   5.484   2.742   4.360
 8379SOL     OW33834   3.923   2.658   5.514
 8379SOL    HW233835   3.849   2.602   5.540
 8379SOL    HW333836   3.918   2.661   5.419
 8379SOL    MW433837   3.912   2.651   5.504
 8380SOL     OW33838   4.089   1.945   4.964
 8380SOL    HW233839   4.132   2.029   4.984
 8380SOL    HW333840   4.162   1.883   4.957
 8380SOL    MW433841   4.104   1.948   4.965
 8381SOL     OW33842   4.130   2.612   4.142
 8381SOL    HW233843   4.130   2.707   4.127
 8381SOL    HW333844   4.207   2.596   4.196
 8381SOL    MW433845   4.140   2.623   4.147
 8382SOL     OW33846   4.906   2.471   5.206
 8382SOL    HW233847   4.942   2.444   5.122
 8382SOL    HW333848   4.819   2.505   5.185
 8382SOL    MW433849   4.900   2.472   5.193
 8383SOL     OW33850   3.889   2.343   4.431
 8383SOL    HW233851   3.951   2.350   4.504
 8383SOL    HW333852   3.889   2.250   4.408
 8383SOL    MW433853   3.897   2.332   4.438
 8384SOL     OW33854   5.436   3.683   3.963
 8384SOL    HW233855   5.503   3.716   3.903
 8384SOL    HW333856   5.393   3.762   3.997
 8384SOL    MW433857   5.438   3.698   3.959
 8385SOL     OW33858   4.571   2.604   4.915
 8385SOL    HW233859   4.529   2.522   4.891
 8385SOL    HW333860   4.572   2.603   5.011
 8385SOL    MW433861   4.564   2.593   4.924
 8386SOL     OW33862   5.242   3.737   5.314
 8386SOL    HW233863   5.245   3.643   5.297
 8386SOL    HW333864   5.265   3.745   5.406
 8386SOL    MW433865   5.245   3.725   5.324
 8387SOL     OW33866   4.375   2.074   5.020
 8387SOL    HW233867   4.306   2.137   5.041
 8387SOL    HW333868   4.402   2.038   5.105
 8387SOL    MW433869   4.369   2.077   5.033
 8388SOL     OW33870   3.758   2.915   3.889
 8388SOL    HW233871   3.727   2.980   3.952
 8388SOL    HW333872   3.707   2.837   3.908
 8388SOL    MW433873   3.748   2.912   3.899
 8389SOL     OW33874   5.170   1.927   4.637
 8389SOL    HW233875   5.258   1.936   4.674
 8389SOL    HW333876   5.180   1.868   4.563
 8389SOL    MW433877   5.184   1.921   4.631
 8390SOL     OW33878   5.202   2.666   4.481
 8390SOL    HW233879   5.282   2.681   4.430
 8390SOL    HW333880   5.195   2.571   4.487
 8390SOL    MW433881   5.211   2.655   4.476
 8391SOL     OW33882   4.342   3.715   3.831
 8391SOL    HW233883   4.247   3.715   3.823
 8391SOL    HW333884   4.358   3.661   3.909
 8391SOL    MW433885   4.332   3.709   3.840
 8392SOL     OW33886   4.652   2.592   5.178
 8392SOL    HW233887   4.721   2.659   5.175
 8392SOL    HW333888   4.585   2.630   5.234
 8392SOL    MW433889   4.653   2.605   5.185
 8393SOL     OW33890   4.070   2.892   5.426
 8393SOL    HW233891   4.024   2.808   5.428
 8393SOL    HW333892   4.127   2.886   5.350
 8393SOL    MW433893   4.072   2.880   5.418
 8394SOL     OW33894   5.187   2.535   3.747
 8394SOL    HW233895   5.115   2.511   3.689
 8394SOL    HW333896   5.253   2.572   3.689
 8394SOL    MW433897   5.186   2.537   3.732
 8395SOL     OW33898   4.321   3.267   4.427
 8395SOL    HW233899   4.386   3.200   4.448
 8395SOL    HW333900   4.373   3.344   4.404
 8395SOL    MW433901   4.336   3.269   4.426
 8396SOL     OW33902   4.582   2.432   4.557
 8396SOL    HW233903   4.522   2.450   4.629
 8396SOL    HW333904   4.616   2.344   4.576
 8396SOL    MW433905   4.578   2.422   4.570
 8397SOL     OW33906   5.523   1.931   5.226
 8397SOL    HW233907   5.444   1.977   5.254
 8397SOL    HW333908   5.558   1.985   5.155
 8397SOL    MW433909   5.517   1.944   5.220
 8398SOL     OW33910   4.807   3.015   4.576
 8398SOL    HW233911   4.899   2.996   4.594
 8398SOL    HW333912   4.780   2.945   4.516
 8398SOL    MW433913   4.815   3.003   4.570
 8399SOL     OW33914   4.600   2.835   3.931
 8399SOL    HW233915   4.586   2.747   3.896
 8399SOL    HW333916   4.551   2.892   3.872
 8399SOL    MW433917   4.592   2.830   3.919
 8400SOL     OW33918   5.081   3.253   4.672
 8400SOL    HW233919   5.054   3.337   4.637
 8400SOL    HW333920   5.041   3.248   4.759
 8400SOL    MW433921   5.074   3.262   4.678
 8401SOL     OW33922   5.000   3.201   4.940
 8401SOL    HW233923   5.011   3.168   5.029
 8401SOL    HW333924   4.919   3.160   4.909
 8401SOL    MW433925   4.990   3.193   4.946
 8402SOL     OW33926   4.013   2.559   4.710
 8402SOL    HW233927   3.963   2.558   4.791
 8402SOL    HW333928   4.033   2.651   4.694
 8402SOL    MW433929   4.009   2.571   4.718
 8403SOL     OW33930   5.080   3.323   5.472
 8403SOL    HW233931   5.080   3.417   5.488
 8403SOL    HW333932   5.125   3.313   5.388
 8403SOL    MW433933   5.086   3.333   5.463
 8404SOL     OW33934   5.319   2.041   4.033
 8404SOL    HW233935   5.312   2.045   4.128
 8404SOL    HW333936   5.331   2.132   4.006
 8404SOL    MW433937   5.320   2.054   4.041
 8405SOL     OW33938   4.608   2.604   4.147
 8405SOL    HW233939   4.588   2.590   4.054
 8405SOL    HW333940   4.701   2.583   4.154
 8405SOL    MW433941   4.618   2.599   4.136
 8406SOL     OW33942   3.935   2.227   5.451
 8406SOL    HW233943   3.892   2.286   5.388
 8406SOL    HW333944   4.003   2.282   5.491
 8406SOL    MW433945   3.939   2.242   5.448
 8407SOL     OW33946   5.047   2.847   4.996
 8407SOL    HW233947   5.110   2.844   5.069
 8407SOL    HW333948   4.963   2.865   5.038
 8407SOL    MW433949   5.043   2.849   5.011
 8408SOL     OW33950   4.591   3.562   4.185
 8408SOL    HW233951   4.649   3.633   4.212
 8408SOL    HW333952   4.614   3.490   4.243
 8408SOL    MW433953   4.602   3.562   4.196
 8409SOL     OW33954   5.386   2.024   4.775
 8409SOL    HW233955   5.431   1.942   4.794
 8409SOL    HW333956   5.406   2.080   4.851
 8409SOL    MW433957   5.396   2.020   4.787
 8410SOL     OW33958   3.834   1.867   4.874
 8410SOL    HW233959   3.825   1.868   4.779
 8410SOL    HW333960   3.928   1.879   4.889
 8410SOL    MW433961   3.846   1.870   4.865
 8411SOL     OW33962   5.471   3.060   4.494
 8411SOL    HW233963   5.450   3.006   4.417
 8411SOL    HW333964   5.567   3.058   4.498
 8411SOL    MW433965   5.480   3.053   4.483
 8412SOL     OW33966   4.163   3.205   5.237
 8412SOL    HW233967   4.084   3.155   5.260
 8412SOL    HW333968   4.233   3.164   5.287
 8412SOL    MW433969   4.161   3.193   5.247
 8413SOL     OW33970   4.047   1.994   3.920
 8413SOL    HW233971   3.976   2.049   3.888
 8413SOL    HW333972   4.089   1.960   3.841
 8413SOL    MW433973   4.043   1.996   3.906
 8414SOL     OW33974   5.171   2.491   4.756
 8414SOL    HW233975   5.094   2.537   4.722
 8414SOL    HW333976   5.228   2.560   4.790
 8414SOL    MW433977   5.168   2.506   4.756
 8415SOL     OW33978   3.803   2.093   3.769
 8415SOL    HW233979   3.770   2.172   3.813
 8415SOL    HW333980   3.858   2.126   3.698
 8415SOL    MW433981   3.806   2.107   3.766
 8416SOL     OW33982   3.837   3.350   3.958
 8416SOL    HW233983   3.854   3.434   4.000
 8416SOL    HW333984   3.872   3.359   3.870
 8416SOL    MW433985   3.842   3.363   3.952
 8417SOL     OW33986   5.109   3.439   4.175
 8417SOL    HW233987   5.172   3.429   4.104
 8417SOL    HW333988   5.026   3.459   4.130
 8417SOL    MW433989   5.106   3.440   4.160
 8418SOL     OW33990   5.472   2.707   5.862
 8418SOL    HW233991   5.513   2.649   5.927
 8418SOL    HW333992   5.379   2.699   5.879
 8418SOL    MW433993   5.466   2.699   5.872
 8419SOL     OW33994   5.338   2.639   6.857
 8419SOL    HW233995   5.293   2.706   6.908
 8419SOL    HW333996   5.426   2.675   6.843
 8419SOL    MW433997   5.344   2.652   6.861
 8420SOL     OW33998   4.266   2.890   6.091
 8420SOL    HW233999   4.356   2.865   6.075
 8420SOL    HW334000   4.262   2.983   6.068
 8420SOL    MW434001   4.278   2.899   6.086
 8421SOL     OW34002   5.382   3.593   6.233
 8421SOL    HW234003   5.394   3.539   6.311
 8421SOL    HW334004   5.419   3.541   6.162
 8421SOL    MW434005   5.388   3.578   6.234
 8422SOL     OW34006   4.761   3.478   7.234
 8422SOL    HW234007   4.802   3.514   7.155
 8422SOL    HW334008   4.796   3.389   7.241
 8422SOL    MW434009   4.772   3.471   7.225
 8423SOL     OW34010   5.318   3.033   6.838
 8423SOL    HW234011   5.239   2.998   6.796
 8423SOL    HW334012   5.345   3.105   6.782
 8423SOL    MW434013   5.311   3.038   6.825
 8424SOL     OW34014   4.550   2.346   6.104
 8424SOL    HW234015   4.525   2.434   6.132
 8424SOL    HW334016   4.547   2.349   6.008
 8424SOL    MW434017   4.546   2.358   6.096
 8425SOL     OW34018   3.992   2.374   6.032
 8425SOL    HW234019   4.024   2.462   6.014
 8425SOL    HW334020   3.980   2.372   6.127
 8425SOL    MW434021   3.995   2.386   6.044
 8426SOL     OW34022   4.070   2.787   6.933
 8426SOL    HW234023   4.133   2.734   6.884
 8426SOL    HW334024   4.051   2.861   6.876
 8426SOL    MW434025   4.076   2.789   6.920
 8427SOL     OW34026   4.391   2.129   6.119
 8427SOL    HW234027   4.449   2.205   6.121
 8427SOL    HW334028   4.326   2.150   6.052
 8427SOL    MW434029   4.390   2.141   6.110
 8428SOL     OW34030   4.478   3.056   6.294
 8428SOL    HW234031   4.558   3.059   6.346
 8428SOL    HW334032   4.506   3.023   6.208
 8428SOL    MW434033   4.492   3.052   6.289
 8429SOL     OW34034   4.503   3.397   7.197
 8429SOL    HW234035   4.587   3.423   7.236
 8429SOL    HW334036   4.527   3.341   7.123
 8429SOL    MW434037   4.517   3.393   7.192
 8430SOL     OW34038   4.255   2.560   6.285
 8430SOL    HW234039   4.240   2.480   6.336
 8430SOL    HW334040   4.337   2.595   6.319
 8430SOL    MW434041   4.263   2.552   6.297
 8431SOL     OW34042   4.592   3.246   6.970
 8431SOL    HW234043   4.556   3.312   6.910
 8431SOL    HW334044   4.520   3.184   6.983
 8431SOL    MW434045   4.578   3.246   6.964
 8432SOL     OW34046   4.397   2.386   6.662
 8432SOL    HW234047   4.303   2.382   6.680
 8432SOL    HW334048   4.427   2.295   6.671
 8432SOL    MW434049   4.388   2.374   6.665
 8433SOL     OW34050   4.143   2.800   6.566
 8433SOL    HW234051   4.098   2.807   6.482
 8433SOL    HW334052   4.123   2.883   6.610
 8433SOL    MW434053   4.135   2.812   6.560
 8434SOL     OW34054   3.840   3.646   6.441
 8434SOL    HW234055   3.929   3.638   6.476
 8434SOL    HW334056   3.804   3.558   6.446
 8434SOL    MW434057   3.847   3.633   6.446
 8435SOL     OW34058   5.105   3.038   5.810
 8435SOL    HW234059   5.023   3.074   5.776
 8435SOL    HW334060   5.173   3.081   5.759
 8435SOL    MW434061   5.103   3.048   5.798
 8436SOL     OW34062   4.104   3.173   6.476
 8436SOL    HW234063   4.080   3.226   6.552
 8436SOL    HW334064   4.160   3.231   6.424
 8436SOL    MW434065   4.108   3.188   6.479
 8437SOL     OW34066   4.666   2.817   6.286
 8437SOL    HW234067   4.580   2.804   6.326
 8437SOL    HW334068   4.719   2.744   6.318
 8437SOL    MW434069   4.662   2.806   6.295
 8438SOL     OW34070   4.074   3.469   7.071
 8438SOL    HW234071   3.982   3.445   7.056
 8438SOL    HW334072   4.118   3.386   7.088
 8438SOL    MW434073   4.068   3.454   7.070
 8439SOL     OW34074   4.657   3.179   6.003
 8439SOL    HW234075   4.634   3.241   6.071
 8439SOL    HW334076   4.614   3.097   6.029
 8439SOL    MW434077   4.649   3.175   6.014
 8440SOL     OW34078   5.530   2.180   6.459
 8440SOL    HW234079   5.467   2.160   6.528
 8440SOL    HW334080   5.520   2.109   6.396
 8440SOL    MW434081   5.520   2.167   6.460
 8441SOL     OW34082   4.154   2.152   5.971
 8441SOL    HW234083   4.128   2.114   5.887
 8441SOL    HW334084   4.091   2.222   5.987
 8441SOL    MW434085   4.143   2.155   5.962
 8442SOL     OW34086   3.989   3.113   6.008
 8442SOL    HW234087   3.937   3.181   5.964
 8442SOL    HW334088   3.986   3.039   5.948
 8442SOL    MW434089   3.981   3.112   5.995
 8443SOL     OW34090   4.651   3.576   5.786
 8443SOL    HW234091   4.606   3.592   5.869
 8443SOL    HW334092   4.582   3.541   5.728
 8443SOL    MW434093   4.637   3.573   5.788
 8444SOL     OW34094   5.586   2.349   5.761
 8444SOL    HW234095   5.495   2.351   5.789
 8444SOL    HW334096   5.631   2.411   5.819
 8444SOL    MW434097   5.579   2.357   5.771
 8445SOL     OW34098   5.331   2.952   6.111
 8445SOL    HW234099   5.241   2.952   6.146
 8445SOL    HW334100   5.324   2.998   6.028
 8445SOL    MW434101   5.318   2.958   6.105
 8446SOL     OW34102   5.131   2.587   7.183
 8446SOL    HW234103   5.200   2.525   7.160
 8446SOL    HW334104   5.056   2.561   7.130
 8446SOL    MW434105   5.131   2.574   7.174
 8447SOL     OW34106   3.872   3.467   6.735
 8447SOL    HW234107   3.855   3.413   6.812
 8447SOL    HW334108   3.860   3.557   6.765
 8447SOL    MW434109   3.869   3.471   6.749
 8448SOL     OW34110   4.867   2.974   7.175
 8448SOL    HW234111   4.852   3.067   7.160
 8448SOL    HW334112   4.962   2.964   7.175
 8448SOL    MW434113   4.876   2.984   7.172
 8449SOL     OW34114   4.663   2.398   7.376
 8449SOL    HW234115   4.753   2.399   7.343
 8449SOL    HW334116   4.622   2.323   7.334
 8449SOL    MW434117   4.669   2.388   7.367
 8450SOL     OW34118   5.238   2.930   6.503
 8450SOL    HW234119   5.241   2.864   6.434
 8450SOL    HW334120   5.323   2.973   6.499
 8450SOL    MW434121   5.250   2.926   6.494
 8451SOL     OW34122   4.858   2.533   6.072
 8451SOL    HW234123   4.884   2.557   5.983
 8451SOL    HW334124   4.840   2.440   6.068
 8451SOL    MW434125   4.860   2.525   6.059
 8452SOL     OW34126   5.523   3.153   5.923
 8452SOL    HW234127   5.479   3.194   5.998
 8452SOL    HW334128   5.580   3.221   5.888
 8452SOL    MW434129   5.525   3.167   5.928
 8453SOL     OW34130   4.443   2.202   7.326
 8453SOL    HW234131   4.453   2.128   7.266
 8453SOL    HW334132   4.479   2.171   7.409
 8453SOL    MW434133   4.449   2.188   7.328
 8454SOL     OW34134   4.179   3.569   6.241
 8454SOL    HW234135   4.211   3.657   6.219
 8454SOL    HW334136   4.132   3.541   6.163
 8454SOL    MW434137   4.178   3.577   6.228
 8455SOL     OW34138   5.563   1.931   6.290
 8455SOL    HW234139   5.617   1.882   6.352
 8455SOL    HW334140   5.506   1.865   6.251
 8455SOL    MW434141   5.563   1.915   6.292
 8456SOL     OW34142   3.895   3.629   5.818
 8456SOL    HW234143   3.924   3.719   5.810
 8456SOL    HW334144   3.845   3.612   5.739
 8456SOL    MW434145   3.893   3.637   5.807
 8457SOL     OW34146   4.682   1.884   6.703
 8457SOL    HW234147   4.641   1.962   6.665
 8457SOL    HW334148   4.776   1.902   6.698
 8457SOL    MW434149   4.688   1.896   6.698
 8458SOL     OW34150   5.299   3.437   5.789
 8458SOL    HW234151   5.347   3.506   5.835
 8458SOL    HW334152   5.220   3.481   5.758
 8458SOL    MW434153   5.294   3.451   5.792
 8459SOL     OW34154   4.697   2.562   5.733
 8459SOL    HW234155   4.699   2.509   5.654
 8459SOL    HW334156   4.785   2.599   5.739
 8459SOL    MW434157   4.709   2.561   5.722
 8460SOL     OW34158   5.311   2.488   6.069
 8460SOL    HW234159   5.350   2.488   6.156
 8460SOL    HW334160   5.252   2.564   6.069
 8460SOL    MW434161   5.308   2.499   6.080
 8461SOL     OW34162   4.628   2.855   7.198
 8461SOL    HW234163   4.605   2.835   7.288
 8461SOL    HW334164   4.713   2.899   7.203
 8461SOL    MW434165   4.635   2.858   7.210
 8462SOL     OW34166   4.708   1.992   6.958
 8462SOL    HW234167   4.714   1.954   6.871
 8462SOL    HW334168   4.697   2.086   6.943
 8462SOL    MW434169   4.709   2.000   6.946
 8463SOL     OW34170   4.797   2.481   6.792
 8463SOL    HW234171   4.872   2.510   6.739
 8463SOL    HW334172   4.729   2.546   6.776
 8463SOL    MW434173   4.798   2.493   6.782
 8464SOL     OW34174   5.347   2.449   7.069
 8464SOL    HW234175   5.328   2.358   7.048
 8464SOL    HW334176   5.325   2.498   6.990
 8464SOL    MW434177   5.342   2.442   7.056
 8465SOL     OW34178   5.489   3.543   6.973
 8465SOL    HW234179   5.417   3.505   7.024
 8465SOL    HW334180   5.506   3.628   7.014
 8465SOL    MW434181   5.483   3.548   6.985
 8466SOL     OW34182   4.794   2.187   7.175
 8466SOL    HW234183   4.760   2.226   7.094
 8466SOL    HW334184   4.772   2.095   7.168
 8466SOL    MW434185   4.787   2.180   7.165
 8467SOL     OW34186   5.203   3.001   7.251
 8467SOL    HW234187   5.285   3.042   7.281
 8467SOL    HW334188   5.166   2.963   7.331
 8467SOL    MW434189   5.209   3.002   7.266
 8468SOL     OW34190   5.498   2.374   6.235
 8468SOL    HW234191   5.587   2.343   6.252
 8468SOL    HW334192   5.441   2.314   6.283
 8468SOL    MW434193   5.501   2.362   6.244
 8469SOL     OW34194   3.924   2.088   6.264
 8469SOL    HW234195   3.915   2.028   6.190
 8469SOL    HW334196   3.857   2.059   6.327
 8469SOL    MW434197   3.914   2.075   6.262
 8470SOL     OW34198   4.867   3.181   5.825
 8470SOL    HW234199   4.817   3.183   5.907
 8470SOL    HW334200   4.801   3.199   5.757
 8470SOL    MW434201   4.853   3.183   5.827
 8471SOL     OW34202   3.871   2.261   6.627
 8471SOL    HW234203   3.843   2.352   6.636
 8471SOL    HW334204   3.808   2.222   6.566
 8471SOL    MW434205   3.858   2.267   6.621
 8472SOL     OW34206   4.330   3.599   5.933
 8472SOL    HW234207   4.251   3.557   5.966
 8472SOL    HW334208   4.396   3.582   6.000
 8472SOL    MW434209   4.329   3.591   5.946
 8473SOL     OW34210   5.458   3.119   7.330
 8473SOL    HW234211   5.508   3.045   7.362
 8473SOL    HW334212   5.404   3.146   7.405
 8473SOL    MW434213   5.458   3.113   7.343
 8474SOL     OW34214   4.466   3.014   5.640
 8474SOL    HW234215   4.388   2.960   5.627
 8474SOL    HW334216   4.437   3.087   5.693
 8474SOL    MW434217   4.452   3.016   5.645
 8475SOL     OW34218   5.592   2.754   6.832
 8475SOL    HW234219   5.608   2.792   6.745
 8475SOL    HW334220   5.626   2.820   6.893
 8475SOL    MW434221   5.599   2.767   6.828
 8476SOL     OW34222   5.384   3.463   6.501
 8476SOL    HW234223   5.413   3.530   6.562
 8476SOL    HW334224   5.365   3.387   6.556
 8476SOL    MW434225   5.386   3.463   6.516
 8477SOL     OW34226   5.047   3.530   5.708
 8477SOL    HW234227   4.973   3.493   5.758
 8477SOL    HW334228   5.055   3.620   5.741
 8477SOL    MW434229   5.038   3.537   5.720
 8478SOL     OW34230   3.855   2.536   6.797
 8478SOL    HW234231   3.917   2.566   6.863
 8478SOL    HW334232   3.789   2.605   6.791
 8478SOL    MW434233   3.854   2.549   6.804
 8479SOL     OW34234   5.271   3.204   5.650
 8479SOL    HW234235   5.218   3.253   5.586
 8479SOL    HW334236   5.302   3.270   5.711
 8479SOL    MW434237   5.269   3.218   5.648
 8480SOL     OW34238   4.496   2.093   5.705
 8480SOL    HW234239   4.444   2.013   5.693
 8480SOL    HW334240   4.583   2.070   5.673
 8480SOL    MW434241   4.499   2.079   5.699
 8481SOL     OW34242   3.950   3.645   7.249
 8481SOL    HW234243   3.924   3.713   7.187
 8481SOL    HW334244   3.998   3.582   7.197
 8481SOL    MW434245   3.952   3.645   7.235
 8482SOL     OW34246   4.002   2.964   6.756
 8482SOL    HW234247   4.055   3.039   6.781
 8482SOL    HW334248   3.921   3.002   6.722
 8482SOL    MW434249   3.998   2.979   6.756
 8483SOL     OW34250   4.542   2.868   6.744
 8483SOL    HW234251   4.570   2.777   6.756
 8483SOL    HW334252   4.471   2.862   6.680
 8483SOL    MW434253   4.535   2.856   6.739
 8484SOL     OW34254   3.857   2.733   6.162
 8484SOL    HW234255   3.948   2.748   6.189
 8484SOL    HW334256   3.860   2.654   6.108
 8484SOL    MW434257   3.869   2.725   6.160
 8485SOL     OW34258   4.093   2.441   7.416
 8485SOL    HW234259   4.040   2.521   7.423
 8485SOL    HW334260   4.163   2.453   7.481
 8485SOL    MW434261   4.095   2.454   7.424
 8486SOL     OW34262   4.479   1.991   7.123
 8486SOL    HW234263   4.456   1.899   7.125
 8486SOL    HW334264   4.565   1.993   7.080
 8486SOL    MW434265   4.486   1.981   7.119
 8487SOL     OW34266   4.163   2.515   7.162
 8487SOL    HW234267   4.243   2.565   7.148
 8487SOL    HW334268   4.154   2.509   7.257
 8487SOL    MW434269   4.172   2.521   7.172
 8488SOL     OW34270   4.484   3.665   6.536
 8488SOL    HW234271   4.573   3.680   6.566
 8488SOL    HW334272   4.479   3.712   6.452
 8488SOL    MW434273   4.494   3.673   6.529
 8489SOL     OW34274   5.140   2.040   7.433
 8489SOL    HW234275   5.196   1.967   7.459
 8489SOL    HW334276   5.110   2.078   7.515
 8489SOL    MW434277   5.144   2.035   7.446
 8490SOL     OW34278   3.865   3.345   6.201
 8490SOL    HW234279   3.837   3.384   6.283
 8490SOL    HW334280   3.885   3.254   6.223
 8490SOL    MW434281   3.863   3.337   6.214
 8491SOL     OW34282   4.698   3.388   6.236
 8491SOL    HW234283   4.781   3.342   6.220
 8491SOL    HW334284   4.688   3.387   6.332
 8491SOL    MW434285   4.708   3.381   6.246
 8492SOL     OW34286   5.530   2.533   6.550
 8492SOL    HW234287   5.619   2.563   6.532
 8492SOL    HW334288   5.510   2.473   6.479
 8492SOL    MW434289   5.539   2.530   6.539
 8493SOL     OW34290   5.381   2.712   7.430
 8493SOL    HW234291   5.436   2.636   7.411
 8493SOL    HW334292   5.383   2.720   7.525
 8493SOL    MW434293   5.389   2.703   7.438
 8494SOL     OW34294   4.431   3.445   5.641
 8494SOL    HW234295   4.371   3.514   5.611
 8494SOL    HW334296   4.376   3.387   5.694
 8494SOL    MW434297   4.415   3.447   5.643
 8495SOL     OW34298   4.869   2.090   5.864
 8495SOL    HW234299   4.802   2.066   5.801
 8495SOL    HW334300   4.934   2.139   5.813
 8495SOL    MW434301   4.869   2.092   5.849
 8496SOL     OW34302   4.676   2.274   6.949
 8496SOL    HW234303   4.595   2.315   6.977
 8496SOL    HW334304   4.723   2.342   6.901
 8496SOL    MW434305   4.671   2.289   6.947
 8497SOL     OW34306   4.936   2.612   6.572
 8497SOL    HW234307   4.949   2.706   6.582
 8497SOL    HW334308   4.897   2.602   6.486
 8497SOL    MW434309   4.932   2.623   6.562
 8498SOL     OW34310   4.388   2.807   6.376
 8498SOL    HW234311   4.299   2.798   6.409
 8498SOL    HW334312   4.392   2.897   6.344
 8498SOL    MW434313   4.377   2.818   6.376
 8499SOL     OW34314   5.187   2.390   6.371
 8499SOL    HW234315   5.132   2.311   6.370
 8499SOL    HW334316   5.169   2.431   6.455
 8499SOL    MW434317   5.177   2.385   6.380
 8500SOL     OW34318   4.158   2.077   7.188
 8500SOL    HW234319   4.079   2.095   7.240
 8500SOL    HW334320   4.153   2.139   7.115
 8500SOL    MW434321   4.148   2.087   7.185
 8501SOL     OW34322   4.806   2.594   6.328
 8501SOL    HW234323   4.743   2.526   6.352
 8501SOL    HW334324   4.826   2.575   6.236
 8501SOL    MW434325   4.800   2.581   6.320
 8502SOL     OW34326   4.062   3.489   6.030
 8502SOL    HW234327   4.023   3.536   5.956
 8502SOL    HW334328   3.996   3.424   6.055
 8502SOL    MW434329   4.049   3.487   6.024
 8503SOL     OW34330   4.554   2.898   6.054
 8503SOL    HW234331   4.556   2.872   5.961
 8503SOL    HW334332   4.612   2.835   6.097
 8503SOL    MW434333   4.562   2.887   6.048
 8504SOL     OW34334   5.107   3.458   6.826
 8504SOL    HW234335   5.032   3.504   6.864
 8504SOL    HW334336   5.089   3.365   6.843
 8504SOL    MW434337   5.096   3.452   6.834
 8505SOL     OW34338   5.111   3.666   6.256
 8505SOL    HW234339   5.054   3.619   6.195
 8505SOL    HW334340   5.197   3.627   6.243
 8505SOL    MW434341   5.114   3.657   6.246
 8506SOL     OW34342   5.064   2.142   6.387
 8506SOL    HW234343   5.092   2.074   6.448
 8506SOL    HW334344   4.978   2.113   6.357
 8506SOL    MW434345   5.057   2.129   6.391
 8507SOL     OW34346   3.869   3.076   6.321
 8507SOL    HW234347   3.933   3.108   6.384
 8507SOL    HW334348   3.918   3.012   6.269
 8507SOL    MW434349   3.884   3.072   6.322
 8508SOL     OW34350   4.369   3.152   7.303
 8508SOL    HW234351   4.417   3.235   7.290
 8508SOL    HW334352   4.426   3.100   7.359
 8508SOL    MW434353   4.383   3.156   7.309
 8509SOL     OW34354   3.945   3.394   7.443
 8509SOL    HW234355   4.001   3.318   7.458
 8509SOL    HW334356   3.894   3.372   7.365
 8509SOL    MW434357   3.945   3.381   7.434
 8510SOL     OW34358   5.044   2.246   5.722
 8510SOL    HW234359   5.017   2.312   5.658
 8510SOL    HW334360   5.114   2.289   5.772
 8510SOL    MW434361   5.049   2.259   5.719
 8511SOL     OW34362   4.712   1.951   5.659
 8511SOL    HW234363   4.768   1.943   5.581
 8511SOL    HW334364   4.689   1.861   5.681
 8511SOL    MW434365   4.717   1.938   5.652
 8512SOL     OW34366   5.217   2.802   5.864
 8512SOL    HW234367   5.184   2.891   5.854
 8512SOL    HW334368   5.182   2.773   5.949
 8512SOL    MW434369   5.207   2.811   5.875
 8513SOL     OW34370   4.830   3.231   7.052
 8513SOL    HW234371   4.741   3.237   7.020
 8513SOL    HW334372   4.874   3.310   7.020
 8513SOL    MW434373   4.825   3.241   7.044
 8514SOL     OW34374   4.123   1.899   7.394
 8514SOL    HW234375   4.051   1.864   7.342
 8514SOL    HW334376   4.181   1.940   7.329
 8514SOL    MW434377   4.121   1.900   7.379
 8515SOL     OW34378   4.147   3.389   6.693
 8515SOL    HW234379   4.192   3.451   6.750
 8515SOL    HW334380   4.054   3.408   6.706
 8515SOL    MW434381   4.140   3.399   6.700
 8516SOL     OW34382   5.587   2.918   7.047
 8516SOL    HW234383   5.502   2.931   7.006
 8516SOL    HW334384   5.567   2.882   7.134
 8516SOL    MW434385   5.574   2.914   7.052
 8517SOL     OW34386   4.569   3.457   6.801
 8517SOL    HW234387   4.593   3.446   6.710
 8517SOL    HW334388   4.492   3.514   6.799
 8517SOL    MW434389   4.561   3.462   6.790
 8518SOL     OW34390   4.211   2.840   5.656
 8518SOL    HW234391   4.134   2.853   5.712
 8518SOL    HW334392   4.175   2.804   5.575
 8518SOL    MW434393   4.197   2.836   5.653
 8519SOL     OW34394   4.864   2.813   5.899
 8519SOL    HW234395   4.774   2.834   5.874
 8519SOL    HW334396   4.891   2.886   5.955
 8519SOL    MW434397   4.856   2.825   5.902
 8520SOL     OW34398   4.364   3.162   6.591
 8520SOL    HW234399   4.357   3.141   6.685
 8520SOL    HW334400   4.282   3.130   6.554
 8520SOL    MW434401   4.352   3.156   6.598
 8521SOL     OW34402   5.228   2.172   6.993
 8521SOL    HW234403   5.175   2.174   7.073
 8521SOL    HW334404   5.213   2.085   6.956
 8521SOL    MW434405   5.220   2.162   6.998
 8522SOL     OW34406   5.564   2.096   6.866
 8522SOL    HW234407   5.545   2.163   6.801
 8522SOL    HW334408   5.621   2.034   6.821
 8522SOL    MW434409   5.568   2.097   6.852
 8523SOL     OW34410   3.810   3.254   7.254
 8523SOL    HW234411   3.854   3.187   7.200
 8523SOL    HW334412   3.725   3.216   7.274
 8523SOL    MW434413   3.805   3.240   7.250
 8524SOL     OW34414   4.493   1.929   6.306
 8524SOL    HW234415   4.422   1.990   6.288
 8524SOL    HW334416   4.544   1.926   6.225
 8524SOL    MW434417   4.489   1.935   6.293
 8525SOL     OW34418   4.251   3.169   6.055
 8525SOL    HW234419   4.244   3.201   6.145
 8525SOL    HW334420   4.161   3.153   6.027
 8525SOL    MW434421   4.239   3.171   6.062
 8526SOL     OW34422   4.846   3.562   6.964
 8526SOL    HW234423   4.766   3.547   6.914
 8526SOL    HW334424   4.853   3.657   6.971
 8526SOL    MW434425   4.837   3.573   6.958
 8527SOL     OW34426   4.960   3.527   6.454
 8527SOL    HW234427   5.007   3.600   6.413
 8527SOL    HW334428   4.881   3.566   6.490
 8527SOL    MW434429   4.955   3.542   6.453
 8528SOL     OW34430   5.368   3.622   6.729
 8528SOL    HW234431   5.411   3.592   6.809
 8528SOL    HW334432   5.287   3.570   6.726
 8528SOL    MW434433   5.363   3.611   6.739
 8529SOL     OW34434   4.453   2.586   7.436
 8529SOL    HW234435   4.523   2.528   7.408
 8529SOL    HW334436   4.396   2.531   7.491
 8529SOL    MW434437   4.455   2.573   7.440
 8530SOL     OW34438   5.240   2.798   7.069
 8530SOL    HW234439   5.245   2.851   7.149
 8530SOL    HW334440   5.202   2.715   7.097
 8530SOL    MW434441   5.236   2.793   7.084
 8531SOL     OW34442   4.880   1.933   7.315
 8531SOL    HW234443   4.875   1.840   7.296
 8531SOL    HW334444   4.963   1.944   7.361
 8531SOL    MW434445   4.888   1.922   7.319
 8532SOL     OW34446   4.254   2.453   5.769
 8532SOL    HW234447   4.220   2.509   5.839
 8532SOL    HW334448   4.325   2.403   5.809
 8532SOL    MW434449   4.260   2.454   5.783
 8533SOL     OW34450   5.350   3.204   6.591
 8533SOL    HW234451   5.385   3.186   6.504
 8533SOL    HW334452   5.255   3.205   6.578
 8533SOL    MW434453   5.342   3.201   6.578
 8534SOL     OW34454   4.779   2.852   6.960
 8534SOL    HW234455   4.822   2.887   7.038
 8534SOL    HW334456   4.762   2.929   6.906
 8534SOL    MW434457   4.782   2.867   6.963
 8535SOL     OW34458   5.310   2.339   5.833
 8535SOL    HW234459   5.302   2.410   5.770
 8535SOL    HW334460   5.328   2.383   5.916
 8535SOL    MW434461   5.311   2.353   5.835
 8536SOL     OW34462   4.170   1.994   6.262
 8536SOL    HW234463   4.220   2.037   6.193
 8536SOL    HW334464   4.085   2.038   6.262
 8536SOL    MW434465   4.167   2.007   6.253
 8537SOL     OW34466   3.929   3.056   7.122
 8537SOL    HW234467   3.957   3.009   7.200
 8537SOL    HW334468   3.850   3.011   7.093
 8537SOL    MW434469   3.922   3.045   7.128
 8538SOL     OW34470   4.437   2.383   7.089
 8538SOL    HW234471   4.409   2.471   7.113
 8538SOL    HW334472   4.406   2.327   7.160
 8538SOL    MW434473   4.429   2.386   7.101
 8539SOL     OW34474   4.979   2.601   5.808
 8539SOL    HW234475   5.026   2.619   5.727
 8539SOL    HW334476   4.945   2.685   5.836
 8539SOL    MW434477   4.981   2.615   5.801
 8540SOL     OW34478   4.092   2.779   6.302
 8540SOL    HW234479   4.150   2.835   6.250
 8540SOL    HW334480   4.136   2.694   6.304
 8540SOL    MW434481   4.105   2.776   6.295
 8541SOL     OW34482   5.232   2.131   6.139
 8541SOL    HW234483   5.154   2.081   6.164
 8541SOL    HW334484   5.203   2.222   6.139
 8541SOL    MW434485   5.218   2.135   6.142
 8542SOL     OW34486   4.818   2.093   6.298
 8542SOL    HW234487   4.838   2.168   6.242
 8542SOL    HW334488   4.798   2.132   6.383
 8542SOL    MW434489   4.819   2.109   6.302
 8543SOL     OW34490   4.714   3.343   5.630
 8543SOL    HW234491   4.741   3.421   5.582
 8543SOL    HW334492   4.621   3.358   5.649
 8543SOL    MW434493   4.705   3.356   5.626
 8544SOL     OW34494   5.578   2.866   7.317
 8544SOL    HW234495   5.491   2.846   7.353
 8544SOL    HW334496   5.632   2.792   7.342
 8544SOL    MW434497   5.573   2.855   7.325
 8545SOL     OW34498   3.799   3.379   6.474
 8545SOL    HW234499   3.831   3.383   6.565
 8545SOL    HW334500   3.704   3.387   6.482
 8545SOL    MW434501   3.791   3.382   6.487
 8546SOL     OW34502   3.754   2.505   6.021
 8546SOL    HW234503   3.694   2.477   6.091
 8546SOL    HW334504   3.828   2.445   6.027
 8546SOL    MW434505   3.756   2.494   6.030
 8547SOL     OW34506   5.322   3.717   7.455
 8547SOL    HW234507   5.367   3.641   7.420
 8547SOL    HW334508   5.360   3.730   7.542
 8547SOL    MW434509   5.332   3.710   7.461
 8548SOL     OW34510   4.922   3.236   6.181
 8548SOL    HW234511   4.945   3.187   6.259
 8548SOL    HW334512   5.003   3.278   6.153
 8548SOL    MW434513   4.935   3.236   6.188
 8549SOL     OW34514   4.180   2.244   6.910
 8549SOL    HW234515   4.213   2.325   6.950
 8549SOL    HW334516   4.153   2.270   6.822
 8549SOL    MW434517   4.179   2.258   6.904
 8550SOL     OW34518   4.134   2.211   6.646
 8550SOL    HW234519   4.164   2.125   6.617
 8550SOL    HW334520   4.039   2.204   6.649
 8550SOL    MW434521   4.126   2.200   6.644
 8551SOL     OW34522   4.963   2.420   7.337
 8551SOL    HW234523   5.015   2.355   7.290
 8551SOL    HW334524   4.921   2.471   7.267
 8551SOL    MW434525   4.964   2.417   7.320
 8552SOL     OW34526   5.062   2.215   7.198
 8552SOL    HW234527   4.969   2.199   7.185
 8552SOL    HW334528   5.088   2.153   7.266
 8552SOL    MW434529   5.052   2.205   7.205
 8553SOL     OW34530   4.277   1.989   6.537
 8553SOL    HW234531   4.287   1.898   6.563
 8553SOL    HW334532   4.233   1.985   6.452
 8553SOL    MW434533   4.273   1.977   6.529
 8554SOL     OW34534   4.371   3.604   7.083
 8554SOL    HW234535   4.288   3.589   7.128
 8554SOL    HW334536   4.430   3.537   7.118
 8554SOL    MW434537   4.369   3.594   7.093
 8555SOL     OW34538   5.428   2.311   6.708
 8555SOL    HW234539   5.361   2.344   6.768
 8555SOL    HW334540   5.471   2.389   6.674
 8555SOL    MW434541   5.426   2.326   6.712
 8556SOL     OW34542   5.606   3.031   6.678
 8556SOL    HW234543   5.599   2.971   6.603
 8556SOL    HW334544   5.532   3.091   6.667
 8556SOL    MW434545   5.596   3.031   6.667
 8557SOL     OW34546   4.988   2.893   6.596
 8557SOL    HW234547   5.002   2.865   6.687
 8557SOL    HW334548   5.074   2.924   6.568
 8557SOL    MW434549   5.001   2.894   6.605
 8558SOL     OW34550   5.071   2.388   6.875
 8558SOL    HW234551   5.092   2.389   6.782
 8558SOL    HW334552   5.116   2.310   6.908
 8558SOL    MW434553   5.078   2.378   6.867
 8559SOL     OW34554   5.564   2.519   7.417
 8559SOL    HW234555   5.601   2.464   7.486
 8559SOL    HW334556   5.589   2.476   7.335
 8559SOL    MW434557   5.571   2.507   7.416
 8560SOL     OW34558   5.111   2.817   7.468
 8560SOL    HW234559   5.177   2.765   7.422
 8560SOL    HW334560   5.131   2.804   7.561
 8560SOL    MW434561   5.122   2.808   7.475
 8561SOL     OW34562   5.062   1.903   5.817
 8561SOL    HW234563   5.136   1.947   5.860
 8561SOL    HW334564   4.986   1.957   5.839
 8561SOL    MW434565   5.062   1.915   5.825
 8562SOL     OW34566   5.122   2.678   6.095
 8562SOL    HW234567   5.037   2.648   6.065
 8562SOL    HW334568   5.114   2.685   6.190
 8562SOL    MW434569   5.110   2.676   6.104
 8563SOL     OW34570   4.198   3.141   6.826
 8563SOL    HW234571   4.210   3.168   6.917
 8563SOL    HW334572   4.179   3.222   6.779
 8563SOL    MW434573   4.197   3.156   6.831
 8564SOL     OW34574   4.482   2.121   6.649
 8564SOL    HW234575   4.455   2.123   6.740
 8564SOL    HW334576   4.412   2.073   6.604
 8564SOL    MW434577   4.470   2.117   6.656
 8565SOL     OW34578   4.336   3.613   6.811
 8565SOL    HW234579   4.388   3.690   6.788
 8565SOL    HW334580   4.345   3.605   6.906
 8565SOL    MW434581   4.345   3.620   6.822
 8566SOL     OW34582   5.238   3.198   7.043
 8566SOL    HW234583   5.223   3.127   7.106
 8566SOL    HW334584   5.284   3.156   6.971
 8566SOL    MW434585   5.244   3.182   7.043
 8567SOL     OW34586   4.312   2.929   7.160
 8567SOL    HW234587   4.349   2.934   7.072
 8567SOL    HW334588   4.351   3.002   7.207
 8567SOL    MW434589   4.322   2.939   7.155
 8568SOL     OW34590   4.492   2.972   6.972
 8568SOL    HW234591   4.551   2.918   7.025
 8568SOL    HW334592   4.507   2.944   6.882
 8568SOL    MW434593   4.502   2.961   6.968
 8569SOL     OW34594   4.495   2.344   5.821
 8569SOL    HW234595   4.568   2.393   5.784
 8569SOL    HW334596   4.511   2.253   5.795
 8569SOL    MW434597   4.507   2.339   5.814
 8570SOL     OW34598   5.303   3.461   7.144
 8570SOL    HW234599   5.345   3.446   7.229
 8570SOL    HW334600   5.294   3.374   7.106
 8570SOL    MW434601   5.307   3.449   7.151
 8571SOL     OW34602   4.963   1.940   6.735
 8571SOL    HW234603   5.018   1.949   6.657
 8571SOL    HW334604   5.018   1.974   6.806
 8571SOL    MW434605   4.977   1.945   6.734
 8572SOL     OW34606   3.970   2.853   5.919
 8572SOL    HW234607   3.907   2.869   5.848
 8572SOL    HW334608   3.917   2.816   5.990
 8572SOL    MW434609   3.955   2.850   5.919
 8573SOL     OW34610   4.326   3.207   5.778
 8573SOL    HW234611   4.341   3.183   5.870
 8573SOL    HW334612   4.234   3.185   5.762
 8573SOL    MW434613   4.316   3.200   5.788
 8574SOL     OW34614   4.865   3.438   5.930
 8574SOL    HW234615   4.873   3.356   5.881
 8574SOL    HW334616   4.784   3.477   5.897
 8574SOL    MW434617   4.855   3.433   5.920
 8575SOL     OW34618   4.124   3.596   6.499
 8575SOL    HW234619   4.128   3.507   6.534
 8575SOL    HW334620   4.150   3.587   6.408
 8575SOL    MW434621   4.127   3.584   6.491
 8576SOL     OW34622   4.741   3.074   6.742
 8576SOL    HW234623   4.673   3.008   6.758
 8576SOL    HW334624   4.759   3.068   6.649
 8576SOL    MW434625   4.734   3.065   6.733
 8577SOL     OW34626   3.830   3.349   6.993
 8577SOL    HW234627   3.820   3.307   7.079
 8577SOL    HW334628   3.751   3.402   6.983
 8577SOL    MW434629   3.819   3.350   7.004
 8578SOL     OW34630   4.734   2.213   6.563
 8578SOL    HW234631   4.664   2.165   6.608
 8578SOL    HW334632   4.766   2.276   6.627
 8578SOL    MW434633   4.729   2.215   6.577
 8579SOL     OW34634   4.385   2.649   7.183
 8579SOL    HW234635   4.378   2.744   7.171
 8579SOL    HW334636   4.394   2.638   7.278
 8579SOL    MW434637   4.386   2.661   7.193
 8580SOL     OW34638   4.106   3.164   7.441
 8580SOL    HW234639   4.178   3.166   7.378
 8580SOL    HW334640   4.076   3.073   7.440
 8580SOL    MW434641   4.111   3.153   7.433
 8581SOL     OW34642   5.190   1.927   6.908
 8581SOL    HW234643   5.261   1.873   6.872
 8581SOL    HW334644   5.189   1.906   7.001
 8581SOL    MW434645   5.199   1.918   6.916
 8582SOL     OW34646   5.390   3.457   7.392
 8582SOL    HW234647   5.363   3.454   7.483
 8582SOL    HW334648   5.486   3.461   7.395
 8582SOL    MW434649   5.400   3.457   7.404
 8583SOL     OW34650   4.201   2.319   6.376
 8583SOL    HW234651   4.272   2.267   6.339
 8583SOL    HW334652   4.187   2.284   6.463
 8583SOL    MW434653   4.209   2.308   6.383
 8584SOL     OW34654   3.756   3.654   7.448
 8584SOL    HW234655   3.806   3.632   7.370
 8584SOL    HW334656   3.764   3.749   7.456
 8584SOL    MW434657   3.764   3.663   7.439
 8585SOL     OW34658   4.517   3.412   6.452
 8585SOL    HW234659   4.445   3.349   6.465
 8585SOL    HW334660   4.478   3.497   6.470
 8585SOL    MW434661   4.501   3.415   6.455
 8586SOL     OW34662   4.837   2.260   6.100
 8586SOL    HW234663   4.859   2.197   6.032
 8586SOL    HW334664   4.742   2.252   6.111
 8586SOL    MW434665   4.827   2.251   6.092
 8587SOL     OW34666   3.922   1.950   6.032
 8587SOL    HW234667   3.993   1.971   5.971
 8587SOL    HW334668   3.876   1.878   5.990
 8587SOL    MW434669   3.926   1.944   6.018
 8588SOL     OW34670   3.753   2.417   7.175
 8588SOL    HW234671   3.817   2.483   7.150
 8588SOL    HW334672   3.672   2.444   7.132
 8588SOL    MW434673   3.751   2.429   7.167
 8589SOL     OW34674   5.491   3.324   6.132
 8589SOL    HW234675   5.461   3.257   6.193
 8589SOL    HW334676   5.585   3.330   6.146
 8589SOL    MW434677   5.499   3.316   6.142
 8590SOL     OW34678   5.047   3.001   6.062
 8590SOL    HW234679   5.019   3.087   6.095
 8590SOL    HW334680   5.075   3.017   5.972
 8590SOL    MW434681   5.047   3.015   6.054
 8591SOL     OW34682   4.709   1.921   6.115
 8591SOL    HW234683   4.746   1.980   6.180
 8591SOL    HW334684   4.686   1.977   6.041
 8591SOL    MW434685   4.710   1.936   6.114
 8592SOL     OW34686   5.562   2.803   6.537
 8592SOL    HW234687   5.553   2.835   6.448
 8592SOL    HW334688   5.515   2.719   6.537
 8592SOL    MW434689   5.555   2.796   6.527
 8593SOL     OW34690   3.938   2.643   7.116
 8593SOL    HW234691   3.959   2.712   7.054
 8593SOL    HW334692   4.018   2.590   7.121
 8593SOL    MW434693   3.951   2.644   7.110
 8594SOL     OW34694   5.474   2.734   6.238
 8594SOL    HW234695   5.568   2.723   6.226
 8594SOL    HW334696   5.450   2.806   6.179
 8594SOL    MW434697   5.484   2.742   6.229
 8595SOL     OW34698   3.923   2.658   7.383
 8595SOL    HW234699   3.849   2.602   7.409
 8595SOL    HW334700   3.918   2.661   7.288
 8595SOL    MW434701   3.912   2.651   7.373
 8596SOL     OW34702   4.089   1.945   6.833
 8596SOL    HW234703   4.132   2.029   6.853
 8596SOL    HW334704   4.162   1.883   6.826
 8596SOL    MW434705   4.104   1.948   6.834
 8597SOL     OW34706   4.130   2.612   6.011
 8597SOL    HW234707   4.130   2.707   5.996
 8597SOL    HW334708   4.207   2.596   6.065
 8597SOL    MW434709   4.140   2.623   6.016
 8598SOL     OW34710   4.906   2.471   7.075
 8598SOL    HW234711   4.942   2.444   6.991
 8598SOL    HW334712   4.819   2.505   7.054
 8598SOL    MW434713   4.900   2.472   7.062
 8599SOL     OW34714   3.889   2.343   6.300
 8599SOL    HW234715   3.951   2.350   6.373
 8599SOL    HW334716   3.889   2.250   6.277
 8599SOL    MW434717   3.897   2.332   6.307
 8600SOL     OW34718   5.436   3.683   5.832
 8600SOL    HW234719   5.503   3.716   5.772
 8600SOL    HW334720   5.393   3.762   5.866
 8600SOL    MW434721   5.438   3.698   5.828
 8601SOL     OW34722   4.571   2.604   6.784
 8601SOL    HW234723   4.529   2.522   6.760
 8601SOL    HW334724   4.572   2.603   6.880
 8601SOL    MW434725   4.564   2.593   6.793
 8602SOL     OW34726   5.242   3.737   7.183
 8602SOL    HW234727   5.245   3.643   7.166
 8602SOL    HW334728   5.265   3.745   7.275
 8602SOL    MW434729   5.245   3.725   7.193
 8603SOL     OW34730   4.375   2.074   6.889
 8603SOL    HW234731   4.306   2.137   6.910
 8603SOL    HW334732   4.402   2.038   6.974
 8603SOL    MW434733   4.369   2.077   6.902
 8604SOL     OW34734   3.758   2.915   5.758
 8604SOL    HW234735   3.727   2.980   5.821
 8604SOL    HW334736   3.707   2.837   5.777
 8604SOL    MW434737   3.748   2.912   5.768
 8605SOL     OW34738   5.170   1.927   6.506
 8605SOL    HW234739   5.258   1.936   6.543
 8605SOL    HW334740   5.180   1.868   6.432
 8605SOL    MW434741   5.184   1.921   6.500
 8606SOL     OW34742   5.202   2.666   6.350
 8606SOL    HW234743   5.282   2.681   6.299
 8606SOL    HW334744   5.195   2.571   6.356
 8606SOL    MW434745   5.211   2.655   6.345
 8607SOL     OW34746   4.342   3.715   5.700
 8607SOL    HW234747   4.247   3.715   5.692
 8607SOL    HW334748   4.358   3.661   5.778
 8607SOL    MW434749   4.332   3.709   5.709
 8608SOL     OW34750   4.652   2.592   7.047
 8608SOL    HW234751   4.721   2.659   7.044
 8608SOL    HW334752   4.585   2.630   7.103
 8608SOL    MW434753   4.653   2.605   7.054
 8609SOL     OW34754   4.070   2.892   7.295
 8609SOL    HW234755   4.024   2.808   7.297
 8609SOL    HW334756   4.127   2.886   7.219
 8609SOL    MW434757   4.072   2.880   7.287
 8610SOL     OW34758   5.187   2.535   5.615
 8610SOL    HW234759   5.115   2.511   5.557
 8610SOL    HW334760   5.253   2.572   5.557
 8610SOL    MW434761   5.186   2.537   5.600
 8611SOL     OW34762   4.321   3.267   6.296
 8611SOL    HW234763   4.386   3.200   6.317
 8611SOL    HW334764   4.373   3.344   6.273
 8611SOL    MW434765   4.336   3.269   6.295
 8612SOL     OW34766   4.582   2.432   6.426
 8612SOL    HW234767   4.522   2.450   6.498
 8612SOL    HW334768   4.616   2.344   6.445
 8612SOL    MW434769   4.578   2.422   6.439
 8613SOL     OW34770   5.523   1.931   7.095
 8613SOL    HW234771   5.444   1.977   7.123
 8613SOL    HW334772   5.558   1.985   7.024
 8613SOL    MW434773   5.517   1.944   7.089
 8614SOL     OW34774   4.807   3.015   6.445
 8614SOL    HW234775   4.899   2.996   6.463
 8614SOL    HW334776   4.780   2.945   6.385
 8614SOL    MW434777   4.815   3.003   6.439
 8615SOL     OW34778   4.600   2.835   5.800
 8615SOL    HW234779   4.586   2.747   5.765
 8615SOL    HW334780   4.551   2.892   5.741
 8615SOL    MW434781   4.592   2.830   5.788
 8616SOL     OW34782   5.081   3.253   6.541
 8616SOL    HW234783   5.054   3.337   6.506
 8616SOL    HW334784   5.041   3.248   6.628
 8616SOL    MW434785   5.074   3.262   6.547
 8617SOL     OW34786   5.000   3.201   6.809
 8617SOL    HW234787   5.011   3.168   6.898
 8617SOL    HW334788   4.919   3.160   6.778
 8617SOL    MW434789   4.990   3.193   6.815
 8618SOL     OW34790   4.013   2.559   6.579
 8618SOL    HW234791   3.963   2.558   6.660
 8618SOL    HW334792   4.033   2.651   6.563
 8618SOL    MW434793   4.009   2.571   6.587
 8619SOL     OW34794   5.080   3.323   7.341
 8619SOL    HW234795   5.080   3.417   7.357
 8619SOL    HW334796   5.125   3.313   7.257
 8619SOL    MW434797   5.086   3.333   7.332
 8620SOL     OW34798   5.319   2.041   5.902
 8620SOL    HW234799   5.312   2.045   5.997
 8620SOL    HW334800   5.331   2.132   5.875
 8620SOL    MW434801   5.320   2.054   5.910
 8621SOL     OW34802   4.608   2.604   6.016
 8621SOL    HW234803   4.588   2.590   5.923
 8621SOL    HW334804   4.701   2.583   6.023
 8621SOL    MW434805   4.618   2.599   6.005
 8622SOL     OW34806   3.935   2.227   7.320
 8622SOL    HW234807   3.892   2.286   7.257
 8622SOL    HW334808   4.003   2.282   7.360
 8622SOL    MW434809   3.939   2.242   7.317
 8623SOL     OW34810   5.047   2.847   6.865
 8623SOL    HW234811   5.110   2.844   6.938
 8623SOL    HW334812   4.963   2.865   6.907
 8623SOL    MW434813   5.043   2.849   6.880
 8624SOL     OW34814   4.591   3.562   6.054
 8624SOL    HW234815   4.649   3.633   6.081
 8624SOL    HW334816   4.614   3.490   6.112
 8624SOL    MW434817   4.602   3.562   6.065
 8625SOL     OW34818   5.386   2.024   6.644
 8625SOL    HW234819   5.431   1.942   6.663
 8625SOL    HW334820   5.406   2.080   6.720
 8625SOL    MW434821   5.396   2.020   6.656
 8626SOL     OW34822   3.834   1.867   6.743
 8626SOL    HW234823   3.825   1.868   6.648
 8626SOL    HW334824   3.928   1.879   6.758
 8626SOL    MW434825   3.846   1.870   6.734
 8627SOL     OW34826   5.471   3.060   6.363
 8627SOL    HW234827   5.450   3.006   6.286
 8627SOL    HW334828   5.567   3.058   6.367
 8627SOL    MW434829   5.480   3.053   6.352
 8628SOL     OW34830   4.163   3.205   7.106
 8628SOL    HW234831   4.084   3.155   7.129
 8628SOL    HW334832   4.233   3.164   7.156
 8628SOL    MW434833   4.161   3.193   7.116
 8629SOL     OW34834   4.047   1.994   5.789
 8629SOL    HW234835   3.976   2.049   5.757
 8629SOL    HW334836   4.089   1.960   5.710
 8629SOL    MW434837   4.043   1.996   5.775
 8630SOL     OW34838   5.171   2.491   6.625
 8630SOL    HW234839   5.094   2.537   6.591
 8630SOL    HW334840   5.228   2.560   6.659
 8630SOL    MW434841   5.168   2.506   6.625
 8631SOL     OW34842   3.803   2.093   5.638
 8631SOL    HW234843   3.770   2.172   5.682
 8631SOL    HW334844   3.858   2.126   5.567
 8631SOL    MW434845   3.806   2.107   5.635
 8632SOL     OW34846   3.837   3.350   5.827
 8632SOL    HW234847   3.854   3.434   5.869
 8632SOL    HW334848   3.872   3.359   5.739
 8632SOL    MW434849   3.842   3.363   5.821
 8633SOL     OW34850   5.109   3.439   6.044
 8633SOL    HW234851   5.172   3.429   5.973
 8633SOL    HW334852   5.026   3.459   5.999
 8633SOL    MW434853   5.106   3.440   6.029
 8634SOL     OW34854   5.472   4.575   0.257
 8634SOL    HW234855   5.513   4.517   0.322
 8634SOL    HW334856   5.379   4.567   0.274
 8634SOL    MW434857   5.466   4.567   0.267
 8635SOL     OW34858   5.338   4.507   1.252
 8635SOL    HW234859   5.293   4.574   1.303
 8635SOL    HW334860   5.426   4.543   1.238
 8635SOL    MW434861   5.344   4.520   1.256
 8636SOL     OW34862   4.266   4.758   0.486
 8636SOL    HW234863   4.356   4.733   0.470
 8636SOL    HW334864   4.262   4.851   0.463
 8636SOL    MW434865   4.278   4.767   0.481
 8637SOL     OW34866   5.382   5.461   0.628
 8637SOL    HW234867   5.394   5.407   0.706
 8637SOL    HW334868   5.419   5.409   0.557
 8637SOL    MW434869   5.388   5.446   0.629
 8638SOL     OW34870   4.761   5.346   1.629
 8638SOL    HW234871   4.802   5.382   1.550
 8638SOL    HW334872   4.796   5.257   1.636
 8638SOL    MW434873   4.772   5.339   1.620
 8639SOL     OW34874   5.318   4.901   1.233
 8639SOL    HW234875   5.239   4.866   1.191
 8639SOL    HW334876   5.345   4.973   1.177
 8639SOL    MW434877   5.311   4.906   1.220
 8640SOL     OW34878   4.550   4.214   0.499
 8640SOL    HW234879   4.525   4.302   0.527
 8640SOL    HW334880   4.547   4.217   0.403
 8640SOL    MW434881   4.546   4.226   0.491
 8641SOL     OW34882   3.992   4.242   0.427
 8641SOL    HW234883   4.024   4.330   0.409
 8641SOL    HW334884   3.980   4.240   0.522
 8641SOL    MW434885   3.995   4.254   0.439
 8642SOL     OW34886   4.070   4.655   1.328
 8642SOL    HW234887   4.133   4.602   1.279
 8642SOL    HW334888   4.051   4.729   1.271
 8642SOL    MW434889   4.076   4.657   1.315
 8643SOL     OW34890   4.391   3.997   0.514
 8643SOL    HW234891   4.449   4.073   0.516
 8643SOL    HW334892   4.326   4.018   0.447
 8643SOL    MW434893   4.390   4.009   0.505
 8644SOL     OW34894   4.478   4.924   0.689
 8644SOL    HW234895   4.558   4.927   0.741
 8644SOL    HW334896   4.506   4.891   0.603
 8644SOL    MW434897   4.492   4.920   0.684
 8645SOL     OW34898   4.503   5.265   1.592
 8645SOL    HW234899   4.587   5.291   1.631
 8645SOL    HW334900   4.527   5.209   1.518
 8645SOL    MW434901   4.517   5.261   1.587
 8646SOL     OW34902   4.255   4.428   0.680
 8646SOL    HW234903   4.240   4.348   0.731
 8646SOL    HW334904   4.337   4.463   0.714
 8646SOL    MW434905   4.263   4.420   0.692
 8647SOL     OW34906   4.592   5.114   1.365
 8647SOL    HW234907   4.556   5.180   1.305
 8647SOL    HW334908   4.520   5.052   1.378
 8647SOL    MW434909   4.578   5.114   1.359
 8648SOL     OW34910   4.397   4.254   1.057
 8648SOL    HW234911   4.303   4.250   1.075
 8648SOL    HW334912   4.427   4.163   1.066
 8648SOL    MW434913   4.388   4.242   1.060
 8649SOL     OW34914   4.143   4.668   0.961
 8649SOL    HW234915   4.098   4.675   0.877
 8649SOL    HW334916   4.123   4.751   1.005
 8649SOL    MW434917   4.135   4.680   0.955
 8650SOL     OW34918   3.840   5.514   0.836
 8650SOL    HW234919   3.929   5.506   0.871
 8650SOL    HW334920   3.804   5.426   0.841
 8650SOL    MW434921   3.847   5.501   0.841
 8651SOL     OW34922   5.105   4.906   0.205
 8651SOL    HW234923   5.023   4.942   0.171
 8651SOL    HW334924   5.173   4.949   0.154
 8651SOL    MW434925   5.103   4.916   0.193
 8652SOL     OW34926   4.104   5.041   0.871
 8652SOL    HW234927   4.080   5.094   0.947
 8652SOL    HW334928   4.160   5.099   0.819
 8652SOL    MW434929   4.108   5.056   0.874
 8653SOL     OW34930   4.666   4.685   0.681
 8653SOL    HW234931   4.580   4.672   0.721
 8653SOL    HW334932   4.719   4.612   0.713
 8653SOL    MW434933   4.662   4.674   0.690
 8654SOL     OW34934   4.074   5.337   1.466
 8654SOL    HW234935   3.982   5.313   1.451
 8654SOL    HW334936   4.118   5.254   1.483
 8654SOL    MW434937   4.068   5.322   1.465
 8655SOL     OW34938   4.657   5.047   0.398
 8655SOL    HW234939   4.634   5.109   0.466
 8655SOL    HW334940   4.614   4.965   0.424
 8655SOL    MW434941   4.649   5.043   0.409
 8656SOL     OW34942   5.530   4.048   0.854
 8656SOL    HW234943   5.467   4.028   0.923
 8656SOL    HW334944   5.520   3.977   0.791
 8656SOL    MW434945   5.520   4.035   0.855
 8657SOL     OW34946   4.154   4.020   0.366
 8657SOL    HW234947   4.128   3.982   0.282
 8657SOL    HW334948   4.091   4.090   0.382
 8657SOL    MW434949   4.143   4.023   0.357
 8658SOL     OW34950   3.989   4.981   0.403
 8658SOL    HW234951   3.937   5.049   0.359
 8658SOL    HW334952   3.986   4.907   0.343
 8658SOL    MW434953   3.981   4.980   0.390
 8659SOL     OW34954   4.651   5.444   0.181
 8659SOL    HW234955   4.606   5.460   0.264
 8659SOL    HW334956   4.582   5.409   0.123
 8659SOL    MW434957   4.637   5.441   0.183
 8660SOL     OW34958   5.586   4.217   0.156
 8660SOL    HW234959   5.495   4.219   0.184
 8660SOL    HW334960   5.631   4.279   0.214
 8660SOL    MW434961   5.579   4.225   0.166
 8661SOL     OW34962   5.331   4.820   0.506
 8661SOL    HW234963   5.241   4.820   0.541
 8661SOL    HW334964   5.324   4.866   0.423
 8661SOL    MW434965   5.318   4.826   0.500
 8662SOL     OW34966   5.131   4.455   1.578
 8662SOL    HW234967   5.200   4.393   1.555
 8662SOL    HW334968   5.056   4.429   1.525
 8662SOL    MW434969   5.131   4.442   1.569
 8663SOL     OW34970   3.872   5.335   1.130
 8663SOL    HW234971   3.855   5.281   1.207
 8663SOL    HW334972   3.860   5.425   1.160
 8663SOL    MW434973   3.869   5.339   1.144
 8664SOL     OW34974   4.867   4.842   1.570
 8664SOL    HW234975   4.852   4.935   1.555
 8664SOL    HW334976   4.962   4.832   1.570
 8664SOL    MW434977   4.876   4.852   1.567
 8665SOL     OW34978   4.663   4.266   1.771
 8665SOL    HW234979   4.753   4.267   1.738
 8665SOL    HW334980   4.622   4.191   1.729
 8665SOL    MW434981   4.669   4.256   1.762
 8666SOL     OW34982   5.238   4.798   0.898
 8666SOL    HW234983   5.241   4.732   0.829
 8666SOL    HW334984   5.323   4.841   0.894
 8666SOL    MW434985   5.250   4.794   0.889
 8667SOL     OW34986   4.858   4.401   0.467
 8667SOL    HW234987   4.884   4.425   0.378
 8667SOL    HW334988   4.840   4.308   0.463
 8667SOL    MW434989   4.860   4.393   0.454
 8668SOL     OW34990   5.523   5.021   0.318
 8668SOL    HW234991   5.479   5.062   0.393
 8668SOL    HW334992   5.580   5.089   0.283
 8668SOL    MW434993   5.525   5.035   0.323
 8669SOL     OW34994   4.443   4.070   1.721
 8669SOL    HW234995   4.453   3.996   1.661
 8669SOL    HW334996   4.479   4.039   1.804
 8669SOL    MW434997   4.449   4.056   1.723
 8670SOL     OW34998   4.179   5.437   0.636
 8670SOL    HW234999   4.211   5.525   0.614
 8670SOL    HW335000   4.132   5.409   0.558
 8670SOL    MW435001   4.178   5.445   0.623
 8671SOL     OW35002   5.563   3.799   0.685
 8671SOL    HW235003   5.617   3.750   0.747
 8671SOL    HW335004   5.506   3.733   0.646
 8671SOL    MW435005   5.563   3.783   0.687
 8672SOL     OW35006   3.895   5.497   0.213
 8672SOL    HW235007   3.924   5.587   0.205
 8672SOL    HW335008   3.845   5.480   0.134
 8672SOL    MW435009   3.893   5.505   0.202
 8673SOL     OW35010   4.682   3.752   1.098
 8673SOL    HW235011   4.641   3.830   1.060
 8673SOL    HW335012   4.776   3.770   1.093
 8673SOL    MW435013   4.688   3.764   1.093
 8674SOL     OW35014   5.299   5.305   0.184
 8674SOL    HW235015   5.347   5.374   0.230
 8674SOL    HW335016   5.220   5.349   0.153
 8674SOL    MW435017   5.294   5.319   0.187
 8675SOL     OW35018   4.697   4.430   0.128
 8675SOL    HW235019   4.699   4.377   0.049
 8675SOL    HW335020   4.785   4.467   0.134
 8675SOL    MW435021   4.709   4.429   0.117
 8676SOL     OW35022   5.311   4.356   0.464
 8676SOL    HW235023   5.350   4.356   0.551
 8676SOL    HW335024   5.252   4.432   0.464
 8676SOL    MW435025   5.308   4.367   0.475
 8677SOL     OW35026   4.628   4.723   1.593
 8677SOL    HW235027   4.605   4.703   1.683
 8677SOL    HW335028   4.713   4.767   1.598
 8677SOL    MW435029   4.635   4.726   1.605
 8678SOL     OW35030   4.708   3.860   1.353
 8678SOL    HW235031   4.714   3.822   1.266
 8678SOL    HW335032   4.697   3.954   1.338
 8678SOL    MW435033   4.709   3.868   1.341
 8679SOL     OW35034   4.797   4.349   1.187
 8679SOL    HW235035   4.872   4.378   1.134
 8679SOL    HW335036   4.729   4.414   1.171
 8679SOL    MW435037   4.798   4.361   1.177
 8680SOL     OW35038   5.347   4.317   1.464
 8680SOL    HW235039   5.328   4.226   1.443
 8680SOL    HW335040   5.325   4.366   1.385
 8680SOL    MW435041   5.342   4.310   1.451
 8681SOL     OW35042   5.489   5.411   1.368
 8681SOL    HW235043   5.417   5.373   1.419
 8681SOL    HW335044   5.506   5.496   1.409
 8681SOL    MW435045   5.483   5.416   1.380
 8682SOL     OW35046   4.794   4.055   1.570
 8682SOL    HW235047   4.760   4.094   1.489
 8682SOL    HW335048   4.772   3.963   1.563
 8682SOL    MW435049   4.787   4.048   1.560
 8683SOL     OW35050   5.203   4.869   1.646
 8683SOL    HW235051   5.285   4.910   1.676
 8683SOL    HW335052   5.166   4.831   1.726
 8683SOL    MW435053   5.209   4.870   1.661
 8684SOL     OW35054   5.498   4.242   0.630
 8684SOL    HW235055   5.587   4.211   0.647
 8684SOL    HW335056   5.441   4.182   0.678
 8684SOL    MW435057   5.501   4.230   0.639
 8685SOL     OW35058   3.924   3.956   0.659
 8685SOL    HW235059   3.915   3.896   0.585
 8685SOL    HW335060   3.857   3.927   0.722
 8685SOL    MW435061   3.914   3.943   0.657
 8686SOL     OW35062   4.867   5.049   0.220
 8686SOL    HW235063   4.817   5.051   0.302
 8686SOL    HW335064   4.801   5.067   0.152
 8686SOL    MW435065   4.853   5.051   0.222
 8687SOL     OW35066   3.871   4.129   1.022
 8687SOL    HW235067   3.843   4.220   1.031
 8687SOL    HW335068   3.808   4.090   0.961
 8687SOL    MW435069   3.858   4.135   1.016
 8688SOL     OW35070   4.330   5.467   0.328
 8688SOL    HW235071   4.251   5.425   0.361
 8688SOL    HW335072   4.396   5.450   0.395
 8688SOL    MW435073   4.329   5.459   0.341
 8689SOL     OW35074   5.458   4.987   1.725
 8689SOL    HW235075   5.508   4.913   1.757
 8689SOL    HW335076   5.404   5.014   1.800
 8689SOL    MW435077   5.458   4.981   1.738
 8690SOL     OW35078   4.466   4.882   0.035
 8690SOL    HW235079   4.388   4.828   0.022
 8690SOL    HW335080   4.437   4.955   0.088
 8690SOL    MW435081   4.452   4.884   0.040
 8691SOL     OW35082   5.592   4.622   1.227
 8691SOL    HW235083   5.608   4.660   1.140
 8691SOL    HW335084   5.626   4.688   1.288
 8691SOL    MW435085   5.599   4.635   1.223
 8692SOL     OW35086   5.384   5.331   0.896
 8692SOL    HW235087   5.413   5.398   0.957
 8692SOL    HW335088   5.365   5.255   0.951
 8692SOL    MW435089   5.386   5.331   0.911
 8693SOL     OW35090   5.047   5.398   0.103
 8693SOL    HW235091   4.973   5.361   0.153
 8693SOL    HW335092   5.055   5.488   0.136
 8693SOL    MW435093   5.038   5.405   0.115
 8694SOL     OW35094   3.855   4.404   1.192
 8694SOL    HW235095   3.917   4.434   1.258
 8694SOL    HW335096   3.789   4.473   1.186
 8694SOL    MW435097   3.854   4.417   1.199
 8695SOL     OW35098   5.271   5.072   0.045
 8695SOL    HW235099   5.218   5.121  -0.019
 8695SOL    HW335100   5.302   5.138   0.106
 8695SOL    MW435101   5.269   5.086   0.043
 8696SOL     OW35102   4.496   3.961   0.100
 8696SOL    HW235103   4.444   3.881   0.088
 8696SOL    HW335104   4.583   3.938   0.068
 8696SOL    MW435105   4.499   3.947   0.094
 8697SOL     OW35106   3.950   5.513   1.644
 8697SOL    HW235107   3.924   5.581   1.582
 8697SOL    HW335108   3.998   5.450   1.592
 8697SOL    MW435109   3.952   5.513   1.630
 8698SOL     OW35110   4.002   4.832   1.151
 8698SOL    HW235111   4.055   4.907   1.176
 8698SOL    HW335112   3.921   4.870   1.117
 8698SOL    MW435113   3.998   4.847   1.151
 8699SOL     OW35114   4.542   4.736   1.139
 8699SOL    HW235115   4.570   4.645   1.151
 8699SOL    HW335116   4.471   4.730   1.075
 8699SOL    MW435117   4.535   4.724   1.134
 8700SOL     OW35118   3.857   4.601   0.557
 8700SOL    HW235119   3.948   4.616   0.584
 8700SOL    HW335120   3.860   4.522   0.503
 8700SOL    MW435121   3.869   4.593   0.555
 8701SOL     OW35122   4.093   4.309   1.811
 8701SOL    HW235123   4.040   4.389   1.818
 8701SOL    HW335124   4.163   4.321   1.876
 8701SOL    MW435125   4.095   4.322   1.819
 8702SOL     OW35126   4.479   3.859   1.518
 8702SOL    HW235127   4.456   3.767   1.520
 8702SOL    HW335128   4.565   3.861   1.475
 8702SOL    MW435129   4.486   3.849   1.514
 8703SOL     OW35130   4.163   4.383   1.557
 8703SOL    HW235131   4.243   4.433   1.543
 8703SOL    HW335132   4.154   4.377   1.652
 8703SOL    MW435133   4.172   4.389   1.567
 8704SOL     OW35134   4.484   5.533   0.931
 8704SOL    HW235135   4.573   5.548   0.961
 8704SOL    HW335136   4.479   5.580   0.847
 8704SOL    MW435137   4.494   5.541   0.924
 8705SOL     OW35138   5.140   3.908   1.828
 8705SOL    HW235139   5.196   3.835   1.854
 8705SOL    HW335140   5.110   3.946   1.910
 8705SOL    MW435141   5.144   3.903   1.841
 8706SOL     OW35142   3.865   5.213   0.596
 8706SOL    HW235143   3.837   5.252   0.678
 8706SOL    HW335144   3.885   5.122   0.618
 8706SOL    MW435145   3.863   5.205   0.609
 8707SOL     OW35146   4.698   5.256   0.631
 8707SOL    HW235147   4.781   5.210   0.615
 8707SOL    HW335148   4.688   5.255   0.727
 8707SOL    MW435149   4.708   5.249   0.641
 8708SOL     OW35150   5.530   4.401   0.945
 8708SOL    HW235151   5.619   4.431   0.927
 8708SOL    HW335152   5.510   4.341   0.874
 8708SOL    MW435153   5.539   4.398   0.934
 8709SOL     OW35154   5.381   4.580   1.825
 8709SOL    HW235155   5.436   4.504   1.806
 8709SOL    HW335156   5.383   4.588   1.920
 8709SOL    MW435157   5.389   4.571   1.833
 8710SOL     OW35158   4.431   5.313   0.036
 8710SOL    HW235159   4.371   5.382   0.006
 8710SOL    HW335160   4.376   5.255   0.089
 8710SOL    MW435161   4.415   5.315   0.038
 8711SOL     OW35162   4.869   3.958   0.259
 8711SOL    HW235163   4.802   3.934   0.196
 8711SOL    HW335164   4.934   4.007   0.208
 8711SOL    MW435165   4.869   3.960   0.244
 8712SOL     OW35166   4.676   4.142   1.344
 8712SOL    HW235167   4.595   4.183   1.372
 8712SOL    HW335168   4.723   4.210   1.296
 8712SOL    MW435169   4.671   4.157   1.342
 8713SOL     OW35170   4.936   4.480   0.967
 8713SOL    HW235171   4.949   4.574   0.977
 8713SOL    HW335172   4.897   4.470   0.881
 8713SOL    MW435173   4.932   4.491   0.957
 8714SOL     OW35174   4.388   4.675   0.771
 8714SOL    HW235175   4.299   4.666   0.804
 8714SOL    HW335176   4.392   4.765   0.739
 8714SOL    MW435177   4.377   4.686   0.771
 8715SOL     OW35178   5.187   4.258   0.766
 8715SOL    HW235179   5.132   4.179   0.765
 8715SOL    HW335180   5.169   4.299   0.850
 8715SOL    MW435181   5.177   4.253   0.775
 8716SOL     OW35182   4.158   3.945   1.583
 8716SOL    HW235183   4.079   3.963   1.635
 8716SOL    HW335184   4.153   4.007   1.510
 8716SOL    MW435185   4.148   3.955   1.580
 8717SOL     OW35186   4.806   4.462   0.723
 8717SOL    HW235187   4.743   4.394   0.747
 8717SOL    HW335188   4.826   4.443   0.631
 8717SOL    MW435189   4.800   4.449   0.715
 8718SOL     OW35190   4.062   5.357   0.425
 8718SOL    HW235191   4.023   5.404   0.351
 8718SOL    HW335192   3.996   5.292   0.450
 8718SOL    MW435193   4.049   5.355   0.419
 8719SOL     OW35194   4.554   4.766   0.449
 8719SOL    HW235195   4.556   4.740   0.356
 8719SOL    HW335196   4.612   4.703   0.492
 8719SOL    MW435197   4.562   4.755   0.443
 8720SOL     OW35198   5.107   5.326   1.221
 8720SOL    HW235199   5.032   5.372   1.259
 8720SOL    HW335200   5.089   5.233   1.238
 8720SOL    MW435201   5.096   5.320   1.229
 8721SOL     OW35202   5.111   5.534   0.651
 8721SOL    HW235203   5.054   5.487   0.590
 8721SOL    HW335204   5.197   5.495   0.638
 8721SOL    MW435205   5.114   5.525   0.641
 8722SOL     OW35206   5.064   4.010   0.782
 8722SOL    HW235207   5.092   3.942   0.843
 8722SOL    HW335208   4.978   3.981   0.752
 8722SOL    MW435209   5.057   3.997   0.786
 8723SOL     OW35210   3.869   4.944   0.716
 8723SOL    HW235211   3.933   4.976   0.779
 8723SOL    HW335212   3.918   4.880   0.664
 8723SOL    MW435213   3.884   4.940   0.717
 8724SOL     OW35214   4.369   5.020   1.698
 8724SOL    HW235215   4.417   5.103   1.685
 8724SOL    HW335216   4.426   4.968   1.754
 8724SOL    MW435217   4.383   5.024   1.704
 8725SOL     OW35218   3.945   5.262   1.838
 8725SOL    HW235219   4.001   5.186   1.853
 8725SOL    HW335220   3.894   5.240   1.760
 8725SOL    MW435221   3.945   5.249   1.829
 8726SOL     OW35222   5.044   4.114   0.117
 8726SOL    HW235223   5.017   4.180   0.053
 8726SOL    HW335224   5.114   4.157   0.167
 8726SOL    MW435225   5.049   4.127   0.114
 8727SOL     OW35226   4.712   3.819   0.054
 8727SOL    HW235227   4.768   3.811  -0.024
 8727SOL    HW335228   4.689   3.729   0.076
 8727SOL    MW435229   4.717   3.806   0.047
 8728SOL     OW35230   5.217   4.670   0.259
 8728SOL    HW235231   5.184   4.759   0.249
 8728SOL    HW335232   5.182   4.641   0.344
 8728SOL    MW435233   5.207   4.679   0.270
 8729SOL     OW35234   4.830   5.099   1.447
 8729SOL    HW235235   4.741   5.105   1.415
 8729SOL    HW335236   4.874   5.178   1.415
 8729SOL    MW435237   4.825   5.109   1.439
 8730SOL     OW35238   4.123   3.767   1.789
 8730SOL    HW235239   4.051   3.732   1.737
 8730SOL    HW335240   4.181   3.808   1.724
 8730SOL    MW435241   4.121   3.768   1.774
 8731SOL     OW35242   4.147   5.257   1.088
 8731SOL    HW235243   4.192   5.319   1.145
 8731SOL    HW335244   4.054   5.276   1.101
 8731SOL    MW435245   4.140   5.267   1.095
 8732SOL     OW35246   5.587   4.786   1.442
 8732SOL    HW235247   5.502   4.799   1.401
 8732SOL    HW335248   5.567   4.750   1.529
 8732SOL    MW435249   5.574   4.782   1.447
 8733SOL     OW35250   4.569   5.325   1.196
 8733SOL    HW235251   4.593   5.314   1.105
 8733SOL    HW335252   4.492   5.382   1.194
 8733SOL    MW435253   4.561   5.330   1.185
 8734SOL     OW35254   4.211   4.708   0.051
 8734SOL    HW235255   4.134   4.721   0.107
 8734SOL    HW335256   4.175   4.672  -0.030
 8734SOL    MW435257   4.197   4.704   0.048
 8735SOL     OW35258   4.864   4.681   0.294
 8735SOL    HW235259   4.774   4.702   0.269
 8735SOL    HW335260   4.891   4.754   0.350
 8735SOL    MW435261   4.856   4.693   0.297
 8736SOL     OW35262   4.364   5.030   0.986
 8736SOL    HW235263   4.357   5.009   1.080
 8736SOL    HW335264   4.282   4.998   0.949
 8736SOL    MW435265   4.352   5.024   0.993
 8737SOL     OW35266   5.228   4.040   1.388
 8737SOL    HW235267   5.175   4.042   1.468
 8737SOL    HW335268   5.213   3.953   1.351
 8737SOL    MW435269   5.220   4.030   1.393
 8738SOL     OW35270   5.564   3.964   1.261
 8738SOL    HW235271   5.545   4.031   1.196
 8738SOL    HW335272   5.621   3.902   1.216
 8738SOL    MW435273   5.568   3.965   1.247
 8739SOL     OW35274   3.810   5.122   1.649
 8739SOL    HW235275   3.854   5.055   1.595
 8739SOL    HW335276   3.725   5.084   1.669
 8739SOL    MW435277   3.805   5.108   1.645
 8740SOL     OW35278   4.493   3.797   0.701
 8740SOL    HW235279   4.422   3.858   0.683
 8740SOL    HW335280   4.544   3.794   0.620
 8740SOL    MW435281   4.489   3.803   0.688
 8741SOL     OW35282   4.251   5.037   0.450
 8741SOL    HW235283   4.244   5.069   0.540
 8741SOL    HW335284   4.161   5.021   0.422
 8741SOL    MW435285   4.239   5.039   0.457
 8742SOL     OW35286   4.846   5.430   1.359
 8742SOL    HW235287   4.766   5.415   1.309
 8742SOL    HW335288   4.853   5.525   1.366
 8742SOL    MW435289   4.837   5.441   1.353
 8743SOL     OW35290   4.960   5.395   0.849
 8743SOL    HW235291   5.007   5.468   0.808
 8743SOL    HW335292   4.881   5.434   0.885
 8743SOL    MW435293   4.955   5.410   0.848
 8744SOL     OW35294   5.368   5.490   1.124
 8744SOL    HW235295   5.411   5.460   1.204
 8744SOL    HW335296   5.287   5.438   1.121
 8744SOL    MW435297   5.363   5.479   1.134
 8745SOL     OW35298   4.453   4.454   1.831
 8745SOL    HW235299   4.523   4.396   1.803
 8745SOL    HW335300   4.396   4.399   1.886
 8745SOL    MW435301   4.455   4.441   1.835
 8746SOL     OW35302   5.240   4.666   1.464
 8746SOL    HW235303   5.245   4.719   1.544
 8746SOL    HW335304   5.202   4.583   1.492
 8746SOL    MW435305   5.236   4.661   1.479
 8747SOL     OW35306   4.880   3.801   1.710
 8747SOL    HW235307   4.875   3.708   1.691
 8747SOL    HW335308   4.963   3.812   1.756
 8747SOL    MW435309   4.888   3.790   1.714
 8748SOL     OW35310   4.254   4.321   0.164
 8748SOL    HW235311   4.220   4.377   0.234
 8748SOL    HW335312   4.325   4.271   0.204
 8748SOL    MW435313   4.260   4.322   0.178
 8749SOL     OW35314   5.350   5.072   0.986
 8749SOL    HW235315   5.385   5.054   0.899
 8749SOL    HW335316   5.255   5.073   0.973
 8749SOL    MW435317   5.342   5.069   0.973
 8750SOL     OW35318   4.779   4.720   1.355
 8750SOL    HW235319   4.822   4.755   1.433
 8750SOL    HW335320   4.762   4.797   1.301
 8750SOL    MW435321   4.782   4.735   1.358
 8751SOL     OW35322   5.310   4.207   0.228
 8751SOL    HW235323   5.302   4.278   0.165
 8751SOL    HW335324   5.328   4.251   0.311
 8751SOL    MW435325   5.311   4.221   0.230
 8752SOL     OW35326   4.170   3.862   0.657
 8752SOL    HW235327   4.220   3.905   0.588
 8752SOL    HW335328   4.085   3.906   0.657
 8752SOL    MW435329   4.167   3.875   0.648
 8753SOL     OW35330   3.929   4.924   1.517
 8753SOL    HW235331   3.957   4.877   1.595
 8753SOL    HW335332   3.850   4.879   1.488
 8753SOL    MW435333   3.922   4.913   1.523
 8754SOL     OW35334   4.437   4.251   1.484
 8754SOL    HW235335   4.409   4.339   1.508
 8754SOL    HW335336   4.406   4.195   1.555
 8754SOL    MW435337   4.429   4.254   1.496
 8755SOL     OW35338   4.979   4.469   0.203
 8755SOL    HW235339   5.026   4.487   0.122
 8755SOL    HW335340   4.945   4.553   0.231
 8755SOL    MW435341   4.981   4.483   0.196
 8756SOL     OW35342   4.092   4.647   0.697
 8756SOL    HW235343   4.150   4.703   0.645
 8756SOL    HW335344   4.136   4.562   0.699
 8756SOL    MW435345   4.105   4.644   0.690
 8757SOL     OW35346   5.232   3.999   0.534
 8757SOL    HW235347   5.154   3.949   0.559
 8757SOL    HW335348   5.203   4.090   0.534
 8757SOL    MW435349   5.218   4.003   0.537
 8758SOL     OW35350   4.818   3.961   0.693
 8758SOL    HW235351   4.838   4.036   0.637
 8758SOL    HW335352   4.798   4.000   0.778
 8758SOL    MW435353   4.819   3.977   0.697
 8759SOL     OW35354   4.714   5.211   0.025
 8759SOL    HW235355   4.741   5.289  -0.023
 8759SOL    HW335356   4.621   5.226   0.044
 8759SOL    MW435357   4.705   5.224   0.021
 8760SOL     OW35358   5.578   4.734   1.712
 8760SOL    HW235359   5.491   4.714   1.748
 8760SOL    HW335360   5.632   4.660   1.737
 8760SOL    MW435361   5.573   4.723   1.720
 8761SOL     OW35362   3.799   5.247   0.869
 8761SOL    HW235363   3.831   5.251   0.960
 8761SOL    HW335364   3.704   5.255   0.877
 8761SOL    MW435365   3.791   5.250   0.882
 8762SOL     OW35366   3.754   4.373   0.416
 8762SOL    HW235367   3.694   4.345   0.486
 8762SOL    HW335368   3.828   4.313   0.422
 8762SOL    MW435369   3.756   4.362   0.425
 8763SOL     OW35370   5.322   5.585   1.850
 8763SOL    HW235371   5.367   5.509   1.815
 8763SOL    HW335372   5.360   5.598   1.937
 8763SOL    MW435373   5.332   5.578   1.856
 8764SOL     OW35374   4.922   5.104   0.576
 8764SOL    HW235375   4.945   5.055   0.654
 8764SOL    HW335376   5.003   5.146   0.548
 8764SOL    MW435377   4.935   5.104   0.583
 8765SOL     OW35378   4.180   4.112   1.305
 8765SOL    HW235379   4.213   4.193   1.345
 8765SOL    HW335380   4.153   4.138   1.217
 8765SOL    MW435381   4.179   4.126   1.299
 8766SOL     OW35382   4.134   4.079   1.041
 8766SOL    HW235383   4.164   3.993   1.012
 8766SOL    HW335384   4.039   4.072   1.044
 8766SOL    MW435385   4.126   4.068   1.039
 8767SOL     OW35386   4.963   4.288   1.732
 8767SOL    HW235387   5.015   4.223   1.685
 8767SOL    HW335388   4.921   4.339   1.662
 8767SOL    MW435389   4.964   4.285   1.715
 8768SOL     OW35390   5.062   4.083   1.593
 8768SOL    HW235391   4.969   4.067   1.580
 8768SOL    HW335392   5.088   4.021   1.661
 8768SOL    MW435393   5.052   4.073   1.600
 8769SOL     OW35394   4.277   3.857   0.932
 8769SOL    HW235395   4.287   3.766   0.958
 8769SOL    HW335396   4.233   3.853   0.847
 8769SOL    MW435397   4.273   3.845   0.924
 8770SOL     OW35398   4.371   5.472   1.478
 8770SOL    HW235399   4.288   5.457   1.523
 8770SOL    HW335400   4.430   5.405   1.513
 8770SOL    MW435401   4.369   5.462   1.488
 8771SOL     OW35402   5.428   4.179   1.103
 8771SOL    HW235403   5.361   4.212   1.163
 8771SOL    HW335404   5.471   4.257   1.069
 8771SOL    MW435405   5.426   4.194   1.107
 8772SOL     OW35406   5.606   4.899   1.073
 8772SOL    HW235407   5.599   4.839   0.998
 8772SOL    HW335408   5.532   4.959   1.062
 8772SOL    MW435409   5.596   4.899   1.062
 8773SOL     OW35410   4.988   4.761   0.991
 8773SOL    HW235411   5.002   4.733   1.082
 8773SOL    HW335412   5.074   4.792   0.963
 8773SOL    MW435413   5.001   4.762   1.000
 8774SOL     OW35414   5.071   4.256   1.270
 8774SOL    HW235415   5.092   4.257   1.177
 8774SOL    HW335416   5.116   4.178   1.303
 8774SOL    MW435417   5.078   4.246   1.262
 8775SOL     OW35418   5.564   4.387   1.812
 8775SOL    HW235419   5.601   4.332   1.881
 8775SOL    HW335420   5.589   4.344   1.730
 8775SOL    MW435421   5.571   4.375   1.811
 8776SOL     OW35422   5.111   4.685   1.863
 8776SOL    HW235423   5.177   4.633   1.817
 8776SOL    HW335424   5.131   4.672   1.956
 8776SOL    MW435425   5.122   4.676   1.870
 8777SOL     OW35426   5.062   3.771   0.212
 8777SOL    HW235427   5.136   3.815   0.255
 8777SOL    HW335428   4.986   3.825   0.234
 8777SOL    MW435429   5.062   3.783   0.220
 8778SOL     OW35430   5.122   4.546   0.490
 8778SOL    HW235431   5.037   4.516   0.460
 8778SOL    HW335432   5.114   4.553   0.585
 8778SOL    MW435433   5.110   4.544   0.499
 8779SOL     OW35434   4.198   5.009   1.221
 8779SOL    HW235435   4.210   5.036   1.312
 8779SOL    HW335436   4.179   5.090   1.174
 8779SOL    MW435437   4.197   5.024   1.226
 8780SOL     OW35438   4.482   3.989   1.044
 8780SOL    HW235439   4.455   3.991   1.135
 8780SOL    HW335440   4.412   3.941   0.999
 8780SOL    MW435441   4.470   3.985   1.051
 8781SOL     OW35442   4.336   5.481   1.206
 8781SOL    HW235443   4.388   5.558   1.183
 8781SOL    HW335444   4.345   5.473   1.301
 8781SOL    MW435445   4.345   5.488   1.217
 8782SOL     OW35446   5.238   5.066   1.438
 8782SOL    HW235447   5.223   4.995   1.501
 8782SOL    HW335448   5.284   5.024   1.366
 8782SOL    MW435449   5.244   5.050   1.438
 8783SOL     OW35450   4.312   4.797   1.555
 8783SOL    HW235451   4.349   4.802   1.467
 8783SOL    HW335452   4.351   4.870   1.602
 8783SOL    MW435453   4.322   4.807   1.550
 8784SOL     OW35454   4.492   4.840   1.367
 8784SOL    HW235455   4.551   4.786   1.420
 8784SOL    HW335456   4.507   4.812   1.277
 8784SOL    MW435457   4.502   4.829   1.363
 8785SOL     OW35458   4.495   4.212   0.216
 8785SOL    HW235459   4.568   4.261   0.179
 8785SOL    HW335460   4.511   4.121   0.190
 8785SOL    MW435461   4.507   4.207   0.209
 8786SOL     OW35462   5.303   5.329   1.539
 8786SOL    HW235463   5.345   5.314   1.624
 8786SOL    HW335464   5.294   5.242   1.501
 8786SOL    MW435465   5.307   5.317   1.546
 8787SOL     OW35466   4.963   3.808   1.130
 8787SOL    HW235467   5.018   3.817   1.052
 8787SOL    HW335468   5.018   3.842   1.201
 8787SOL    MW435469   4.977   3.813   1.129
 8788SOL     OW35470   3.970   4.721   0.314
 8788SOL    HW235471   3.907   4.737   0.243
 8788SOL    HW335472   3.917   4.684   0.385
 8788SOL    MW435473   3.955   4.718   0.314
 8789SOL     OW35474   4.326   5.075   0.173
 8789SOL    HW235475   4.341   5.051   0.265
 8789SOL    HW335476   4.234   5.053   0.157
 8789SOL    MW435477   4.316   5.068   0.183
 8790SOL     OW35478   4.865   5.306   0.325
 8790SOL    HW235479   4.873   5.224   0.276
 8790SOL    HW335480   4.784   5.345   0.292
 8790SOL    MW435481   4.855   5.301   0.315
 8791SOL     OW35482   4.124   5.464   0.894
 8791SOL    HW235483   4.128   5.375   0.929
 8791SOL    HW335484   4.150   5.455   0.803
 8791SOL    MW435485   4.127   5.452   0.886
 8792SOL     OW35486   4.741   4.942   1.137
 8792SOL    HW235487   4.673   4.876   1.153
 8792SOL    HW335488   4.759   4.936   1.044
 8792SOL    MW435489   4.734   4.933   1.128
 8793SOL     OW35490   3.830   5.217   1.388
 8793SOL    HW235491   3.820   5.175   1.474
 8793SOL    HW335492   3.751   5.270   1.378
 8793SOL    MW435493   3.819   5.218   1.399
 8794SOL     OW35494   4.734   4.081   0.958
 8794SOL    HW235495   4.664   4.033   1.003
 8794SOL    HW335496   4.766   4.144   1.022
 8794SOL    MW435497   4.729   4.083   0.972
 8795SOL     OW35498   4.385   4.517   1.578
 8795SOL    HW235499   4.378   4.612   1.566
 8795SOL    HW335500   4.394   4.506   1.673
 8795SOL    MW435501   4.386   4.529   1.588
 8796SOL     OW35502   4.106   5.032   1.836
 8796SOL    HW235503   4.178   5.034   1.773
 8796SOL    HW335504   4.076   4.941   1.835
 8796SOL    MW435505   4.111   5.021   1.828
 8797SOL     OW35506   5.190   3.795   1.303
 8797SOL    HW235507   5.261   3.741   1.267
 8797SOL    HW335508   5.189   3.774   1.396
 8797SOL    MW435509   5.199   3.786   1.311
 8798SOL     OW35510   5.390   5.325   1.787
 8798SOL    HW235511   5.363   5.322   1.878
 8798SOL    HW335512   5.486   5.329   1.790
 8798SOL    MW435513   5.400   5.325   1.799
 8799SOL     OW35514   4.201   4.187   0.771
 8799SOL    HW235515   4.272   4.135   0.734
 8799SOL    HW335516   4.187   4.152   0.858
 8799SOL    MW435517   4.209   4.176   0.778
 8800SOL     OW35518   3.756   5.522   1.843
 8800SOL    HW235519   3.806   5.500   1.765
 8800SOL    HW335520   3.764   5.617   1.851
 8800SOL    MW435521   3.764   5.531   1.834
 8801SOL     OW35522   4.517   5.280   0.847
 8801SOL    HW235523   4.445   5.217   0.860
 8801SOL    HW335524   4.478   5.365   0.865
 8801SOL    MW435525   4.501   5.283   0.850
 8802SOL     OW35526   4.837   4.128   0.495
 8802SOL    HW235527   4.859   4.065   0.427
 8802SOL    HW335528   4.742   4.120   0.506
 8802SOL    MW435529   4.827   4.119   0.487
 8803SOL     OW35530   3.922   3.818   0.427
 8803SOL    HW235531   3.993   3.839   0.366
 8803SOL    HW335532   3.876   3.746   0.385
 8803SOL    MW435533   3.926   3.812   0.413
 8804SOL     OW35534   3.753   4.285   1.570
 8804SOL    HW235535   3.817   4.351   1.545
 8804SOL    HW335536   3.672   4.312   1.527
 8804SOL    MW435537   3.751   4.297   1.562
 8805SOL     OW35538   5.491   5.192   0.527
 8805SOL    HW235539   5.461   5.125   0.588
 8805SOL    HW335540   5.585   5.198   0.541
 8805SOL    MW435541   5.499   5.184   0.537
 8806SOL     OW35542   5.047   4.869   0.457
 8806SOL    HW235543   5.019   4.955   0.490
 8806SOL    HW335544   5.075   4.885   0.367
 8806SOL    MW435545   5.047   4.883   0.449
 8807SOL     OW35546   4.709   3.789   0.510
 8807SOL    HW235547   4.746   3.848   0.575
 8807SOL    HW335548   4.686   3.845   0.436
 8807SOL    MW435549   4.710   3.804   0.509
 8808SOL     OW35550   5.562   4.671   0.932
 8808SOL    HW235551   5.553   4.703   0.843
 8808SOL    HW335552   5.515   4.587   0.932
 8808SOL    MW435553   5.555   4.664   0.922
 8809SOL     OW35554   3.938   4.511   1.511
 8809SOL    HW235555   3.959   4.580   1.449
 8809SOL    HW335556   4.018   4.458   1.516
 8809SOL    MW435557   3.951   4.512   1.505
 8810SOL     OW35558   5.474   4.602   0.633
 8810SOL    HW235559   5.568   4.591   0.621
 8810SOL    HW335560   5.450   4.674   0.574
 8810SOL    MW435561   5.484   4.610   0.624
 8811SOL     OW35562   3.923   4.526   1.778
 8811SOL    HW235563   3.849   4.470   1.804
 8811SOL    HW335564   3.918   4.529   1.683
 8811SOL    MW435565   3.912   4.519   1.768
 8812SOL     OW35566   4.089   3.813   1.228
 8812SOL    HW235567   4.132   3.897   1.248
 8812SOL    HW335568   4.162   3.751   1.221
 8812SOL    MW435569   4.104   3.816   1.229
 8813SOL     OW35570   4.130   4.480   0.406
 8813SOL    HW235571   4.130   4.575   0.391
 8813SOL    HW335572   4.207   4.464   0.460
 8813SOL    MW435573   4.140   4.491   0.411
 8814SOL     OW35574   4.906   4.339   1.470
 8814SOL    HW235575   4.942   4.312   1.386
 8814SOL    HW335576   4.819   4.373   1.449
 8814SOL    MW435577   4.900   4.340   1.457
 8815SOL     OW35578   3.889   4.211   0.695
 8815SOL    HW235579   3.951   4.218   0.768
 8815SOL    HW335580   3.889   4.118   0.672
 8815SOL    MW435581   3.897   4.200   0.702
 8816SOL     OW35582   5.436   5.551   0.227
 8816SOL    HW235583   5.503   5.584   0.167
 8816SOL    HW335584   5.393   5.630   0.261
 8816SOL    MW435585   5.438   5.566   0.223
 8817SOL     OW35586   4.571   4.472   1.179
 8817SOL    HW235587   4.529   4.390   1.155
 8817SOL    HW335588   4.572   4.471   1.275
 8817SOL    MW435589   4.564   4.461   1.188
 8818SOL     OW35590   5.242   5.605   1.578
 8818SOL    HW235591   5.245   5.511   1.561
 8818SOL    HW335592   5.265   5.613   1.670
 8818SOL    MW435593   5.245   5.593   1.588
 8819SOL     OW35594   4.375   3.942   1.284
 8819SOL    HW235595   4.306   4.005   1.305
 8819SOL    HW335596   4.402   3.906   1.369
 8819SOL    MW435597   4.369   3.945   1.297
 8820SOL     OW35598   3.758   4.783   0.153
 8820SOL    HW235599   3.727   4.848   0.216
 8820SOL    HW335600   3.707   4.705   0.172
 8820SOL    MW435601   3.748   4.780   0.163
 8821SOL     OW35602   5.170   3.795   0.901
 8821SOL    HW235603   5.258   3.804   0.938
 8821SOL    HW335604   5.180   3.736   0.827
 8821SOL    MW435605   5.184   3.789   0.895
 8822SOL     OW35606   5.202   4.534   0.745
 8822SOL    HW235607   5.282   4.549   0.694
 8822SOL    HW335608   5.195   4.439   0.751
 8822SOL    MW435609   5.211   4.523   0.740
 8823SOL     OW35610   4.342   5.583   0.095
 8823SOL    HW235611   4.247   5.583   0.087
 8823SOL    HW335612   4.358   5.529   0.173
 8823SOL    MW435613   4.332   5.577   0.104
 8824SOL     OW35614   4.652   4.460   1.442
 8824SOL    HW235615   4.721   4.527   1.439
 8824SOL    HW335616   4.585   4.498   1.498
 8824SOL    MW435617   4.653   4.473   1.449
 8825SOL     OW35618   4.070   4.760   1.690
 8825SOL    HW235619   4.024   4.676   1.692
 8825SOL    HW335620   4.127   4.754   1.614
 8825SOL    MW435621   4.072   4.748   1.682
 8826SOL     OW35622   5.187   4.403   0.011
 8826SOL    HW235623   5.115   4.379  -0.047
 8826SOL    HW335624   5.253   4.440  -0.047
 8826SOL    MW435625   5.186   4.405  -0.004
 8827SOL     OW35626   4.321   5.135   0.691
 8827SOL    HW235627   4.386   5.068   0.712
 8827SOL    HW335628   4.373   5.212   0.668
 8827SOL    MW435629   4.336   5.137   0.690
 8828SOL     OW35630   4.582   4.300   0.821
 8828SOL    HW235631   4.522   4.318   0.893
 8828SOL    HW335632   4.616   4.212   0.840
 8828SOL    MW435633   4.578   4.290   0.834
 8829SOL     OW35634   5.523   3.799   1.490
 8829SOL    HW235635   5.444   3.845   1.518
 8829SOL    HW335636   5.558   3.853   1.419
 8829SOL    MW435637   5.517   3.812   1.484
 8830SOL     OW35638   4.807   4.883   0.840
 8830SOL    HW235639   4.899   4.864   0.858
 8830SOL    HW335640   4.780   4.813   0.780
 8830SOL    MW435641   4.815   4.871   0.834
 8831SOL     OW35642   4.600   4.703   0.195
 8831SOL    HW235643   4.586   4.615   0.160
 8831SOL    HW335644   4.551   4.760   0.136
 8831SOL    MW435645   4.592   4.698   0.183
 8832SOL     OW35646   5.081   5.121   0.936
 8832SOL    HW235647   5.054   5.205   0.901
 8832SOL    HW335648   5.041   5.116   1.023
 8832SOL    MW435649   5.074   5.130   0.942
 8833SOL     OW35650   5.000   5.069   1.204
 8833SOL    HW235651   5.011   5.036   1.293
 8833SOL    HW335652   4.919   5.028   1.173
 8833SOL    MW435653   4.990   5.061   1.210
 8834SOL     OW35654   4.013   4.427   0.974
 8834SOL    HW235655   3.963   4.426   1.055
 8834SOL    HW335656   4.033   4.519   0.958
 8834SOL    MW435657   4.009   4.439   0.982
 8835SOL     OW35658   5.080   5.191   1.736
 8835SOL    HW235659   5.080   5.285   1.752
 8835SOL    HW335660   5.125   5.181   1.652
 8835SOL    MW435661   5.086   5.201   1.727
 8836SOL     OW35662   5.319   3.909   0.297
 8836SOL    HW235663   5.312   3.913   0.392
 8836SOL    HW335664   5.331   4.000   0.270
 8836SOL    MW435665   5.320   3.922   0.305
 8837SOL     OW35666   4.608   4.472   0.411
 8837SOL    HW235667   4.588   4.458   0.318
 8837SOL    HW335668   4.701   4.451   0.418
 8837SOL    MW435669   4.618   4.467   0.400
 8838SOL     OW35670   3.935   4.095   1.715
 8838SOL    HW235671   3.892   4.154   1.652
 8838SOL    HW335672   4.003   4.150   1.755
 8838SOL    MW435673   3.939   4.110   1.712
 8839SOL     OW35674   5.047   4.715   1.260
 8839SOL    HW235675   5.110   4.712   1.333
 8839SOL    HW335676   4.963   4.733   1.302
 8839SOL    MW435677   5.043   4.717   1.275
 8840SOL     OW35678   4.591   5.430   0.449
 8840SOL    HW235679   4.649   5.501   0.476
 8840SOL    HW335680   4.614   5.358   0.507
 8840SOL    MW435681   4.602   5.430   0.460
 8841SOL     OW35682   5.386   3.892   1.039
 8841SOL    HW235683   5.431   3.810   1.058
 8841SOL    HW335684   5.406   3.948   1.115
 8841SOL    MW435685   5.396   3.888   1.051
 8842SOL     OW35686   3.834   3.735   1.138
 8842SOL    HW235687   3.825   3.736   1.043
 8842SOL    HW335688   3.928   3.747   1.153
 8842SOL    MW435689   3.846   3.738   1.129
 8843SOL     OW35690   5.471   4.928   0.758
 8843SOL    HW235691   5.450   4.874   0.681
 8843SOL    HW335692   5.567   4.926   0.762
 8843SOL    MW435693   5.480   4.921   0.747
 8844SOL     OW35694   4.163   5.073   1.501
 8844SOL    HW235695   4.084   5.023   1.524
 8844SOL    HW335696   4.233   5.032   1.551
 8844SOL    MW435697   4.161   5.061   1.511
 8845SOL     OW35698   4.047   3.862   0.184
 8845SOL    HW235699   3.976   3.917   0.152
 8845SOL    HW335700   4.089   3.828   0.105
 8845SOL    MW435701   4.043   3.864   0.170
 8846SOL     OW35702   5.171   4.359   1.020
 8846SOL    HW235703   5.094   4.405   0.986
 8846SOL    HW335704   5.228   4.428   1.054
 8846SOL    MW435705   5.168   4.374   1.020
 8847SOL     OW35706   3.803   3.961   0.033
 8847SOL    HW235707   3.770   4.040   0.077
 8847SOL    HW335708   3.858   3.994  -0.038
 8847SOL    MW435709   3.806   3.975   0.030
 8848SOL     OW35710   3.837   5.218   0.222
 8848SOL    HW235711   3.854   5.302   0.264
 8848SOL    HW335712   3.872   5.227   0.134
 8848SOL    MW435713   3.842   5.231   0.216
 8849SOL     OW35714   5.109   5.307   0.439
 8849SOL    HW235715   5.172   5.297   0.368
 8849SOL    HW335716   5.026   5.327   0.394
 8849SOL    MW435717   5.106   5.308   0.424
 8850SOL     OW35718   5.472   4.575   2.125
 8850SOL    HW235719   5.513   4.517   2.190
 8850SOL    HW335720   5.379   4.567   2.142
 8850SOL    MW435721   5.466   4.567   2.135
 8851SOL     OW35722   5.338   4.507   3.120
 8851SOL    HW235723   5.293   4.574   3.171
 8851SOL    HW335724   5.426   4.543   3.106
 8851SOL    MW435725   5.344   4.520   3.124
 8852SOL     OW35726   4.266   4.758   2.354
 8852SOL    HW235727   4.356   4.733   2.338
 8852SOL    HW335728   4.262   4.851   2.331
 8852SOL    MW435729   4.278   4.767   2.349
 8853SOL     OW35730   5.382   5.461   2.496
 8853SOL    HW235731   5.394   5.407   2.574
 8853SOL    HW335732   5.419   5.409   2.425
 8853SOL    MW435733   5.388   5.446   2.497
 8854SOL     OW35734   4.761   5.346   3.497
 8854SOL    HW235735   4.802   5.382   3.418
 8854SOL    HW335736   4.796   5.257   3.504
 8854SOL    MW435737   4.772   5.339   3.488
 8855SOL     OW35738   5.318   4.901   3.101
 8855SOL    HW235739   5.239   4.866   3.059
 8855SOL    HW335740   5.345   4.973   3.045
 8855SOL    MW435741   5.311   4.906   3.088
 8856SOL     OW35742   4.550   4.214   2.367
 8856SOL    HW235743   4.525   4.302   2.395
 8856SOL    HW335744   4.547   4.217   2.271
 8856SOL    MW435745   4.546   4.226   2.359
 8857SOL     OW35746   3.992   4.242   2.295
 8857SOL    HW235747   4.024   4.330   2.277
 8857SOL    HW335748   3.980   4.240   2.390
 8857SOL    MW435749   3.995   4.254   2.307
 8858SOL     OW35750   4.070   4.655   3.196
 8858SOL    HW235751   4.133   4.602   3.147
 8858SOL    HW335752   4.051   4.729   3.139
 8858SOL    MW435753   4.076   4.657   3.183
 8859SOL     OW35754   4.391   3.997   2.382
 8859SOL    HW235755   4.449   4.073   2.384
 8859SOL    HW335756   4.326   4.018   2.315
 8859SOL    MW435757   4.390   4.009   2.373
 8860SOL     OW35758   4.478   4.924   2.557
 8860SOL    HW235759   4.558   4.927   2.609
 8860SOL    HW335760   4.506   4.891   2.471
 8860SOL    MW435761   4.492   4.920   2.552
 8861SOL     OW35762   4.503   5.265   3.460
 8861SOL    HW235763   4.587   5.291   3.499
 8861SOL    HW335764   4.527   5.209   3.386
 8861SOL    MW435765   4.517   5.261   3.455
 8862SOL     OW35766   4.255   4.428   2.548
 8862SOL    HW235767   4.240   4.348   2.599
 8862SOL    HW335768   4.337   4.463   2.582
 8862SOL    MW435769   4.263   4.420   2.560
 8863SOL     OW35770   4.592   5.114   3.233
 8863SOL    HW235771   4.556   5.180   3.173
 8863SOL    HW335772   4.520   5.052   3.246
 8863SOL    MW435773   4.578   5.114   3.227
 8864SOL     OW35774   4.397   4.254   2.925
 8864SOL    HW235775   4.303   4.250   2.943
 8864SOL    HW335776   4.427   4.163   2.934
 8864SOL    MW435777   4.388   4.242   2.928
 8865SOL     OW35778   4.143   4.668   2.829
 8865SOL    HW235779   4.098   4.675   2.745
 8865SOL    HW335780   4.123   4.751   2.873
 8865SOL    MW435781   4.135   4.680   2.823
 8866SOL     OW35782   3.840   5.514   2.704
 8866SOL    HW235783   3.929   5.506   2.739
 8866SOL    HW335784   3.804   5.426   2.709
 8866SOL    MW435785   3.847   5.501   2.709
 8867SOL     OW35786   5.105   4.906   2.073
 8867SOL    HW235787   5.023   4.942   2.039
 8867SOL    HW335788   5.173   4.949   2.022
 8867SOL    MW435789   5.103   4.916   2.061
 8868SOL     OW35790   4.104   5.041   2.739
 8868SOL    HW235791   4.080   5.094   2.815
 8868SOL    HW335792   4.160   5.099   2.687
 8868SOL    MW435793   4.108   5.056   2.742
 8869SOL     OW35794   4.666   4.685   2.549
 8869SOL    HW235795   4.580   4.672   2.589
 8869SOL    HW335796   4.719   4.612   2.581
 8869SOL    MW435797   4.662   4.674   2.558
 8870SOL     OW35798   4.074   5.337   3.334
 8870SOL    HW235799   3.982   5.313   3.319
 8870SOL    HW335800   4.118   5.254   3.351
 8870SOL    MW435801   4.068   5.322   3.333
 8871SOL     OW35802   4.657   5.047   2.266
 8871SOL    HW235803   4.634   5.109   2.334
 8871SOL    HW335804   4.614   4.965   2.292
 8871SOL    MW435805   4.649   5.043   2.277
 8872SOL     OW35806   5.530   4.048   2.722
 8872SOL    HW235807   5.467   4.028   2.791
 8872SOL    HW335808   5.520   3.977   2.659
 8872SOL    MW435809   5.520   4.035   2.723
 8873SOL     OW35810   4.154   4.020   2.234
 8873SOL    HW235811   4.128   3.982   2.150
 8873SOL    HW335812   4.091   4.090   2.250
 8873SOL    MW435813   4.143   4.023   2.225
 8874SOL     OW35814   3.989   4.981   2.271
 8874SOL    HW235815   3.937   5.049   2.227
 8874SOL    HW335816   3.986   4.907   2.211
 8874SOL    MW435817   3.981   4.980   2.258
 8875SOL     OW35818   4.651   5.444   2.049
 8875SOL    HW235819   4.606   5.460   2.132
 8875SOL    HW335820   4.582   5.409   1.991
 8875SOL    MW435821   4.637   5.441   2.051
 8876SOL     OW35822   5.586   4.217   2.024
 8876SOL    HW235823   5.495   4.219   2.052
 8876SOL    HW335824   5.631   4.279   2.082
 8876SOL    MW435825   5.579   4.225   2.034
 8877SOL     OW35826   5.331   4.820   2.374
 8877SOL    HW235827   5.241   4.820   2.409
 8877SOL    HW335828   5.324   4.866   2.291
 8877SOL    MW435829   5.318   4.826   2.368
 8878SOL     OW35830   5.131   4.455   3.446
 8878SOL    HW235831   5.200   4.393   3.423
 8878SOL    HW335832   5.056   4.429   3.393
 8878SOL    MW435833   5.131   4.442   3.437
 8879SOL     OW35834   3.872   5.335   2.998
 8879SOL    HW235835   3.855   5.281   3.075
 8879SOL    HW335836   3.860   5.425   3.028
 8879SOL    MW435837   3.869   5.339   3.012
 8880SOL     OW35838   4.867   4.842   3.438
 8880SOL    HW235839   4.852   4.935   3.423
 8880SOL    HW335840   4.962   4.832   3.438
 8880SOL    MW435841   4.876   4.852   3.435
 8881SOL     OW35842   4.663   4.266   3.639
 8881SOL    HW235843   4.753   4.267   3.606
 8881SOL    HW335844   4.622   4.191   3.597
 8881SOL    MW435845   4.669   4.256   3.630
 8882SOL     OW35846   5.238   4.798   2.766
 8882SOL    HW235847   5.241   4.732   2.697
 8882SOL    HW335848   5.323   4.841   2.762
 8882SOL    MW435849   5.250   4.794   2.757
 8883SOL     OW35850   4.858   4.401   2.335
 8883SOL    HW235851   4.884   4.425   2.246
 8883SOL    HW335852   4.840   4.308   2.331
 8883SOL    MW435853   4.860   4.393   2.322
 8884SOL     OW35854   5.523   5.021   2.186
 8884SOL    HW235855   5.479   5.062   2.261
 8884SOL    HW335856   5.580   5.089   2.151
 8884SOL    MW435857   5.525   5.035   2.191
 8885SOL     OW35858   4.443   4.070   3.589
 8885SOL    HW235859   4.453   3.996   3.529
 8885SOL    HW335860   4.479   4.039   3.672
 8885SOL    MW435861   4.449   4.056   3.591
 8886SOL     OW35862   4.179   5.437   2.504
 8886SOL    HW235863   4.211   5.525   2.482
 8886SOL    HW335864   4.132   5.409   2.426
 8886SOL    MW435865   4.178   5.445   2.491
 8887SOL     OW35866   5.563   3.799   2.553
 8887SOL    HW235867   5.617   3.750   2.615
 8887SOL    HW335868   5.506   3.733   2.514
 8887SOL    MW435869   5.563   3.783   2.555
 8888SOL     OW35870   3.895   5.497   2.081
 8888SOL    HW235871   3.924   5.587   2.073
 8888SOL    HW335872   3.845   5.480   2.002
 8888SOL    MW435873   3.893   5.505   2.070
 8889SOL     OW35874   4.682   3.752   2.966
 8889SOL    HW235875   4.641   3.830   2.928
 8889SOL    HW335876   4.776   3.770   2.961
 8889SOL    MW435877   4.688   3.764   2.961
 8890SOL     OW35878   5.299   5.305   2.052
 8890SOL    HW235879   5.347   5.374   2.098
 8890SOL    HW335880   5.220   5.349   2.021
 8890SOL    MW435881   5.294   5.319   2.055
 8891SOL     OW35882   4.697   4.430   1.996
 8891SOL    HW235883   4.699   4.377   1.917
 8891SOL    HW335884   4.785   4.467   2.002
 8891SOL    MW435885   4.709   4.429   1.985
 8892SOL     OW35886   5.311   4.356   2.332
 8892SOL    HW235887   5.350   4.356   2.419
 8892SOL    HW335888   5.252   4.432   2.332
 8892SOL    MW435889   5.308   4.367   2.343
 8893SOL     OW35890   4.628   4.723   3.461
 8893SOL    HW235891   4.605   4.703   3.551
 8893SOL    HW335892   4.713   4.767   3.466
 8893SOL    MW435893   4.635   4.726   3.473
 8894SOL     OW35894   4.708   3.860   3.221
 8894SOL    HW235895   4.714   3.822   3.134
 8894SOL    HW335896   4.697   3.954   3.206
 8894SOL    MW435897   4.709   3.868   3.209
 8895SOL     OW35898   4.797   4.349   3.055
 8895SOL    HW235899   4.872   4.378   3.002
 8895SOL    HW335900   4.729   4.414   3.039
 8895SOL    MW435901   4.798   4.361   3.045
 8896SOL     OW35902   5.347   4.317   3.332
 8896SOL    HW235903   5.328   4.226   3.311
 8896SOL    HW335904   5.325   4.366   3.253
 8896SOL    MW435905   5.342   4.310   3.319
 8897SOL     OW35906   5.489   5.411   3.236
 8897SOL    HW235907   5.417   5.373   3.287
 8897SOL    HW335908   5.506   5.496   3.277
 8897SOL    MW435909   5.483   5.416   3.248
 8898SOL     OW35910   4.794   4.055   3.438
 8898SOL    HW235911   4.760   4.094   3.357
 8898SOL    HW335912   4.772   3.963   3.431
 8898SOL    MW435913   4.787   4.048   3.428
 8899SOL     OW35914   5.203   4.869   3.514
 8899SOL    HW235915   5.285   4.910   3.544
 8899SOL    HW335916   5.166   4.831   3.594
 8899SOL    MW435917   5.209   4.870   3.529
 8900SOL     OW35918   5.498   4.242   2.498
 8900SOL    HW235919   5.587   4.211   2.515
 8900SOL    HW335920   5.441   4.182   2.546
 8900SOL    MW435921   5.501   4.230   2.507
 8901SOL     OW35922   3.924   3.956   2.527
 8901SOL    HW235923   3.915   3.896   2.453
 8901SOL    HW335924   3.857   3.927   2.590
 8901SOL    MW435925   3.914   3.943   2.525
 8902SOL     OW35926   4.867   5.049   2.088
 8902SOL    HW235927   4.817   5.051   2.170
 8902SOL    HW335928   4.801   5.067   2.020
 8902SOL    MW435929   4.853   5.051   2.090
 8903SOL     OW35930   3.871   4.129   2.890
 8903SOL    HW235931   3.843   4.220   2.899
 8903SOL    HW335932   3.808   4.090   2.829
 8903SOL    MW435933   3.858   4.135   2.884
 8904SOL     OW35934   4.330   5.467   2.196
 8904SOL    HW235935   4.251   5.425   2.229
 8904SOL    HW335936   4.396   5.450   2.263
 8904SOL    MW435937   4.329   5.459   2.209
 8905SOL     OW35938   5.458   4.987   3.593
 8905SOL    HW235939   5.508   4.913   3.625
 8905SOL    HW335940   5.404   5.014   3.668
 8905SOL    MW435941   5.458   4.981   3.606
 8906SOL     OW35942   4.466   4.882   1.903
 8906SOL    HW235943   4.388   4.828   1.890
 8906SOL    HW335944   4.437   4.955   1.956
 8906SOL    MW435945   4.452   4.884   1.908
 8907SOL     OW35946   5.592   4.622   3.095
 8907SOL    HW235947   5.608   4.660   3.008
 8907SOL    HW335948   5.626   4.688   3.156
 8907SOL    MW435949   5.599   4.635   3.091
 8908SOL     OW35950   5.384   5.331   2.764
 8908SOL    HW235951   5.413   5.398   2.825
 8908SOL    HW335952   5.365   5.255   2.819
 8908SOL    MW435953   5.386   5.331   2.779
 8909SOL     OW35954   5.047   5.398   1.971
 8909SOL    HW235955   4.973   5.361   2.021
 8909SOL    HW335956   5.055   5.488   2.004
 8909SOL    MW435957   5.038   5.405   1.983
 8910SOL     OW35958   3.855   4.404   3.060
 8910SOL    HW235959   3.917   4.434   3.126
 8910SOL    HW335960   3.789   4.473   3.054
 8910SOL    MW435961   3.854   4.417   3.067
 8911SOL     OW35962   5.271   5.072   1.913
 8911SOL    HW235963   5.218   5.121   1.849
 8911SOL    HW335964   5.302   5.138   1.974
 8911SOL    MW435965   5.269   5.086   1.911
 8912SOL     OW35966   4.496   3.961   1.968
 8912SOL    HW235967   4.444   3.881   1.956
 8912SOL    HW335968   4.583   3.938   1.936
 8912SOL    MW435969   4.499   3.947   1.962
 8913SOL     OW35970   3.950   5.513   3.512
 8913SOL    HW235971   3.924   5.581   3.450
 8913SOL    HW335972   3.998   5.450   3.460
 8913SOL    MW435973   3.952   5.513   3.498
 8914SOL     OW35974   4.002   4.832   3.019
 8914SOL    HW235975   4.055   4.907   3.044
 8914SOL    HW335976   3.921   4.870   2.985
 8914SOL    MW435977   3.998   4.847   3.019
 8915SOL     OW35978   4.542   4.736   3.007
 8915SOL    HW235979   4.570   4.645   3.019
 8915SOL    HW335980   4.471   4.730   2.943
 8915SOL    MW435981   4.535   4.724   3.002
 8916SOL     OW35982   3.857   4.601   2.425
 8916SOL    HW235983   3.948   4.616   2.452
 8916SOL    HW335984   3.860   4.522   2.371
 8916SOL    MW435985   3.869   4.593   2.423
 8917SOL     OW35986   4.093   4.309   3.679
 8917SOL    HW235987   4.040   4.389   3.686
 8917SOL    HW335988   4.163   4.321   3.744
 8917SOL    MW435989   4.095   4.322   3.687
 8918SOL     OW35990   4.479   3.859   3.386
 8918SOL    HW235991   4.456   3.767   3.388
 8918SOL    HW335992   4.565   3.861   3.343
 8918SOL    MW435993   4.486   3.849   3.382
 8919SOL     OW35994   4.163   4.383   3.425
 8919SOL    HW235995   4.243   4.433   3.411
 8919SOL    HW335996   4.154   4.377   3.520
 8919SOL    MW435997   4.172   4.389   3.435
 8920SOL     OW35998   4.484   5.533   2.799
 8920SOL    HW235999   4.573   5.548   2.829
 8920SOL    HW336000   4.479   5.580   2.715
 8920SOL    MW436001   4.494   5.541   2.792
 8921SOL     OW36002   5.140   3.908   3.696
 8921SOL    HW236003   5.196   3.835   3.722
 8921SOL    HW336004   5.110   3.946   3.778
 8921SOL    MW436005   5.144   3.903   3.709
 8922SOL     OW36006   3.865   5.213   2.464
 8922SOL    HW236007   3.837   5.252   2.546
 8922SOL    HW336008   3.885   5.122   2.486
 8922SOL    MW436009   3.863   5.205   2.477
 8923SOL     OW36010   4.698   5.256   2.499
 8923SOL    HW236011   4.781   5.210   2.483
 8923SOL    HW336012   4.688   5.255   2.595
 8923SOL    MW436013   4.708   5.249   2.509
 8924SOL     OW36014   5.530   4.401   2.813
 8924SOL    HW236015   5.619   4.431   2.795
 8924SOL    HW336016   5.510   4.341   2.742
 8924SOL    MW436017   5.539   4.398   2.802
 8925SOL     OW36018   5.381   4.580   3.693
 8925SOL    HW236019   5.436   4.504   3.674
 8925SOL    HW336020   5.383   4.588   3.788
 8925SOL    MW436021   5.389   4.571   3.701
 8926SOL     OW36022   4.431   5.313   1.904
 8926SOL    HW236023   4.371   5.382   1.874
 8926SOL    HW336024   4.376   5.255   1.957
 8926SOL    MW436025   4.415   5.315   1.906
 8927SOL     OW36026   4.869   3.958   2.127
 8927SOL    HW236027   4.802   3.934   2.064
 8927SOL    HW336028   4.934   4.007   2.076
 8927SOL    MW436029   4.869   3.960   2.112
 8928SOL     OW36030   4.676   4.142   3.212
 8928SOL    HW236031   4.595   4.183   3.240
 8928SOL    HW336032   4.723   4.210   3.164
 8928SOL    MW436033   4.671   4.157   3.210
 8929SOL     OW36034   4.936   4.480   2.835
 8929SOL    HW236035   4.949   4.574   2.845
 8929SOL    HW336036   4.897   4.470   2.749
 8929SOL    MW436037   4.932   4.491   2.825
 8930SOL     OW36038   4.388   4.675   2.639
 8930SOL    HW236039   4.299   4.666   2.672
 8930SOL    HW336040   4.392   4.765   2.607
 8930SOL    MW436041   4.377   4.686   2.639
 8931SOL     OW36042   5.187   4.258   2.634
 8931SOL    HW236043   5.132   4.179   2.633
 8931SOL    HW336044   5.169   4.299   2.718
 8931SOL    MW436045   5.177   4.253   2.643
 8932SOL     OW36046   4.158   3.945   3.451
 8932SOL    HW236047   4.079   3.963   3.503
 8932SOL    HW336048   4.153   4.007   3.378
 8932SOL    MW436049   4.148   3.955   3.448
 8933SOL     OW36050   4.806   4.462   2.591
 8933SOL    HW236051   4.743   4.394   2.615
 8933SOL    HW336052   4.826   4.443   2.499
 8933SOL    MW436053   4.800   4.449   2.583
 8934SOL     OW36054   4.062   5.357   2.293
 8934SOL    HW236055   4.023   5.404   2.219
 8934SOL    HW336056   3.996   5.292   2.318
 8934SOL    MW436057   4.049   5.355   2.287
 8935SOL     OW36058   4.554   4.766   2.317
 8935SOL    HW236059   4.556   4.740   2.224
 8935SOL    HW336060   4.612   4.703   2.360
 8935SOL    MW436061   4.562   4.755   2.311
 8936SOL     OW36062   5.107   5.326   3.089
 8936SOL    HW236063   5.032   5.372   3.127
 8936SOL    HW336064   5.089   5.233   3.106
 8936SOL    MW436065   5.096   5.320   3.097
 8937SOL     OW36066   5.111   5.534   2.519
 8937SOL    HW236067   5.054   5.487   2.458
 8937SOL    HW336068   5.197   5.495   2.506
 8937SOL    MW436069   5.114   5.525   2.509
 8938SOL     OW36070   5.064   4.010   2.650
 8938SOL    HW236071   5.092   3.942   2.711
 8938SOL    HW336072   4.978   3.981   2.620
 8938SOL    MW436073   5.057   3.997   2.654
 8939SOL     OW36074   3.869   4.944   2.584
 8939SOL    HW236075   3.933   4.976   2.647
 8939SOL    HW336076   3.918   4.880   2.532
 8939SOL    MW436077   3.884   4.940   2.585
 8940SOL     OW36078   4.369   5.020   3.566
 8940SOL    HW236079   4.417   5.103   3.553
 8940SOL    HW336080   4.426   4.968   3.622
 8940SOL    MW436081   4.383   5.024   3.572
 8941SOL     OW36082   3.945   5.262   3.706
 8941SOL    HW236083   4.001   5.186   3.721
 8941SOL    HW336084   3.894   5.240   3.628
 8941SOL    MW436085   3.945   5.249   3.697
 8942SOL     OW36086   5.044   4.114   1.985
 8942SOL    HW236087   5.017   4.180   1.921
 8942SOL    HW336088   5.114   4.157   2.035
 8942SOL    MW436089   5.049   4.127   1.982
 8943SOL     OW36090   4.712   3.819   1.922
 8943SOL    HW236091   4.768   3.811   1.844
 8943SOL    HW336092   4.689   3.729   1.944
 8943SOL    MW436093   4.717   3.806   1.915
 8944SOL     OW36094   5.217   4.670   2.127
 8944SOL    HW236095   5.184   4.759   2.117
 8944SOL    HW336096   5.182   4.641   2.212
 8944SOL    MW436097   5.207   4.679   2.138
 8945SOL     OW36098   4.830   5.099   3.315
 8945SOL    HW236099   4.741   5.105   3.283
 8945SOL    HW336100   4.874   5.178   3.283
 8945SOL    MW436101   4.825   5.109   3.307
 8946SOL     OW36102   4.123   3.767   3.657
 8946SOL    HW236103   4.051   3.732   3.605
 8946SOL    HW336104   4.181   3.808   3.592
 8946SOL    MW436105   4.121   3.768   3.642
 8947SOL     OW36106   4.147   5.257   2.956
 8947SOL    HW236107   4.192   5.319   3.013
 8947SOL    HW336108   4.054   5.276   2.969
 8947SOL    MW436109   4.140   5.267   2.963
 8948SOL     OW36110   5.587   4.786   3.310
 8948SOL    HW236111   5.502   4.799   3.269
 8948SOL    HW336112   5.567   4.750   3.397
 8948SOL    MW436113   5.574   4.782   3.315
 8949SOL     OW36114   4.569   5.325   3.064
 8949SOL    HW236115   4.593   5.314   2.973
 8949SOL    HW336116   4.492   5.382   3.062
 8949SOL    MW436117   4.561   5.330   3.053
 8950SOL     OW36118   4.211   4.708   1.919
 8950SOL    HW236119   4.134   4.721   1.975
 8950SOL    HW336120   4.175   4.672   1.838
 8950SOL    MW436121   4.197   4.704   1.916
 8951SOL     OW36122   4.864   4.681   2.162
 8951SOL    HW236123   4.774   4.702   2.137
 8951SOL    HW336124   4.891   4.754   2.218
 8951SOL    MW436125   4.856   4.693   2.165
 8952SOL     OW36126   4.364   5.030   2.854
 8952SOL    HW236127   4.357   5.009   2.948
 8952SOL    HW336128   4.282   4.998   2.817
 8952SOL    MW436129   4.352   5.024   2.861
 8953SOL     OW36130   5.228   4.040   3.256
 8953SOL    HW236131   5.175   4.042   3.336
 8953SOL    HW336132   5.213   3.953   3.219
 8953SOL    MW436133   5.220   4.030   3.261
 8954SOL     OW36134   5.564   3.964   3.129
 8954SOL    HW236135   5.545   4.031   3.064
 8954SOL    HW336136   5.621   3.902   3.084
 8954SOL    MW436137   5.568   3.965   3.115
 8955SOL     OW36138   3.810   5.122   3.517
 8955SOL    HW236139   3.854   5.055   3.463
 8955SOL    HW336140   3.725   5.084   3.537
 8955SOL    MW436141   3.805   5.108   3.513
 8956SOL     OW36142   4.493   3.797   2.569
 8956SOL    HW236143   4.422   3.858   2.551
 8956SOL    HW336144   4.544   3.794   2.488
 8956SOL    MW436145   4.489   3.803   2.556
 8957SOL     OW36146   4.251   5.037   2.318
 8957SOL    HW236147   4.244   5.069   2.408
 8957SOL    HW336148   4.161   5.021   2.290
 8957SOL    MW436149   4.239   5.039   2.325
 8958SOL     OW36150   4.846   5.430   3.227
 8958SOL    HW236151   4.766   5.415   3.177
 8958SOL    HW336152   4.853   5.525   3.234
 8958SOL    MW436153   4.837   5.441   3.221
 8959SOL     OW36154   4.960   5.395   2.717
 8959SOL    HW236155   5.007   5.468   2.676
 8959SOL    HW336156   4.881   5.434   2.753
 8959SOL    MW436157   4.955   5.410   2.716
 8960SOL     OW36158   5.368   5.490   2.992
 8960SOL    HW236159   5.411   5.460   3.072
 8960SOL    HW336160   5.287   5.438   2.989
 8960SOL    MW436161   5.363   5.479   3.002
 8961SOL     OW36162   4.453   4.454   3.699
 8961SOL    HW236163   4.523   4.396   3.671
 8961SOL    HW336164   4.396   4.399   3.754
 8961SOL    MW436165   4.455   4.441   3.703
 8962SOL     OW36166   5.240   4.666   3.332
 8962SOL    HW236167   5.245   4.719   3.412
 8962SOL    HW336168   5.202   4.583   3.360
 8962SOL    MW436169   5.236   4.661   3.347
 8963SOL     OW36170   4.880   3.801   3.578
 8963SOL    HW236171   4.875   3.708   3.559
 8963SOL    HW336172   4.963   3.812   3.624
 8963SOL    MW436173   4.888   3.790   3.582
 8964SOL     OW36174   4.254   4.321   2.032
 8964SOL    HW236175   4.220   4.377   2.102
 8964SOL    HW336176   4.325   4.271   2.072
 8964SOL    MW436177   4.260   4.322   2.046
 8965SOL     OW36178   5.350   5.072   2.854
 8965SOL    HW236179   5.385   5.054   2.767
 8965SOL    HW336180   5.255   5.073   2.841
 8965SOL    MW436181   5.342   5.069   2.841
 8966SOL     OW36182   4.779   4.720   3.223
 8966SOL    HW236183   4.822   4.755   3.301
 8966SOL    HW336184   4.762   4.797   3.169
 8966SOL    MW436185   4.782   4.735   3.226
 8967SOL     OW36186   5.310   4.207   2.096
 8967SOL    HW236187   5.302   4.278   2.033
 8967SOL    HW336188   5.328   4.251   2.179
 8967SOL    MW436189   5.311   4.221   2.098
 8968SOL     OW36190   4.170   3.862   2.525
 8968SOL    HW236191   4.220   3.905   2.456
 8968SOL    HW336192   4.085   3.906   2.525
 8968SOL    MW436193   4.167   3.875   2.516
 8969SOL     OW36194   3.929   4.924   3.385
 8969SOL    HW236195   3.957   4.877   3.463
 8969SOL    HW336196   3.850   4.879   3.356
 8969SOL    MW436197   3.922   4.913   3.391
 8970SOL     OW36198   4.437   4.251   3.352
 8970SOL    HW236199   4.409   4.339   3.376
 8970SOL    HW336200   4.406   4.195   3.423
 8970SOL    MW436201   4.429   4.254   3.364
 8971SOL     OW36202   4.979   4.469   2.071
 8971SOL    HW236203   5.026   4.487   1.990
 8971SOL    HW336204   4.945   4.553   2.099
 8971SOL    MW436205   4.981   4.483   2.064
 8972SOL     OW36206   4.092   4.647   2.565
 8972SOL    HW236207   4.150   4.703   2.513
 8972SOL    HW336208   4.136   4.562   2.567
 8972SOL    MW436209   4.105   4.644   2.558
 8973SOL     OW36210   5.232   3.999   2.402
 8973SOL    HW236211   5.154   3.949   2.427
 8973SOL    HW336212   5.203   4.090   2.402
 8973SOL    MW436213   5.218   4.003   2.405
 8974SOL     OW36214   4.818   3.961   2.561
 8974SOL    HW236215   4.838   4.036   2.505
 8974SOL    HW336216   4.798   4.000   2.646
 8974SOL    MW436217   4.819   3.977   2.565
 8975SOL     OW36218   4.714   5.211   1.893
 8975SOL    HW236219   4.741   5.289   1.845
 8975SOL    HW336220   4.621   5.226   1.912
 8975SOL    MW436221   4.705   5.224   1.889
 8976SOL     OW36222   5.578   4.734   3.580
 8976SOL    HW236223   5.491   4.714   3.616
 8976SOL    HW336224   5.632   4.660   3.605
 8976SOL    MW436225   5.573   4.723   3.588
 8977SOL     OW36226   3.799   5.247   2.737
 8977SOL    HW236227   3.831   5.251   2.828
 8977SOL    HW336228   3.704   5.255   2.745
 8977SOL    MW436229   3.791   5.250   2.750
 8978SOL     OW36230   3.754   4.373   2.284
 8978SOL    HW236231   3.694   4.345   2.354
 8978SOL    HW336232   3.828   4.313   2.290
 8978SOL    MW436233   3.756   4.362   2.293
 8979SOL     OW36234   5.322   5.585   3.718
 8979SOL    HW236235   5.367   5.509   3.683
 8979SOL    HW336236   5.360   5.598   3.805
 8979SOL    MW436237   5.332   5.578   3.724
 8980SOL     OW36238   4.922   5.104   2.444
 8980SOL    HW236239   4.945   5.055   2.522
 8980SOL    HW336240   5.003   5.146   2.416
 8980SOL    MW436241   4.935   5.104   2.451
 8981SOL     OW36242   4.180   4.112   3.173
 8981SOL    HW236243   4.213   4.193   3.213
 8981SOL    HW336244   4.153   4.138   3.085
 8981SOL    MW436245   4.179   4.126   3.167
 8982SOL     OW36246   4.134   4.079   2.909
 8982SOL    HW236247   4.164   3.993   2.880
 8982SOL    HW336248   4.039   4.072   2.912
 8982SOL    MW436249   4.126   4.068   2.907
 8983SOL     OW36250   4.963   4.288   3.600
 8983SOL    HW236251   5.015   4.223   3.553
 8983SOL    HW336252   4.921   4.339   3.530
 8983SOL    MW436253   4.964   4.285   3.583
 8984SOL     OW36254   5.062   4.083   3.461
 8984SOL    HW236255   4.969   4.067   3.448
 8984SOL    HW336256   5.088   4.021   3.529
 8984SOL    MW436257   5.052   4.073   3.468
 8985SOL     OW36258   4.277   3.857   2.800
 8985SOL    HW236259   4.287   3.766   2.826
 8985SOL    HW336260   4.233   3.853   2.715
 8985SOL    MW436261   4.273   3.845   2.792
 8986SOL     OW36262   4.371   5.472   3.346
 8986SOL    HW236263   4.288   5.457   3.391
 8986SOL    HW336264   4.430   5.405   3.381
 8986SOL    MW436265   4.369   5.462   3.356
 8987SOL     OW36266   5.428   4.179   2.971
 8987SOL    HW236267   5.361   4.212   3.031
 8987SOL    HW336268   5.471   4.257   2.937
 8987SOL    MW436269   5.426   4.194   2.975
 8988SOL     OW36270   5.606   4.899   2.941
 8988SOL    HW236271   5.599   4.839   2.866
 8988SOL    HW336272   5.532   4.959   2.930
 8988SOL    MW436273   5.596   4.899   2.930
 8989SOL     OW36274   4.988   4.761   2.859
 8989SOL    HW236275   5.002   4.733   2.950
 8989SOL    HW336276   5.074   4.792   2.831
 8989SOL    MW436277   5.001   4.762   2.868
 8990SOL     OW36278   5.071   4.256   3.138
 8990SOL    HW236279   5.092   4.257   3.045
 8990SOL    HW336280   5.116   4.178   3.171
 8990SOL    MW436281   5.078   4.246   3.130
 8991SOL     OW36282   5.564   4.387   3.680
 8991SOL    HW236283   5.601   4.332   3.749
 8991SOL    HW336284   5.589   4.344   3.598
 8991SOL    MW436285   5.571   4.375   3.679
 8992SOL     OW36286   5.111   4.685   3.731
 8992SOL    HW236287   5.177   4.633   3.685
 8992SOL    HW336288   5.131   4.672   3.824
 8992SOL    MW436289   5.122   4.676   3.738
 8993SOL     OW36290   5.062   3.771   2.080
 8993SOL    HW236291   5.136   3.815   2.123
 8993SOL    HW336292   4.986   3.825   2.102
 8993SOL    MW436293   5.062   3.783   2.088
 8994SOL     OW36294   5.122   4.546   2.358
 8994SOL    HW236295   5.037   4.516   2.328
 8994SOL    HW336296   5.114   4.553   2.453
 8994SOL    MW436297   5.110   4.544   2.367
 8995SOL     OW36298   4.198   5.009   3.089
 8995SOL    HW236299   4.210   5.036   3.180
 8995SOL    HW336300   4.179   5.090   3.042
 8995SOL    MW436301   4.197   5.024   3.094
 8996SOL     OW36302   4.482   3.989   2.912
 8996SOL    HW236303   4.455   3.991   3.003
 8996SOL    HW336304   4.412   3.941   2.867
 8996SOL    MW436305   4.470   3.985   2.919
 8997SOL     OW36306   4.336   5.481   3.074
 8997SOL    HW236307   4.388   5.558   3.051
 8997SOL    HW336308   4.345   5.473   3.169
 8997SOL    MW436309   4.345   5.488   3.085
 8998SOL     OW36310   5.238   5.066   3.306
 8998SOL    HW236311   5.223   4.995   3.369
 8998SOL    HW336312   5.284   5.024   3.234
 8998SOL    MW436313   5.244   5.050   3.306
 8999SOL     OW36314   4.312   4.797   3.423
 8999SOL    HW236315   4.349   4.802   3.335
 8999SOL    HW336316   4.351   4.870   3.470
 8999SOL    MW436317   4.322   4.807   3.418
 9000SOL     OW36318   4.492   4.840   3.235
 9000SOL    HW236319   4.551   4.786   3.288
 9000SOL    HW336320   4.507   4.812   3.145
 9000SOL    MW436321   4.502   4.829   3.231
 9001SOL     OW36322   4.495   4.212   2.084
 9001SOL    HW236323   4.568   4.261   2.047
 9001SOL    HW336324   4.511   4.121   2.058
 9001SOL    MW436325   4.507   4.207   2.077
 9002SOL     OW36326   5.303   5.329   3.407
 9002SOL    HW236327   5.345   5.314   3.492
 9002SOL    HW336328   5.294   5.242   3.369
 9002SOL    MW436329   5.307   5.317   3.414
 9003SOL     OW36330   4.963   3.808   2.998
 9003SOL    HW236331   5.018   3.817   2.920
 9003SOL    HW336332   5.018   3.842   3.069
 9003SOL    MW436333   4.977   3.813   2.997
 9004SOL     OW36334   3.970   4.721   2.182
 9004SOL    HW236335   3.907   4.737   2.111
 9004SOL    HW336336   3.917   4.684   2.253
 9004SOL    MW436337   3.955   4.718   2.182
 9005SOL     OW36338   4.326   5.075   2.041
 9005SOL    HW236339   4.341   5.051   2.133
 9005SOL    HW336340   4.234   5.053   2.025
 9005SOL    MW436341   4.316   5.068   2.051
 9006SOL     OW36342   4.865   5.306   2.193
 9006SOL    HW236343   4.873   5.224   2.144
 9006SOL    HW336344   4.784   5.345   2.160
 9006SOL    MW436345   4.855   5.301   2.183
 9007SOL     OW36346   4.124   5.464   2.762
 9007SOL    HW236347   4.128   5.375   2.797
 9007SOL    HW336348   4.150   5.455   2.671
 9007SOL    MW436349   4.127   5.452   2.754
 9008SOL     OW36350   4.741   4.942   3.005
 9008SOL    HW236351   4.673   4.876   3.021
 9008SOL    HW336352   4.759   4.936   2.912
 9008SOL    MW436353   4.734   4.933   2.996
 9009SOL     OW36354   3.830   5.217   3.256
 9009SOL    HW236355   3.820   5.175   3.342
 9009SOL    HW336356   3.751   5.270   3.246
 9009SOL    MW436357   3.819   5.218   3.267
 9010SOL     OW36358   4.734   4.081   2.826
 9010SOL    HW236359   4.664   4.033   2.871
 9010SOL    HW336360   4.766   4.144   2.890
 9010SOL    MW436361   4.729   4.083   2.840
 9011SOL     OW36362   4.385   4.517   3.446
 9011SOL    HW236363   4.378   4.612   3.434
 9011SOL    HW336364   4.394   4.506   3.541
 9011SOL    MW436365   4.386   4.529   3.456
 9012SOL     OW36366   4.106   5.032   3.704
 9012SOL    HW236367   4.178   5.034   3.641
 9012SOL    HW336368   4.076   4.941   3.703
 9012SOL    MW436369   4.111   5.021   3.696
 9013SOL     OW36370   5.190   3.795   3.171
 9013SOL    HW236371   5.261   3.741   3.135
 9013SOL    HW336372   5.189   3.774   3.264
 9013SOL    MW436373   5.199   3.786   3.179
 9014SOL     OW36374   5.390   5.325   3.655
 9014SOL    HW236375   5.363   5.322   3.746
 9014SOL    HW336376   5.486   5.329   3.658
 9014SOL    MW436377   5.400   5.325   3.667
 9015SOL     OW36378   4.201   4.187   2.639
 9015SOL    HW236379   4.272   4.135   2.602
 9015SOL    HW336380   4.187   4.152   2.726
 9015SOL    MW436381   4.209   4.176   2.646
 9016SOL     OW36382   3.756   5.522   3.711
 9016SOL    HW236383   3.806   5.500   3.633
 9016SOL    HW336384   3.764   5.617   3.719
 9016SOL    MW436385   3.764   5.531   3.702
 9017SOL     OW36386   4.517   5.280   2.715
 9017SOL    HW236387   4.445   5.217   2.728
 9017SOL    HW336388   4.478   5.365   2.733
 9017SOL    MW436389   4.501   5.283   2.718
 9018SOL     OW36390   4.837   4.128   2.363
 9018SOL    HW236391   4.859   4.065   2.295
 9018SOL    HW336392   4.742   4.120   2.374
 9018SOL    MW436393   4.827   4.119   2.355
 9019SOL     OW36394   3.922   3.818   2.295
 9019SOL    HW236395   3.993   3.839   2.234
 9019SOL    HW336396   3.876   3.746   2.253
 9019SOL    MW436397   3.926   3.812   2.281
 9020SOL     OW36398   3.753   4.285   3.438
 9020SOL    HW236399   3.817   4.351   3.413
 9020SOL    HW336400   3.672   4.312   3.395
 9020SOL    MW436401   3.751   4.297   3.430
 9021SOL     OW36402   5.491   5.192   2.395
 9021SOL    HW236403   5.461   5.125   2.456
 9021SOL    HW336404   5.585   5.198   2.409
 9021SOL    MW436405   5.499   5.184   2.405
 9022SOL     OW36406   5.047   4.869   2.325
 9022SOL    HW236407   5.019   4.955   2.358
 9022SOL    HW336408   5.075   4.885   2.235
 9022SOL    MW436409   5.047   4.883   2.317
 9023SOL     OW36410   4.709   3.789   2.378
 9023SOL    HW236411   4.746   3.848   2.443
 9023SOL    HW336412   4.686   3.845   2.304
 9023SOL    MW436413   4.710   3.804   2.377
 9024SOL     OW36414   5.562   4.671   2.800
 9024SOL    HW236415   5.553   4.703   2.711
 9024SOL    HW336416   5.515   4.587   2.800
 9024SOL    MW436417   5.555   4.664   2.790
 9025SOL     OW36418   3.938   4.511   3.379
 9025SOL    HW236419   3.959   4.580   3.317
 9025SOL    HW336420   4.018   4.458   3.384
 9025SOL    MW436421   3.951   4.512   3.373
 9026SOL     OW36422   5.474   4.602   2.501
 9026SOL    HW236423   5.568   4.591   2.489
 9026SOL    HW336424   5.450   4.674   2.442
 9026SOL    MW436425   5.484   4.610   2.492
 9027SOL     OW36426   3.923   4.526   3.646
 9027SOL    HW236427   3.849   4.470   3.672
 9027SOL    HW336428   3.918   4.529   3.551
 9027SOL    MW436429   3.912   4.519   3.636
 9028SOL     OW36430   4.089   3.813   3.096
 9028SOL    HW236431   4.132   3.897   3.116
 9028SOL    HW336432   4.162   3.751   3.089
 9028SOL    MW436433   4.104   3.816   3.097
 9029SOL     OW36434   4.130   4.480   2.274
 9029SOL    HW236435   4.130   4.575   2.259
 9029SOL    HW336436   4.207   4.464   2.328
 9029SOL    MW436437   4.140   4.491   2.279
 9030SOL     OW36438   4.906   4.339   3.338
 9030SOL    HW236439   4.942   4.312   3.254
 9030SOL    HW336440   4.819   4.373   3.317
 9030SOL    MW436441   4.900   4.340   3.325
 9031SOL     OW36442   3.889   4.211   2.563
 9031SOL    HW236443   3.951   4.218   2.636
 9031SOL    HW336444   3.889   4.118   2.540
 9031SOL    MW436445   3.897   4.200   2.570
 9032SOL     OW36446   5.436   5.551   2.095
 9032SOL    HW236447   5.503   5.584   2.035
 9032SOL    HW336448   5.393   5.630   2.129
 9032SOL    MW436449   5.438   5.566   2.091
 9033SOL     OW36450   4.571   4.472   3.047
 9033SOL    HW236451   4.529   4.390   3.023
 9033SOL    HW336452   4.572   4.471   3.143
 9033SOL    MW436453   4.564   4.461   3.056
 9034SOL     OW36454   4.375   3.942   3.152
 9034SOL    HW236455   4.306   4.005   3.173
 9034SOL    HW336456   4.402   3.906   3.237
 9034SOL    MW436457   4.369   3.945   3.165
 9035SOL     OW36458   3.758   4.783   2.021
 9035SOL    HW236459   3.727   4.848   2.084
 9035SOL    HW336460   3.707   4.705   2.040
 9035SOL    MW436461   3.748   4.780   2.031
 9036SOL     OW36462   5.170   3.795   2.769
 9036SOL    HW236463   5.258   3.804   2.806
 9036SOL    HW336464   5.180   3.736   2.695
 9036SOL    MW436465   5.184   3.789   2.763
 9037SOL     OW36466   5.202   4.534   2.613
 9037SOL    HW236467   5.282   4.549   2.562
 9037SOL    HW336468   5.195   4.439   2.619
 9037SOL    MW436469   5.211   4.523   2.608
 9038SOL     OW36470   4.342   5.583   1.963
 9038SOL    HW236471   4.247   5.583   1.955
 9038SOL    HW336472   4.358   5.529   2.041
 9038SOL    MW436473   4.332   5.577   1.972
 9039SOL     OW36474   4.652   4.460   3.310
 9039SOL    HW236475   4.721   4.527   3.307
 9039SOL    HW336476   4.585   4.498   3.366
 9039SOL    MW436477   4.653   4.473   3.317
 9040SOL     OW36478   4.070   4.760   3.558
 9040SOL    HW236479   4.024   4.676   3.560
 9040SOL    HW336480   4.127   4.754   3.482
 9040SOL    MW436481   4.072   4.748   3.550
 9041SOL     OW36482   5.187   4.403   1.879
 9041SOL    HW236483   5.115   4.379   1.821
 9041SOL    HW336484   5.253   4.440   1.821
 9041SOL    MW436485   5.186   4.405   1.864
 9042SOL     OW36486   4.321   5.135   2.559
 9042SOL    HW236487   4.386   5.068   2.580
 9042SOL    HW336488   4.373   5.212   2.536
 9042SOL    MW436489   4.336   5.137   2.558
 9043SOL     OW36490   4.582   4.300   2.689
 9043SOL    HW236491   4.522   4.318   2.761
 9043SOL    HW336492   4.616   4.212   2.708
 9043SOL    MW436493   4.578   4.290   2.702
 9044SOL     OW36494   5.523   3.799   3.358
 9044SOL    HW236495   5.444   3.845   3.386
 9044SOL    HW336496   5.558   3.853   3.287
 9044SOL    MW436497   5.517   3.812   3.352
 9045SOL     OW36498   4.807   4.883   2.708
 9045SOL    HW236499   4.899   4.864   2.726
 9045SOL    HW336500   4.780   4.813   2.648
 9045SOL    MW436501   4.815   4.871   2.702
 9046SOL     OW36502   4.600   4.703   2.063
 9046SOL    HW236503   4.586   4.615   2.028
 9046SOL    HW336504   4.551   4.760   2.004
 9046SOL    MW436505   4.592   4.698   2.051
 9047SOL     OW36506   5.081   5.121   2.804
 9047SOL    HW236507   5.054   5.205   2.769
 9047SOL    HW336508   5.041   5.116   2.891
 9047SOL    MW436509   5.074   5.130   2.810
 9048SOL     OW36510   5.000   5.069   3.072
 9048SOL    HW236511   5.011   5.036   3.161
 9048SOL    HW336512   4.919   5.028   3.041
 9048SOL    MW436513   4.990   5.061   3.078
 9049SOL     OW36514   4.013   4.427   2.842
 9049SOL    HW236515   3.963   4.426   2.923
 9049SOL    HW336516   4.033   4.519   2.826
 9049SOL    MW436517   4.009   4.439   2.850
 9050SOL     OW36518   5.080   5.191   3.604
 9050SOL    HW236519   5.080   5.285   3.620
 9050SOL    HW336520   5.125   5.181   3.520
 9050SOL    MW436521   5.086   5.201   3.595
 9051SOL     OW36522   5.319   3.909   2.165
 9051SOL    HW236523   5.312   3.913   2.260
 9051SOL    HW336524   5.331   4.000   2.138
 9051SOL    MW436525   5.320   3.922   2.173
 9052SOL     OW36526   4.608   4.472   2.279
 9052SOL    HW236527   4.588   4.458   2.186
 9052SOL    HW336528   4.701   4.451   2.286
 9052SOL    MW436529   4.618   4.467   2.268
 9053SOL     OW36530   3.935   4.095   3.583
 9053SOL    HW236531   3.892   4.154   3.520
 9053SOL    HW336532   4.003   4.150   3.623
 9053SOL    MW436533   3.939   4.110   3.580
 9054SOL     OW36534   5.047   4.715   3.128
 9054SOL    HW236535   5.110   4.712   3.201
 9054SOL    HW336536   4.963   4.733   3.170
 9054SOL    MW436537   5.043   4.717   3.143
 9055SOL     OW36538   4.591   5.430   2.317
 9055SOL    HW236539   4.649   5.501   2.344
 9055SOL    HW336540   4.614   5.358   2.375
 9055SOL    MW436541   4.602   5.430   2.328
 9056SOL     OW36542   5.386   3.892   2.907
 9056SOL    HW236543   5.431   3.810   2.926
 9056SOL    HW336544   5.406   3.948   2.983
 9056SOL    MW436545   5.396   3.888   2.919
 9057SOL     OW36546   3.834   3.735   3.006
 9057SOL    HW236547   3.825   3.736   2.911
 9057SOL    HW336548   3.928   3.747   3.021
 9057SOL    MW436549   3.846   3.738   2.997
 9058SOL     OW36550   5.471   4.928   2.626
 9058SOL    HW236551   5.450   4.874   2.549
 9058SOL    HW336552   5.567   4.926   2.630
 9058SOL    MW436553   5.480   4.921   2.615
 9059SOL     OW36554   4.163   5.073   3.369
 9059SOL    HW236555   4.084   5.023   3.392
 9059SOL    HW336556   4.233   5.032   3.419
 9059SOL    MW436557   4.161   5.061   3.379
 9060SOL     OW36558   4.047   3.862   2.052
 9060SOL    HW236559   3.976   3.917   2.020
 9060SOL    HW336560   4.089   3.828   1.973
 9060SOL    MW436561   4.043   3.864   2.038
 9061SOL     OW36562   5.171   4.359   2.888
 9061SOL    HW236563   5.094   4.405   2.854
 9061SOL    HW336564   5.228   4.428   2.922
 9061SOL    MW436565   5.168   4.374   2.888
 9062SOL     OW36566   3.803   3.961   1.901
 9062SOL    HW236567   3.770   4.040   1.945
 9062SOL    HW336568   3.858   3.994   1.830
 9062SOL    MW436569   3.806   3.975   1.898
 9063SOL     OW36570   3.837   5.218   2.090
 9063SOL    HW236571   3.854   5.302   2.132
 9063SOL    HW336572   3.872   5.227   2.002
 9063SOL    MW436573   3.842   5.231   2.084
 9064SOL     OW36574   5.109   5.307   2.307
 9064SOL    HW236575   5.172   5.297   2.236
 9064SOL    HW336576   5.026   5.327   2.262
 9064SOL    MW436577   5.106   5.308   2.292
 9065SOL     OW36578   5.472   4.575   3.993
 9065SOL    HW236579   5.513   4.517   4.058
 9065SOL    HW336580   5.379   4.567   4.010
 9065SOL    MW436581   5.466   4.567   4.003
 9066SOL     OW36582   5.338   4.507   4.988
 9066SOL    HW236583   5.293   4.574   5.039
 9066SOL    HW336584   5.426   4.543   4.974
 9066SOL    MW436585   5.344   4.520   4.992
 9067SOL     OW36586   4.266   4.758   4.222
 9067SOL    HW236587   4.356   4.733   4.206
 9067SOL    HW336588   4.262   4.851   4.199
 9067SOL    MW436589   4.278   4.767   4.217
 9068SOL     OW36590   5.382   5.461   4.364
 9068SOL    HW236591   5.394   5.407   4.442
 9068SOL    HW336592   5.419   5.409   4.293
 9068SOL    MW436593   5.388   5.446   4.365
 9069SOL     OW36594   4.761   5.346   5.365
 9069SOL    HW236595   4.802   5.382   5.286
 9069SOL    HW336596   4.796   5.257   5.372
 9069SOL    MW436597   4.772   5.339   5.356
 9070SOL     OW36598   5.318   4.901   4.969
 9070SOL    HW236599   5.239   4.866   4.927
 9070SOL    HW336600   5.345   4.973   4.913
 9070SOL    MW436601   5.311   4.906   4.956
 9071SOL     OW36602   4.550   4.214   4.235
 9071SOL    HW236603   4.525   4.302   4.263
 9071SOL    HW336604   4.547   4.217   4.139
 9071SOL    MW436605   4.546   4.226   4.227
 9072SOL     OW36606   3.992   4.242   4.163
 9072SOL    HW236607   4.024   4.330   4.145
 9072SOL    HW336608   3.980   4.240   4.258
 9072SOL    MW436609   3.995   4.254   4.175
 9073SOL     OW36610   4.070   4.655   5.064
 9073SOL    HW236611   4.133   4.602   5.015
 9073SOL    HW336612   4.051   4.729   5.007
 9073SOL    MW436613   4.076   4.657   5.051
 9074SOL     OW36614   4.391   3.997   4.250
 9074SOL    HW236615   4.449   4.073   4.252
 9074SOL    HW336616   4.326   4.018   4.183
 9074SOL    MW436617   4.390   4.009   4.241
 9075SOL     OW36618   4.478   4.924   4.425
 9075SOL    HW236619   4.558   4.927   4.477
 9075SOL    HW336620   4.506   4.891   4.339
 9075SOL    MW436621   4.492   4.920   4.420
 9076SOL     OW36622   4.503   5.265   5.328
 9076SOL    HW236623   4.587   5.291   5.367
 9076SOL    HW336624   4.527   5.209   5.254
 9076SOL    MW436625   4.517   5.261   5.323
 9077SOL     OW36626   4.255   4.428   4.416
 9077SOL    HW236627   4.240   4.348   4.467
 9077SOL    HW336628   4.337   4.463   4.450
 9077SOL    MW436629   4.263   4.420   4.428
 9078SOL     OW36630   4.592   5.114   5.101
 9078SOL    HW236631   4.556   5.180   5.041
 9078SOL    HW336632   4.520   5.052   5.114
 9078SOL    MW436633   4.578   5.114   5.095
 9079SOL     OW36634   4.397   4.254   4.793
 9079SOL    HW236635   4.303   4.250   4.811
 9079SOL    HW336636   4.427   4.163   4.802
 9079SOL    MW436637   4.388   4.242   4.796
 9080SOL     OW36638   4.143   4.668   4.697
 9080SOL    HW236639   4.098   4.675   4.613
 9080SOL    HW336640   4.123   4.751   4.741
 9080SOL    MW436641   4.135   4.680   4.691
 9081SOL     OW36642   3.840   5.514   4.572
 9081SOL    HW236643   3.929   5.506   4.607
 9081SOL    HW336644   3.804   5.426   4.577
 9081SOL    MW436645   3.847   5.501   4.577
 9082SOL     OW36646   5.105   4.906   3.941
 9082SOL    HW236647   5.023   4.942   3.907
 9082SOL    HW336648   5.173   4.949   3.890
 9082SOL    MW436649   5.103   4.916   3.929
 9083SOL     OW36650   4.104   5.041   4.607
 9083SOL    HW236651   4.080   5.094   4.683
 9083SOL    HW336652   4.160   5.099   4.555
 9083SOL    MW436653   4.108   5.056   4.610
 9084SOL     OW36654   4.666   4.685   4.417
 9084SOL    HW236655   4.580   4.672   4.457
 9084SOL    HW336656   4.719   4.612   4.449
 9084SOL    MW436657   4.662   4.674   4.426
 9085SOL     OW36658   4.074   5.337   5.202
 9085SOL    HW236659   3.982   5.313   5.187
 9085SOL    HW336660   4.118   5.254   5.219
 9085SOL    MW436661   4.068   5.322   5.201
 9086SOL     OW36662   4.657   5.047   4.134
 9086SOL    HW236663   4.634   5.109   4.202
 9086SOL    HW336664   4.614   4.965   4.160
 9086SOL    MW436665   4.649   5.043   4.145
 9087SOL     OW36666   5.530   4.048   4.590
 9087SOL    HW236667   5.467   4.028   4.659
 9087SOL    HW336668   5.520   3.977   4.527
 9087SOL    MW436669   5.520   4.035   4.591
 9088SOL     OW36670   4.154   4.020   4.102
 9088SOL    HW236671   4.128   3.982   4.018
 9088SOL    HW336672   4.091   4.090   4.118
 9088SOL    MW436673   4.143   4.023   4.093
 9089SOL     OW36674   3.989   4.981   4.139
 9089SOL    HW236675   3.937   5.049   4.095
 9089SOL    HW336676   3.986   4.907   4.079
 9089SOL    MW436677   3.981   4.980   4.126
 9090SOL     OW36678   4.651   5.444   3.917
 9090SOL    HW236679   4.606   5.460   4.000
 9090SOL    HW336680   4.582   5.409   3.859
 9090SOL    MW436681   4.637   5.441   3.919
 9091SOL     OW36682   5.586   4.217   3.892
 9091SOL    HW236683   5.495   4.219   3.920
 9091SOL    HW336684   5.631   4.279   3.950
 9091SOL    MW436685   5.579   4.225   3.902
 9092SOL     OW36686   5.331   4.820   4.242
 9092SOL    HW236687   5.241   4.820   4.277
 9092SOL    HW336688   5.324   4.866   4.159
 9092SOL    MW436689   5.318   4.826   4.236
 9093SOL     OW36690   5.131   4.455   5.314
 9093SOL    HW236691   5.200   4.393   5.291
 9093SOL    HW336692   5.056   4.429   5.261
 9093SOL    MW436693   5.131   4.442   5.305
 9094SOL     OW36694   3.872   5.335   4.866
 9094SOL    HW236695   3.855   5.281   4.943
 9094SOL    HW336696   3.860   5.425   4.896
 9094SOL    MW436697   3.869   5.339   4.880
 9095SOL     OW36698   4.867   4.842   5.306
 9095SOL    HW236699   4.852   4.935   5.291
 9095SOL    HW336700   4.962   4.832   5.306
 9095SOL    MW436701   4.876   4.852   5.303
 9096SOL     OW36702   4.663   4.266   5.507
 9096SOL    HW236703   4.753   4.267   5.474
 9096SOL    HW336704   4.622   4.191   5.465
 9096SOL    MW436705   4.669   4.256   5.498
 9097SOL     OW36706   5.238   4.798   4.634
 9097SOL    HW236707   5.241   4.732   4.565
 9097SOL    HW336708   5.323   4.841   4.630
 9097SOL    MW436709   5.250   4.794   4.625
 9098SOL     OW36710   4.858   4.401   4.203
 9098SOL    HW236711   4.884   4.425   4.114
 9098SOL    HW336712   4.840   4.308   4.199
 9098SOL    MW436713   4.860   4.393   4.190
 9099SOL     OW36714   5.523   5.021   4.054
 9099SOL    HW236715   5.479   5.062   4.129
 9099SOL    HW336716   5.580   5.089   4.019
 9099SOL    MW436717   5.525   5.035   4.059
 9100SOL     OW36718   4.443   4.070   5.457
 9100SOL    HW236719   4.453   3.996   5.397
 9100SOL    HW336720   4.479   4.039   5.540
 9100SOL    MW436721   4.449   4.056   5.459
 9101SOL     OW36722   4.179   5.437   4.372
 9101SOL    HW236723   4.211   5.525   4.350
 9101SOL    HW336724   4.132   5.409   4.294
 9101SOL    MW436725   4.178   5.445   4.359
 9102SOL     OW36726   5.563   3.799   4.421
 9102SOL    HW236727   5.617   3.750   4.483
 9102SOL    HW336728   5.506   3.733   4.382
 9102SOL    MW436729   5.563   3.783   4.423
 9103SOL     OW36730   3.895   5.497   3.949
 9103SOL    HW236731   3.924   5.587   3.941
 9103SOL    HW336732   3.845   5.480   3.870
 9103SOL    MW436733   3.893   5.505   3.938
 9104SOL     OW36734   4.682   3.752   4.834
 9104SOL    HW236735   4.641   3.830   4.796
 9104SOL    HW336736   4.776   3.770   4.829
 9104SOL    MW436737   4.688   3.764   4.829
 9105SOL     OW36738   5.299   5.305   3.920
 9105SOL    HW236739   5.347   5.374   3.966
 9105SOL    HW336740   5.220   5.349   3.889
 9105SOL    MW436741   5.294   5.319   3.923
 9106SOL     OW36742   4.697   4.430   3.864
 9106SOL    HW236743   4.699   4.377   3.785
 9106SOL    HW336744   4.785   4.467   3.870
 9106SOL    MW436745   4.709   4.429   3.853
 9107SOL     OW36746   5.311   4.356   4.200
 9107SOL    HW236747   5.350   4.356   4.287
 9107SOL    HW336748   5.252   4.432   4.200
 9107SOL    MW436749   5.308   4.367   4.211
 9108SOL     OW36750   4.628   4.723   5.329
 9108SOL    HW236751   4.605   4.703   5.419
 9108SOL    HW336752   4.713   4.767   5.334
 9108SOL    MW436753   4.635   4.726   5.341
 9109SOL     OW36754   4.708   3.860   5.089
 9109SOL    HW236755   4.714   3.822   5.002
 9109SOL    HW336756   4.697   3.954   5.074
 9109SOL    MW436757   4.709   3.868   5.077
 9110SOL     OW36758   4.797   4.349   4.923
 9110SOL    HW236759   4.872   4.378   4.870
 9110SOL    HW336760   4.729   4.414   4.907
 9110SOL    MW436761   4.798   4.361   4.913
 9111SOL     OW36762   5.347   4.317   5.200
 9111SOL    HW236763   5.328   4.226   5.179
 9111SOL    HW336764   5.325   4.366   5.121
 9111SOL    MW436765   5.342   4.310   5.187
 9112SOL     OW36766   5.489   5.411   5.104
 9112SOL    HW236767   5.417   5.373   5.155
 9112SOL    HW336768   5.506   5.496   5.145
 9112SOL    MW436769   5.483   5.416   5.116
 9113SOL     OW36770   4.794   4.055   5.306
 9113SOL    HW236771   4.760   4.094   5.225
 9113SOL    HW336772   4.772   3.963   5.299
 9113SOL    MW436773   4.787   4.048   5.296
 9114SOL     OW36774   5.203   4.869   5.382
 9114SOL    HW236775   5.285   4.910   5.412
 9114SOL    HW336776   5.166   4.831   5.462
 9114SOL    MW436777   5.209   4.870   5.397
 9115SOL     OW36778   5.498   4.242   4.366
 9115SOL    HW236779   5.587   4.211   4.383
 9115SOL    HW336780   5.441   4.182   4.414
 9115SOL    MW436781   5.501   4.230   4.375
 9116SOL     OW36782   3.924   3.956   4.395
 9116SOL    HW236783   3.915   3.896   4.321
 9116SOL    HW336784   3.857   3.927   4.458
 9116SOL    MW436785   3.914   3.943   4.393
 9117SOL     OW36786   4.867   5.049   3.956
 9117SOL    HW236787   4.817   5.051   4.038
 9117SOL    HW336788   4.801   5.067   3.888
 9117SOL    MW436789   4.853   5.051   3.958
 9118SOL     OW36790   3.871   4.129   4.758
 9118SOL    HW236791   3.843   4.220   4.767
 9118SOL    HW336792   3.808   4.090   4.697
 9118SOL    MW436793   3.858   4.135   4.752
 9119SOL     OW36794   4.330   5.467   4.064
 9119SOL    HW236795   4.251   5.425   4.097
 9119SOL    HW336796   4.396   5.450   4.131
 9119SOL    MW436797   4.329   5.459   4.077
 9120SOL     OW36798   5.458   4.987   5.461
 9120SOL    HW236799   5.508   4.913   5.493
 9120SOL    HW336800   5.404   5.014   5.536
 9120SOL    MW436801   5.458   4.981   5.474
 9121SOL     OW36802   4.466   4.882   3.771
 9121SOL    HW236803   4.388   4.828   3.758
 9121SOL    HW336804   4.437   4.955   3.824
 9121SOL    MW436805   4.452   4.884   3.776
 9122SOL     OW36806   5.592   4.622   4.963
 9122SOL    HW236807   5.608   4.660   4.876
 9122SOL    HW336808   5.626   4.688   5.024
 9122SOL    MW436809   5.599   4.635   4.959
 9123SOL     OW36810   5.384   5.331   4.632
 9123SOL    HW236811   5.413   5.398   4.693
 9123SOL    HW336812   5.365   5.255   4.687
 9123SOL    MW436813   5.386   5.331   4.647
 9124SOL     OW36814   5.047   5.398   3.839
 9124SOL    HW236815   4.973   5.361   3.889
 9124SOL    HW336816   5.055   5.488   3.872
 9124SOL    MW436817   5.038   5.405   3.851
 9125SOL     OW36818   3.855   4.404   4.928
 9125SOL    HW236819   3.917   4.434   4.994
 9125SOL    HW336820   3.789   4.473   4.922
 9125SOL    MW436821   3.854   4.417   4.935
 9126SOL     OW36822   5.271   5.072   3.781
 9126SOL    HW236823   5.218   5.121   3.717
 9126SOL    HW336824   5.302   5.138   3.842
 9126SOL    MW436825   5.269   5.086   3.779
 9127SOL     OW36826   4.496   3.961   3.836
 9127SOL    HW236827   4.444   3.881   3.824
 9127SOL    HW336828   4.583   3.938   3.804
 9127SOL    MW436829   4.499   3.947   3.830
 9128SOL     OW36830   3.950   5.513   5.380
 9128SOL    HW236831   3.924   5.581   5.318
 9128SOL    HW336832   3.998   5.450   5.328
 9128SOL    MW436833   3.952   5.513   5.366
 9129SOL     OW36834   4.002   4.832   4.887
 9129SOL    HW236835   4.055   4.907   4.912
 9129SOL    HW336836   3.921   4.870   4.853
 9129SOL    MW436837   3.998   4.847   4.887
 9130SOL     OW36838   4.542   4.736   4.875
 9130SOL    HW236839   4.570   4.645   4.887
 9130SOL    HW336840   4.471   4.730   4.811
 9130SOL    MW436841   4.535   4.724   4.870
 9131SOL     OW36842   3.857   4.601   4.293
 9131SOL    HW236843   3.948   4.616   4.320
 9131SOL    HW336844   3.860   4.522   4.239
 9131SOL    MW436845   3.869   4.593   4.291
 9132SOL     OW36846   4.093   4.309   5.547
 9132SOL    HW236847   4.040   4.389   5.554
 9132SOL    HW336848   4.163   4.321   5.612
 9132SOL    MW436849   4.095   4.322   5.555
 9133SOL     OW36850   4.479   3.859   5.254
 9133SOL    HW236851   4.456   3.767   5.256
 9133SOL    HW336852   4.565   3.861   5.211
 9133SOL    MW436853   4.486   3.849   5.250
 9134SOL     OW36854   4.163   4.383   5.293
 9134SOL    HW236855   4.243   4.433   5.279
 9134SOL    HW336856   4.154   4.377   5.388
 9134SOL    MW436857   4.172   4.389   5.303
 9135SOL     OW36858   4.484   5.533   4.667
 9135SOL    HW236859   4.573   5.548   4.697
 9135SOL    HW336860   4.479   5.580   4.583
 9135SOL    MW436861   4.494   5.541   4.660
 9136SOL     OW36862   5.140   3.908   5.564
 9136SOL    HW236863   5.196   3.835   5.590
 9136SOL    HW336864   5.110   3.946   5.646
 9136SOL    MW436865   5.144   3.903   5.577
 9137SOL     OW36866   3.865   5.213   4.332
 9137SOL    HW236867   3.837   5.252   4.414
 9137SOL    HW336868   3.885   5.122   4.354
 9137SOL    MW436869   3.863   5.205   4.345
 9138SOL     OW36870   4.698   5.256   4.367
 9138SOL    HW236871   4.781   5.210   4.351
 9138SOL    HW336872   4.688   5.255   4.463
 9138SOL    MW436873   4.708   5.249   4.377
 9139SOL     OW36874   5.530   4.401   4.681
 9139SOL    HW236875   5.619   4.431   4.663
 9139SOL    HW336876   5.510   4.341   4.610
 9139SOL    MW436877   5.539   4.398   4.670
 9140SOL     OW36878   5.381   4.580   5.561
 9140SOL    HW236879   5.436   4.504   5.542
 9140SOL    HW336880   5.383   4.588   5.656
 9140SOL    MW436881   5.389   4.571   5.569
 9141SOL     OW36882   4.431   5.313   3.772
 9141SOL    HW236883   4.371   5.382   3.742
 9141SOL    HW336884   4.376   5.255   3.825
 9141SOL    MW436885   4.415   5.315   3.774
 9142SOL     OW36886   4.869   3.958   3.995
 9142SOL    HW236887   4.802   3.934   3.932
 9142SOL    HW336888   4.934   4.007   3.944
 9142SOL    MW436889   4.869   3.960   3.980
 9143SOL     OW36890   4.676   4.142   5.080
 9143SOL    HW236891   4.595   4.183   5.108
 9143SOL    HW336892   4.723   4.210   5.032
 9143SOL    MW436893   4.671   4.157   5.078
 9144SOL     OW36894   4.936   4.480   4.703
 9144SOL    HW236895   4.949   4.574   4.713
 9144SOL    HW336896   4.897   4.470   4.617
 9144SOL    MW436897   4.932   4.491   4.693
 9145SOL     OW36898   4.388   4.675   4.507
 9145SOL    HW236899   4.299   4.666   4.540
 9145SOL    HW336900   4.392   4.765   4.475
 9145SOL    MW436901   4.377   4.686   4.507
 9146SOL     OW36902   5.187   4.258   4.502
 9146SOL    HW236903   5.132   4.179   4.501
 9146SOL    HW336904   5.169   4.299   4.586
 9146SOL    MW436905   5.177   4.253   4.511
 9147SOL     OW36906   4.158   3.945   5.319
 9147SOL    HW236907   4.079   3.963   5.371
 9147SOL    HW336908   4.153   4.007   5.246
 9147SOL    MW436909   4.148   3.955   5.316
 9148SOL     OW36910   4.806   4.462   4.459
 9148SOL    HW236911   4.743   4.394   4.483
 9148SOL    HW336912   4.826   4.443   4.367
 9148SOL    MW436913   4.800   4.449   4.451
 9149SOL     OW36914   4.062   5.357   4.161
 9149SOL    HW236915   4.023   5.404   4.087
 9149SOL    HW336916   3.996   5.292   4.186
 9149SOL    MW436917   4.049   5.355   4.155
 9150SOL     OW36918   4.554   4.766   4.185
 9150SOL    HW236919   4.556   4.740   4.092
 9150SOL    HW336920   4.612   4.703   4.228
 9150SOL    MW436921   4.562   4.755   4.179
 9151SOL     OW36922   5.107   5.326   4.957
 9151SOL    HW236923   5.032   5.372   4.995
 9151SOL    HW336924   5.089   5.233   4.974
 9151SOL    MW436925   5.096   5.320   4.965
 9152SOL     OW36926   5.111   5.534   4.387
 9152SOL    HW236927   5.054   5.487   4.326
 9152SOL    HW336928   5.197   5.495   4.374
 9152SOL    MW436929   5.114   5.525   4.377
 9153SOL     OW36930   5.064   4.010   4.518
 9153SOL    HW236931   5.092   3.942   4.579
 9153SOL    HW336932   4.978   3.981   4.488
 9153SOL    MW436933   5.057   3.997   4.522
 9154SOL     OW36934   3.869   4.944   4.452
 9154SOL    HW236935   3.933   4.976   4.515
 9154SOL    HW336936   3.918   4.880   4.400
 9154SOL    MW436937   3.884   4.940   4.453
 9155SOL     OW36938   4.369   5.020   5.434
 9155SOL    HW236939   4.417   5.103   5.421
 9155SOL    HW336940   4.426   4.968   5.490
 9155SOL    MW436941   4.383   5.024   5.440
 9156SOL     OW36942   3.945   5.262   5.574
 9156SOL    HW236943   4.001   5.186   5.589
 9156SOL    HW336944   3.894   5.240   5.496
 9156SOL    MW436945   3.945   5.249   5.565
 9157SOL     OW36946   5.044   4.114   3.853
 9157SOL    HW236947   5.017   4.180   3.789
 9157SOL    HW336948   5.114   4.157   3.903
 9157SOL    MW436949   5.049   4.127   3.850
 9158SOL     OW36950   4.712   3.819   3.790
 9158SOL    HW236951   4.768   3.811   3.712
 9158SOL    HW336952   4.689   3.729   3.812
 9158SOL    MW436953   4.717   3.806   3.783
 9159SOL     OW36954   5.217   4.670   3.995
 9159SOL    HW236955   5.184   4.759   3.985
 9159SOL    HW336956   5.182   4.641   4.080
 9159SOL    MW436957   5.207   4.679   4.006
 9160SOL     OW36958   4.830   5.099   5.183
 9160SOL    HW236959   4.741   5.105   5.151
 9160SOL    HW336960   4.874   5.178   5.151
 9160SOL    MW436961   4.825   5.109   5.175
 9161SOL     OW36962   4.123   3.767   5.525
 9161SOL    HW236963   4.051   3.732   5.473
 9161SOL    HW336964   4.181   3.808   5.460
 9161SOL    MW436965   4.121   3.768   5.510
 9162SOL     OW36966   4.147   5.257   4.824
 9162SOL    HW236967   4.192   5.319   4.881
 9162SOL    HW336968   4.054   5.276   4.837
 9162SOL    MW436969   4.140   5.267   4.831
 9163SOL     OW36970   5.587   4.786   5.178
 9163SOL    HW236971   5.502   4.799   5.137
 9163SOL    HW336972   5.567   4.750   5.265
 9163SOL    MW436973   5.574   4.782   5.183
 9164SOL     OW36974   4.569   5.325   4.932
 9164SOL    HW236975   4.593   5.314   4.841
 9164SOL    HW336976   4.492   5.382   4.930
 9164SOL    MW436977   4.561   5.330   4.921
 9165SOL     OW36978   4.211   4.708   3.787
 9165SOL    HW236979   4.134   4.721   3.843
 9165SOL    HW336980   4.175   4.672   3.706
 9165SOL    MW436981   4.197   4.704   3.784
 9166SOL     OW36982   4.864   4.681   4.030
 9166SOL    HW236983   4.774   4.702   4.005
 9166SOL    HW336984   4.891   4.754   4.086
 9166SOL    MW436985   4.856   4.693   4.033
 9167SOL     OW36986   4.364   5.030   4.722
 9167SOL    HW236987   4.357   5.009   4.816
 9167SOL    HW336988   4.282   4.998   4.685
 9167SOL    MW436989   4.352   5.024   4.729
 9168SOL     OW36990   5.228   4.040   5.124
 9168SOL    HW236991   5.175   4.042   5.204
 9168SOL    HW336992   5.213   3.953   5.087
 9168SOL    MW436993   5.220   4.030   5.129
 9169SOL     OW36994   5.564   3.964   4.997
 9169SOL    HW236995   5.545   4.031   4.932
 9169SOL    HW336996   5.621   3.902   4.952
 9169SOL    MW436997   5.568   3.965   4.983
 9170SOL     OW36998   3.810   5.122   5.385
 9170SOL    HW236999   3.854   5.055   5.331
 9170SOL    HW337000   3.725   5.084   5.405
 9170SOL    MW437001   3.805   5.108   5.381
 9171SOL     OW37002   4.493   3.797   4.437
 9171SOL    HW237003   4.422   3.858   4.419
 9171SOL    HW337004   4.544   3.794   4.356
 9171SOL    MW437005   4.489   3.803   4.424
 9172SOL     OW37006   4.251   5.037   4.186
 9172SOL    HW237007   4.244   5.069   4.276
 9172SOL    HW337008   4.161   5.021   4.158
 9172SOL    MW437009   4.239   5.039   4.193
 9173SOL     OW37010   4.846   5.430   5.095
 9173SOL    HW237011   4.766   5.415   5.045
 9173SOL    HW337012   4.853   5.525   5.102
 9173SOL    MW437013   4.837   5.441   5.089
 9174SOL     OW37014   4.960   5.395   4.585
 9174SOL    HW237015   5.007   5.468   4.544
 9174SOL    HW337016   4.881   5.434   4.621
 9174SOL    MW437017   4.955   5.410   4.584
 9175SOL     OW37018   5.368   5.490   4.860
 9175SOL    HW237019   5.411   5.460   4.940
 9175SOL    HW337020   5.287   5.438   4.857
 9175SOL    MW437021   5.363   5.479   4.870
 9176SOL     OW37022   4.453   4.454   5.567
 9176SOL    HW237023   4.523   4.396   5.539
 9176SOL    HW337024   4.396   4.399   5.622
 9176SOL    MW437025   4.455   4.441   5.571
 9177SOL     OW37026   5.240   4.666   5.200
 9177SOL    HW237027   5.245   4.719   5.280
 9177SOL    HW337028   5.202   4.583   5.228
 9177SOL    MW437029   5.236   4.661   5.215
 9178SOL     OW37030   4.880   3.801   5.446
 9178SOL    HW237031   4.875   3.708   5.427
 9178SOL    HW337032   4.963   3.812   5.492
 9178SOL    MW437033   4.888   3.790   5.450
 9179SOL     OW37034   4.254   4.321   3.900
 9179SOL    HW237035   4.220   4.377   3.970
 9179SOL    HW337036   4.325   4.271   3.940
 9179SOL    MW437037   4.260   4.322   3.914
 9180SOL     OW37038   5.350   5.072   4.722
 9180SOL    HW237039   5.385   5.054   4.635
 9180SOL    HW337040   5.255   5.073   4.709
 9180SOL    MW437041   5.342   5.069   4.709
 9181SOL     OW37042   4.779   4.720   5.091
 9181SOL    HW237043   4.822   4.755   5.169
 9181SOL    HW337044   4.762   4.797   5.037
 9181SOL    MW437045   4.782   4.735   5.094
 9182SOL     OW37046   5.310   4.207   3.964
 9182SOL    HW237047   5.302   4.278   3.901
 9182SOL    HW337048   5.328   4.251   4.047
 9182SOL    MW437049   5.311   4.221   3.966
 9183SOL     OW37050   4.170   3.862   4.393
 9183SOL    HW237051   4.220   3.905   4.324
 9183SOL    HW337052   4.085   3.906   4.393
 9183SOL    MW437053   4.167   3.875   4.384
 9184SOL     OW37054   3.929   4.924   5.253
 9184SOL    HW237055   3.957   4.877   5.331
 9184SOL    HW337056   3.850   4.879   5.224
 9184SOL    MW437057   3.922   4.913   5.259
 9185SOL     OW37058   4.437   4.251   5.220
 9185SOL    HW237059   4.409   4.339   5.244
 9185SOL    HW337060   4.406   4.195   5.291
 9185SOL    MW437061   4.429   4.254   5.232
 9186SOL     OW37062   4.979   4.469   3.939
 9186SOL    HW237063   5.026   4.487   3.858
 9186SOL    HW337064   4.945   4.553   3.967
 9186SOL    MW437065   4.981   4.483   3.932
 9187SOL     OW37066   4.092   4.647   4.433
 9187SOL    HW237067   4.150   4.703   4.381
 9187SOL    HW337068   4.136   4.562   4.435
 9187SOL    MW437069   4.105   4.644   4.426
 9188SOL     OW37070   5.232   3.999   4.270
 9188SOL    HW237071   5.154   3.949   4.295
 9188SOL    HW337072   5.203   4.090   4.270
 9188SOL    MW437073   5.218   4.003   4.273
 9189SOL     OW37074   4.818   3.961   4.429
 9189SOL    HW237075   4.838   4.036   4.373
 9189SOL    HW337076   4.798   4.000   4.514
 9189SOL    MW437077   4.819   3.977   4.433
 9190SOL     OW37078   4.714   5.211   3.761
 9190SOL    HW237079   4.741   5.289   3.713
 9190SOL    HW337080   4.621   5.226   3.780
 9190SOL    MW437081   4.705   5.224   3.757
 9191SOL     OW37082   5.578   4.734   5.448
 9191SOL    HW237083   5.491   4.714   5.484
 9191SOL    HW337084   5.632   4.660   5.473
 9191SOL    MW437085   5.573   4.723   5.456
 9192SOL     OW37086   3.799   5.247   4.605
 9192SOL    HW237087   3.831   5.251   4.696
 9192SOL    HW337088   3.704   5.255   4.613
 9192SOL    MW437089   3.791   5.250   4.618
 9193SOL     OW37090   3.754   4.373   4.152
 9193SOL    HW237091   3.694   4.345   4.222
 9193SOL    HW337092   3.828   4.313   4.158
 9193SOL    MW437093   3.756   4.362   4.161
 9194SOL     OW37094   5.322   5.585   5.586
 9194SOL    HW237095   5.367   5.509   5.551
 9194SOL    HW337096   5.360   5.598   5.673
 9194SOL    MW437097   5.332   5.578   5.592
 9195SOL     OW37098   4.922   5.104   4.312
 9195SOL    HW237099   4.945   5.055   4.390
 9195SOL    HW337100   5.003   5.146   4.284
 9195SOL    MW437101   4.935   5.104   4.319
 9196SOL     OW37102   4.180   4.112   5.041
 9196SOL    HW237103   4.213   4.193   5.081
 9196SOL    HW337104   4.153   4.138   4.953
 9196SOL    MW437105   4.179   4.126   5.035
 9197SOL     OW37106   4.134   4.079   4.777
 9197SOL    HW237107   4.164   3.993   4.748
 9197SOL    HW337108   4.039   4.072   4.780
 9197SOL    MW437109   4.126   4.068   4.775
 9198SOL     OW37110   4.963   4.288   5.468
 9198SOL    HW237111   5.015   4.223   5.421
 9198SOL    HW337112   4.921   4.339   5.398
 9198SOL    MW437113   4.964   4.285   5.451
 9199SOL     OW37114   5.062   4.083   5.329
 9199SOL    HW237115   4.969   4.067   5.316
 9199SOL    HW337116   5.088   4.021   5.397
 9199SOL    MW437117   5.052   4.073   5.336
 9200SOL     OW37118   4.277   3.857   4.668
 9200SOL    HW237119   4.287   3.766   4.694
 9200SOL    HW337120   4.233   3.853   4.583
 9200SOL    MW437121   4.273   3.845   4.660
 9201SOL     OW37122   4.371   5.472   5.214
 9201SOL    HW237123   4.288   5.457   5.259
 9201SOL    HW337124   4.430   5.405   5.249
 9201SOL    MW437125   4.369   5.462   5.224
 9202SOL     OW37126   5.428   4.179   4.839
 9202SOL    HW237127   5.361   4.212   4.899
 9202SOL    HW337128   5.471   4.257   4.805
 9202SOL    MW437129   5.426   4.194   4.843
 9203SOL     OW37130   5.606   4.899   4.809
 9203SOL    HW237131   5.599   4.839   4.734
 9203SOL    HW337132   5.532   4.959   4.798
 9203SOL    MW437133   5.596   4.899   4.798
 9204SOL     OW37134   4.988   4.761   4.727
 9204SOL    HW237135   5.002   4.733   4.818
 9204SOL    HW337136   5.074   4.792   4.699
 9204SOL    MW437137   5.001   4.762   4.736
 9205SOL     OW37138   5.071   4.256   5.006
 9205SOL    HW237139   5.092   4.257   4.913
 9205SOL    HW337140   5.116   4.178   5.039
 9205SOL    MW437141   5.078   4.246   4.998
 9206SOL     OW37142   5.564   4.387   5.548
 9206SOL    HW237143   5.601   4.332   5.617
 9206SOL    HW337144   5.589   4.344   5.466
 9206SOL    MW437145   5.571   4.375   5.547
 9207SOL     OW37146   5.111   4.685   5.600
 9207SOL    HW237147   5.177   4.633   5.554
 9207SOL    HW337148   5.131   4.672   5.693
 9207SOL    MW437149   5.122   4.676   5.607
 9208SOL     OW37150   5.062   3.771   3.948
 9208SOL    HW237151   5.136   3.815   3.991
 9208SOL    HW337152   4.986   3.825   3.970
 9208SOL    MW437153   5.062   3.783   3.956
 9209SOL     OW37154   5.122   4.546   4.226
 9209SOL    HW237155   5.037   4.516   4.196
 9209SOL    HW337156   5.114   4.553   4.321
 9209SOL    MW437157   5.110   4.544   4.235
 9210SOL     OW37158   4.198   5.009   4.957
 9210SOL    HW237159   4.210   5.036   5.048
 9210SOL    HW337160   4.179   5.090   4.910
 9210SOL    MW437161   4.197   5.024   4.962
 9211SOL     OW37162   4.482   3.989   4.780
 9211SOL    HW237163   4.455   3.991   4.871
 9211SOL    HW337164   4.412   3.941   4.735
 9211SOL    MW437165   4.470   3.985   4.787
 9212SOL     OW37166   4.336   5.481   4.942
 9212SOL    HW237167   4.388   5.558   4.919
 9212SOL    HW337168   4.345   5.473   5.037
 9212SOL    MW437169   4.345   5.488   4.953
 9213SOL     OW37170   5.238   5.066   5.174
 9213SOL    HW237171   5.223   4.995   5.237
 9213SOL    HW337172   5.284   5.024   5.102
 9213SOL    MW437173   5.244   5.050   5.174
 9214SOL     OW37174   4.312   4.797   5.291
 9214SOL    HW237175   4.349   4.802   5.203
 9214SOL    HW337176   4.351   4.870   5.338
 9214SOL    MW437177   4.322   4.807   5.286
 9215SOL     OW37178   4.492   4.840   5.103
 9215SOL    HW237179   4.551   4.786   5.156
 9215SOL    HW337180   4.507   4.812   5.013
 9215SOL    MW437181   4.502   4.829   5.099
 9216SOL     OW37182   4.495   4.212   3.952
 9216SOL    HW237183   4.568   4.261   3.915
 9216SOL    HW337184   4.511   4.121   3.926
 9216SOL    MW437185   4.507   4.207   3.945
 9217SOL     OW37186   5.303   5.329   5.275
 9217SOL    HW237187   5.345   5.314   5.360
 9217SOL    HW337188   5.294   5.242   5.237
 9217SOL    MW437189   5.307   5.317   5.282
 9218SOL     OW37190   4.963   3.808   4.866
 9218SOL    HW237191   5.018   3.817   4.788
 9218SOL    HW337192   5.018   3.842   4.937
 9218SOL    MW437193   4.977   3.813   4.865
 9219SOL     OW37194   3.970   4.721   4.050
 9219SOL    HW237195   3.907   4.737   3.979
 9219SOL    HW337196   3.917   4.684   4.121
 9219SOL    MW437197   3.955   4.718   4.050
 9220SOL     OW37198   4.326   5.075   3.909
 9220SOL    HW237199   4.341   5.051   4.001
 9220SOL    HW337200   4.234   5.053   3.893
 9220SOL    MW437201   4.316   5.068   3.919
 9221SOL     OW37202   4.865   5.306   4.061
 9221SOL    HW237203   4.873   5.224   4.012
 9221SOL    HW337204   4.784   5.345   4.028
 9221SOL    MW437205   4.855   5.301   4.051
 9222SOL     OW37206   4.124   5.464   4.630
 9222SOL    HW237207   4.128   5.375   4.665
 9222SOL    HW337208   4.150   5.455   4.539
 9222SOL    MW437209   4.127   5.452   4.622
 9223SOL     OW37210   4.741   4.942   4.873
 9223SOL    HW237211   4.673   4.876   4.889
 9223SOL    HW337212   4.759   4.936   4.780
 9223SOL    MW437213   4.734   4.933   4.864
 9224SOL     OW37214   3.830   5.217   5.124
 9224SOL    HW237215   3.820   5.175   5.210
 9224SOL    HW337216   3.751   5.270   5.114
 9224SOL    MW437217   3.819   5.218   5.135
 9225SOL     OW37218   4.734   4.081   4.694
 9225SOL    HW237219   4.664   4.033   4.739
 9225SOL    HW337220   4.766   4.144   4.758
 9225SOL    MW437221   4.729   4.083   4.708
 9226SOL     OW37222   4.385   4.517   5.314
 9226SOL    HW237223   4.378   4.612   5.302
 9226SOL    HW337224   4.394   4.506   5.409
 9226SOL    MW437225   4.386   4.529   5.324
 9227SOL     OW37226   4.106   5.032   5.572
 9227SOL    HW237227   4.178   5.034   5.509
 9227SOL    HW337228   4.076   4.941   5.571
 9227SOL    MW437229   4.111   5.021   5.564
 9228SOL     OW37230   5.190   3.795   5.039
 9228SOL    HW237231   5.261   3.741   5.003
 9228SOL    HW337232   5.189   3.774   5.132
 9228SOL    MW437233   5.199   3.786   5.047
 9229SOL     OW37234   5.390   5.325   5.523
 9229SOL    HW237235   5.363   5.322   5.614
 9229SOL    HW337236   5.486   5.329   5.526
 9229SOL    MW437237   5.400   5.325   5.535
 9230SOL     OW37238   4.201   4.187   4.507
 9230SOL    HW237239   4.272   4.135   4.470
 9230SOL    HW337240   4.187   4.152   4.594
 9230SOL    MW437241   4.209   4.176   4.514
 9231SOL     OW37242   3.756   5.522   5.579
 9231SOL    HW237243   3.806   5.500   5.501
 9231SOL    HW337244   3.764   5.617   5.587
 9231SOL    MW437245   3.764   5.531   5.570
 9232SOL     OW37246   4.517   5.280   4.583
 9232SOL    HW237247   4.445   5.217   4.596
 9232SOL    HW337248   4.478   5.365   4.601
 9232SOL    MW437249   4.501   5.283   4.586
 9233SOL     OW37250   4.837   4.128   4.231
 9233SOL    HW237251   4.859   4.065   4.163
 9233SOL    HW337252   4.742   4.120   4.242
 9233SOL    MW437253   4.827   4.119   4.223
 9234SOL     OW37254   3.922   3.818   4.163
 9234SOL    HW237255   3.993   3.839   4.102
 9234SOL    HW337256   3.876   3.746   4.121
 9234SOL    MW437257   3.926   3.812   4.149
 9235SOL     OW37258   3.753   4.285   5.306
 9235SOL    HW237259   3.817   4.351   5.281
 9235SOL    HW337260   3.672   4.312   5.263
 9235SOL    MW437261   3.751   4.297   5.298
 9236SOL     OW37262   5.491   5.192   4.263
 9236SOL    HW237263   5.461   5.125   4.324
 9236SOL    HW337264   5.585   5.198   4.277
 9236SOL    MW437265   5.499   5.184   4.273
 9237SOL     OW37266   5.047   4.869   4.193
 9237SOL    HW237267   5.019   4.955   4.226
 9237SOL    HW337268   5.075   4.885   4.103
 9237SOL    MW437269   5.047   4.883   4.185
 9238SOL     OW37270   4.709   3.789   4.246
 9238SOL    HW237271   4.746   3.848   4.311
 9238SOL    HW337272   4.686   3.845   4.172
 9238SOL    MW437273   4.710   3.804   4.245
 9239SOL     OW37274   5.562   4.671   4.668
 9239SOL    HW237275   5.553   4.703   4.579
 9239SOL    HW337276   5.515   4.587   4.668
 9239SOL    MW437277   5.555   4.664   4.658
 9240SOL     OW37278   3.938   4.511   5.247
 9240SOL    HW237279   3.959   4.580   5.185
 9240SOL    HW337280   4.018   4.458   5.252
 9240SOL    MW437281   3.951   4.512   5.241
 9241SOL     OW37282   5.474   4.602   4.369
 9241SOL    HW237283   5.568   4.591   4.357
 9241SOL    HW337284   5.450   4.674   4.310
 9241SOL    MW437285   5.484   4.610   4.360
 9242SOL     OW37286   3.923   4.526   5.514
 9242SOL    HW237287   3.849   4.470   5.540
 9242SOL    HW337288   3.918   4.529   5.419
 9242SOL    MW437289   3.912   4.519   5.504
 9243SOL     OW37290   4.089   3.813   4.964
 9243SOL    HW237291   4.132   3.897   4.984
 9243SOL    HW337292   4.162   3.751   4.957
 9243SOL    MW437293   4.104   3.816   4.965
 9244SOL     OW37294   4.130   4.480   4.142
 9244SOL    HW237295   4.130   4.575   4.127
 9244SOL    HW337296   4.207   4.464   4.196
 9244SOL    MW437297   4.140   4.491   4.147
 9245SOL     OW37298   4.906   4.339   5.206
 9245SOL    HW237299   4.942   4.312   5.122
 9245SOL    HW337300   4.819   4.373   5.185
 9245SOL    MW437301   4.900   4.340   5.193
 9246SOL     OW37302   3.889   4.211   4.431
 9246SOL    HW237303   3.951   4.218   4.504
 9246SOL    HW337304   3.889   4.118   4.408
 9246SOL    MW437305   3.897   4.200   4.438
 9247SOL     OW37306   5.436   5.551   3.963
 9247SOL    HW237307   5.503   5.584   3.903
 9247SOL    HW337308   5.393   5.630   3.997
 9247SOL    MW437309   5.438   5.566   3.959
 9248SOL     OW37310   4.571   4.472   4.915
 9248SOL    HW237311   4.529   4.390   4.891
 9248SOL    HW337312   4.572   4.471   5.011
 9248SOL    MW437313   4.564   4.461   4.924
 9249SOL     OW37314   5.242   5.605   5.314
 9249SOL    HW237315   5.245   5.511   5.297
 9249SOL    HW337316   5.265   5.613   5.406
 9249SOL    MW437317   5.245   5.593   5.324
 9250SOL     OW37318   4.375   3.942   5.020
 9250SOL    HW237319   4.306   4.005   5.041
 9250SOL    HW337320   4.402   3.906   5.105
 9250SOL    MW437321   4.369   3.945   5.033
 9251SOL     OW37322   3.758   4.783   3.889
 9251SOL    HW237323   3.727   4.848   3.952
 9251SOL    HW337324   3.707   4.705   3.908
 9251SOL    MW437325   3.748   4.780   3.899
 9252SOL     OW37326   5.170   3.795   4.637
 9252SOL    HW237327   5.258   3.804   4.674
 9252SOL    HW337328   5.180   3.736   4.563
 9252SOL    MW437329   5.184   3.789   4.631
 9253SOL     OW37330   5.202   4.534   4.481
 9253SOL    HW237331   5.282   4.549   4.430
 9253SOL    HW337332   5.195   4.439   4.487
 9253SOL    MW437333   5.211   4.523   4.476
 9254SOL     OW37334   4.342   5.583   3.831
 9254SOL    HW237335   4.247   5.583   3.823
 9254SOL    HW337336   4.358   5.529   3.909
 9254SOL    MW437337   4.332   5.577   3.840
 9255SOL     OW37338   4.652   4.460   5.178
 9255SOL    HW237339   4.721   4.527   5.175
 9255SOL    HW337340   4.585   4.498   5.234
 9255SOL    MW437341   4.653   4.473   5.185
 9256SOL     OW37342   4.070   4.760   5.426
 9256SOL    HW237343   4.024   4.676   5.428
 9256SOL    HW337344   4.127   4.754   5.350
 9256SOL    MW437345   4.072   4.748   5.418
 9257SOL     OW37346   5.187   4.403   3.747
 9257SOL    HW237347   5.115   4.379   3.689
 9257SOL    HW337348   5.253   4.440   3.689
 9257SOL    MW437349   5.186   4.405   3.732
 9258SOL     OW37350   4.321   5.135   4.427
 9258SOL    HW237351   4.386   5.068   4.448
 9258SOL    HW337352   4.373   5.212   4.404
 9258SOL    MW437353   4.336   5.137   4.426
 9259SOL     OW37354   4.582   4.300   4.557
 9259SOL    HW237355   4.522   4.318   4.629
 9259SOL    HW337356   4.616   4.212   4.576
 9259SOL    MW437357   4.578   4.290   4.570
 9260SOL     OW37358   5.523   3.799   5.226
 9260SOL    HW237359   5.444   3.845   5.254
 9260SOL    HW337360   5.558   3.853   5.155
 9260SOL    MW437361   5.517   3.812   5.220
 9261SOL     OW37362   4.807   4.883   4.576
 9261SOL    HW237363   4.899   4.864   4.594
 9261SOL    HW337364   4.780   4.813   4.516
 9261SOL    MW437365   4.815   4.871   4.570
 9262SOL     OW37366   4.600   4.703   3.931
 9262SOL    HW237367   4.586   4.615   3.896
 9262SOL    HW337368   4.551   4.760   3.872
 9262SOL    MW437369   4.592   4.698   3.919
 9263SOL     OW37370   5.081   5.121   4.672
 9263SOL    HW237371   5.054   5.205   4.637
 9263SOL    HW337372   5.041   5.116   4.759
 9263SOL    MW437373   5.074   5.130   4.678
 9264SOL     OW37374   5.000   5.069   4.940
 9264SOL    HW237375   5.011   5.036   5.029
 9264SOL    HW337376   4.919   5.028   4.909
 9264SOL    MW437377   4.990   5.061   4.946
 9265SOL     OW37378   4.013   4.427   4.710
 9265SOL    HW237379   3.963   4.426   4.791
 9265SOL    HW337380   4.033   4.519   4.694
 9265SOL    MW437381   4.009   4.439   4.718
 9266SOL     OW37382   5.080   5.191   5.472
 9266SOL    HW237383   5.080   5.285   5.488
 9266SOL    HW337384   5.125   5.181   5.388
 9266SOL    MW437385   5.086   5.201   5.463
 9267SOL     OW37386   5.319   3.909   4.033
 9267SOL    HW237387   5.312   3.913   4.128
 9267SOL    HW337388   5.331   4.000   4.006
 9267SOL    MW437389   5.320   3.922   4.041
 9268SOL     OW37390   4.608   4.472   4.147
 9268SOL    HW237391   4.588   4.458   4.054
 9268SOL    HW337392   4.701   4.451   4.154
 9268SOL    MW437393   4.618   4.467   4.136
 9269SOL     OW37394   3.935   4.095   5.451
 9269SOL    HW237395   3.892   4.154   5.388
 9269SOL    HW337396   4.003   4.150   5.491
 9269SOL    MW437397   3.939   4.110   5.448
 9270SOL     OW37398   5.047   4.715   4.996
 9270SOL    HW237399   5.110   4.712   5.069
 9270SOL    HW337400   4.963   4.733   5.038
 9270SOL    MW437401   5.043   4.717   5.011
 9271SOL     OW37402   4.591   5.430   4.185
 9271SOL    HW237403   4.649   5.501   4.212
 9271SOL    HW337404   4.614   5.358   4.243
 9271SOL    MW437405   4.602   5.430   4.196
 9272SOL     OW37406   5.386   3.892   4.775
 9272SOL    HW237407   5.431   3.810   4.794
 9272SOL    HW337408   5.406   3.948   4.851
 9272SOL    MW437409   5.396   3.888   4.787
 9273SOL     OW37410   3.834   3.735   4.874
 9273SOL    HW237411   3.825   3.736   4.779
 9273SOL    HW337412   3.928   3.747   4.889
 9273SOL    MW437413   3.846   3.738   4.865
 9274SOL     OW37414   5.471   4.928   4.494
 9274SOL    HW237415   5.450   4.874   4.417
 9274SOL    HW337416   5.567   4.926   4.498
 9274SOL    MW437417   5.480   4.921   4.483
 9275SOL     OW37418   4.163   5.073   5.237
 9275SOL    HW237419   4.084   5.023   5.260
 9275SOL    HW337420   4.233   5.032   5.287
 9275SOL    MW437421   4.161   5.061   5.247
 9276SOL     OW37422   4.047   3.862   3.920
 9276SOL    HW237423   3.976   3.917   3.888
 9276SOL    HW337424   4.089   3.828   3.841
 9276SOL    MW437425   4.043   3.864   3.906
 9277SOL     OW37426   5.171   4.359   4.756
 9277SOL    HW237427   5.094   4.405   4.722
 9277SOL    HW337428   5.228   4.428   4.790
 9277SOL    MW437429   5.168   4.374   4.756
 9278SOL     OW37430   3.803   3.961   3.769
 9278SOL    HW237431   3.770   4.040   3.813
 9278SOL    HW337432   3.858   3.994   3.698
 9278SOL    MW437433   3.806   3.975   3.766
 9279SOL     OW37434   3.837   5.218   3.958
 9279SOL    HW237435   3.854   5.302   4.000
 9279SOL    HW337436   3.872   5.227   3.870
 9279SOL    MW437437   3.842   5.231   3.952
 9280SOL     OW37438   5.109   5.307   4.175
 9280SOL    HW237439   5.172   5.297   4.104
 9280SOL    HW337440   5.026   5.327   4.130
 9280SOL    MW437441   5.106   5.308   4.160
 9281SOL     OW37442   5.472   4.575   5.862
 9281SOL    HW237443   5.513   4.517   5.927
 9281SOL    HW337444   5.379   4.567   5.879
 9281SOL    MW437445   5.466   4.567   5.872
 9282SOL     OW37446   5.338   4.507   6.857
 9282SOL    HW237447   5.293   4.574   6.908
 9282SOL    HW337448   5.426   4.543   6.843
 9282SOL    MW437449   5.344   4.520   6.861
 9283SOL     OW37450   4.266   4.758   6.091
 9283SOL    HW237451   4.356   4.733   6.075
 9283SOL    HW337452   4.262   4.851   6.068
 9283SOL    MW437453   4.278   4.767   6.086
 9284SOL     OW37454   5.382   5.461   6.233
 9284SOL    HW237455   5.394   5.407   6.311
 9284SOL    HW337456   5.419   5.409   6.162
 9284SOL    MW437457   5.388   5.446   6.234
 9285SOL     OW37458   4.761   5.346   7.234
 9285SOL    HW237459   4.802   5.382   7.155
 9285SOL    HW337460   4.796   5.257   7.241
 9285SOL    MW437461   4.772   5.339   7.225
 9286SOL     OW37462   5.318   4.901   6.838
 9286SOL    HW237463   5.239   4.866   6.796
 9286SOL    HW337464   5.345   4.973   6.782
 9286SOL    MW437465   5.311   4.906   6.825
 9287SOL     OW37466   4.550   4.214   6.104
 9287SOL    HW237467   4.525   4.302   6.132
 9287SOL    HW337468   4.547   4.217   6.008
 9287SOL    MW437469   4.546   4.226   6.096
 9288SOL     OW37470   3.992   4.242   6.032
 9288SOL    HW237471   4.024   4.330   6.014
 9288SOL    HW337472   3.980   4.240   6.127
 9288SOL    MW437473   3.995   4.254   6.044
 9289SOL     OW37474   4.070   4.655   6.933
 9289SOL    HW237475   4.133   4.602   6.884
 9289SOL    HW337476   4.051   4.729   6.876
 9289SOL    MW437477   4.076   4.657   6.920
 9290SOL     OW37478   4.391   3.997   6.119
 9290SOL    HW237479   4.449   4.073   6.121
 9290SOL    HW337480   4.326   4.018   6.052
 9290SOL    MW437481   4.390   4.009   6.110
 9291SOL     OW37482   4.478   4.924   6.294
 9291SOL    HW237483   4.558   4.927   6.346
 9291SOL    HW337484   4.506   4.891   6.208
 9291SOL    MW437485   4.492   4.920   6.289
 9292SOL     OW37486   4.503   5.265   7.197
 9292SOL    HW237487   4.587   5.291   7.236
 9292SOL    HW337488   4.527   5.209   7.123
 9292SOL    MW437489   4.517   5.261   7.192
 9293SOL     OW37490   4.255   4.428   6.285
 9293SOL    HW237491   4.240   4.348   6.336
 9293SOL    HW337492   4.337   4.463   6.319
 9293SOL    MW437493   4.263   4.420   6.297
 9294SOL     OW37494   4.592   5.114   6.970
 9294SOL    HW237495   4.556   5.180   6.910
 9294SOL    HW337496   4.520   5.052   6.983
 9294SOL    MW437497   4.578   5.114   6.964
 9295SOL     OW37498   4.397   4.254   6.662
 9295SOL    HW237499   4.303   4.250   6.680
 9295SOL    HW337500   4.427   4.163   6.671
 9295SOL    MW437501   4.388   4.242   6.665
 9296SOL     OW37502   4.143   4.668   6.566
 9296SOL    HW237503   4.098   4.675   6.482
 9296SOL    HW337504   4.123   4.751   6.610
 9296SOL    MW437505   4.135   4.680   6.560
 9297SOL     OW37506   3.840   5.514   6.441
 9297SOL    HW237507   3.929   5.506   6.476
 9297SOL    HW337508   3.804   5.426   6.446
 9297SOL    MW437509   3.847   5.501   6.446
 9298SOL     OW37510   5.105   4.906   5.810
 9298SOL    HW237511   5.023   4.942   5.776
 9298SOL    HW337512   5.173   4.949   5.759
 9298SOL    MW437513   5.103   4.916   5.798
 9299SOL     OW37514   4.104   5.041   6.476
 9299SOL    HW237515   4.080   5.094   6.552
 9299SOL    HW337516   4.160   5.099   6.424
 9299SOL    MW437517   4.108   5.056   6.479
 9300SOL     OW37518   4.666   4.685   6.286
 9300SOL    HW237519   4.580   4.672   6.326
 9300SOL    HW337520   4.719   4.612   6.318
 9300SOL    MW437521   4.662   4.674   6.295
 9301SOL     OW37522   4.074   5.337   7.071
 9301SOL    HW237523   3.982   5.313   7.056
 9301SOL    HW337524   4.118   5.254   7.088
 9301SOL    MW437525   4.068   5.322   7.070
 9302SOL     OW37526   4.657   5.047   6.003
 9302SOL    HW237527   4.634   5.109   6.071
 9302SOL    HW337528   4.614   4.965   6.029
 9302SOL    MW437529   4.649   5.043   6.014
 9303SOL     OW37530   5.530   4.048   6.459
 9303SOL    HW237531   5.467   4.028   6.528
 9303SOL    HW337532   5.520   3.977   6.396
 9303SOL    MW437533   5.520   4.035   6.460
 9304SOL     OW37534   4.154   4.020   5.971
 9304SOL    HW237535   4.128   3.982   5.887
 9304SOL    HW337536   4.091   4.090   5.987
 9304SOL    MW437537   4.143   4.023   5.962
 9305SOL     OW37538   3.989   4.981   6.008
 9305SOL    HW237539   3.937   5.049   5.964
 9305SOL    HW337540   3.986   4.907   5.948
 9305SOL    MW437541   3.981   4.980   5.995
 9306SOL     OW37542   4.651   5.444   5.786
 9306SOL    HW237543   4.606   5.460   5.869
 9306SOL    HW337544   4.582   5.409   5.728
 9306SOL    MW437545   4.637   5.441   5.788
 9307SOL     OW37546   5.586   4.217   5.761
 9307SOL    HW237547   5.495   4.219   5.789
 9307SOL    HW337548   5.631   4.279   5.819
 9307SOL    MW437549   5.579   4.225   5.771
 9308SOL     OW37550   5.331   4.820   6.111
 9308SOL    HW237551   5.241   4.820   6.146
 9308SOL    HW337552   5.324   4.866   6.028
 9308SOL    MW437553   5.318   4.826   6.105
 9309SOL     OW37554   5.131   4.455   7.183
 9309SOL    HW237555   5.200   4.393   7.160
 9309SOL    HW337556   5.056   4.429   7.130
 9309SOL    MW437557   5.131   4.442   7.174
 9310SOL     OW37558   3.872   5.335   6.735
 9310SOL    HW237559   3.855   5.281   6.812
 9310SOL    HW337560   3.860   5.425   6.765
 9310SOL    MW437561   3.869   5.339   6.749
 9311SOL     OW37562   4.867   4.842   7.175
 9311SOL    HW237563   4.852   4.935   7.160
 9311SOL    HW337564   4.962   4.832   7.175
 9311SOL    MW437565   4.876   4.852   7.172
 9312SOL     OW37566   4.663   4.266   7.376
 9312SOL    HW237567   4.753   4.267   7.343
 9312SOL    HW337568   4.622   4.191   7.334
 9312SOL    MW437569   4.669   4.256   7.367
 9313SOL     OW37570   5.238   4.798   6.503
 9313SOL    HW237571   5.241   4.732   6.434
 9313SOL    HW337572   5.323   4.841   6.499
 9313SOL    MW437573   5.250   4.794   6.494
 9314SOL     OW37574   4.858   4.401   6.072
 9314SOL    HW237575   4.884   4.425   5.983
 9314SOL    HW337576   4.840   4.308   6.068
 9314SOL    MW437577   4.860   4.393   6.059
 9315SOL     OW37578   5.523   5.021   5.923
 9315SOL    HW237579   5.479   5.062   5.998
 9315SOL    HW337580   5.580   5.089   5.888
 9315SOL    MW437581   5.525   5.035   5.928
 9316SOL     OW37582   4.443   4.070   7.326
 9316SOL    HW237583   4.453   3.996   7.266
 9316SOL    HW337584   4.479   4.039   7.409
 9316SOL    MW437585   4.449   4.056   7.328
 9317SOL     OW37586   4.179   5.437   6.241
 9317SOL    HW237587   4.211   5.525   6.219
 9317SOL    HW337588   4.132   5.409   6.163
 9317SOL    MW437589   4.178   5.445   6.228
 9318SOL     OW37590   5.563   3.799   6.290
 9318SOL    HW237591   5.617   3.750   6.352
 9318SOL    HW337592   5.506   3.733   6.251
 9318SOL    MW437593   5.563   3.783   6.292
 9319SOL     OW37594   3.895   5.497   5.818
 9319SOL    HW237595   3.924   5.587   5.810
 9319SOL    HW337596   3.845   5.480   5.739
 9319SOL    MW437597   3.893   5.505   5.807
 9320SOL     OW37598   4.682   3.752   6.703
 9320SOL    HW237599   4.641   3.830   6.665
 9320SOL    HW337600   4.776   3.770   6.698
 9320SOL    MW437601   4.688   3.764   6.698
 9321SOL     OW37602   5.299   5.305   5.789
 9321SOL    HW237603   5.347   5.374   5.835
 9321SOL    HW337604   5.220   5.349   5.758
 9321SOL    MW437605   5.294   5.319   5.792
 9322SOL     OW37606   4.697   4.430   5.733
 9322SOL    HW237607   4.699   4.377   5.654
 9322SOL    HW337608   4.785   4.467   5.739
 9322SOL    MW437609   4.709   4.429   5.722
 9323SOL     OW37610   5.311   4.356   6.069
 9323SOL    HW237611   5.350   4.356   6.156
 9323SOL    HW337612   5.252   4.432   6.069
 9323SOL    MW437613   5.308   4.367   6.080
 9324SOL     OW37614   4.628   4.723   7.198
 9324SOL    HW237615   4.605   4.703   7.288
 9324SOL    HW337616   4.713   4.767   7.203
 9324SOL    MW437617   4.635   4.726   7.210
 9325SOL     OW37618   4.708   3.860   6.958
 9325SOL    HW237619   4.714   3.822   6.871
 9325SOL    HW337620   4.697   3.954   6.943
 9325SOL    MW437621   4.709   3.868   6.946
 9326SOL     OW37622   4.797   4.349   6.792
 9326SOL    HW237623   4.872   4.378   6.739
 9326SOL    HW337624   4.729   4.414   6.776
 9326SOL    MW437625   4.798   4.361   6.782
 9327SOL     OW37626   5.347   4.317   7.069
 9327SOL    HW237627   5.328   4.226   7.048
 9327SOL    HW337628   5.325   4.366   6.990
 9327SOL    MW437629   5.342   4.310   7.056
 9328SOL     OW37630   5.489   5.411   6.973
 9328SOL    HW237631   5.417   5.373   7.024
 9328SOL    HW337632   5.506   5.496   7.014
 9328SOL    MW437633   5.483   5.416   6.985
 9329SOL     OW37634   4.794   4.055   7.175
 9329SOL    HW237635   4.760   4.094   7.094
 9329SOL    HW337636   4.772   3.963   7.168
 9329SOL    MW437637   4.787   4.048   7.165
 9330SOL     OW37638   5.203   4.869   7.251
 9330SOL    HW237639   5.285   4.910   7.281
 9330SOL    HW337640   5.166   4.831   7.331
 9330SOL    MW437641   5.209   4.870   7.266
 9331SOL     OW37642   5.498   4.242   6.235
 9331SOL    HW237643   5.587   4.211   6.252
 9331SOL    HW337644   5.441   4.182   6.283
 9331SOL    MW437645   5.501   4.230   6.244
 9332SOL     OW37646   3.924   3.956   6.264
 9332SOL    HW237647   3.915   3.896   6.190
 9332SOL    HW337648   3.857   3.927   6.327
 9332SOL    MW437649   3.914   3.943   6.262
 9333SOL     OW37650   4.867   5.049   5.825
 9333SOL    HW237651   4.817   5.051   5.907
 9333SOL    HW337652   4.801   5.067   5.757
 9333SOL    MW437653   4.853   5.051   5.827
 9334SOL     OW37654   3.871   4.129   6.627
 9334SOL    HW237655   3.843   4.220   6.636
 9334SOL    HW337656   3.808   4.090   6.566
 9334SOL    MW437657   3.858   4.135   6.621
 9335SOL     OW37658   4.330   5.467   5.933
 9335SOL    HW237659   4.251   5.425   5.966
 9335SOL    HW337660   4.396   5.450   6.000
 9335SOL    MW437661   4.329   5.459   5.946
 9336SOL     OW37662   5.458   4.987   7.330
 9336SOL    HW237663   5.508   4.913   7.362
 9336SOL    HW337664   5.404   5.014   7.405
 9336SOL    MW437665   5.458   4.981   7.343
 9337SOL     OW37666   4.466   4.882   5.640
 9337SOL    HW237667   4.388   4.828   5.627
 9337SOL    HW337668   4.437   4.955   5.693
 9337SOL    MW437669   4.452   4.884   5.645
 9338SOL     OW37670   5.592   4.622   6.832
 9338SOL    HW237671   5.608   4.660   6.745
 9338SOL    HW337672   5.626   4.688   6.893
 9338SOL    MW437673   5.599   4.635   6.828
 9339SOL     OW37674   5.384   5.331   6.501
 9339SOL    HW237675   5.413   5.398   6.562
 9339SOL    HW337676   5.365   5.255   6.556
 9339SOL    MW437677   5.386   5.331   6.516
 9340SOL     OW37678   5.047   5.398   5.708
 9340SOL    HW237679   4.973   5.361   5.758
 9340SOL    HW337680   5.055   5.488   5.741
 9340SOL    MW437681   5.038   5.405   5.720
 9341SOL     OW37682   3.855   4.404   6.797
 9341SOL    HW237683   3.917   4.434   6.863
 9341SOL    HW337684   3.789   4.473   6.791
 9341SOL    MW437685   3.854   4.417   6.804
 9342SOL     OW37686   5.271   5.072   5.650
 9342SOL    HW237687   5.218   5.121   5.586
 9342SOL    HW337688   5.302   5.138   5.711
 9342SOL    MW437689   5.269   5.086   5.648
 9343SOL     OW37690   4.496   3.961   5.705
 9343SOL    HW237691   4.444   3.881   5.693
 9343SOL    HW337692   4.583   3.938   5.673
 9343SOL    MW437693   4.499   3.947   5.699
 9344SOL     OW37694   3.950   5.513   7.249
 9344SOL    HW237695   3.924   5.581   7.187
 9344SOL    HW337696   3.998   5.450   7.197
 9344SOL    MW437697   3.952   5.513   7.235
 9345SOL     OW37698   4.002   4.832   6.756
 9345SOL    HW237699   4.055   4.907   6.781
 9345SOL    HW337700   3.921   4.870   6.722
 9345SOL    MW437701   3.998   4.847   6.756
 9346SOL     OW37702   4.542   4.736   6.744
 9346SOL    HW237703   4.570   4.645   6.756
 9346SOL    HW337704   4.471   4.730   6.680
 9346SOL    MW437705   4.535   4.724   6.739
 9347SOL     OW37706   3.857   4.601   6.162
 9347SOL    HW237707   3.948   4.616   6.189
 9347SOL    HW337708   3.860   4.522   6.108
 9347SOL    MW437709   3.869   4.593   6.160
 9348SOL     OW37710   4.093   4.309   7.416
 9348SOL    HW237711   4.040   4.389   7.423
 9348SOL    HW337712   4.163   4.321   7.481
 9348SOL    MW437713   4.095   4.322   7.424
 9349SOL     OW37714   4.479   3.859   7.123
 9349SOL    HW237715   4.456   3.767   7.125
 9349SOL    HW337716   4.565   3.861   7.080
 9349SOL    MW437717   4.486   3.849   7.119
 9350SOL     OW37718   4.163   4.383   7.162
 9350SOL    HW237719   4.243   4.433   7.148
 9350SOL    HW337720   4.154   4.377   7.257
 9350SOL    MW437721   4.172   4.389   7.172
 9351SOL     OW37722   4.484   5.533   6.536
 9351SOL    HW237723   4.573   5.548   6.566
 9351SOL    HW337724   4.479   5.580   6.452
 9351SOL    MW437725   4.494   5.541   6.529
 9352SOL     OW37726   5.140   3.908   7.433
 9352SOL    HW237727   5.196   3.835   7.459
 9352SOL    HW337728   5.110   3.946   7.515
 9352SOL    MW437729   5.144   3.903   7.446
 9353SOL     OW37730   3.865   5.213   6.201
 9353SOL    HW237731   3.837   5.252   6.283
 9353SOL    HW337732   3.885   5.122   6.223
 9353SOL    MW437733   3.863   5.205   6.214
 9354SOL     OW37734   4.698   5.256   6.236
 9354SOL    HW237735   4.781   5.210   6.220
 9354SOL    HW337736   4.688   5.255   6.332
 9354SOL    MW437737   4.708   5.249   6.246
 9355SOL     OW37738   5.530   4.401   6.550
 9355SOL    HW237739   5.619   4.431   6.532
 9355SOL    HW337740   5.510   4.341   6.479
 9355SOL    MW437741   5.539   4.398   6.539
 9356SOL     OW37742   5.381   4.580   7.430
 9356SOL    HW237743   5.436   4.504   7.411
 9356SOL    HW337744   5.383   4.588   7.525
 9356SOL    MW437745   5.389   4.571   7.438
 9357SOL     OW37746   4.431   5.313   5.641
 9357SOL    HW237747   4.371   5.382   5.611
 9357SOL    HW337748   4.376   5.255   5.694
 9357SOL    MW437749   4.415   5.315   5.643
 9358SOL     OW37750   4.869   3.958   5.864
 9358SOL    HW237751   4.802   3.934   5.801
 9358SOL    HW337752   4.934   4.007   5.813
 9358SOL    MW437753   4.869   3.960   5.849
 9359SOL     OW37754   4.676   4.142   6.949
 9359SOL    HW237755   4.595   4.183   6.977
 9359SOL    HW337756   4.723   4.210   6.901
 9359SOL    MW437757   4.671   4.157   6.947
 9360SOL     OW37758   4.936   4.480   6.572
 9360SOL    HW237759   4.949   4.574   6.582
 9360SOL    HW337760   4.897   4.470   6.486
 9360SOL    MW437761   4.932   4.491   6.562
 9361SOL     OW37762   4.388   4.675   6.376
 9361SOL    HW237763   4.299   4.666   6.409
 9361SOL    HW337764   4.392   4.765   6.344
 9361SOL    MW437765   4.377   4.686   6.376
 9362SOL     OW37766   5.187   4.258   6.371
 9362SOL    HW237767   5.132   4.179   6.370
 9362SOL    HW337768   5.169   4.299   6.455
 9362SOL    MW437769   5.177   4.253   6.380
 9363SOL     OW37770   4.158   3.945   7.188
 9363SOL    HW237771   4.079   3.963   7.240
 9363SOL    HW337772   4.153   4.007   7.115
 9363SOL    MW437773   4.148   3.955   7.185
 9364SOL     OW37774   4.806   4.462   6.328
 9364SOL    HW237775   4.743   4.394   6.352
 9364SOL    HW337776   4.826   4.443   6.236
 9364SOL    MW437777   4.800   4.449   6.320
 9365SOL     OW37778   4.062   5.357   6.030
 9365SOL    HW237779   4.023   5.404   5.956
 9365SOL    HW337780   3.996   5.292   6.055
 9365SOL    MW437781   4.049   5.355   6.024
 9366SOL     OW37782   4.554   4.766   6.054
 9366SOL    HW237783   4.556   4.740   5.961
 9366SOL    HW337784   4.612   4.703   6.097
 9366SOL    MW437785   4.562   4.755   6.048
 9367SOL     OW37786   5.107   5.326   6.826
 9367SOL    HW237787   5.032   5.372   6.864
 9367SOL    HW337788   5.089   5.233   6.843
 9367SOL    MW437789   5.096   5.320   6.834
 9368SOL     OW37790   5.111   5.534   6.256
 9368SOL    HW237791   5.054   5.487   6.195
 9368SOL    HW337792   5.197   5.495   6.243
 9368SOL    MW437793   5.114   5.525   6.246
 9369SOL     OW37794   5.064   4.010   6.387
 9369SOL    HW237795   5.092   3.942   6.448
 9369SOL    HW337796   4.978   3.981   6.357
 9369SOL    MW437797   5.057   3.997   6.391
 9370SOL     OW37798   3.869   4.944   6.321
 9370SOL    HW237799   3.933   4.976   6.384
 9370SOL    HW337800   3.918   4.880   6.269
 9370SOL    MW437801   3.884   4.940   6.322
 9371SOL     OW37802   4.369   5.020   7.303
 9371SOL    HW237803   4.417   5.103   7.290
 9371SOL    HW337804   4.426   4.968   7.359
 9371SOL    MW437805   4.383   5.024   7.309
 9372SOL     OW37806   3.945   5.262   7.443
 9372SOL    HW237807   4.001   5.186   7.458
 9372SOL    HW337808   3.894   5.240   7.365
 9372SOL    MW437809   3.945   5.249   7.434
 9373SOL     OW37810   5.044   4.114   5.722
 9373SOL    HW237811   5.017   4.180   5.658
 9373SOL    HW337812   5.114   4.157   5.772
 9373SOL    MW437813   5.049   4.127   5.719
 9374SOL     OW37814   4.712   3.819   5.659
 9374SOL    HW237815   4.768   3.811   5.581
 9374SOL    HW337816   4.689   3.729   5.681
 9374SOL    MW437817   4.717   3.806   5.652
 9375SOL     OW37818   5.217   4.670   5.864
 9375SOL    HW237819   5.184   4.759   5.854
 9375SOL    HW337820   5.182   4.641   5.949
 9375SOL    MW437821   5.207   4.679   5.875
 9376SOL     OW37822   4.830   5.099   7.052
 9376SOL    HW237823   4.741   5.105   7.020
 9376SOL    HW337824   4.874   5.178   7.020
 9376SOL    MW437825   4.825   5.109   7.044
 9377SOL     OW37826   4.123   3.767   7.394
 9377SOL    HW237827   4.051   3.732   7.342
 9377SOL    HW337828   4.181   3.808   7.329
 9377SOL    MW437829   4.121   3.768   7.379
 9378SOL     OW37830   4.147   5.257   6.693
 9378SOL    HW237831   4.192   5.319   6.750
 9378SOL    HW337832   4.054   5.276   6.706
 9378SOL    MW437833   4.140   5.267   6.700
 9379SOL     OW37834   5.587   4.786   7.047
 9379SOL    HW237835   5.502   4.799   7.006
 9379SOL    HW337836   5.567   4.750   7.134
 9379SOL    MW437837   5.574   4.782   7.052
 9380SOL     OW37838   4.569   5.325   6.801
 9380SOL    HW237839   4.593   5.314   6.710
 9380SOL    HW337840   4.492   5.382   6.799
 9380SOL    MW437841   4.561   5.330   6.790
 9381SOL     OW37842   4.211   4.708   5.656
 9381SOL    HW237843   4.134   4.721   5.712
 9381SOL    HW337844   4.175   4.672   5.575
 9381SOL    MW437845   4.197   4.704   5.653
 9382SOL     OW37846   4.864   4.681   5.899
 9382SOL    HW237847   4.774   4.702   5.874
 9382SOL    HW337848   4.891   4.754   5.955
 9382SOL    MW437849   4.856   4.693   5.902
 9383SOL     OW37850   4.364   5.030   6.591
 9383SOL    HW237851   4.357   5.009   6.685
 9383SOL    HW337852   4.282   4.998   6.554
 9383SOL    MW437853   4.352   5.024   6.598
 9384SOL     OW37854   5.228   4.040   6.993
 9384SOL    HW237855   5.175   4.042   7.073
 9384SOL    HW337856   5.213   3.953   6.956
 9384SOL    MW437857   5.220   4.030   6.998
 9385SOL     OW37858   5.564   3.964   6.866
 9385SOL    HW237859   5.545   4.031   6.801
 9385SOL    HW337860   5.621   3.902   6.821
 9385SOL    MW437861   5.568   3.965   6.852
 9386SOL     OW37862   3.810   5.122   7.254
 9386SOL    HW237863   3.854   5.055   7.200
 9386SOL    HW337864   3.725   5.084   7.274
 9386SOL    MW437865   3.805   5.108   7.250
 9387SOL     OW37866   4.493   3.797   6.306
 9387SOL    HW237867   4.422   3.858   6.288
 9387SOL    HW337868   4.544   3.794   6.225
 9387SOL    MW437869   4.489   3.803   6.293
 9388SOL     OW37870   4.251   5.037   6.055
 9388SOL    HW237871   4.244   5.069   6.145
 9388SOL    HW337872   4.161   5.021   6.027
 9388SOL    MW437873   4.239   5.039   6.062
 9389SOL     OW37874   4.846   5.430   6.964
 9389SOL    HW237875   4.766   5.415   6.914
 9389SOL    HW337876   4.853   5.525   6.971
 9389SOL    MW437877   4.837   5.441   6.958
 9390SOL     OW37878   4.960   5.395   6.454
 9390SOL    HW237879   5.007   5.468   6.413
 9390SOL    HW337880   4.881   5.434   6.490
 9390SOL    MW437881   4.955   5.410   6.453
 9391SOL     OW37882   5.368   5.490   6.729
 9391SOL    HW237883   5.411   5.460   6.809
 9391SOL    HW337884   5.287   5.438   6.726
 9391SOL    MW437885   5.363   5.479   6.739
 9392SOL     OW37886   4.453   4.454   7.436
 9392SOL    HW237887   4.523   4.396   7.408
 9392SOL    HW337888   4.396   4.399   7.491
 9392SOL    MW437889   4.455   4.441   7.440
 9393SOL     OW37890   5.240   4.666   7.069
 9393SOL    HW237891   5.245   4.719   7.149
 9393SOL    HW337892   5.202   4.583   7.097
 9393SOL    MW437893   5.236   4.661   7.084
 9394SOL     OW37894   4.880   3.801   7.315
 9394SOL    HW237895   4.875   3.708   7.296
 9394SOL    HW337896   4.963   3.812   7.361
 9394SOL    MW437897   4.888   3.790   7.319
 9395SOL     OW37898   4.254   4.321   5.769
 9395SOL    HW237899   4.220   4.377   5.839
 9395SOL    HW337900   4.325   4.271   5.809
 9395SOL    MW437901   4.260   4.322   5.783
 9396SOL     OW37902   5.350   5.072   6.591
 9396SOL    HW237903   5.385   5.054   6.504
 9396SOL    HW337904   5.255   5.073   6.578
 9396SOL    MW437905   5.342   5.069   6.578
 9397SOL     OW37906   4.779   4.720   6.960
 9397SOL    HW237907   4.822   4.755   7.038
 9397SOL    HW337908   4.762   4.797   6.906
 9397SOL    MW437909   4.782   4.735   6.963
 9398SOL     OW37910   5.310   4.207   5.833
 9398SOL    HW237911   5.302   4.278   5.770
 9398SOL    HW337912   5.328   4.251   5.916
 9398SOL    MW437913   5.311   4.221   5.835
 9399SOL     OW37914   4.170   3.862   6.262
 9399SOL    HW237915   4.220   3.905   6.193
 9399SOL    HW337916   4.085   3.906   6.262
 9399SOL    MW437917   4.167   3.875   6.253
 9400SOL     OW37918   3.929   4.924   7.122
 9400SOL    HW237919   3.957   4.877   7.200
 9400SOL    HW337920   3.850   4.879   7.093
 9400SOL    MW437921   3.922   4.913   7.128
 9401SOL     OW37922   4.437   4.251   7.089
 9401SOL    HW237923   4.409   4.339   7.113
 9401SOL    HW337924   4.406   4.195   7.160
 9401SOL    MW437925   4.429   4.254   7.101
 9402SOL     OW37926   4.979   4.469   5.808
 9402SOL    HW237927   5.026   4.487   5.727
 9402SOL    HW337928   4.945   4.553   5.836
 9402SOL    MW437929   4.981   4.483   5.801
 9403SOL     OW37930   4.092   4.647   6.302
 9403SOL    HW237931   4.150   4.703   6.250
 9403SOL    HW337932   4.136   4.562   6.304
 9403SOL    MW437933   4.105   4.644   6.295
 9404SOL     OW37934   5.232   3.999   6.139
 9404SOL    HW237935   5.154   3.949   6.164
 9404SOL    HW337936   5.203   4.090   6.139
 9404SOL    MW437937   5.218   4.003   6.142
 9405SOL     OW37938   4.818   3.961   6.298
 9405SOL    HW237939   4.838   4.036   6.242
 9405SOL    HW337940   4.798   4.000   6.383
 9405SOL    MW437941   4.819   3.977   6.302
 9406SOL     OW37942   4.714   5.211   5.630
 9406SOL    HW237943   4.741   5.289   5.582
 9406SOL    HW337944   4.621   5.226   5.649
 9406SOL    MW437945   4.705   5.224   5.626
 9407SOL     OW37946   5.578   4.734   7.317
 9407SOL    HW237947   5.491   4.714   7.353
 9407SOL    HW337948   5.632   4.660   7.342
 9407SOL    MW437949   5.573   4.723   7.325
 9408SOL     OW37950   3.799   5.247   6.474
 9408SOL    HW237951   3.831   5.251   6.565
 9408SOL    HW337952   3.704   5.255   6.482
 9408SOL    MW437953   3.791   5.250   6.487
 9409SOL     OW37954   3.754   4.373   6.021
 9409SOL    HW237955   3.694   4.345   6.091
 9409SOL    HW337956   3.828   4.313   6.027
 9409SOL    MW437957   3.756   4.362   6.030
 9410SOL     OW37958   5.322   5.585   7.455
 9410SOL    HW237959   5.367   5.509   7.420
 9410SOL    HW337960   5.360   5.598   7.542
 9410SOL    MW437961   5.332   5.578   7.461
 9411SOL     OW37962   4.922   5.104   6.181
 9411SOL    HW237963   4.945   5.055   6.259
 9411SOL    HW337964   5.003   5.146   6.153
 9411SOL    MW437965   4.935   5.104   6.188
 9412SOL     OW37966   4.180   4.112   6.910
 9412SOL    HW237967   4.213   4.193   6.950
 9412SOL    HW337968   4.153   4.138   6.822
 9412SOL    MW437969   4.179   4.126   6.904
 9413SOL     OW37970   4.134   4.079   6.646
 9413SOL    HW237971   4.164   3.993   6.617
 9413SOL    HW337972   4.039   4.072   6.649
 9413SOL    MW437973   4.126   4.068   6.644
 9414SOL     OW37974   4.963   4.288   7.337
 9414SOL    HW237975   5.015   4.223   7.290
 9414SOL    HW337976   4.921   4.339   7.267
 9414SOL    MW437977   4.964   4.285   7.320
 9415SOL     OW37978   5.062   4.083   7.198
 9415SOL    HW237979   4.969   4.067   7.185
 9415SOL    HW337980   5.088   4.021   7.266
 9415SOL    MW437981   5.052   4.073   7.205
 9416SOL     OW37982   4.277   3.857   6.537
 9416SOL    HW237983   4.287   3.766   6.563
 9416SOL    HW337984   4.233   3.853   6.452
 9416SOL    MW437985   4.273   3.845   6.529
 9417SOL     OW37986   4.371   5.472   7.083
 9417SOL    HW237987   4.288   5.457   7.128
 9417SOL    HW337988   4.430   5.405   7.118
 9417SOL    MW437989   4.369   5.462   7.093
 9418SOL     OW37990   5.428   4.179   6.708
 9418SOL    HW237991   5.361   4.212   6.768
 9418SOL    HW337992   5.471   4.257   6.674
 9418SOL    MW437993   5.426   4.194   6.712
 9419SOL     OW37994   5.606   4.899   6.678
 9419SOL    HW237995   5.599   4.839   6.603
 9419SOL    HW337996   5.532   4.959   6.667
 9419SOL    MW437997   5.596   4.899   6.667
 9420SOL     OW37998   4.988   4.761   6.596
 9420SOL    HW237999   5.002   4.733   6.687
 9420SOL    HW338000   5.074   4.792   6.568
 9420SOL    MW438001   5.001   4.762   6.605
 9421SOL     OW38002   5.071   4.256   6.875
 9421SOL    HW238003   5.092   4.257   6.782
 9421SOL    HW338004   5.116   4.178   6.908
 9421SOL    MW438005   5.078   4.246   6.867
 9422SOL     OW38006   5.564   4.387   7.417
 9422SOL    HW238007   5.601   4.332   7.486
 9422SOL    HW338008   5.589   4.344   7.335
 9422SOL    MW438009   5.571   4.375   7.416
 9423SOL     OW38010   5.111   4.685   7.468
 9423SOL    HW238011   5.177   4.633   7.422
 9423SOL    HW338012   5.131   4.672   7.561
 9423SOL    MW438013   5.122   4.676   7.475
 9424SOL     OW38014   5.062   3.771   5.817
 9424SOL    HW238015   5.136   3.815   5.860
 9424SOL    HW338016   4.986   3.825   5.839
 9424SOL    MW438017   5.062   3.783   5.825
 9425SOL     OW38018   5.122   4.546   6.095
 9425SOL    HW238019   5.037   4.516   6.065
 9425SOL    HW338020   5.114   4.553   6.190
 9425SOL    MW438021   5.110   4.544   6.104
 9426SOL     OW38022   4.198   5.009   6.826
 9426SOL    HW238023   4.210   5.036   6.917
 9426SOL    HW338024   4.179   5.090   6.779
 9426SOL    MW438025   4.197   5.024   6.831
 9427SOL     OW38026   4.482   3.989   6.649
 9427SOL    HW238027   4.455   3.991   6.740
 9427SOL    HW338028   4.412   3.941   6.604
 9427SOL    MW438029   4.470   3.985   6.656
 9428SOL     OW38030   4.336   5.481   6.811
 9428SOL    HW238031   4.388   5.558   6.788
 9428SOL    HW338032   4.345   5.473   6.906
 9428SOL    MW438033   4.345   5.488   6.822
 9429SOL     OW38034   5.238   5.066   7.043
 9429SOL    HW238035   5.223   4.995   7.106
 9429SOL    HW338036   5.284   5.024   6.971
 9429SOL    MW438037   5.244   5.050   7.043
 9430SOL     OW38038   4.312   4.797   7.160
 9430SOL    HW238039   4.349   4.802   7.072
 9430SOL    HW338040   4.351   4.870   7.207
 9430SOL    MW438041   4.322   4.807   7.155
 9431SOL     OW38042   4.492   4.840   6.972
 9431SOL    HW238043   4.551   4.786   7.025
 9431SOL    HW338044   4.507   4.812   6.882
 9431SOL    MW438045   4.502   4.829   6.968
 9432SOL     OW38046   4.495   4.212   5.821
 9432SOL    HW238047   4.568   4.261   5.784
 9432SOL    HW338048   4.511   4.121   5.795
 9432SOL    MW438049   4.507   4.207   5.814
 9433SOL     OW38050   5.303   5.329   7.144
 9433SOL    HW238051   5.345   5.314   7.229
 9433SOL    HW338052   5.294   5.242   7.106
 9433SOL    MW438053   5.307   5.317   7.151
 9434SOL     OW38054   4.963   3.808   6.735
 9434SOL    HW238055   5.018   3.817   6.657
 9434SOL    HW338056   5.018   3.842   6.806
 9434SOL    MW438057   4.977   3.813   6.734
 9435SOL     OW38058   3.970   4.721   5.919
 9435SOL    HW238059   3.907   4.737   5.848
 9435SOL    HW338060   3.917   4.684   5.990
 9435SOL    MW438061   3.955   4.718   5.919
 9436SOL     OW38062   4.326   5.075   5.778
 9436SOL    HW238063   4.341   5.051   5.870
 9436SOL    HW338064   4.234   5.053   5.762
 9436SOL    MW438065   4.316   5.068   5.788
 9437SOL     OW38066   4.865   5.306   5.930
 9437SOL    HW238067   4.873   5.224   5.881
 9437SOL    HW338068   4.784   5.345   5.897
 9437SOL    MW438069   4.855   5.301   5.920
 9438SOL     OW38070   4.124   5.464   6.499
 9438SOL    HW238071   4.128   5.375   6.534
 9438SOL    HW338072   4.150   5.455   6.408
 9438SOL    MW438073   4.127   5.452   6.491
 9439SOL     OW38074   4.741   4.942   6.742
 9439SOL    HW238075   4.673   4.876   6.758
 9439SOL    HW338076   4.759   4.936   6.649
 9439SOL    MW438077   4.734   4.933   6.733
 9440SOL     OW38078   3.830   5.217   6.993
 9440SOL    HW238079   3.820   5.175   7.079
 9440SOL    HW338080   3.751   5.270   6.983
 9440SOL    MW438081   3.819   5.218   7.004
 9441SOL     OW38082   4.734   4.081   6.563
 9441SOL    HW238083   4.664   4.033   6.608
 9441SOL    HW338084   4.766   4.144   6.627
 9441SOL    MW438085   4.729   4.083   6.577
 9442SOL     OW38086   4.385   4.517   7.183
 9442SOL    HW238087   4.378   4.612   7.171
 9442SOL    HW338088   4.394   4.506   7.278
 9442SOL    MW438089   4.386   4.529   7.193
 9443SOL     OW38090   4.106   5.032   7.441
 9443SOL    HW238091   4.178   5.034   7.378
 9443SOL    HW338092   4.076   4.941   7.440
 9443SOL    MW438093   4.111   5.021   7.433
 9444SOL     OW38094   5.190   3.795   6.908
 9444SOL    HW238095   5.261   3.741   6.872
 9444SOL    HW338096   5.189   3.774   7.001
 9444SOL    MW438097   5.199   3.786   6.916
 9445SOL     OW38098   5.390   5.325   7.392
 9445SOL    HW238099   5.363   5.322   7.483
 9445SOL    HW338100   5.486   5.329   7.395
 9445SOL    MW438101   5.400   5.325   7.404
 9446SOL     OW38102   4.201   4.187   6.376
 9446SOL    HW238103   4.272   4.135   6.339
 9446SOL    HW338104   4.187   4.152   6.463
 9446SOL    MW438105   4.209   4.176   6.383
 9447SOL     OW38106   3.756   5.522   7.448
 9447SOL    HW238107   3.806   5.500   7.370
 9447SOL    HW338108   3.764   5.617   7.456
 9447SOL    MW438109   3.764   5.531   7.439
 9448SOL     OW38110   4.517   5.280   6.452
 9448SOL    HW238111   4.445   5.217   6.465
 9448SOL    HW338112   4.478   5.365   6.470
 9448SOL    MW438113   4.501   5.283   6.455
 9449SOL     OW38114   4.837   4.128   6.100
 9449SOL    HW238115   4.859   4.065   6.032
 9449SOL    HW338116   4.742   4.120   6.111
 9449SOL    MW438117   4.827   4.119   6.092
 9450SOL     OW38118   3.922   3.818   6.032
 9450SOL    HW238119   3.993   3.839   5.971
 9450SOL    HW338120   3.876   3.746   5.990
 9450SOL    MW438121   3.926   3.812   6.018
 9451SOL     OW38122   3.753   4.285   7.175
 9451SOL    HW238123   3.817   4.351   7.150
 9451SOL    HW338124   3.672   4.312   7.132
 9451SOL    MW438125   3.751   4.297   7.167
 9452SOL     OW38126   5.491   5.192   6.132
 9452SOL    HW238127   5.461   5.125   6.193
 9452SOL    HW338128   5.585   5.198   6.146
 9452SOL    MW438129   5.499   5.184   6.142
 9453SOL     OW38130   5.047   4.869   6.062
 9453SOL    HW238131   5.019   4.955   6.095
 9453SOL    HW338132   5.075   4.885   5.972
 9453SOL    MW438133   5.047   4.883   6.054
 9454SOL     OW38134   4.709   3.789   6.115
 9454SOL    HW238135   4.746   3.848   6.180
 9454SOL    HW338136   4.686   3.845   6.041
 9454SOL    MW438137   4.710   3.804   6.114
 9455SOL     OW38138   5.562   4.671   6.537
 9455SOL    HW238139   5.553   4.703   6.448
 9455SOL    HW338140   5.515   4.587   6.537
 9455SOL    MW438141   5.555   4.664   6.527
 9456SOL     OW38142   3.938   4.511   7.116
 9456SOL    HW238143   3.959   4.580   7.054
 9456SOL    HW338144   4.018   4.458   7.121
 9456SOL    MW438145   3.951   4.512   7.110
 9457SOL     OW38146   5.474   4.602   6.238
 9457SOL    HW238147   5.568   4.591   6.226
 9457SOL    HW338148   5.450   4.674   6.179
 9457SOL    MW438149   5.484   4.610   6.229
 9458SOL     OW38150   3.923   4.526   7.383
 9458SOL    HW238151   3.849   4.470   7.409
 9458SOL    HW338152   3.918   4.529   7.288
 9458SOL    MW438153   3.912   4.519   7.373
 9459SOL     OW38154   4.089   3.813   6.833
 9459SOL    HW238155   4.132   3.897   6.853
 9459SOL    HW338156   4.162   3.751   6.826
 9459SOL    MW438157   4.104   3.816   6.834
 9460SOL     OW38158   4.130   4.480   6.011
 9460SOL    HW238159   4.130   4.575   5.996
 9460SOL    HW338160   4.207   4.464   6.065
 9460SOL    MW438161   4.140   4.491   6.016
 9461SOL     OW38162   4.906   4.339   7.075
 9461SOL    HW238163   4.942   4.312   6.991
 9461SOL    HW338164   4.819   4.373   7.054
 9461SOL    MW438165   4.900   4.340   7.062
 9462SOL     OW38166   3.889   4.211   6.300
 9462SOL    HW238167   3.951   4.218   6.373
 9462SOL    HW338168   3.889   4.118   6.277
 9462SOL    MW438169   3.897   4.200   6.307
 9463SOL     OW38170   5.436   5.551   5.832
 9463SOL    HW238171   5.503   5.584   5.772
 9463SOL    HW338172   5.393   5.630   5.866
 9463SOL    MW438173   5.438   5.566   5.828
 9464SOL     OW38174   4.571   4.472   6.784
 9464SOL    HW238175   4.529   4.390   6.760
 9464SOL    HW338176   4.572   4.471   6.880
 9464SOL    MW438177   4.564   4.461   6.793
 9465SOL     OW38178   5.242   5.605   7.183
 9465SOL    HW238179   5.245   5.511   7.166
 9465SOL    HW338180   5.265   5.613   7.275
 9465SOL    MW438181   5.245   5.593   7.193
 9466SOL     OW38182   4.375   3.942   6.889
 9466SOL    HW238183   4.306   4.005   6.910
 9466SOL    HW338184   4.402   3.906   6.974
 9466SOL    MW438185   4.369   3.945   6.902
 9467SOL     OW38186   3.758   4.783   5.758
 9467SOL    HW238187   3.727   4.848   5.821
 9467SOL    HW338188   3.707   4.705   5.777
 9467SOL    MW438189   3.748   4.780   5.768
 9468SOL     OW38190   5.170   3.795   6.506
 9468SOL    HW238191   5.258   3.804   6.543
 9468SOL    HW338192   5.180   3.736   6.432
 9468SOL    MW438193   5.184   3.789   6.500
 9469SOL     OW38194   5.202   4.534   6.350
 9469SOL    HW238195   5.282   4.549   6.299
 9469SOL    HW338196   5.195   4.439   6.356
 9469SOL    MW438197   5.211   4.523   6.345
 9470SOL     OW38198   4.342   5.583   5.700
 9470SOL    HW238199   4.247   5.583   5.692
 9470SOL    HW338200   4.358   5.529   5.778
 9470SOL    MW438201   4.332   5.577   5.709
 9471SOL     OW38202   4.652   4.460   7.047
 9471SOL    HW238203   4.721   4.527   7.044
 9471SOL    HW338204   4.585   4.498   7.103
 9471SOL    MW438205   4.653   4.473   7.054
 9472SOL     OW38206   4.070   4.760   7.295
 9472SOL    HW238207   4.024   4.676   7.297
 9472SOL    HW338208   4.127   4.754   7.219
 9472SOL    MW438209   4.072   4.748   7.287
 9473SOL     OW38210   5.187   4.403   5.615
 9473SOL    HW238211   5.115   4.379   5.557
 9473SOL    HW338212   5.253   4.440   5.557
 9473SOL    MW438213   5.186   4.405   5.600
 9474SOL     OW38214   4.321   5.135   6.296
 9474SOL    HW238215   4.386   5.068   6.317
 9474SOL    HW338216   4.373   5.212   6.273
 9474SOL    MW438217   4.336   5.137   6.295
 9475SOL     OW38218   4.582   4.300   6.426
 9475SOL    HW238219   4.522   4.318   6.498
 9475SOL    HW338220   4.616   4.212   6.445
 9475SOL    MW438221   4.578   4.290   6.439
 9476SOL     OW38222   5.523   3.799   7.095
 9476SOL    HW238223   5.444   3.845   7.123
 9476SOL    HW338224   5.558   3.853   7.024
 9476SOL    MW438225   5.517   3.812   7.089
 9477SOL     OW38226   4.807   4.883   6.445
 9477SOL    HW238227   4.899   4.864   6.463
 9477SOL    HW338228   4.780   4.813   6.385
 9477SOL    MW438229   4.815   4.871   6.439
 9478SOL     OW38230   4.600   4.703   5.800
 9478SOL    HW238231   4.586   4.615   5.765
 9478SOL    HW338232   4.551   4.760   5.741
 9478SOL    MW438233   4.592   4.698   5.788
 9479SOL     OW38234   5.081   5.121   6.541
 9479SOL    HW238235   5.054   5.205   6.506
 9479SOL    HW338236   5.041   5.116   6.628
 9479SOL    MW438237   5.074   5.130   6.547
 9480SOL     OW38238   5.000   5.069   6.809
 9480SOL    HW238239   5.011   5.036   6.898
 9480SOL    HW338240   4.919   5.028   6.778
 9480SOL    MW438241   4.990   5.061   6.815
 9481SOL     OW38242   4.013   4.427   6.579
 9481SOL    HW238243   3.963   4.426   6.660
 9481SOL    HW338244   4.033   4.519   6.563
 9481SOL    MW438245   4.009   4.439   6.587
 9482SOL     OW38246   5.080   5.191   7.341
 9482SOL    HW238247   5.080   5.285   7.357
 9482SOL    HW338248   5.125   5.181   7.257
 9482SOL    MW438249   5.086   5.201   7.332
 9483SOL     OW38250   5.319   3.909   5.902
 9483SOL    HW238251   5.312   3.913   5.997
 9483SOL    HW338252   5.331   4.000   5.875
 9483SOL    MW438253   5.320   3.922   5.910
 9484SOL     OW38254   4.608   4.472   6.016
 9484SOL    HW238255   4.588   4.458   5.923
 9484SOL    HW338256   4.701   4.451   6.023
 9484SOL    MW438257   4.618   4.467   6.005
 9485SOL     OW38258   3.935   4.095   7.320
 9485SOL    HW238259   3.892   4.154   7.257
 9485SOL    HW338260   4.003   4.150   7.360
 9485SOL    MW438261   3.939   4.110   7.317
 9486SOL     OW38262   5.047   4.715   6.865
 9486SOL    HW238263   5.110   4.712   6.938
 9486SOL    HW338264   4.963   4.733   6.907
 9486SOL    MW438265   5.043   4.717   6.880
 9487SOL     OW38266   4.591   5.430   6.054
 9487SOL    HW238267   4.649   5.501   6.081
 9487SOL    HW338268   4.614   5.358   6.112
 9487SOL    MW438269   4.602   5.430   6.065
 9488SOL     OW38270   5.386   3.892   6.644
 9488SOL    HW238271   5.431   3.810   6.663
 9488SOL    HW338272   5.406   3.948   6.720
 9488SOL    MW438273   5.396   3.888   6.656
 9489SOL     OW38274   3.834   3.735   6.743
 9489SOL    HW238275   3.825   3.736   6.648
 9489SOL    HW338276   3.928   3.747   6.758
 9489SOL    MW438277   3.846   3.738   6.734
 9490SOL     OW38278   5.471   4.928   6.363
 9490SOL    HW238279   5.450   4.874   6.286
 9490SOL    HW338280   5.567   4.926   6.367
 9490SOL    MW438281   5.480   4.921   6.352
 9491SOL     OW38282   4.163   5.073   7.106
 9491SOL    HW238283   4.084   5.023   7.129
 9491SOL    HW338284   4.233   5.032   7.156
 9491SOL    MW438285   4.161   5.061   7.116
 9492SOL     OW38286   4.047   3.862   5.789
 9492SOL    HW238287   3.976   3.917   5.757
 9492SOL    HW338288   4.089   3.828   5.710
 9492SOL    MW438289   4.043   3.864   5.775
 9493SOL     OW38290   5.171   4.359   6.625
 9493SOL    HW238291   5.094   4.405   6.591
 9493SOL    HW338292   5.228   4.428   6.659
 9493SOL    MW438293   5.168   4.374   6.625
 9494SOL     OW38294   3.803   3.961   5.638
 9494SOL    HW238295   3.770   4.040   5.682
 9494SOL    HW338296   3.858   3.994   5.567
 9494SOL    MW438297   3.806   3.975   5.635
 9495SOL     OW38298   3.837   5.218   5.827
 9495SOL    HW238299   3.854   5.302   5.869
 9495SOL    HW338300   3.872   5.227   5.739
 9495SOL    MW438301   3.842   5.231   5.821
 9496SOL     OW38302   5.109   5.307   6.044
 9496SOL    HW238303   5.172   5.297   5.973
 9496SOL    HW338304   5.026   5.327   5.999
 9496SOL    MW438305   5.106   5.308   6.029
 9497SOL     OW38306   5.472   6.444   0.257
 9497SOL    HW238307   5.513   6.386   0.322
 9497SOL    HW338308   5.379   6.436   0.274
 9497SOL    MW438309   5.466   6.436   0.267
 9498SOL     OW38310   5.338   6.376   1.252
 9498SOL    HW238311   5.293   6.443   1.303
 9498SOL    HW338312   5.426   6.412   1.238
 9498SOL    MW438313   5.344   6.389   1.256
 9499SOL     OW38314   4.266   6.627   0.486
 9499SOL    HW238315   4.356   6.602   0.470
 9499SOL    HW338316   4.262   6.720   0.463
 9499SOL    MW438317   4.278   6.636   0.481
 9500SOL     OW38318   5.382   7.330   0.628
 9500SOL    HW238319   5.394   7.276   0.706
 9500SOL    HW338320   5.419   7.278   0.557
 9500SOL    MW438321   5.388   7.315   0.629
 9501SOL     OW38322   4.761   7.215   1.629
 9501SOL    HW238323   4.802   7.251   1.550
 9501SOL    HW338324   4.796   7.126   1.636
 9501SOL    MW438325   4.772   7.208   1.620
 9502SOL     OW38326   5.318   6.770   1.233
 9502SOL    HW238327   5.239   6.735   1.191
 9502SOL    HW338328   5.345   6.842   1.177
 9502SOL    MW438329   5.311   6.775   1.220
 9503SOL     OW38330   4.550   6.083   0.499
 9503SOL    HW238331   4.525   6.171   0.527
 9503SOL    HW338332   4.547   6.086   0.403
 9503SOL    MW438333   4.546   6.095   0.491
 9504SOL     OW38334   3.992   6.111   0.427
 9504SOL    HW238335   4.024   6.199   0.409
 9504SOL    HW338336   3.980   6.109   0.522
 9504SOL    MW438337   3.995   6.123   0.439
 9505SOL     OW38338   4.070   6.524   1.328
 9505SOL    HW238339   4.133   6.471   1.279
 9505SOL    HW338340   4.051   6.598   1.271
 9505SOL    MW438341   4.076   6.526   1.315
 9506SOL     OW38342   4.391   5.866   0.514
 9506SOL    HW238343   4.449   5.942   0.516
 9506SOL    HW338344   4.326   5.887   0.447
 9506SOL    MW438345   4.390   5.878   0.505
 9507SOL     OW38346   4.478   6.793   0.689
 9507SOL    HW238347   4.558   6.796   0.741
 9507SOL    HW338348   4.506   6.760   0.603
 9507SOL    MW438349   4.492   6.789   0.684
 9508SOL     OW38350   4.503   7.134   1.592
 9508SOL    HW238351   4.587   7.160   1.631
 9508SOL    HW338352   4.527   7.078   1.518
 9508SOL    MW438353   4.517   7.130   1.587
 9509SOL     OW38354   4.255   6.297   0.680
 9509SOL    HW238355   4.240   6.217   0.731
 9509SOL    HW338356   4.337   6.332   0.714
 9509SOL    MW438357   4.263   6.289   0.692
 9510SOL     OW38358   4.592   6.983   1.365
 9510SOL    HW238359   4.556   7.049   1.305
 9510SOL    HW338360   4.520   6.921   1.378
 9510SOL    MW438361   4.578   6.983   1.359
 9511SOL     OW38362   4.397   6.123   1.057
 9511SOL    HW238363   4.303   6.119   1.075
 9511SOL    HW338364   4.427   6.032   1.066
 9511SOL    MW438365   4.388   6.111   1.060
 9512SOL     OW38366   4.143   6.537   0.961
 9512SOL    HW238367   4.098   6.544   0.877
 9512SOL    HW338368   4.123   6.620   1.005
 9512SOL    MW438369   4.135   6.549   0.955
 9513SOL     OW38370   3.840   7.383   0.836
 9513SOL    HW238371   3.929   7.375   0.871
 9513SOL    HW338372   3.804   7.295   0.841
 9513SOL    MW438373   3.847   7.370   0.841
 9514SOL     OW38374   5.105   6.775   0.205
 9514SOL    HW238375   5.023   6.811   0.171
 9514SOL    HW338376   5.173   6.818   0.154
 9514SOL    MW438377   5.103   6.785   0.193
 9515SOL     OW38378   4.104   6.910   0.871
 9515SOL    HW238379   4.080   6.963   0.947
 9515SOL    HW338380   4.160   6.968   0.819
 9515SOL    MW438381   4.108   6.925   0.874
 9516SOL     OW38382   4.666   6.554   0.681
 9516SOL    HW238383   4.580   6.541   0.721
 9516SOL    HW338384   4.719   6.481   0.713
 9516SOL    MW438385   4.662   6.543   0.690
 9517SOL     OW38386   4.074   7.206   1.466
 9517SOL    HW238387   3.982   7.182   1.451
 9517SOL    HW338388   4.118   7.123   1.483
 9517SOL    MW438389   4.068   7.191   1.465
 9518SOL     OW38390   4.657   6.916   0.398
 9518SOL    HW238391   4.634   6.978   0.466
 9518SOL    HW338392   4.614   6.834   0.424
 9518SOL    MW438393   4.649   6.912   0.409
 9519SOL     OW38394   5.530   5.917   0.854
 9519SOL    HW238395   5.467   5.897   0.923
 9519SOL    HW338396   5.520   5.846   0.791
 9519SOL    MW438397   5.520   5.904   0.855
 9520SOL     OW38398   4.154   5.889   0.366
 9520SOL    HW238399   4.128   5.851   0.282
 9520SOL    HW338400   4.091   5.959   0.382
 9520SOL    MW438401   4.143   5.892   0.357
 9521SOL     OW38402   3.989   6.850   0.403
 9521SOL    HW238403   3.937   6.918   0.359
 9521SOL    HW338404   3.986   6.776   0.343
 9521SOL    MW438405   3.981   6.849   0.390
 9522SOL     OW38406   4.651   7.313   0.181
 9522SOL    HW238407   4.606   7.329   0.264
 9522SOL    HW338408   4.582   7.278   0.123
 9522SOL    MW438409   4.637   7.310   0.183
 9523SOL     OW38410   5.586   6.086   0.156
 9523SOL    HW238411   5.495   6.088   0.184
 9523SOL    HW338412   5.631   6.148   0.214
 9523SOL    MW438413   5.579   6.094   0.166
 9524SOL     OW38414   5.331   6.689   0.506
 9524SOL    HW238415   5.241   6.689   0.541
 9524SOL    HW338416   5.324   6.735   0.423
 9524SOL    MW438417   5.318   6.695   0.500
 9525SOL     OW38418   5.131   6.324   1.578
 9525SOL    HW238419   5.200   6.262   1.555
 9525SOL    HW338420   5.056   6.298   1.525
 9525SOL    MW438421   5.131   6.311   1.569
 9526SOL     OW38422   3.872   7.204   1.130
 9526SOL    HW238423   3.855   7.150   1.207
 9526SOL    HW338424   3.860   7.294   1.160
 9526SOL    MW438425   3.869   7.208   1.144
 9527SOL     OW38426   4.867   6.711   1.570
 9527SOL    HW238427   4.852   6.804   1.555
 9527SOL    HW338428   4.962   6.701   1.570
 9527SOL    MW438429   4.876   6.721   1.567
 9528SOL     OW38430   4.663   6.135   1.771
 9528SOL    HW238431   4.753   6.136   1.738
 9528SOL    HW338432   4.622   6.060   1.729
 9528SOL    MW438433   4.669   6.125   1.762
 9529SOL     OW38434   5.238   6.667   0.898
 9529SOL    HW238435   5.241   6.601   0.829
 9529SOL    HW338436   5.323   6.710   0.894
 9529SOL    MW438437   5.250   6.663   0.889
 9530SOL     OW38438   4.858   6.270   0.467
 9530SOL    HW238439   4.884   6.294   0.378
 9530SOL    HW338440   4.840   6.177   0.463
 9530SOL    MW438441   4.860   6.262   0.454
 9531SOL     OW38442   5.523   6.890   0.318
 9531SOL    HW238443   5.479   6.931   0.393
 9531SOL    HW338444   5.580   6.958   0.283
 9531SOL    MW438445   5.525   6.904   0.323
 9532SOL     OW38446   4.443   5.939   1.721
 9532SOL    HW238447   4.453   5.865   1.661
 9532SOL    HW338448   4.479   5.908   1.804
 9532SOL    MW438449   4.449   5.925   1.723
 9533SOL     OW38450   4.179   7.306   0.636
 9533SOL    HW238451   4.211   7.394   0.614
 9533SOL    HW338452   4.132   7.278   0.558
 9533SOL    MW438453   4.178   7.314   0.623
 9534SOL     OW38454   5.563   5.668   0.685
 9534SOL    HW238455   5.617   5.619   0.747
 9534SOL    HW338456   5.506   5.602   0.646
 9534SOL    MW438457   5.563   5.652   0.687
 9535SOL     OW38458   3.895   7.366   0.213
 9535SOL    HW238459   3.924   7.456   0.205
 9535SOL    HW338460   3.845   7.349   0.134
 9535SOL    MW438461   3.893   7.374   0.202
 9536SOL     OW38462   4.682   5.621   1.098
 9536SOL    HW238463   4.641   5.699   1.060
 9536SOL    HW338464   4.776   5.639   1.093
 9536SOL    MW438465   4.688   5.633   1.093
 9537SOL     OW38466   5.299   7.174   0.184
 9537SOL    HW238467   5.347   7.243   0.230
 9537SOL    HW338468   5.220   7.218   0.153
 9537SOL    MW438469   5.294   7.188   0.187
 9538SOL     OW38470   4.697   6.299   0.128
 9538SOL    HW238471   4.699   6.246   0.049
 9538SOL    HW338472   4.785   6.336   0.134
 9538SOL    MW438473   4.709   6.298   0.117
 9539SOL     OW38474   5.311   6.225   0.464
 9539SOL    HW238475   5.350   6.225   0.551
 9539SOL    HW338476   5.252   6.301   0.464
 9539SOL    MW438477   5.308   6.236   0.475
 9540SOL     OW38478   4.628   6.592   1.593
 9540SOL    HW238479   4.605   6.572   1.683
 9540SOL    HW338480   4.713   6.636   1.598
 9540SOL    MW438481   4.635   6.595   1.605
 9541SOL     OW38482   4.708   5.729   1.353
 9541SOL    HW238483   4.714   5.691   1.266
 9541SOL    HW338484   4.697   5.823   1.338
 9541SOL    MW438485   4.709   5.737   1.341
 9542SOL     OW38486   4.797   6.218   1.187
 9542SOL    HW238487   4.872   6.247   1.134
 9542SOL    HW338488   4.729   6.283   1.171
 9542SOL    MW438489   4.798   6.230   1.177
 9543SOL     OW38490   5.347   6.186   1.464
 9543SOL    HW238491   5.328   6.095   1.443
 9543SOL    HW338492   5.325   6.235   1.385
 9543SOL    MW438493   5.342   6.179   1.451
 9544SOL     OW38494   5.489   7.280   1.368
 9544SOL    HW238495   5.417   7.242   1.419
 9544SOL    HW338496   5.506   7.365   1.409
 9544SOL    MW438497   5.483   7.285   1.380
 9545SOL     OW38498   4.794   5.924   1.570
 9545SOL    HW238499   4.760   5.963   1.489
 9545SOL    HW338500   4.772   5.832   1.563
 9545SOL    MW438501   4.787   5.917   1.560
 9546SOL     OW38502   5.203   6.738   1.646
 9546SOL    HW238503   5.285   6.779   1.676
 9546SOL    HW338504   5.166   6.700   1.726
 9546SOL    MW438505   5.209   6.739   1.661
 9547SOL     OW38506   5.498   6.111   0.630
 9547SOL    HW238507   5.587   6.080   0.647
 9547SOL    HW338508   5.441   6.051   0.678
 9547SOL    MW438509   5.501   6.099   0.639
 9548SOL     OW38510   3.924   5.825   0.659
 9548SOL    HW238511   3.915   5.765   0.585
 9548SOL    HW338512   3.857   5.796   0.722
 9548SOL    MW438513   3.914   5.812   0.657
 9549SOL     OW38514   4.867   6.918   0.220
 9549SOL    HW238515   4.817   6.920   0.302
 9549SOL    HW338516   4.801   6.936   0.152
 9549SOL    MW438517   4.853   6.920   0.222
 9550SOL     OW38518   3.871   5.998   1.022
 9550SOL    HW238519   3.843   6.089   1.031
 9550SOL    HW338520   3.808   5.959   0.961
 9550SOL    MW438521   3.858   6.004   1.016
 9551SOL     OW38522   4.330   7.336   0.328
 9551SOL    HW238523   4.251   7.294   0.361
 9551SOL    HW338524   4.396   7.319   0.395
 9551SOL    MW438525   4.329   7.328   0.341
 9552SOL     OW38526   5.458   6.856   1.725
 9552SOL    HW238527   5.508   6.782   1.757
 9552SOL    HW338528   5.404   6.883   1.800
 9552SOL    MW438529   5.458   6.850   1.738
 9553SOL     OW38530   4.466   6.751   0.035
 9553SOL    HW238531   4.388   6.697   0.022
 9553SOL    HW338532   4.437   6.824   0.088
 9553SOL    MW438533   4.452   6.753   0.040
 9554SOL     OW38534   5.592   6.491   1.227
 9554SOL    HW238535   5.608   6.529   1.140
 9554SOL    HW338536   5.626   6.557   1.288
 9554SOL    MW438537   5.599   6.504   1.223
 9555SOL     OW38538   5.384   7.200   0.896
 9555SOL    HW238539   5.413   7.267   0.957
 9555SOL    HW338540   5.365   7.124   0.951
 9555SOL    MW438541   5.386   7.200   0.911
 9556SOL     OW38542   5.047   7.267   0.103
 9556SOL    HW238543   4.973   7.230   0.153
 9556SOL    HW338544   5.055   7.357   0.136
 9556SOL    MW438545   5.038   7.274   0.115
 9557SOL     OW38546   3.855   6.273   1.192
 9557SOL    HW238547   3.917   6.303   1.258
 9557SOL    HW338548   3.789   6.342   1.186
 9557SOL    MW438549   3.854   6.286   1.199
 9558SOL     OW38550   5.271   6.941   0.045
 9558SOL    HW238551   5.218   6.990  -0.019
 9558SOL    HW338552   5.302   7.007   0.106
 9558SOL    MW438553   5.269   6.955   0.043
 9559SOL     OW38554   4.496   5.830   0.100
 9559SOL    HW238555   4.444   5.750   0.088
 9559SOL    HW338556   4.583   5.807   0.068
 9559SOL    MW438557   4.499   5.816   0.094
 9560SOL     OW38558   3.950   7.382   1.644
 9560SOL    HW238559   3.924   7.450   1.582
 9560SOL    HW338560   3.998   7.319   1.592
 9560SOL    MW438561   3.952   7.382   1.630
 9561SOL     OW38562   4.002   6.701   1.151
 9561SOL    HW238563   4.055   6.776   1.176
 9561SOL    HW338564   3.921   6.739   1.117
 9561SOL    MW438565   3.998   6.716   1.151
 9562SOL     OW38566   4.542   6.605   1.139
 9562SOL    HW238567   4.570   6.514   1.151
 9562SOL    HW338568   4.471   6.599   1.075
 9562SOL    MW438569   4.535   6.593   1.134
 9563SOL     OW38570   3.857   6.470   0.557
 9563SOL    HW238571   3.948   6.485   0.584
 9563SOL    HW338572   3.860   6.391   0.503
 9563SOL    MW438573   3.869   6.462   0.555
 9564SOL     OW38574   4.093   6.178   1.811
 9564SOL    HW238575   4.040   6.258   1.818
 9564SOL    HW338576   4.163   6.190   1.876
 9564SOL    MW438577   4.095   6.191   1.819
 9565SOL     OW38578   4.479   5.728   1.518
 9565SOL    HW238579   4.456   5.636   1.520
 9565SOL    HW338580   4.565   5.730   1.475
 9565SOL    MW438581   4.486   5.718   1.514
 9566SOL     OW38582   4.163   6.252   1.557
 9566SOL    HW238583   4.243   6.302   1.543
 9566SOL    HW338584   4.154   6.246   1.652
 9566SOL    MW438585   4.172   6.258   1.567
 9567SOL     OW38586   4.484   7.402   0.931
 9567SOL    HW238587   4.573   7.417   0.961
 9567SOL    HW338588   4.479   7.449   0.847
 9567SOL    MW438589   4.494   7.410   0.924
 9568SOL     OW38590   5.140   5.777   1.828
 9568SOL    HW238591   5.196   5.704   1.854
 9568SOL    HW338592   5.110   5.815   1.910
 9568SOL    MW438593   5.144   5.772   1.841
 9569SOL     OW38594   3.865   7.082   0.596
 9569SOL    HW238595   3.837   7.121   0.678
 9569SOL    HW338596   3.885   6.991   0.618
 9569SOL    MW438597   3.863   7.074   0.609
 9570SOL     OW38598   4.698   7.125   0.631
 9570SOL    HW238599   4.781   7.079   0.615
 9570SOL    HW338600   4.688   7.124   0.727
 9570SOL    MW438601   4.708   7.118   0.641
 9571SOL     OW38602   5.530   6.270   0.945
 9571SOL    HW238603   5.619   6.300   0.927
 9571SOL    HW338604   5.510   6.210   0.874
 9571SOL    MW438605   5.539   6.267   0.934
 9572SOL     OW38606   5.381   6.449   1.825
 9572SOL    HW238607   5.436   6.373   1.806
 9572SOL    HW338608   5.383   6.457   1.920
 9572SOL    MW438609   5.389   6.440   1.833
 9573SOL     OW38610   4.431   7.182   0.036
 9573SOL    HW238611   4.371   7.251   0.006
 9573SOL    HW338612   4.376   7.124   0.089
 9573SOL    MW438613   4.415   7.184   0.038
 9574SOL     OW38614   4.869   5.827   0.259
 9574SOL    HW238615   4.802   5.803   0.196
 9574SOL    HW338616   4.934   5.876   0.208
 9574SOL    MW438617   4.869   5.829   0.244
 9575SOL     OW38618   4.676   6.011   1.344
 9575SOL    HW238619   4.595   6.052   1.372
 9575SOL    HW338620   4.723   6.079   1.296
 9575SOL    MW438621   4.671   6.026   1.342
 9576SOL     OW38622   4.936   6.349   0.967
 9576SOL    HW238623   4.949   6.443   0.977
 9576SOL    HW338624   4.897   6.339   0.881
 9576SOL    MW438625   4.932   6.360   0.957
 9577SOL     OW38626   4.388   6.544   0.771
 9577SOL    HW238627   4.299   6.535   0.804
 9577SOL    HW338628   4.392   6.634   0.739
 9577SOL    MW438629   4.377   6.555   0.771
 9578SOL     OW38630   5.187   6.127   0.766
 9578SOL    HW238631   5.132   6.048   0.765
 9578SOL    HW338632   5.169   6.168   0.850
 9578SOL    MW438633   5.177   6.122   0.775
 9579SOL     OW38634   4.158   5.814   1.583
 9579SOL    HW238635   4.079   5.832   1.635
 9579SOL    HW338636   4.153   5.876   1.510
 9579SOL    MW438637   4.148   5.824   1.580
 9580SOL     OW38638   4.806   6.331   0.723
 9580SOL    HW238639   4.743   6.263   0.747
 9580SOL    HW338640   4.826   6.312   0.631
 9580SOL    MW438641   4.800   6.318   0.715
 9581SOL     OW38642   4.062   7.226   0.425
 9581SOL    HW238643   4.023   7.273   0.351
 9581SOL    HW338644   3.996   7.161   0.450
 9581SOL    MW438645   4.049   7.224   0.419
 9582SOL     OW38646   4.554   6.635   0.449
 9582SOL    HW238647   4.556   6.609   0.356
 9582SOL    HW338648   4.612   6.572   0.492
 9582SOL    MW438649   4.562   6.624   0.443
 9583SOL     OW38650   5.107   7.195   1.221
 9583SOL    HW238651   5.032   7.241   1.259
 9583SOL    HW338652   5.089   7.102   1.238
 9583SOL    MW438653   5.096   7.189   1.229
 9584SOL     OW38654   5.111   7.403   0.651
 9584SOL    HW238655   5.054   7.356   0.590
 9584SOL    HW338656   5.197   7.364   0.638
 9584SOL    MW438657   5.114   7.394   0.641
 9585SOL     OW38658   5.064   5.879   0.782
 9585SOL    HW238659   5.092   5.811   0.843
 9585SOL    HW338660   4.978   5.850   0.752
 9585SOL    MW438661   5.057   5.866   0.786
 9586SOL     OW38662   3.869   6.813   0.716
 9586SOL    HW238663   3.933   6.845   0.779
 9586SOL    HW338664   3.918   6.749   0.664
 9586SOL    MW438665   3.884   6.809   0.717
 9587SOL     OW38666   4.369   6.889   1.698
 9587SOL    HW238667   4.417   6.972   1.685
 9587SOL    HW338668   4.426   6.837   1.754
 9587SOL    MW438669   4.383   6.893   1.704
 9588SOL     OW38670   3.945   7.131   1.838
 9588SOL    HW238671   4.001   7.055   1.853
 9588SOL    HW338672   3.894   7.109   1.760
 9588SOL    MW438673   3.945   7.118   1.829
 9589SOL     OW38674   5.044   5.983   0.117
 9589SOL    HW238675   5.017   6.049   0.053
 9589SOL    HW338676   5.114   6.026   0.167
 9589SOL    MW438677   5.049   5.996   0.114
 9590SOL     OW38678   4.712   5.688   0.054
 9590SOL    HW238679   4.768   5.680  -0.024
 9590SOL    HW338680   4.689   5.598   0.076
 9590SOL    MW438681   4.717   5.675   0.047
 9591SOL     OW38682   5.217   6.539   0.259
 9591SOL    HW238683   5.184   6.628   0.249
 9591SOL    HW338684   5.182   6.510   0.344
 9591SOL    MW438685   5.207   6.548   0.270
 9592SOL     OW38686   4.830   6.968   1.447
 9592SOL    HW238687   4.741   6.974   1.415
 9592SOL    HW338688   4.874   7.047   1.415
 9592SOL    MW438689   4.825   6.978   1.439
 9593SOL     OW38690   4.123   5.636   1.789
 9593SOL    HW238691   4.051   5.601   1.737
 9593SOL    HW338692   4.181   5.677   1.724
 9593SOL    MW438693   4.121   5.637   1.774
 9594SOL     OW38694   4.147   7.126   1.088
 9594SOL    HW238695   4.192   7.188   1.145
 9594SOL    HW338696   4.054   7.145   1.101
 9594SOL    MW438697   4.140   7.136   1.095
 9595SOL     OW38698   4.569   7.194   1.196
 9595SOL    HW238699   4.593   7.183   1.105
 9595SOL    HW338700   4.492   7.251   1.194
 9595SOL    MW438701   4.561   7.199   1.185
 9596SOL     OW38702   4.211   6.577   0.051
 9596SOL    HW238703   4.134   6.590   0.107
 9596SOL    HW338704   4.175   6.541  -0.030
 9596SOL    MW438705   4.197   6.573   0.048
 9597SOL     OW38706   4.864   6.550   0.294
 9597SOL    HW238707   4.774   6.571   0.269
 9597SOL    HW338708   4.891   6.623   0.350
 9597SOL    MW438709   4.856   6.562   0.297
 9598SOL     OW38710   4.364   6.899   0.986
 9598SOL    HW238711   4.357   6.878   1.080
 9598SOL    HW338712   4.282   6.867   0.949
 9598SOL    MW438713   4.352   6.893   0.993
 9599SOL     OW38714   5.228   5.909   1.388
 9599SOL    HW238715   5.175   5.911   1.468
 9599SOL    HW338716   5.213   5.822   1.351
 9599SOL    MW438717   5.220   5.899   1.393
 9600SOL     OW38718   5.564   5.833   1.261
 9600SOL    HW238719   5.545   5.900   1.196
 9600SOL    HW338720   5.621   5.771   1.216
 9600SOL    MW438721   5.568   5.834   1.247
 9601SOL     OW38722   3.810   6.991   1.649
 9601SOL    HW238723   3.854   6.924   1.595
 9601SOL    HW338724   3.725   6.953   1.669
 9601SOL    MW438725   3.805   6.977   1.645
 9602SOL     OW38726   4.493   5.666   0.701
 9602SOL    HW238727   4.422   5.727   0.683
 9602SOL    HW338728   4.544   5.663   0.620
 9602SOL    MW438729   4.489   5.672   0.688
 9603SOL     OW38730   4.251   6.906   0.450
 9603SOL    HW238731   4.244   6.938   0.540
 9603SOL    HW338732   4.161   6.890   0.422
 9603SOL    MW438733   4.239   6.908   0.457
 9604SOL     OW38734   4.846   7.299   1.359
 9604SOL    HW238735   4.766   7.284   1.309
 9604SOL    HW338736   4.853   7.394   1.366
 9604SOL    MW438737   4.837   7.310   1.353
 9605SOL     OW38738   4.960   7.264   0.849
 9605SOL    HW238739   5.007   7.337   0.808
 9605SOL    HW338740   4.881   7.303   0.885
 9605SOL    MW438741   4.955   7.279   0.848
 9606SOL     OW38742   5.368   7.359   1.124
 9606SOL    HW238743   5.411   7.329   1.204
 9606SOL    HW338744   5.287   7.307   1.121
 9606SOL    MW438745   5.363   7.348   1.134
 9607SOL     OW38746   4.453   6.323   1.831
 9607SOL    HW238747   4.523   6.265   1.803
 9607SOL    HW338748   4.396   6.268   1.886
 9607SOL    MW438749   4.455   6.310   1.835
 9608SOL     OW38750   5.240   6.535   1.464
 9608SOL    HW238751   5.245   6.588   1.544
 9608SOL    HW338752   5.202   6.452   1.492
 9608SOL    MW438753   5.236   6.530   1.479
 9609SOL     OW38754   4.880   5.670   1.710
 9609SOL    HW238755   4.875   5.577   1.691
 9609SOL    HW338756   4.963   5.681   1.756
 9609SOL    MW438757   4.888   5.659   1.714
 9610SOL     OW38758   4.254   6.190   0.164
 9610SOL    HW238759   4.220   6.246   0.234
 9610SOL    HW338760   4.325   6.140   0.204
 9610SOL    MW438761   4.260   6.191   0.178
 9611SOL     OW38762   5.350   6.941   0.986
 9611SOL    HW238763   5.385   6.923   0.899
 9611SOL    HW338764   5.255   6.942   0.973
 9611SOL    MW438765   5.342   6.938   0.973
 9612SOL     OW38766   4.779   6.589   1.355
 9612SOL    HW238767   4.822   6.624   1.433
 9612SOL    HW338768   4.762   6.666   1.301
 9612SOL    MW438769   4.782   6.604   1.358
 9613SOL     OW38770   5.310   6.076   0.228
 9613SOL    HW238771   5.302   6.147   0.165
 9613SOL    HW338772   5.328   6.120   0.311
 9613SOL    MW438773   5.311   6.090   0.230
 9614SOL     OW38774   4.170   5.731   0.657
 9614SOL    HW238775   4.220   5.774   0.588
 9614SOL    HW338776   4.085   5.775   0.657
 9614SOL    MW438777   4.167   5.744   0.648
 9615SOL     OW38778   3.929   6.793   1.517
 9615SOL    HW238779   3.957   6.746   1.595
 9615SOL    HW338780   3.850   6.748   1.488
 9615SOL    MW438781   3.922   6.782   1.523
 9616SOL     OW38782   4.437   6.120   1.484
 9616SOL    HW238783   4.409   6.208   1.508
 9616SOL    HW338784   4.406   6.064   1.555
 9616SOL    MW438785   4.429   6.123   1.496
 9617SOL     OW38786   4.979   6.338   0.203
 9617SOL    HW238787   5.026   6.356   0.122
 9617SOL    HW338788   4.945   6.422   0.231
 9617SOL    MW438789   4.981   6.352   0.196
 9618SOL     OW38790   4.092   6.516   0.697
 9618SOL    HW238791   4.150   6.572   0.645
 9618SOL    HW338792   4.136   6.431   0.699
 9618SOL    MW438793   4.105   6.513   0.690
 9619SOL     OW38794   5.232   5.868   0.534
 9619SOL    HW238795   5.154   5.818   0.559
 9619SOL    HW338796   5.203   5.959   0.534
 9619SOL    MW438797   5.218   5.872   0.537
 9620SOL     OW38798   4.818   5.830   0.693
 9620SOL    HW238799   4.838   5.905   0.637
 9620SOL    HW338800   4.798   5.869   0.778
 9620SOL    MW438801   4.819   5.846   0.697
 9621SOL     OW38802   4.714   7.080   0.025
 9621SOL    HW238803   4.741   7.158  -0.023
 9621SOL    HW338804   4.621   7.095   0.044
 9621SOL    MW438805   4.705   7.093   0.021
 9622SOL     OW38806   3.799   7.116   0.869
 9622SOL    HW238807   3.831   7.120   0.960
 9622SOL    HW338808   3.704   7.124   0.877
 9622SOL    MW438809   3.791   7.119   0.882
 9623SOL     OW38810   3.754   6.242   0.416
 9623SOL    HW238811   3.694   6.214   0.486
 9623SOL    HW338812   3.828   6.182   0.422
 9623SOL    MW438813   3.756   6.231   0.425
 9624SOL     OW38814   5.322   7.454   1.850
 9624SOL    HW238815   5.367   7.378   1.815
 9624SOL    HW338816   5.360   7.467   1.937
 9624SOL    MW438817   5.332   7.447   1.856
 9625SOL     OW38818   4.922   6.973   0.576
 9625SOL    HW238819   4.945   6.924   0.654
 9625SOL    HW338820   5.003   7.015   0.548
 9625SOL    MW438821   4.935   6.973   0.583
 9626SOL     OW38822   4.180   5.981   1.305
 9626SOL    HW238823   4.213   6.062   1.345
 9626SOL    HW338824   4.153   6.007   1.217
 9626SOL    MW438825   4.179   5.995   1.299
 9627SOL     OW38826   4.134   5.948   1.041
 9627SOL    HW238827   4.164   5.862   1.012
 9627SOL    HW338828   4.039   5.941   1.044
 9627SOL    MW438829   4.126   5.937   1.039
 9628SOL     OW38830   4.963   6.157   1.732
 9628SOL    HW238831   5.015   6.092   1.685
 9628SOL    HW338832   4.921   6.208   1.662
 9628SOL    MW438833   4.964   6.154   1.715
 9629SOL     OW38834   5.062   5.952   1.593
 9629SOL    HW238835   4.969   5.936   1.580
 9629SOL    HW338836   5.088   5.890   1.661
 9629SOL    MW438837   5.052   5.942   1.600
 9630SOL     OW38838   4.277   5.726   0.932
 9630SOL    HW238839   4.287   5.635   0.958
 9630SOL    HW338840   4.233   5.722   0.847
 9630SOL    MW438841   4.273   5.714   0.924
 9631SOL     OW38842   4.371   7.341   1.478
 9631SOL    HW238843   4.288   7.326   1.523
 9631SOL    HW338844   4.430   7.274   1.513
 9631SOL    MW438845   4.369   7.331   1.488
 9632SOL     OW38846   5.428   6.048   1.103
 9632SOL    HW238847   5.361   6.081   1.163
 9632SOL    HW338848   5.471   6.126   1.069
 9632SOL    MW438849   5.426   6.063   1.107
 9633SOL     OW38850   5.606   6.768   1.073
 9633SOL    HW238851   5.599   6.708   0.998
 9633SOL    HW338852   5.532   6.828   1.062
 9633SOL    MW438853   5.596   6.768   1.062
 9634SOL     OW38854   4.988   6.630   0.991
 9634SOL    HW238855   5.002   6.602   1.082
 9634SOL    HW338856   5.074   6.661   0.963
 9634SOL    MW438857   5.001   6.631   1.000
 9635SOL     OW38858   5.071   6.125   1.270
 9635SOL    HW238859   5.092   6.126   1.177
 9635SOL    HW338860   5.116   6.047   1.303
 9635SOL    MW438861   5.078   6.115   1.262
 9636SOL     OW38862   5.111   6.554   1.863
 9636SOL    HW238863   5.177   6.502   1.817
 9636SOL    HW338864   5.131   6.541   1.956
 9636SOL    MW438865   5.122   6.545   1.870
 9637SOL     OW38866   5.062   5.640   0.212
 9637SOL    HW238867   5.136   5.684   0.255
 9637SOL    HW338868   4.986   5.694   0.234
 9637SOL    MW438869   5.062   5.652   0.220
 9638SOL     OW38870   5.122   6.415   0.490
 9638SOL    HW238871   5.037   6.385   0.460
 9638SOL    HW338872   5.114   6.422   0.585
 9638SOL    MW438873   5.110   6.413   0.499
 9639SOL     OW38874   4.198   6.878   1.221
 9639SOL    HW238875   4.210   6.905   1.312
 9639SOL    HW338876   4.179   6.959   1.174
 9639SOL    MW438877   4.197   6.893   1.226
 9640SOL     OW38878   4.482   5.858   1.044
 9640SOL    HW238879   4.455   5.860   1.135
 9640SOL    HW338880   4.412   5.810   0.999
 9640SOL    MW438881   4.470   5.854   1.051
 9641SOL     OW38882   4.336   7.350   1.206
 9641SOL    HW238883   4.388   7.427   1.183
 9641SOL    HW338884   4.345   7.342   1.301
 9641SOL    MW438885   4.345   7.357   1.217
 9642SOL     OW38886   5.238   6.935   1.438
 9642SOL    HW238887   5.223   6.864   1.501
 9642SOL    HW338888   5.284   6.893   1.366
 9642SOL    MW438889   5.244   6.919   1.438
 9643SOL     OW38890   4.312   6.666   1.555
 9643SOL    HW238891   4.349   6.671   1.467
 9643SOL    HW338892   4.351   6.739   1.602
 9643SOL    MW438893   4.322   6.676   1.550
 9644SOL     OW38894   4.492   6.709   1.367
 9644SOL    HW238895   4.551   6.655   1.420
 9644SOL    HW338896   4.507   6.681   1.277
 9644SOL    MW438897   4.502   6.698   1.363
 9645SOL     OW38898   4.495   6.081   0.216
 9645SOL    HW238899   4.568   6.130   0.179
 9645SOL    HW338900   4.511   5.990   0.190
 9645SOL    MW438901   4.507   6.076   0.209
 9646SOL     OW38902   5.303   7.198   1.539
 9646SOL    HW238903   5.345   7.183   1.624
 9646SOL    HW338904   5.294   7.111   1.501
 9646SOL    MW438905   5.307   7.186   1.546
 9647SOL     OW38906   4.963   5.677   1.130
 9647SOL    HW238907   5.018   5.686   1.052
 9647SOL    HW338908   5.018   5.711   1.201
 9647SOL    MW438909   4.977   5.682   1.129
 9648SOL     OW38910   3.970   6.590   0.314
 9648SOL    HW238911   3.907   6.606   0.243
 9648SOL    HW338912   3.917   6.553   0.385
 9648SOL    MW438913   3.955   6.587   0.314
 9649SOL     OW38914   4.326   6.944   0.173
 9649SOL    HW238915   4.341   6.920   0.265
 9649SOL    HW338916   4.234   6.922   0.157
 9649SOL    MW438917   4.316   6.937   0.183
 9650SOL     OW38918   4.865   7.175   0.325
 9650SOL    HW238919   4.873   7.093   0.276
 9650SOL    HW338920   4.784   7.214   0.292
 9650SOL    MW438921   4.855   7.170   0.315
 9651SOL     OW38922   4.124   7.333   0.894
 9651SOL    HW238923   4.128   7.244   0.929
 9651SOL    HW338924   4.150   7.324   0.803
 9651SOL    MW438925   4.127   7.321   0.886
 9652SOL     OW38926   4.741   6.811   1.137
 9652SOL    HW238927   4.673   6.745   1.153
 9652SOL    HW338928   4.759   6.805   1.044
 9652SOL    MW438929   4.734   6.802   1.128
 9653SOL     OW38930   3.830   7.086   1.388
 9653SOL    HW238931   3.820   7.044   1.474
 9653SOL    HW338932   3.751   7.139   1.378
 9653SOL    MW438933   3.819   7.087   1.399
 9654SOL     OW38934   4.734   5.950   0.958
 9654SOL    HW238935   4.664   5.902   1.003
 9654SOL    HW338936   4.766   6.013   1.022
 9654SOL    MW438937   4.729   5.952   0.972
 9655SOL     OW38938   4.385   6.386   1.578
 9655SOL    HW238939   4.378   6.481   1.566
 9655SOL    HW338940   4.394   6.375   1.673
 9655SOL    MW438941   4.386   6.398   1.588
 9656SOL     OW38942   4.106   6.901   1.836
 9656SOL    HW238943   4.178   6.903   1.773
 9656SOL    HW338944   4.076   6.810   1.835
 9656SOL    MW438945   4.111   6.890   1.828
 9657SOL     OW38946   5.190   5.664   1.303
 9657SOL    HW238947   5.261   5.610   1.267
 9657SOL    HW338948   5.189   5.643   1.396
 9657SOL    MW438949   5.199   5.655   1.311
 9658SOL     OW38950   5.390   7.194   1.787
 9658SOL    HW238951   5.363   7.191   1.878
 9658SOL    HW338952   5.486   7.198   1.790
 9658SOL    MW438953   5.400   7.194   1.799
 9659SOL     OW38954   4.201   6.056   0.771
 9659SOL    HW238955   4.272   6.004   0.734
 9659SOL    HW338956   4.187   6.021   0.858
 9659SOL    MW438957   4.209   6.045   0.778
 9660SOL     OW38958   3.756   7.391   1.843
 9660SOL    HW238959   3.806   7.369   1.765
 9660SOL    HW338960   3.764   7.486   1.851
 9660SOL    MW438961   3.764   7.400   1.834
 9661SOL     OW38962   4.517   7.149   0.847
 9661SOL    HW238963   4.445   7.086   0.860
 9661SOL    HW338964   4.478   7.234   0.865
 9661SOL    MW438965   4.501   7.152   0.850
 9662SOL     OW38966   4.837   5.997   0.495
 9662SOL    HW238967   4.859   5.934   0.427
 9662SOL    HW338968   4.742   5.989   0.506
 9662SOL    MW438969   4.827   5.988   0.487
 9663SOL     OW38970   3.922   5.687   0.427
 9663SOL    HW238971   3.993   5.708   0.366
 9663SOL    HW338972   3.876   5.615   0.385
 9663SOL    MW438973   3.926   5.681   0.413
 9664SOL     OW38974   3.753   6.154   1.570
 9664SOL    HW238975   3.817   6.220   1.545
 9664SOL    HW338976   3.672   6.181   1.527
 9664SOL    MW438977   3.751   6.166   1.562
 9665SOL     OW38978   5.491   7.061   0.527
 9665SOL    HW238979   5.461   6.994   0.588
 9665SOL    HW338980   5.585   7.067   0.541
 9665SOL    MW438981   5.499   7.053   0.537
 9666SOL     OW38982   5.047   6.738   0.457
 9666SOL    HW238983   5.019   6.824   0.490
 9666SOL    HW338984   5.075   6.754   0.367
 9666SOL    MW438985   5.047   6.752   0.449
 9667SOL     OW38986   4.709   5.658   0.510
 9667SOL    HW238987   4.746   5.717   0.575
 9667SOL    HW338988   4.686   5.714   0.436
 9667SOL    MW438989   4.710   5.673   0.509
 9668SOL     OW38990   5.562   6.540   0.932
 9668SOL    HW238991   5.553   6.572   0.843
 9668SOL    HW338992   5.515   6.456   0.932
 9668SOL    MW438993   5.555   6.533   0.922
 9669SOL     OW38994   3.938   6.380   1.511
 9669SOL    HW238995   3.959   6.449   1.449
 9669SOL    HW338996   4.018   6.327   1.516
 9669SOL    MW438997   3.951   6.381   1.505
 9670SOL     OW38998   5.474   6.471   0.633
 9670SOL    HW238999   5.568   6.460   0.621
 9670SOL    HW339000   5.450   6.543   0.574
 9670SOL    MW439001   5.484   6.479   0.624
 9671SOL     OW39002   3.923   6.395   1.778
 9671SOL    HW239003   3.849   6.339   1.804
 9671SOL    HW339004   3.918   6.398   1.683
 9671SOL    MW439005   3.912   6.388   1.768
 9672SOL     OW39006   4.089   5.682   1.228
 9672SOL    HW239007   4.132   5.766   1.248
 9672SOL    HW339008   4.162   5.620   1.221
 9672SOL    MW439009   4.104   5.685   1.229
 9673SOL     OW39010   4.130   6.349   0.406
 9673SOL    HW239011   4.130   6.444   0.391
 9673SOL    HW339012   4.207   6.333   0.460
 9673SOL    MW439013   4.140   6.360   0.411
 9674SOL     OW39014   4.906   6.208   1.470
 9674SOL    HW239015   4.942   6.181   1.386
 9674SOL    HW339016   4.819   6.242   1.449
 9674SOL    MW439017   4.900   6.209   1.457
 9675SOL     OW39018   3.889   6.080   0.695
 9675SOL    HW239019   3.951   6.087   0.768
 9675SOL    HW339020   3.889   5.987   0.672
 9675SOL    MW439021   3.897   6.069   0.702
 9676SOL     OW39022   5.436   7.420   0.227
 9676SOL    HW239023   5.503   7.453   0.167
 9676SOL    HW339024   5.393   7.499   0.261
 9676SOL    MW439025   5.438   7.435   0.223
 9677SOL     OW39026   4.571   6.341   1.179
 9677SOL    HW239027   4.529   6.259   1.155
 9677SOL    HW339028   4.572   6.340   1.275
 9677SOL    MW439029   4.564   6.330   1.188
 9678SOL     OW39030   5.242   7.474   1.578
 9678SOL    HW239031   5.245   7.380   1.561
 9678SOL    HW339032   5.265   7.482   1.670
 9678SOL    MW439033   5.245   7.462   1.588
 9679SOL     OW39034   4.375   5.811   1.284
 9679SOL    HW239035   4.306   5.874   1.305
 9679SOL    HW339036   4.402   5.775   1.369
 9679SOL    MW439037   4.369   5.814   1.297
 9680SOL     OW39038   3.758   6.652   0.153
 9680SOL    HW239039   3.727   6.717   0.216
 9680SOL    HW339040   3.707   6.574   0.172
 9680SOL    MW439041   3.748   6.649   0.163
 9681SOL     OW39042   5.170   5.664   0.901
 9681SOL    HW239043   5.258   5.673   0.938
 9681SOL    HW339044   5.180   5.605   0.827
 9681SOL    MW439045   5.184   5.658   0.895
 9682SOL     OW39046   5.202   6.403   0.745
 9682SOL    HW239047   5.282   6.418   0.694
 9682SOL    HW339048   5.195   6.308   0.751
 9682SOL    MW439049   5.211   6.392   0.740
 9683SOL     OW39050   4.342   7.452   0.095
 9683SOL    HW239051   4.247   7.452   0.087
 9683SOL    HW339052   4.358   7.398   0.173
 9683SOL    MW439053   4.332   7.446   0.104
 9684SOL     OW39054   4.652   6.329   1.442
 9684SOL    HW239055   4.721   6.396   1.439
 9684SOL    HW339056   4.585   6.367   1.498
 9684SOL    MW439057   4.653   6.342   1.449
 9685SOL     OW39058   4.070   6.629   1.690
 9685SOL    HW239059   4.024   6.545   1.692
 9685SOL    HW339060   4.127   6.623   1.614
 9685SOL    MW439061   4.072   6.617   1.682
 9686SOL     OW39062   5.187   6.272   0.011
 9686SOL    HW239063   5.115   6.248  -0.047
 9686SOL    HW339064   5.253   6.309  -0.047
 9686SOL    MW439065   5.186   6.274  -0.004
 9687SOL     OW39066   4.321   7.004   0.691
 9687SOL    HW239067   4.386   6.937   0.712
 9687SOL    HW339068   4.373   7.081   0.668
 9687SOL    MW439069   4.336   7.006   0.690
 9688SOL     OW39070   4.582   6.169   0.821
 9688SOL    HW239071   4.522   6.187   0.893
 9688SOL    HW339072   4.616   6.081   0.840
 9688SOL    MW439073   4.578   6.159   0.834
 9689SOL     OW39074   5.523   5.668   1.490
 9689SOL    HW239075   5.444   5.714   1.518
 9689SOL    HW339076   5.558   5.722   1.419
 9689SOL    MW439077   5.517   5.681   1.484
 9690SOL     OW39078   4.807   6.752   0.840
 9690SOL    HW239079   4.899   6.733   0.858
 9690SOL    HW339080   4.780   6.682   0.780
 9690SOL    MW439081   4.815   6.740   0.834
 9691SOL     OW39082   4.600   6.572   0.195
 9691SOL    HW239083   4.586   6.484   0.160
 9691SOL    HW339084   4.551   6.629   0.136
 9691SOL    MW439085   4.592   6.567   0.183
 9692SOL     OW39086   5.081   6.990   0.936
 9692SOL    HW239087   5.054   7.074   0.901
 9692SOL    HW339088   5.041   6.985   1.023
 9692SOL    MW439089   5.074   6.999   0.942
 9693SOL     OW39090   5.000   6.938   1.204
 9693SOL    HW239091   5.011   6.905   1.293
 9693SOL    HW339092   4.919   6.897   1.173
 9693SOL    MW439093   4.990   6.930   1.210
 9694SOL     OW39094   4.013   6.296   0.974
 9694SOL    HW239095   3.963   6.295   1.055
 9694SOL    HW339096   4.033   6.388   0.958
 9694SOL    MW439097   4.009   6.308   0.982
 9695SOL     OW39098   5.080   7.060   1.736
 9695SOL    HW239099   5.080   7.154   1.752
 9695SOL    HW339100   5.125   7.050   1.652
 9695SOL    MW439101   5.086   7.070   1.727
 9696SOL     OW39102   5.319   5.778   0.297
 9696SOL    HW239103   5.312   5.782   0.392
 9696SOL    HW339104   5.331   5.869   0.270
 9696SOL    MW439105   5.320   5.791   0.305
 9697SOL     OW39106   4.608   6.341   0.411
 9697SOL    HW239107   4.588   6.327   0.318
 9697SOL    HW339108   4.701   6.320   0.418
 9697SOL    MW439109   4.618   6.336   0.400
 9698SOL     OW39110   3.935   5.964   1.715
 9698SOL    HW239111   3.892   6.023   1.652
 9698SOL    HW339112   4.003   6.019   1.755
 9698SOL    MW439113   3.939   5.979   1.712
 9699SOL     OW39114   5.047   6.584   1.260
 9699SOL    HW239115   5.110   6.581   1.333
 9699SOL    HW339116   4.963   6.602   1.302
 9699SOL    MW439117   5.043   6.586   1.275
 9700SOL     OW39118   4.591   7.299   0.449
 9700SOL    HW239119   4.649   7.370   0.476
 9700SOL    HW339120   4.614   7.227   0.507
 9700SOL    MW439121   4.602   7.299   0.460
 9701SOL     OW39122   5.386   5.761   1.039
 9701SOL    HW239123   5.431   5.679   1.058
 9701SOL    HW339124   5.406   5.817   1.115
 9701SOL    MW439125   5.396   5.757   1.051
 9702SOL     OW39126   3.834   5.604   1.138
 9702SOL    HW239127   3.825   5.605   1.043
 9702SOL    HW339128   3.928   5.616   1.153
 9702SOL    MW439129   3.846   5.607   1.129
 9703SOL     OW39130   5.471   6.797   0.758
 9703SOL    HW239131   5.450   6.743   0.681
 9703SOL    HW339132   5.567   6.795   0.762
 9703SOL    MW439133   5.480   6.790   0.747
 9704SOL     OW39134   4.163   6.942   1.501
 9704SOL    HW239135   4.084   6.892   1.524
 9704SOL    HW339136   4.233   6.901   1.551
 9704SOL    MW439137   4.161   6.930   1.511
 9705SOL     OW39138   4.047   5.731   0.184
 9705SOL    HW239139   3.976   5.786   0.152
 9705SOL    HW339140   4.089   5.697   0.105
 9705SOL    MW439141   4.043   5.733   0.170
 9706SOL     OW39142   5.171   6.228   1.020
 9706SOL    HW239143   5.094   6.274   0.986
 9706SOL    HW339144   5.228   6.297   1.054
 9706SOL    MW439145   5.168   6.243   1.020
 9707SOL     OW39146   3.803   5.830   0.033
 9707SOL    HW239147   3.770   5.909   0.077
 9707SOL    HW339148   3.858   5.863  -0.038
 9707SOL    MW439149   3.806   5.844   0.030
 9708SOL     OW39150   3.837   7.087   0.222
 9708SOL    HW239151   3.854   7.171   0.264
 9708SOL    HW339152   3.872   7.096   0.134
 9708SOL    MW439153   3.842   7.100   0.216
 9709SOL     OW39154   5.109   7.176   0.439
 9709SOL    HW239155   5.172   7.166   0.368
 9709SOL    HW339156   5.026   7.196   0.394
 9709SOL    MW439157   5.106   7.177   0.424
 9710SOL     OW39158   4.266   6.627   2.354
 9710SOL    HW239159   4.356   6.602   2.338
 9710SOL    HW339160   4.262   6.720   2.331
 9710SOL    MW439161   4.278   6.636   2.349
 9711SOL     OW39162   5.382   7.330   2.496
 9711SOL    HW239163   5.394   7.276   2.574
 9711SOL    HW339164   5.419   7.278   2.425
 9711SOL    MW439165   5.388   7.315   2.497
 9712SOL     OW39166   4.761   7.215   3.497
 9712SOL    HW239167   4.802   7.251   3.418
 9712SOL    HW339168   4.796   7.126   3.504
 9712SOL    MW439169   4.772   7.208   3.488
 9713SOL     OW39170   5.318   6.770   3.101
 9713SOL    HW239171   5.239   6.735   3.059
 9713SOL    HW339172   5.345   6.842   3.045
 9713SOL    MW439173   5.311   6.775   3.088
 9714SOL     OW39174   4.550   6.083   2.367
 9714SOL    HW239175   4.525   6.171   2.395
 9714SOL    HW339176   4.547   6.086   2.271
 9714SOL    MW439177   4.546   6.095   2.359
 9715SOL     OW39178   3.992   6.111   2.295
 9715SOL    HW239179   4.024   6.199   2.277
 9715SOL    HW339180   3.980   6.109   2.390
 9715SOL    MW439181   3.995   6.123   2.307
 9716SOL     OW39182   4.070   6.524   3.196
 9716SOL    HW239183   4.133   6.471   3.147
 9716SOL    HW339184   4.051   6.598   3.139
 9716SOL    MW439185   4.076   6.526   3.183
 9717SOL     OW39186   4.391   5.866   2.382
 9717SOL    HW239187   4.449   5.942   2.384
 9717SOL    HW339188   4.326   5.887   2.315
 9717SOL    MW439189   4.390   5.878   2.373
 9718SOL     OW39190   4.478   6.793   2.557
 9718SOL    HW239191   4.558   6.796   2.609
 9718SOL    HW339192   4.506   6.760   2.471
 9718SOL    MW439193   4.492   6.789   2.552
 9719SOL     OW39194   4.503   7.134   3.460
 9719SOL    HW239195   4.587   7.160   3.499
 9719SOL    HW339196   4.527   7.078   3.386
 9719SOL    MW439197   4.517   7.130   3.455
 9720SOL     OW39198   4.255   6.297   2.548
 9720SOL    HW239199   4.240   6.217   2.599
 9720SOL    HW339200   4.337   6.332   2.582
 9720SOL    MW439201   4.263   6.289   2.560
 9721SOL     OW39202   4.592   6.983   3.233
 9721SOL    HW239203   4.556   7.049   3.173
 9721SOL    HW339204   4.520   6.921   3.246
 9721SOL    MW439205   4.578   6.983   3.227
 9722SOL     OW39206   4.397   6.123   2.925
 9722SOL    HW239207   4.303   6.119   2.943
 9722SOL    HW339208   4.427   6.032   2.934
 9722SOL    MW439209   4.388   6.111   2.928
 9723SOL     OW39210   4.143   6.537   2.829
 9723SOL    HW239211   4.098   6.544   2.745
 9723SOL    HW339212   4.123   6.620   2.873
 9723SOL    MW439213   4.135   6.549   2.823
 9724SOL     OW39214   3.840   7.383   2.704
 9724SOL    HW239215   3.929   7.375   2.739
 9724SOL    HW339216   3.804   7.295   2.709
 9724SOL    MW439217   3.847   7.370   2.709
 9725SOL     OW39218   5.105   6.775   2.073
 9725SOL    HW239219   5.023   6.811   2.039
 9725SOL    HW339220   5.173   6.818   2.022
 9725SOL    MW439221   5.103   6.785   2.061
 9726SOL     OW39222   4.104   6.910   2.739
 9726SOL    HW239223   4.080   6.963   2.815
 9726SOL    HW339224   4.160   6.968   2.687
 9726SOL    MW439225   4.108   6.925   2.742
 9727SOL     OW39226   4.666   6.554   2.549
 9727SOL    HW239227   4.580   6.541   2.589
 9727SOL    HW339228   4.719   6.481   2.581
 9727SOL    MW439229   4.662   6.543   2.558
 9728SOL     OW39230   4.074   7.206   3.334
 9728SOL    HW239231   3.982   7.182   3.319
 9728SOL    HW339232   4.118   7.123   3.351
 9728SOL    MW439233   4.068   7.191   3.333
 9729SOL     OW39234   4.657   6.916   2.266
 9729SOL    HW239235   4.634   6.978   2.334
 9729SOL    HW339236   4.614   6.834   2.292
 9729SOL    MW439237   4.649   6.912   2.277
 9730SOL     OW39238   5.530   5.917   2.722
 9730SOL    HW239239   5.467   5.897   2.791
 9730SOL    HW339240   5.520   5.846   2.659
 9730SOL    MW439241   5.520   5.904   2.723
 9731SOL     OW39242   4.154   5.889   2.234
 9731SOL    HW239243   4.128   5.851   2.150
 9731SOL    HW339244   4.091   5.959   2.250
 9731SOL    MW439245   4.143   5.892   2.225
 9732SOL     OW39246   3.989   6.850   2.271
 9732SOL    HW239247   3.937   6.918   2.227
 9732SOL    HW339248   3.986   6.776   2.211
 9732SOL    MW439249   3.981   6.849   2.258
 9733SOL     OW39250   4.651   7.313   2.049
 9733SOL    HW239251   4.606   7.329   2.132
 9733SOL    HW339252   4.582   7.278   1.991
 9733SOL    MW439253   4.637   7.310   2.051
 9734SOL     OW39254   5.331   6.689   2.374
 9734SOL    HW239255   5.241   6.689   2.409
 9734SOL    HW339256   5.324   6.735   2.291
 9734SOL    MW439257   5.318   6.695   2.368
 9735SOL     OW39258   3.872   7.204   2.998
 9735SOL    HW239259   3.855   7.150   3.075
 9735SOL    HW339260   3.860   7.294   3.028
 9735SOL    MW439261   3.869   7.208   3.012
 9736SOL     OW39262   4.663   6.135   3.639
 9736SOL    HW239263   4.753   6.136   3.606
 9736SOL    HW339264   4.622   6.060   3.597
 9736SOL    MW439265   4.669   6.125   3.630
 9737SOL     OW39266   5.238   6.667   2.766
 9737SOL    HW239267   5.241   6.601   2.697
 9737SOL    HW339268   5.323   6.710   2.762
 9737SOL    MW439269   5.250   6.663   2.757
 9738SOL     OW39270   4.858   6.270   2.335
 9738SOL    HW239271   4.884   6.294   2.246
 9738SOL    HW339272   4.840   6.177   2.331
 9738SOL    MW439273   4.860   6.262   2.322
 9739SOL     OW39274   5.523   6.890   2.186
 9739SOL    HW239275   5.479   6.931   2.261
 9739SOL    HW339276   5.580   6.958   2.151
 9739SOL    MW439277   5.525   6.904   2.191
 9740SOL     OW39278   4.443   5.939   3.589
 9740SOL    HW239279   4.453   5.865   3.529
 9740SOL    HW339280   4.479   5.908   3.672
 9740SOL    MW439281   4.449   5.925   3.591
 9741SOL     OW39282   4.179   7.306   2.504
 9741SOL    HW239283   4.211   7.394   2.482
 9741SOL    HW339284   4.132   7.278   2.426
 9741SOL    MW439285   4.178   7.314   2.491
 9742SOL     OW39286   5.563   5.668   2.553
 9742SOL    HW239287   5.617   5.619   2.615
 9742SOL    HW339288   5.506   5.602   2.514
 9742SOL    MW439289   5.563   5.652   2.555
 9743SOL     OW39290   3.895   7.366   2.081
 9743SOL    HW239291   3.924   7.456   2.073
 9743SOL    HW339292   3.845   7.349   2.002
 9743SOL    MW439293   3.893   7.374   2.070
 9744SOL     OW39294   4.682   5.621   2.966
 9744SOL    HW239295   4.641   5.699   2.928
 9744SOL    HW339296   4.776   5.639   2.961
 9744SOL    MW439297   4.688   5.633   2.961
 9745SOL     OW39298   5.299   7.174   2.052
 9745SOL    HW239299   5.347   7.243   2.098
 9745SOL    HW339300   5.220   7.218   2.021
 9745SOL    MW439301   5.294   7.188   2.055
 9746SOL     OW39302   4.697   6.299   1.996
 9746SOL    HW239303   4.699   6.246   1.917
 9746SOL    HW339304   4.785   6.336   2.002
 9746SOL    MW439305   4.709   6.298   1.985
 9747SOL     OW39306   4.628   6.592   3.461
 9747SOL    HW239307   4.605   6.572   3.551
 9747SOL    HW339308   4.713   6.636   3.466
 9747SOL    MW439309   4.635   6.595   3.473
 9748SOL     OW39310   4.708   5.729   3.221
 9748SOL    HW239311   4.714   5.691   3.134
 9748SOL    HW339312   4.697   5.823   3.206
 9748SOL    MW439313   4.709   5.737   3.209
 9749SOL     OW39314   5.347   6.186   3.332
 9749SOL    HW239315   5.328   6.095   3.311
 9749SOL    HW339316   5.325   6.235   3.253
 9749SOL    MW439317   5.342   6.179   3.319
 9750SOL     OW39318   5.489   7.280   3.236
 9750SOL    HW239319   5.417   7.242   3.287
 9750SOL    HW339320   5.506   7.365   3.277
 9750SOL    MW439321   5.483   7.285   3.248
 9751SOL     OW39322   4.794   5.924   3.438
 9751SOL    HW239323   4.760   5.963   3.357
 9751SOL    HW339324   4.772   5.832   3.431
 9751SOL    MW439325   4.787   5.917   3.428
 9752SOL     OW39326   3.924   5.825   2.527
 9752SOL    HW239327   3.915   5.765   2.453
 9752SOL    HW339328   3.857   5.796   2.590
 9752SOL    MW439329   3.914   5.812   2.525
 9753SOL     OW39330   4.867   6.918   2.088
 9753SOL    HW239331   4.817   6.920   2.170
 9753SOL    HW339332   4.801   6.936   2.020
 9753SOL    MW439333   4.853   6.920   2.090
 9754SOL     OW39334   3.871   5.998   2.890
 9754SOL    HW239335   3.843   6.089   2.899
 9754SOL    HW339336   3.808   5.959   2.829
 9754SOL    MW439337   3.858   6.004   2.884
 9755SOL     OW39338   4.330   7.336   2.196
 9755SOL    HW239339   4.251   7.294   2.229
 9755SOL    HW339340   4.396   7.319   2.263
 9755SOL    MW439341   4.329   7.328   2.209
 9756SOL     OW39342   5.458   6.856   3.593
 9756SOL    HW239343   5.508   6.782   3.625
 9756SOL    HW339344   5.404   6.883   3.668
 9756SOL    MW439345   5.458   6.850   3.606
 9757SOL     OW39346   4.466   6.751   1.903
 9757SOL    HW239347   4.388   6.697   1.890
 9757SOL    HW339348   4.437   6.824   1.956
 9757SOL    MW439349   4.452   6.753   1.908
 9758SOL     OW39350   5.384   7.200   2.764
 9758SOL    HW239351   5.413   7.267   2.825
 9758SOL    HW339352   5.365   7.124   2.819
 9758SOL    MW439353   5.386   7.200   2.779
 9759SOL     OW39354   5.047   7.267   1.971
 9759SOL    HW239355   4.973   7.230   2.021
 9759SOL    HW339356   5.055   7.357   2.004
 9759SOL    MW439357   5.038   7.274   1.983
 9760SOL     OW39358   3.855   6.273   3.060
 9760SOL    HW239359   3.917   6.303   3.126
 9760SOL    HW339360   3.789   6.342   3.054
 9760SOL    MW439361   3.854   6.286   3.067
 9761SOL     OW39362   5.271   6.941   1.913
 9761SOL    HW239363   5.218   6.990   1.849
 9761SOL    HW339364   5.302   7.007   1.974
 9761SOL    MW439365   5.269   6.955   1.911
 9762SOL     OW39366   4.496   5.830   1.968
 9762SOL    HW239367   4.444   5.750   1.956
 9762SOL    HW339368   4.583   5.807   1.936
 9762SOL    MW439369   4.499   5.816   1.962
 9763SOL     OW39370   3.950   7.382   3.512
 9763SOL    HW239371   3.924   7.450   3.450
 9763SOL    HW339372   3.998   7.319   3.460
 9763SOL    MW439373   3.952   7.382   3.498
 9764SOL     OW39374   4.002   6.701   3.019
 9764SOL    HW239375   4.055   6.776   3.044
 9764SOL    HW339376   3.921   6.739   2.985
 9764SOL    MW439377   3.998   6.716   3.019
 9765SOL     OW39378   4.542   6.605   3.007
 9765SOL    HW239379   4.570   6.514   3.019
 9765SOL    HW339380   4.471   6.599   2.943
 9765SOL    MW439381   4.535   6.593   3.002
 9766SOL     OW39382   3.857   6.470   2.425
 9766SOL    HW239383   3.948   6.485   2.452
 9766SOL    HW339384   3.860   6.391   2.371
 9766SOL    MW439385   3.869   6.462   2.423
 9767SOL     OW39386   4.093   6.178   3.679
 9767SOL    HW239387   4.040   6.258   3.686
 9767SOL    HW339388   4.163   6.190   3.744
 9767SOL    MW439389   4.095   6.191   3.687
 9768SOL     OW39390   4.479   5.728   3.386
 9768SOL    HW239391   4.456   5.636   3.388
 9768SOL    HW339392   4.565   5.730   3.343
 9768SOL    MW439393   4.486   5.718   3.382
 9769SOL     OW39394   4.163   6.252   3.425
 9769SOL    HW239395   4.243   6.302   3.411
 9769SOL    HW339396   4.154   6.246   3.520
 9769SOL    MW439397   4.172   6.258   3.435
 9770SOL     OW39398   4.484   7.402   2.799
 9770SOL    HW239399   4.573   7.417   2.829
 9770SOL    HW339400   4.479   7.449   2.715
 9770SOL    MW439401   4.494   7.410   2.792
 9771SOL     OW39402   3.865   7.082   2.464
 9771SOL    HW239403   3.837   7.121   2.546
 9771SOL    HW339404   3.885   6.991   2.486
 9771SOL    MW439405   3.863   7.074   2.477
 9772SOL     OW39406   4.698   7.125   2.499
 9772SOL    HW239407   4.781   7.079   2.483
 9772SOL    HW339408   4.688   7.124   2.595
 9772SOL    MW439409   4.708   7.118   2.509
 9773SOL     OW39410   5.381   6.449   3.693
 9773SOL    HW239411   5.436   6.373   3.674
 9773SOL    HW339412   5.383   6.457   3.788
 9773SOL    MW439413   5.389   6.440   3.701
 9774SOL     OW39414   4.431   7.182   1.904
 9774SOL    HW239415   4.371   7.251   1.874
 9774SOL    HW339416   4.376   7.124   1.957
 9774SOL    MW439417   4.415   7.184   1.906
 9775SOL     OW39418   4.869   5.827   2.127
 9775SOL    HW239419   4.802   5.803   2.064
 9775SOL    HW339420   4.934   5.876   2.076
 9775SOL    MW439421   4.869   5.829   2.112
 9776SOL     OW39422   4.676   6.011   3.212
 9776SOL    HW239423   4.595   6.052   3.240
 9776SOL    HW339424   4.723   6.079   3.164
 9776SOL    MW439425   4.671   6.026   3.210
 9777SOL     OW39426   4.936   6.349   2.835
 9777SOL    HW239427   4.949   6.443   2.845
 9777SOL    HW339428   4.897   6.339   2.749
 9777SOL    MW439429   4.932   6.360   2.825
 9778SOL     OW39430   4.388   6.544   2.639
 9778SOL    HW239431   4.299   6.535   2.672
 9778SOL    HW339432   4.392   6.634   2.607
 9778SOL    MW439433   4.377   6.555   2.639
 9779SOL     OW39434   5.187   6.127   2.634
 9779SOL    HW239435   5.132   6.048   2.633
 9779SOL    HW339436   5.169   6.168   2.718
 9779SOL    MW439437   5.177   6.122   2.643
 9780SOL     OW39438   4.158   5.814   3.451
 9780SOL    HW239439   4.079   5.832   3.503
 9780SOL    HW339440   4.153   5.876   3.378
 9780SOL    MW439441   4.148   5.824   3.448
 9781SOL     OW39442   4.806   6.331   2.591
 9781SOL    HW239443   4.743   6.263   2.615
 9781SOL    HW339444   4.826   6.312   2.499
 9781SOL    MW439445   4.800   6.318   2.583
 9782SOL     OW39446   4.062   7.226   2.293
 9782SOL    HW239447   4.023   7.273   2.219
 9782SOL    HW339448   3.996   7.161   2.318
 9782SOL    MW439449   4.049   7.224   2.287
 9783SOL     OW39450   4.554   6.635   2.317
 9783SOL    HW239451   4.556   6.609   2.224
 9783SOL    HW339452   4.612   6.572   2.360
 9783SOL    MW439453   4.562   6.624   2.311
 9784SOL     OW39454   5.107   7.195   3.089
 9784SOL    HW239455   5.032   7.241   3.127
 9784SOL    HW339456   5.089   7.102   3.106
 9784SOL    MW439457   5.096   7.189   3.097
 9785SOL     OW39458   5.111   7.403   2.519
 9785SOL    HW239459   5.054   7.356   2.458
 9785SOL    HW339460   5.197   7.364   2.506
 9785SOL    MW439461   5.114   7.394   2.509
 9786SOL     OW39462   5.064   5.879   2.650
 9786SOL    HW239463   5.092   5.811   2.711
 9786SOL    HW339464   4.978   5.850   2.620
 9786SOL    MW439465   5.057   5.866   2.654
 9787SOL     OW39466   3.869   6.813   2.584
 9787SOL    HW239467   3.933   6.845   2.647
 9787SOL    HW339468   3.918   6.749   2.532
 9787SOL    MW439469   3.884   6.809   2.585
 9788SOL     OW39470   4.369   6.889   3.566
 9788SOL    HW239471   4.417   6.972   3.553
 9788SOL    HW339472   4.426   6.837   3.622
 9788SOL    MW439473   4.383   6.893   3.572
 9789SOL     OW39474   3.945   7.131   3.706
 9789SOL    HW239475   4.001   7.055   3.721
 9789SOL    HW339476   3.894   7.109   3.628
 9789SOL    MW439477   3.945   7.118   3.697
 9790SOL     OW39478   5.044   5.983   1.985
 9790SOL    HW239479   5.017   6.049   1.921
 9790SOL    HW339480   5.114   6.026   2.035
 9790SOL    MW439481   5.049   5.996   1.982
 9791SOL     OW39482   4.712   5.688   1.922
 9791SOL    HW239483   4.768   5.680   1.844
 9791SOL    HW339484   4.689   5.598   1.944
 9791SOL    MW439485   4.717   5.675   1.915
 9792SOL     OW39486   5.217   6.539   2.127
 9792SOL    HW239487   5.184   6.628   2.117
 9792SOL    HW339488   5.182   6.510   2.212
 9792SOL    MW439489   5.207   6.548   2.138
 9793SOL     OW39490   4.830   6.968   3.315
 9793SOL    HW239491   4.741   6.974   3.283
 9793SOL    HW339492   4.874   7.047   3.283
 9793SOL    MW439493   4.825   6.978   3.307
 9794SOL     OW39494   4.123   5.636   3.657
 9794SOL    HW239495   4.051   5.601   3.605
 9794SOL    HW339496   4.181   5.677   3.592
 9794SOL    MW439497   4.121   5.637   3.642
 9795SOL     OW39498   4.147   7.126   2.956
 9795SOL    HW239499   4.192   7.188   3.013
 9795SOL    HW339500   4.054   7.145   2.969
 9795SOL    MW439501   4.140   7.136   2.963
 9796SOL     OW39502   4.569   7.194   3.064
 9796SOL    HW239503   4.593   7.183   2.973
 9796SOL    HW339504   4.492   7.251   3.062
 9796SOL    MW439505   4.561   7.199   3.053
 9797SOL     OW39506   4.211   6.577   1.919
 9797SOL    HW239507   4.134   6.590   1.975
 9797SOL    HW339508   4.175   6.541   1.838
 9797SOL    MW439509   4.197   6.573   1.916
 9798SOL     OW39510   4.864   6.550   2.162
 9798SOL    HW239511   4.774   6.571   2.137
 9798SOL    HW339512   4.891   6.623   2.218
 9798SOL    MW439513   4.856   6.562   2.165
 9799SOL     OW39514   4.364   6.899   2.854
 9799SOL    HW239515   4.357   6.878   2.948
 9799SOL    HW339516   4.282   6.867   2.817
 9799SOL    MW439517   4.352   6.893   2.861
 9800SOL     OW39518   3.810   6.991   3.517
 9800SOL    HW239519   3.854   6.924   3.463
 9800SOL    HW339520   3.725   6.953   3.537
 9800SOL    MW439521   3.805   6.977   3.513
 9801SOL     OW39522   4.493   5.666   2.569
 9801SOL    HW239523   4.422   5.727   2.551
 9801SOL    HW339524   4.544   5.663   2.488
 9801SOL    MW439525   4.489   5.672   2.556
 9802SOL     OW39526   4.251   6.906   2.318
 9802SOL    HW239527   4.244   6.938   2.408
 9802SOL    HW339528   4.161   6.890   2.290
 9802SOL    MW439529   4.239   6.908   2.325
 9803SOL     OW39530   4.846   7.299   3.227
 9803SOL    HW239531   4.766   7.284   3.177
 9803SOL    HW339532   4.853   7.394   3.234
 9803SOL    MW439533   4.837   7.310   3.221
 9804SOL     OW39534   4.960   7.264   2.717
 9804SOL    HW239535   5.007   7.337   2.676
 9804SOL    HW339536   4.881   7.303   2.753
 9804SOL    MW439537   4.955   7.279   2.716
 9805SOL     OW39538   5.368   7.359   2.992
 9805SOL    HW239539   5.411   7.329   3.072
 9805SOL    HW339540   5.287   7.307   2.989
 9805SOL    MW439541   5.363   7.348   3.002
 9806SOL     OW39542   4.453   6.323   3.699
 9806SOL    HW239543   4.523   6.265   3.671
 9806SOL    HW339544   4.396   6.268   3.754
 9806SOL    MW439545   4.455   6.310   3.703
 9807SOL     OW39546   4.880   5.670   3.578
 9807SOL    HW239547   4.875   5.577   3.559
 9807SOL    HW339548   4.963   5.681   3.624
 9807SOL    MW439549   4.888   5.659   3.582
 9808SOL     OW39550   4.254   6.190   2.032
 9808SOL    HW239551   4.220   6.246   2.102
 9808SOL    HW339552   4.325   6.140   2.072
 9808SOL    MW439553   4.260   6.191   2.046
 9809SOL     OW39554   5.350   6.941   2.854
 9809SOL    HW239555   5.385   6.923   2.767
 9809SOL    HW339556   5.255   6.942   2.841
 9809SOL    MW439557   5.342   6.938   2.841
 9810SOL     OW39558   4.779   6.589   3.223
 9810SOL    HW239559   4.822   6.624   3.301
 9810SOL    HW339560   4.762   6.666   3.169
 9810SOL    MW439561   4.782   6.604   3.226
 9811SOL     OW39562   4.170   5.731   2.525
 9811SOL    HW239563   4.220   5.774   2.456
 9811SOL    HW339564   4.085   5.775   2.525
 9811SOL    MW439565   4.167   5.744   2.516
 9812SOL     OW39566   3.929   6.793   3.385
 9812SOL    HW239567   3.957   6.746   3.463
 9812SOL    HW339568   3.850   6.748   3.356
 9812SOL    MW439569   3.922   6.782   3.391
 9813SOL     OW39570   4.437   6.120   3.352
 9813SOL    HW239571   4.409   6.208   3.376
 9813SOL    HW339572   4.406   6.064   3.423
 9813SOL    MW439573   4.429   6.123   3.364
 9814SOL     OW39574   4.979   6.338   2.071
 9814SOL    HW239575   5.026   6.356   1.990
 9814SOL    HW339576   4.945   6.422   2.099
 9814SOL    MW439577   4.981   6.352   2.064
 9815SOL     OW39578   4.092   6.516   2.565
 9815SOL    HW239579   4.150   6.572   2.513
 9815SOL    HW339580   4.136   6.431   2.567
 9815SOL    MW439581   4.105   6.513   2.558
 9816SOL     OW39582   5.232   5.868   2.402
 9816SOL    HW239583   5.154   5.818   2.427
 9816SOL    HW339584   5.203   5.959   2.402
 9816SOL    MW439585   5.218   5.872   2.405
 9817SOL     OW39586   4.818   5.830   2.561
 9817SOL    HW239587   4.838   5.905   2.505
 9817SOL    HW339588   4.798   5.869   2.646
 9817SOL    MW439589   4.819   5.846   2.565
 9818SOL     OW39590   4.714   7.080   1.893
 9818SOL    HW239591   4.741   7.158   1.845
 9818SOL    HW339592   4.621   7.095   1.912
 9818SOL    MW439593   4.705   7.093   1.889
 9819SOL     OW39594   5.578   6.603   3.580
 9819SOL    HW239595   5.491   6.583   3.616
 9819SOL    HW339596   5.632   6.529   3.605
 9819SOL    MW439597   5.573   6.592   3.588
 9820SOL     OW39598   3.799   7.116   2.737
 9820SOL    HW239599   3.831   7.120   2.828
 9820SOL    HW339600   3.704   7.124   2.745
 9820SOL    MW439601   3.791   7.119   2.750
 9821SOL     OW39602   3.754   6.242   2.284
 9821SOL    HW239603   3.694   6.214   2.354
 9821SOL    HW339604   3.828   6.182   2.290
 9821SOL    MW439605   3.756   6.231   2.293
 9822SOL     OW39606   5.322   7.454   3.718
 9822SOL    HW239607   5.367   7.378   3.683
 9822SOL    HW339608   5.360   7.467   3.805
 9822SOL    MW439609   5.332   7.447   3.724
 9823SOL     OW39610   4.922   6.973   2.444
 9823SOL    HW239611   4.945   6.924   2.522
 9823SOL    HW339612   5.003   7.015   2.416
 9823SOL    MW439613   4.935   6.973   2.451
 9824SOL     OW39614   4.180   5.981   3.173
 9824SOL    HW239615   4.213   6.062   3.213
 9824SOL    HW339616   4.153   6.007   3.085
 9824SOL    MW439617   4.179   5.995   3.167
 9825SOL     OW39618   4.134   5.948   2.909
 9825SOL    HW239619   4.164   5.862   2.880
 9825SOL    HW339620   4.039   5.941   2.912
 9825SOL    MW439621   4.126   5.937   2.907
 9826SOL     OW39622   4.277   5.726   2.800
 9826SOL    HW239623   4.287   5.635   2.826
 9826SOL    HW339624   4.233   5.722   2.715
 9826SOL    MW439625   4.273   5.714   2.792
 9827SOL     OW39626   4.371   7.341   3.346
 9827SOL    HW239627   4.288   7.326   3.391
 9827SOL    HW339628   4.430   7.274   3.381
 9827SOL    MW439629   4.369   7.331   3.356
 9828SOL     OW39630   5.606   6.768   2.941
 9828SOL    HW239631   5.599   6.708   2.866
 9828SOL    HW339632   5.532   6.828   2.930
 9828SOL    MW439633   5.596   6.768   2.930
 9829SOL     OW39634   4.988   6.630   2.859
 9829SOL    HW239635   5.002   6.602   2.950
 9829SOL    HW339636   5.074   6.661   2.831
 9829SOL    MW439637   5.001   6.631   2.868
 9830SOL     OW39638   5.564   6.256   3.680
 9830SOL    HW239639   5.601   6.201   3.749
 9830SOL    HW339640   5.589   6.213   3.598
 9830SOL    MW439641   5.571   6.244   3.679
 9831SOL     OW39642   5.062   5.640   2.080
 9831SOL    HW239643   5.136   5.684   2.123
 9831SOL    HW339644   4.986   5.694   2.102
 9831SOL    MW439645   5.062   5.652   2.088
 9832SOL     OW39646   5.122   6.415   2.358
 9832SOL    HW239647   5.037   6.385   2.328
 9832SOL    HW339648   5.114   6.422   2.453
 9832SOL    MW439649   5.110   6.413   2.367
 9833SOL     OW39650   4.198   6.878   3.089
 9833SOL    HW239651   4.210   6.905   3.180
 9833SOL    HW339652   4.179   6.959   3.042
 9833SOL    MW439653   4.197   6.893   3.094
 9834SOL     OW39654   4.482   5.858   2.912
 9834SOL    HW239655   4.455   5.860   3.003
 9834SOL    HW339656   4.412   5.810   2.867
 9834SOL    MW439657   4.470   5.854   2.919
 9835SOL     OW39658   4.336   7.350   3.074
 9835SOL    HW239659   4.388   7.427   3.051
 9835SOL    HW339660   4.345   7.342   3.169
 9835SOL    MW439661   4.345   7.357   3.085
 9836SOL     OW39662   5.238   6.935   3.306
 9836SOL    HW239663   5.223   6.864   3.369
 9836SOL    HW339664   5.284   6.893   3.234
 9836SOL    MW439665   5.244   6.919   3.306
 9837SOL     OW39666   4.312   6.666   3.423
 9837SOL    HW239667   4.349   6.671   3.335
 9837SOL    HW339668   4.351   6.739   3.470
 9837SOL    MW439669   4.322   6.676   3.418
 9838SOL     OW39670   4.492   6.709   3.235
 9838SOL    HW239671   4.551   6.655   3.288
 9838SOL    HW339672   4.507   6.681   3.145
 9838SOL    MW439673   4.502   6.698   3.231
 9839SOL     OW39674   4.495   6.081   2.084
 9839SOL    HW239675   4.568   6.130   2.047
 9839SOL    HW339676   4.511   5.990   2.058
 9839SOL    MW439677   4.507   6.076   2.077
 9840SOL     OW39678   5.303   7.198   3.407
 9840SOL    HW239679   5.345   7.183   3.492
 9840SOL    HW339680   5.294   7.111   3.369
 9840SOL    MW439681   5.307   7.186   3.414
 9841SOL     OW39682   4.963   5.677   2.998
 9841SOL    HW239683   5.018   5.686   2.920
 9841SOL    HW339684   5.018   5.711   3.069
 9841SOL    MW439685   4.977   5.682   2.997
 9842SOL     OW39686   3.970   6.590   2.182
 9842SOL    HW239687   3.907   6.606   2.111
 9842SOL    HW339688   3.917   6.553   2.253
 9842SOL    MW439689   3.955   6.587   2.182
 9843SOL     OW39690   4.326   6.944   2.041
 9843SOL    HW239691   4.341   6.920   2.133
 9843SOL    HW339692   4.234   6.922   2.025
 9843SOL    MW439693   4.316   6.937   2.051
 9844SOL     OW39694   4.865   7.175   2.193
 9844SOL    HW239695   4.873   7.093   2.144
 9844SOL    HW339696   4.784   7.214   2.160
 9844SOL    MW439697   4.855   7.170   2.183
 9845SOL     OW39698   4.124   7.333   2.762
 9845SOL    HW239699   4.128   7.244   2.797
 9845SOL    HW339700   4.150   7.324   2.671
 9845SOL    MW439701   4.127   7.321   2.754
 9846SOL     OW39702   4.741   6.811   3.005
 9846SOL    HW239703   4.673   6.745   3.021
 9846SOL    HW339704   4.759   6.805   2.912
 9846SOL    MW439705   4.734   6.802   2.996
 9847SOL     OW39706   3.830   7.086   3.256
 9847SOL    HW239707   3.820   7.044   3.342
 9847SOL    HW339708   3.751   7.139   3.246
 9847SOL    MW439709   3.819   7.087   3.267
 9848SOL     OW39710   4.734   5.950   2.826
 9848SOL    HW239711   4.664   5.902   2.871
 9848SOL    HW339712   4.766   6.013   2.890
 9848SOL    MW439713   4.729   5.952   2.840
 9849SOL     OW39714   4.385   6.386   3.446
 9849SOL    HW239715   4.378   6.481   3.434
 9849SOL    HW339716   4.394   6.375   3.541
 9849SOL    MW439717   4.386   6.398   3.456
 9850SOL     OW39718   4.106   6.901   3.704
 9850SOL    HW239719   4.178   6.903   3.641
 9850SOL    HW339720   4.076   6.810   3.703
 9850SOL    MW439721   4.111   6.890   3.696
 9851SOL     OW39722   5.190   5.664   3.171
 9851SOL    HW239723   5.261   5.610   3.135
 9851SOL    HW339724   5.189   5.643   3.264
 9851SOL    MW439725   5.199   5.655   3.179
 9852SOL     OW39726   5.390   7.194   3.655
 9852SOL    HW239727   5.363   7.191   3.746
 9852SOL    HW339728   5.486   7.198   3.658
 9852SOL    MW439729   5.400   7.194   3.667
 9853SOL     OW39730   4.201   6.056   2.639
 9853SOL    HW239731   4.272   6.004   2.602
 9853SOL    HW339732   4.187   6.021   2.726
 9853SOL    MW439733   4.209   6.045   2.646
 9854SOL     OW39734   3.756   7.391   3.711
 9854SOL    HW239735   3.806   7.369   3.633
 9854SOL    HW339736   3.764   7.486   3.719
 9854SOL    MW439737   3.764   7.400   3.702
 9855SOL     OW39738   4.517   7.149   2.715
 9855SOL    HW239739   4.445   7.086   2.728
 9855SOL    HW339740   4.478   7.234   2.733
 9855SOL    MW439741   4.501   7.152   2.718
 9856SOL     OW39742   4.837   5.997   2.363
 9856SOL    HW239743   4.859   5.934   2.295
 9856SOL    HW339744   4.742   5.989   2.374
 9856SOL    MW439745   4.827   5.988   2.355
 9857SOL     OW39746   3.922   5.687   2.295
 9857SOL    HW239747   3.993   5.708   2.234
 9857SOL    HW339748   3.876   5.615   2.253
 9857SOL    MW439749   3.926   5.681   2.281
 9858SOL     OW39750   3.753   6.154   3.438
 9858SOL    HW239751   3.817   6.220   3.413
 9858SOL    HW339752   3.672   6.181   3.395
 9858SOL    MW439753   3.751   6.166   3.430
 9859SOL     OW39754   5.491   7.061   2.395
 9859SOL    HW239755   5.461   6.994   2.456
 9859SOL    HW339756   5.585   7.067   2.409
 9859SOL    MW439757   5.499   7.053   2.405
 9860SOL     OW39758   5.047   6.738   2.325
 9860SOL    HW239759   5.019   6.824   2.358
 9860SOL    HW339760   5.075   6.754   2.235
 9860SOL    MW439761   5.047   6.752   2.317
 9861SOL     OW39762   4.709   5.658   2.378
 9861SOL    HW239763   4.746   5.717   2.443
 9861SOL    HW339764   4.686   5.714   2.304
 9861SOL    MW439765   4.710   5.673   2.377
 9862SOL     OW39766   5.562   6.540   2.800
 9862SOL    HW239767   5.553   6.572   2.711
 9862SOL    HW339768   5.515   6.456   2.800
 9862SOL    MW439769   5.555   6.533   2.790
 9863SOL     OW39770   3.938   6.380   3.379
 9863SOL    HW239771   3.959   6.449   3.317
 9863SOL    HW339772   4.018   6.327   3.384
 9863SOL    MW439773   3.951   6.381   3.373
 9864SOL     OW39774   3.923   6.395   3.646
 9864SOL    HW239775   3.849   6.339   3.672
 9864SOL    HW339776   3.918   6.398   3.551
 9864SOL    MW439777   3.912   6.388   3.636
 9865SOL     OW39778   4.089   5.682   3.096
 9865SOL    HW239779   4.132   5.766   3.116
 9865SOL    HW339780   4.162   5.620   3.089
 9865SOL    MW439781   4.104   5.685   3.097
 9866SOL     OW39782   4.130   6.349   2.274
 9866SOL    HW239783   4.130   6.444   2.259
 9866SOL    HW339784   4.207   6.333   2.328
 9866SOL    MW439785   4.140   6.360   2.279
 9867SOL     OW39786   3.889   6.080   2.563
 9867SOL    HW239787   3.951   6.087   2.636
 9867SOL    HW339788   3.889   5.987   2.540
 9867SOL    MW439789   3.897   6.069   2.570
 9868SOL     OW39790   5.436   7.420   2.095
 9868SOL    HW239791   5.503   7.453   2.035
 9868SOL    HW339792   5.393   7.499   2.129
 9868SOL    MW439793   5.438   7.435   2.091
 9869SOL     OW39794   4.571   6.341   3.047
 9869SOL    HW239795   4.529   6.259   3.023
 9869SOL    HW339796   4.572   6.340   3.143
 9869SOL    MW439797   4.564   6.330   3.056
 9870SOL     OW39798   5.242   7.474   3.446
 9870SOL    HW239799   5.245   7.380   3.429
 9870SOL    HW339800   5.265   7.482   3.538
 9870SOL    MW439801   5.245   7.462   3.456
 9871SOL     OW39802   4.375   5.811   3.152
 9871SOL    HW239803   4.306   5.874   3.173
 9871SOL    HW339804   4.402   5.775   3.237
 9871SOL    MW439805   4.369   5.814   3.165
 9872SOL     OW39806   3.758   6.652   2.021
 9872SOL    HW239807   3.727   6.717   2.084
 9872SOL    HW339808   3.707   6.574   2.040
 9872SOL    MW439809   3.748   6.649   2.031
 9873SOL     OW39810   5.170   5.664   2.769
 9873SOL    HW239811   5.258   5.673   2.806
 9873SOL    HW339812   5.180   5.605   2.695
 9873SOL    MW439813   5.184   5.658   2.763
 9874SOL     OW39814   5.202   6.403   2.613
 9874SOL    HW239815   5.282   6.418   2.562
 9874SOL    HW339816   5.195   6.308   2.619
 9874SOL    MW439817   5.211   6.392   2.608
 9875SOL     OW39818   4.342   7.452   1.963
 9875SOL    HW239819   4.247   7.452   1.955
 9875SOL    HW339820   4.358   7.398   2.041
 9875SOL    MW439821   4.332   7.446   1.972
 9876SOL     OW39822   4.652   6.329   3.310
 9876SOL    HW239823   4.721   6.396   3.307
 9876SOL    HW339824   4.585   6.367   3.366
 9876SOL    MW439825   4.653   6.342   3.317
 9877SOL     OW39826   4.070   6.629   3.558
 9877SOL    HW239827   4.024   6.545   3.560
 9877SOL    HW339828   4.127   6.623   3.482
 9877SOL    MW439829   4.072   6.617   3.550
 9878SOL     OW39830   4.321   7.004   2.559
 9878SOL    HW239831   4.386   6.937   2.580
 9878SOL    HW339832   4.373   7.081   2.536
 9878SOL    MW439833   4.336   7.006   2.558
 9879SOL     OW39834   4.582   6.169   2.689
 9879SOL    HW239835   4.522   6.187   2.761
 9879SOL    HW339836   4.616   6.081   2.708
 9879SOL    MW439837   4.578   6.159   2.702
 9880SOL     OW39838   5.523   5.668   3.358
 9880SOL    HW239839   5.444   5.714   3.386
 9880SOL    HW339840   5.558   5.722   3.287
 9880SOL    MW439841   5.517   5.681   3.352
 9881SOL     OW39842   4.807   6.752   2.708
 9881SOL    HW239843   4.899   6.733   2.726
 9881SOL    HW339844   4.780   6.682   2.648
 9881SOL    MW439845   4.815   6.740   2.702
 9882SOL     OW39846   4.600   6.572   2.063
 9882SOL    HW239847   4.586   6.484   2.028
 9882SOL    HW339848   4.551   6.629   2.004
 9882SOL    MW439849   4.592   6.567   2.051
 9883SOL     OW39850   5.081   6.990   2.804
 9883SOL    HW239851   5.054   7.074   2.769
 9883SOL    HW339852   5.041   6.985   2.891
 9883SOL    MW439853   5.074   6.999   2.810
 9884SOL     OW39854   5.000   6.938   3.072
 9884SOL    HW239855   5.011   6.905   3.161
 9884SOL    HW339856   4.919   6.897   3.041
 9884SOL    MW439857   4.990   6.930   3.078
 9885SOL     OW39858   4.013   6.296   2.842
 9885SOL    HW239859   3.963   6.295   2.923
 9885SOL    HW339860   4.033   6.388   2.826
 9885SOL    MW439861   4.009   6.308   2.850
 9886SOL     OW39862   5.319   5.778   2.165
 9886SOL    HW239863   5.312   5.782   2.260
 9886SOL    HW339864   5.331   5.869   2.138
 9886SOL    MW439865   5.320   5.791   2.173
 9887SOL     OW39866   4.608   6.341   2.279
 9887SOL    HW239867   4.588   6.327   2.186
 9887SOL    HW339868   4.701   6.320   2.286
 9887SOL    MW439869   4.618   6.336   2.268
 9888SOL     OW39870   3.935   5.964   3.583
 9888SOL    HW239871   3.892   6.023   3.520
 9888SOL    HW339872   4.003   6.019   3.623
 9888SOL    MW439873   3.939   5.979   3.580
 9889SOL     OW39874   4.591   7.299   2.317
 9889SOL    HW239875   4.649   7.370   2.344
 9889SOL    HW339876   4.614   7.227   2.375
 9889SOL    MW439877   4.602   7.299   2.328
 9890SOL     OW39878   3.834   5.604   3.006
 9890SOL    HW239879   3.825   5.605   2.911
 9890SOL    HW339880   3.928   5.616   3.021
 9890SOL    MW439881   3.846   5.607   2.997
 9891SOL     OW39882   5.471   6.797   2.626
 9891SOL    HW239883   5.450   6.743   2.549
 9891SOL    HW339884   5.567   6.795   2.630
 9891SOL    MW439885   5.480   6.790   2.615
 9892SOL     OW39886   4.163   6.942   3.369
 9892SOL    HW239887   4.084   6.892   3.392
 9892SOL    HW339888   4.233   6.901   3.419
 9892SOL    MW439889   4.161   6.930   3.379
 9893SOL     OW39890   4.047   5.731   2.052
 9893SOL    HW239891   3.976   5.786   2.020
 9893SOL    HW339892   4.089   5.697   1.973
 9893SOL    MW439893   4.043   5.733   2.038
 9894SOL     OW39894   3.803   5.830   1.901
 9894SOL    HW239895   3.770   5.909   1.945
 9894SOL    HW339896   3.858   5.863   1.830
 9894SOL    MW439897   3.806   5.844   1.898
 9895SOL     OW39898   3.837   7.087   2.090
 9895SOL    HW239899   3.854   7.171   2.132
 9895SOL    HW339900   3.872   7.096   2.002
 9895SOL    MW439901   3.842   7.100   2.084
 9896SOL     OW39902   5.109   7.176   2.307
 9896SOL    HW239903   5.172   7.166   2.236
 9896SOL    HW339904   5.026   7.196   2.262
 9896SOL    MW439905   5.106   7.177   2.292
 9897SOL     OW39906   5.472   6.444   3.993
 9897SOL    HW239907   5.513   6.386   4.058
 9897SOL    HW339908   5.379   6.436   4.010
 9897SOL    MW439909   5.466   6.436   4.003
 9898SOL     OW39910   5.338   6.376   4.988
 9898SOL    HW239911   5.293   6.443   5.039
 9898SOL    HW339912   5.426   6.412   4.974
 9898SOL    MW439913   5.344   6.389   4.992
 9899SOL     OW39914   5.382   7.330   4.364
 9899SOL    HW239915   5.394   7.276   4.442
 9899SOL    HW339916   5.419   7.278   4.293
 9899SOL    MW439917   5.388   7.315   4.365
 9900SOL     OW39918   4.761   7.215   5.365
 9900SOL    HW239919   4.802   7.251   5.286
 9900SOL    HW339920   4.796   7.126   5.372
 9900SOL    MW439921   4.772   7.208   5.356
 9901SOL     OW39922   5.318   6.770   4.969
 9901SOL    HW239923   5.239   6.735   4.927
 9901SOL    HW339924   5.345   6.842   4.913
 9901SOL    MW439925   5.311   6.775   4.956
 9902SOL     OW39926   4.550   6.083   4.235
 9902SOL    HW239927   4.525   6.171   4.263
 9902SOL    HW339928   4.547   6.086   4.139
 9902SOL    MW439929   4.546   6.095   4.227
 9903SOL     OW39930   3.992   6.111   4.163
 9903SOL    HW239931   4.024   6.199   4.145
 9903SOL    HW339932   3.980   6.109   4.258
 9903SOL    MW439933   3.995   6.123   4.175
 9904SOL     OW39934   4.070   6.524   5.064
 9904SOL    HW239935   4.133   6.471   5.015
 9904SOL    HW339936   4.051   6.598   5.007
 9904SOL    MW439937   4.076   6.526   5.051
 9905SOL     OW39938   4.391   5.866   4.250
 9905SOL    HW239939   4.449   5.942   4.252
 9905SOL    HW339940   4.326   5.887   4.183
 9905SOL    MW439941   4.390   5.878   4.241
 9906SOL     OW39942   4.503   7.134   5.328
 9906SOL    HW239943   4.587   7.160   5.367
 9906SOL    HW339944   4.527   7.078   5.254
 9906SOL    MW439945   4.517   7.130   5.323
 9907SOL     OW39946   4.592   6.983   5.101
 9907SOL    HW239947   4.556   7.049   5.041
 9907SOL    HW339948   4.520   6.921   5.114
 9907SOL    MW439949   4.578   6.983   5.095
 9908SOL     OW39950   4.397   6.123   4.793
 9908SOL    HW239951   4.303   6.119   4.811
 9908SOL    HW339952   4.427   6.032   4.802
 9908SOL    MW439953   4.388   6.111   4.796
 9909SOL     OW39954   5.530   5.917   4.590
 9909SOL    HW239955   5.467   5.897   4.659
 9909SOL    HW339956   5.520   5.846   4.527
 9909SOL    MW439957   5.520   5.904   4.591
 9910SOL     OW39958   4.154   5.889   4.102
 9910SOL    HW239959   4.128   5.851   4.018
 9910SOL    HW339960   4.091   5.959   4.118
 9910SOL    MW439961   4.143   5.892   4.093
 9911SOL     OW39962   3.989   6.850   4.139
 9911SOL    HW239963   3.937   6.918   4.095
 9911SOL    HW339964   3.986   6.776   4.079
 9911SOL    MW439965   3.981   6.849   4.126
 9912SOL     OW39966   5.586   6.086   3.892
 9912SOL    HW239967   5.495   6.088   3.920
 9912SOL    HW339968   5.631   6.148   3.950
 9912SOL    MW439969   5.579   6.094   3.902
 9913SOL     OW39970   5.331   6.689   4.242
 9913SOL    HW239971   5.241   6.689   4.277
 9913SOL    HW339972   5.324   6.735   4.159
 9913SOL    MW439973   5.318   6.695   4.236
 9914SOL     OW39974   5.131   6.324   5.314
 9914SOL    HW239975   5.200   6.262   5.291
 9914SOL    HW339976   5.056   6.298   5.261
 9914SOL    MW439977   5.131   6.311   5.305
 9915SOL     OW39978   4.867   6.711   5.306
 9915SOL    HW239979   4.852   6.804   5.291
 9915SOL    HW339980   4.962   6.701   5.306
 9915SOL    MW439981   4.876   6.721   5.303
 9916SOL     OW39982   4.663   6.135   5.507
 9916SOL    HW239983   4.753   6.136   5.474
 9916SOL    HW339984   4.622   6.060   5.465
 9916SOL    MW439985   4.669   6.125   5.498
 9917SOL     OW39986   5.238   6.667   4.634
 9917SOL    HW239987   5.241   6.601   4.565
 9917SOL    HW339988   5.323   6.710   4.630
 9917SOL    MW439989   5.250   6.663   4.625
 9918SOL     OW39990   5.523   6.890   4.054
 9918SOL    HW239991   5.479   6.931   4.129
 9918SOL    HW339992   5.580   6.958   4.019
 9918SOL    MW439993   5.525   6.904   4.059
 9919SOL     OW39994   4.443   5.939   5.457
 9919SOL    HW239995   4.453   5.865   5.397
 9919SOL    HW339996   4.479   5.908   5.540
 9919SOL    MW439997   4.449   5.925   5.459
 9920SOL     OW39998   4.179   7.306   4.372
 9920SOL    HW239999   4.211   7.394   4.350
 9920SOL    HW340000   4.132   7.278   4.294
 9920SOL    MW440001   4.178   7.314   4.359
 9921SOL     OW40002   5.563   5.668   4.421
 9921SOL    HW240003   5.617   5.619   4.483
 9921SOL    HW340004   5.506   5.602   4.382
 9921SOL    MW440005   5.563   5.652   4.423
 9922SOL     OW40006   3.895   7.366   3.949
 9922SOL    HW240007   3.924   7.456   3.941
 9922SOL    HW340008   3.845   7.349   3.870
 9922SOL    MW440009   3.893   7.374   3.938
 9923SOL     OW40010   4.682   5.621   4.834
 9923SOL    HW240011   4.641   5.699   4.796
 9923SOL    HW340012   4.776   5.639   4.829
 9923SOL    MW440013   4.688   5.633   4.829
 9924SOL     OW40014   5.299   7.174   3.920
 9924SOL    HW240015   5.347   7.243   3.966
 9924SOL    HW340016   5.220   7.218   3.889
 9924SOL    MW440017   5.294   7.188   3.923
 9925SOL     OW40018   4.697   6.299   3.864
 9925SOL    HW240019   4.699   6.246   3.785
 9925SOL    HW340020   4.785   6.336   3.870
 9925SOL    MW440021   4.709   6.298   3.853
 9926SOL     OW40022   5.311   6.225   4.200
 9926SOL    HW240023   5.350   6.225   4.287
 9926SOL    HW340024   5.252   6.301   4.200
 9926SOL    MW440025   5.308   6.236   4.211
 9927SOL     OW40026   4.628   6.592   5.329
 9927SOL    HW240027   4.605   6.572   5.419
 9927SOL    HW340028   4.713   6.636   5.334
 9927SOL    MW440029   4.635   6.595   5.341
 9928SOL     OW40030   4.708   5.729   5.089
 9928SOL    HW240031   4.714   5.691   5.002
 9928SOL    HW340032   4.697   5.823   5.074
 9928SOL    MW440033   4.709   5.737   5.077
 9929SOL     OW40034   4.797   6.218   4.923
 9929SOL    HW240035   4.872   6.247   4.870
 9929SOL    HW340036   4.729   6.283   4.907
 9929SOL    MW440037   4.798   6.230   4.913
 9930SOL     OW40038   5.347   6.186   5.200
 9930SOL    HW240039   5.328   6.095   5.179
 9930SOL    HW340040   5.325   6.235   5.121
 9930SOL    MW440041   5.342   6.179   5.187
 9931SOL     OW40042   5.489   7.280   5.104
 9931SOL    HW240043   5.417   7.242   5.155
 9931SOL    HW340044   5.506   7.365   5.145
 9931SOL    MW440045   5.483   7.285   5.116
 9932SOL     OW40046   4.794   5.924   5.306
 9932SOL    HW240047   4.760   5.963   5.225
 9932SOL    HW340048   4.772   5.832   5.299
 9932SOL    MW440049   4.787   5.917   5.296
 9933SOL     OW40050   5.203   6.738   5.382
 9933SOL    HW240051   5.285   6.779   5.412
 9933SOL    HW340052   5.166   6.700   5.462
 9933SOL    MW440053   5.209   6.739   5.397
 9934SOL     OW40054   5.498   6.111   4.366
 9934SOL    HW240055   5.587   6.080   4.383
 9934SOL    HW340056   5.441   6.051   4.414
 9934SOL    MW440057   5.501   6.099   4.375
 9935SOL     OW40058   3.924   5.825   4.395
 9935SOL    HW240059   3.915   5.765   4.321
 9935SOL    HW340060   3.857   5.796   4.458
 9935SOL    MW440061   3.914   5.812   4.393
 9936SOL     OW40062   3.871   5.998   4.758
 9936SOL    HW240063   3.843   6.089   4.767
 9936SOL    HW340064   3.808   5.959   4.697
 9936SOL    MW440065   3.858   6.004   4.752
 9937SOL     OW40066   4.330   7.336   4.064
 9937SOL    HW240067   4.251   7.294   4.097
 9937SOL    HW340068   4.396   7.319   4.131
 9937SOL    MW440069   4.329   7.328   4.077
 9938SOL     OW40070   5.458   6.856   5.461
 9938SOL    HW240071   5.508   6.782   5.493
 9938SOL    HW340072   5.404   6.883   5.536
 9938SOL    MW440073   5.458   6.850   5.474
 9939SOL     OW40074   4.466   6.751   3.771
 9939SOL    HW240075   4.388   6.697   3.758
 9939SOL    HW340076   4.437   6.824   3.824
 9939SOL    MW440077   4.452   6.753   3.776
 9940SOL     OW40078   5.592   6.491   4.963
 9940SOL    HW240079   5.608   6.529   4.876
 9940SOL    HW340080   5.626   6.557   5.024
 9940SOL    MW440081   5.599   6.504   4.959
 9941SOL     OW40082   5.384   7.200   4.632
 9941SOL    HW240083   5.413   7.267   4.693
 9941SOL    HW340084   5.365   7.124   4.687
 9941SOL    MW440085   5.386   7.200   4.647
 9942SOL     OW40086   3.855   6.273   4.928
 9942SOL    HW240087   3.917   6.303   4.994
 9942SOL    HW340088   3.789   6.342   4.922
 9942SOL    MW440089   3.854   6.286   4.935
 9943SOL     OW40090   4.496   5.830   3.836
 9943SOL    HW240091   4.444   5.750   3.824
 9943SOL    HW340092   4.583   5.807   3.804
 9943SOL    MW440093   4.499   5.816   3.830
 9944SOL     OW40094   3.950   7.382   5.380
 9944SOL    HW240095   3.924   7.450   5.318
 9944SOL    HW340096   3.998   7.319   5.328
 9944SOL    MW440097   3.952   7.382   5.366
 9945SOL     OW40098   4.542   6.605   4.875
 9945SOL    HW240099   4.570   6.514   4.887
 9945SOL    HW340100   4.471   6.599   4.811
 9945SOL    MW440101   4.535   6.593   4.870
 9946SOL     OW40102   3.857   6.470   4.293
 9946SOL    HW240103   3.948   6.485   4.320
 9946SOL    HW340104   3.860   6.391   4.239
 9946SOL    MW440105   3.869   6.462   4.291
 9947SOL     OW40106   4.093   6.178   5.547
 9947SOL    HW240107   4.040   6.258   5.554
 9947SOL    HW340108   4.163   6.190   5.612
 9947SOL    MW440109   4.095   6.191   5.555
 9948SOL     OW40110   4.479   5.728   5.254
 9948SOL    HW240111   4.456   5.636   5.256
 9948SOL    HW340112   4.565   5.730   5.211
 9948SOL    MW440113   4.486   5.718   5.250
 9949SOL     OW40114   4.163   6.252   5.293
 9949SOL    HW240115   4.243   6.302   5.279
 9949SOL    HW340116   4.154   6.246   5.388
 9949SOL    MW440117   4.172   6.258   5.303
 9950SOL     OW40118   4.484   7.402   4.667
 9950SOL    HW240119   4.573   7.417   4.697
 9950SOL    HW340120   4.479   7.449   4.583
 9950SOL    MW440121   4.494   7.410   4.660
 9951SOL     OW40122   5.140   5.777   5.564
 9951SOL    HW240123   5.196   5.704   5.590
 9951SOL    HW340124   5.110   5.815   5.646
 9951SOL    MW440125   5.144   5.772   5.577
 9952SOL     OW40126   3.865   7.082   4.332
 9952SOL    HW240127   3.837   7.121   4.414
 9952SOL    HW340128   3.885   6.991   4.354
 9952SOL    MW440129   3.863   7.074   4.345
 9953SOL     OW40130   5.530   6.270   4.681
 9953SOL    HW240131   5.619   6.300   4.663
 9953SOL    HW340132   5.510   6.210   4.610
 9953SOL    MW440133   5.539   6.267   4.670
 9954SOL     OW40134   5.381   6.449   5.561
 9954SOL    HW240135   5.436   6.373   5.542
 9954SOL    HW340136   5.383   6.457   5.656
 9954SOL    MW440137   5.389   6.440   5.569
 9955SOL     OW40138   4.431   7.182   3.772
 9955SOL    HW240139   4.371   7.251   3.742
 9955SOL    HW340140   4.376   7.124   3.825
 9955SOL    MW440141   4.415   7.184   3.774
 9956SOL     OW40142   4.869   5.827   3.995
 9956SOL    HW240143   4.802   5.803   3.932
 9956SOL    HW340144   4.934   5.876   3.944
 9956SOL    MW440145   4.869   5.829   3.980
 9957SOL     OW40146   4.676   6.011   5.080
 9957SOL    HW240147   4.595   6.052   5.108
 9957SOL    HW340148   4.723   6.079   5.032
 9957SOL    MW440149   4.671   6.026   5.078
 9958SOL     OW40150   4.936   6.349   4.703
 9958SOL    HW240151   4.949   6.443   4.713
 9958SOL    HW340152   4.897   6.339   4.617
 9958SOL    MW440153   4.932   6.360   4.693
 9959SOL     OW40154   5.187   6.127   4.502
 9959SOL    HW240155   5.132   6.048   4.501
 9959SOL    HW340156   5.169   6.168   4.586
 9959SOL    MW440157   5.177   6.122   4.511
 9960SOL     OW40158   4.158   5.814   5.319
 9960SOL    HW240159   4.079   5.832   5.371
 9960SOL    HW340160   4.153   5.876   5.246
 9960SOL    MW440161   4.148   5.824   5.316
 9961SOL     OW40162   4.806   6.331   4.459
 9961SOL    HW240163   4.743   6.263   4.483
 9961SOL    HW340164   4.826   6.312   4.367
 9961SOL    MW440165   4.800   6.318   4.451
 9962SOL     OW40166   4.062   7.226   4.161
 9962SOL    HW240167   4.023   7.273   4.087
 9962SOL    HW340168   3.996   7.161   4.186
 9962SOL    MW440169   4.049   7.224   4.155
 9963SOL     OW40170   5.107   7.195   4.957
 9963SOL    HW240171   5.032   7.241   4.995
 9963SOL    HW340172   5.089   7.102   4.974
 9963SOL    MW440173   5.096   7.189   4.965
 9964SOL     OW40174   5.064   5.879   4.518
 9964SOL    HW240175   5.092   5.811   4.579
 9964SOL    HW340176   4.978   5.850   4.488
 9964SOL    MW440177   5.057   5.866   4.522
 9965SOL     OW40178   3.869   6.813   4.452
 9965SOL    HW240179   3.933   6.845   4.515
 9965SOL    HW340180   3.918   6.749   4.400
 9965SOL    MW440181   3.884   6.809   4.453
 9966SOL     OW40182   4.369   6.889   5.434
 9966SOL    HW240183   4.417   6.972   5.421
 9966SOL    HW340184   4.426   6.837   5.490
 9966SOL    MW440185   4.383   6.893   5.440
 9967SOL     OW40186   5.044   5.983   3.853
 9967SOL    HW240187   5.017   6.049   3.789
 9967SOL    HW340188   5.114   6.026   3.903
 9967SOL    MW440189   5.049   5.996   3.850
 9968SOL     OW40190   4.712   5.688   3.790
 9968SOL    HW240191   4.768   5.680   3.712
 9968SOL    HW340192   4.689   5.598   3.812
 9968SOL    MW440193   4.717   5.675   3.783
 9969SOL     OW40194   4.830   6.968   5.183
 9969SOL    HW240195   4.741   6.974   5.151
 9969SOL    HW340196   4.874   7.047   5.151
 9969SOL    MW440197   4.825   6.978   5.175
 9970SOL     OW40198   4.123   5.636   5.525
 9970SOL    HW240199   4.051   5.601   5.473
 9970SOL    HW340200   4.181   5.677   5.460
 9970SOL    MW440201   4.121   5.637   5.510
 9971SOL     OW40202   5.587   6.655   5.178
 9971SOL    HW240203   5.502   6.668   5.137
 9971SOL    HW340204   5.567   6.619   5.265
 9971SOL    MW440205   5.574   6.651   5.183
 9972SOL     OW40206   4.211   6.577   3.787
 9972SOL    HW240207   4.134   6.590   3.843
 9972SOL    HW340208   4.175   6.541   3.706
 9972SOL    MW440209   4.197   6.573   3.784
 9973SOL     OW40210   5.228   5.909   5.124
 9973SOL    HW240211   5.175   5.911   5.204
 9973SOL    HW340212   5.213   5.822   5.087
 9973SOL    MW440213   5.220   5.899   5.129
 9974SOL     OW40214   5.564   5.833   4.997
 9974SOL    HW240215   5.545   5.900   4.932
 9974SOL    HW340216   5.621   5.771   4.952
 9974SOL    MW440217   5.568   5.834   4.983
 9975SOL     OW40218   4.493   5.666   4.437
 9975SOL    HW240219   4.422   5.727   4.419
 9975SOL    HW340220   4.544   5.663   4.356
 9975SOL    MW440221   4.489   5.672   4.424
 9976SOL     OW40222   4.251   6.906   4.186
 9976SOL    HW240223   4.244   6.938   4.276
 9976SOL    HW340224   4.161   6.890   4.158
 9976SOL    MW440225   4.239   6.908   4.193
 9977SOL     OW40226   4.846   7.299   5.095
 9977SOL    HW240227   4.766   7.284   5.045
 9977SOL    HW340228   4.853   7.394   5.102
 9977SOL    MW440229   4.837   7.310   5.089
 9978SOL     OW40230   5.368   7.359   4.860
 9978SOL    HW240231   5.411   7.329   4.940
 9978SOL    HW340232   5.287   7.307   4.857
 9978SOL    MW440233   5.363   7.348   4.870
 9979SOL     OW40234   4.453   6.323   5.567
 9979SOL    HW240235   4.523   6.265   5.539
 9979SOL    HW340236   4.396   6.268   5.622
 9979SOL    MW440237   4.455   6.310   5.571
 9980SOL     OW40238   5.240   6.535   5.200
 9980SOL    HW240239   5.245   6.588   5.280
 9980SOL    HW340240   5.202   6.452   5.228
 9980SOL    MW440241   5.236   6.530   5.215
 9981SOL     OW40242   4.880   5.670   5.446
 9981SOL    HW240243   4.875   5.577   5.427
 9981SOL    HW340244   4.963   5.681   5.492
 9981SOL    MW440245   4.888   5.659   5.450
 9982SOL     OW40246   5.350   6.941   4.722
 9982SOL    HW240247   5.385   6.923   4.635
 9982SOL    HW340248   5.255   6.942   4.709
 9982SOL    MW440249   5.342   6.938   4.709
 9983SOL     OW40250   4.779   6.589   5.091
 9983SOL    HW240251   4.822   6.624   5.169
 9983SOL    HW340252   4.762   6.666   5.037
 9983SOL    MW440253   4.782   6.604   5.094
 9984SOL     OW40254   5.310   6.076   3.964
 9984SOL    HW240255   5.302   6.147   3.901
 9984SOL    HW340256   5.328   6.120   4.047
 9984SOL    MW440257   5.311   6.090   3.966
 9985SOL     OW40258   4.170   5.731   4.393
 9985SOL    HW240259   4.220   5.774   4.324
 9985SOL    HW340260   4.085   5.775   4.393
 9985SOL    MW440261   4.167   5.744   4.384
 9986SOL     OW40262   4.437   6.120   5.220
 9986SOL    HW240263   4.409   6.208   5.244
 9986SOL    HW340264   4.406   6.064   5.291
 9986SOL    MW440265   4.429   6.123   5.232
 9987SOL     OW40266   4.092   6.516   4.433
 9987SOL    HW240267   4.150   6.572   4.381
 9987SOL    HW340268   4.136   6.431   4.435
 9987SOL    MW440269   4.105   6.513   4.426
 9988SOL     OW40270   5.232   5.868   4.270
 9988SOL    HW240271   5.154   5.818   4.295
 9988SOL    HW340272   5.203   5.959   4.270
 9988SOL    MW440273   5.218   5.872   4.273
 9989SOL     OW40274   5.578   6.603   5.448
 9989SOL    HW240275   5.491   6.583   5.484
 9989SOL    HW340276   5.632   6.529   5.473
 9989SOL    MW440277   5.573   6.592   5.456
 9990SOL     OW40278   3.754   6.242   4.152
 9990SOL    HW240279   3.694   6.214   4.222
 9990SOL    HW340280   3.828   6.182   4.158
 9990SOL    MW440281   3.756   6.231   4.161
 9991SOL     OW40282   5.322   7.454   5.586
 9991SOL    HW240283   5.367   7.378   5.551
 9991SOL    HW340284   5.360   7.467   5.673
 9991SOL    MW440285   5.332   7.447   5.592
 9992SOL     OW40286   4.180   5.981   5.041
 9992SOL    HW240287   4.213   6.062   5.081
 9992SOL    HW340288   4.153   6.007   4.953
 9992SOL    MW440289   4.179   5.995   5.035
 9993SOL     OW40290   4.134   5.948   4.777
 9993SOL    HW240291   4.164   5.862   4.748
 9993SOL    HW340292   4.039   5.941   4.780
 9993SOL    MW440293   4.126   5.937   4.775
 9994SOL     OW40294   4.963   6.157   5.468
 9994SOL    HW240295   5.015   6.092   5.421
 9994SOL    HW340296   4.921   6.208   5.398
 9994SOL    MW440297   4.964   6.154   5.451
 9995SOL     OW40298   5.062   5.952   5.329
 9995SOL    HW240299   4.969   5.936   5.316
 9995SOL    HW340300   5.088   5.890   5.397
 9995SOL    MW440301   5.052   5.942   5.336
 9996SOL     OW40302   4.277   5.726   4.668
 9996SOL    HW240303   4.287   5.635   4.694
 9996SOL    HW340304   4.233   5.722   4.583
 9996SOL    MW440305   4.273   5.714   4.660
 9997SOL     OW40306   4.371   7.341   5.214
 9997SOL    HW240307   4.288   7.326   5.259
 9997SOL    HW340308   4.430   7.274   5.249
 9997SOL    MW440309   4.369   7.331   5.224
 9998SOL     OW40310   5.428   6.048   4.839
 9998SOL    HW240311   5.361   6.081   4.899
 9998SOL    HW340312   5.471   6.126   4.805
 9998SOL    MW440313   5.426   6.063   4.843
 9999SOL     OW40314   5.606   6.768   4.809
 9999SOL    HW240315   5.599   6.708   4.734
 9999SOL    HW340316   5.532   6.828   4.798
 9999SOL    MW440317   5.596   6.768   4.798
10000SOL     OW40318   4.988   6.630   4.727
10000SOL    HW240319   5.002   6.602   4.818
10000SOL    HW340320   5.074   6.661   4.699
10000SOL    MW440321   5.001   6.631   4.736
10001SOL     OW40322   5.071   6.125   5.006
10001SOL    HW240323   5.092   6.126   4.913
10001SOL    HW340324   5.116   6.047   5.039
10001SOL    MW440325   5.078   6.115   4.998
10002SOL     OW40326   5.564   6.256   5.548
10002SOL    HW240327   5.601   6.201   5.617
10002SOL    HW340328   5.589   6.213   5.466
10002SOL    MW440329   5.571   6.244   5.547
10003SOL     OW40330   5.111   6.554   5.600
10003SOL    HW240331   5.177   6.502   5.554
10003SOL    HW340332   5.131   6.541   5.693
10003SOL    MW440333   5.122   6.545   5.607
10004SOL     OW40334   5.062   5.640   3.948
10004SOL    HW240335   5.136   5.684   3.991
10004SOL    HW340336   4.986   5.694   3.970
10004SOL    MW440337   5.062   5.652   3.956
10005SOL     OW40338   4.482   5.858   4.780
10005SOL    HW240339   4.455   5.860   4.871
10005SOL    HW340340   4.412   5.810   4.735
10005SOL    MW440341   4.470   5.854   4.787
10006SOL     OW40342   4.336   7.350   4.942
10006SOL    HW240343   4.388   7.427   4.919
10006SOL    HW340344   4.345   7.342   5.037
10006SOL    MW440345   4.345   7.357   4.953
10007SOL     OW40346   5.238   6.935   5.174
10007SOL    HW240347   5.223   6.864   5.237
10007SOL    HW340348   5.284   6.893   5.102
10007SOL    MW440349   5.244   6.919   5.174
10008SOL     OW40350   4.312   6.666   5.291
10008SOL    HW240351   4.349   6.671   5.203
10008SOL    HW340352   4.351   6.739   5.338
10008SOL    MW440353   4.322   6.676   5.286
10009SOL     OW40354   4.492   6.709   5.103
10009SOL    HW240355   4.551   6.655   5.156
10009SOL    HW340356   4.507   6.681   5.013
10009SOL    MW440357   4.502   6.698   5.099
10010SOL     OW40358   4.495   6.081   3.952
10010SOL    HW240359   4.568   6.130   3.915
10010SOL    HW340360   4.511   5.990   3.926
10010SOL    MW440361   4.507   6.076   3.945
10011SOL     OW40362   5.303   7.198   5.275
10011SOL    HW240363   5.345   7.183   5.360
10011SOL    HW340364   5.294   7.111   5.237
10011SOL    MW440365   5.307   7.186   5.282
10012SOL     OW40366   4.963   5.677   4.866
10012SOL    HW240367   5.018   5.686   4.788
10012SOL    HW340368   5.018   5.711   4.937
10012SOL    MW440369   4.977   5.682   4.865
10013SOL     OW40370   3.970   6.590   4.050
10013SOL    HW240371   3.907   6.606   3.979
10013SOL    HW340372   3.917   6.553   4.121
10013SOL    MW440373   3.955   6.587   4.050
10014SOL     OW40374   4.326   6.944   3.909
10014SOL    HW240375   4.341   6.920   4.001
10014SOL    HW340376   4.234   6.922   3.893
10014SOL    MW440377   4.316   6.937   3.919
10015SOL     OW40378   4.741   6.811   4.873
10015SOL    HW240379   4.673   6.745   4.889
10015SOL    HW340380   4.759   6.805   4.780
10015SOL    MW440381   4.734   6.802   4.864
10016SOL     OW40382   4.734   5.950   4.694
10016SOL    HW240383   4.664   5.902   4.739
10016SOL    HW340384   4.766   6.013   4.758
10016SOL    MW440385   4.729   5.952   4.708
10017SOL     OW40386   4.385   6.386   5.314
10017SOL    HW240387   4.378   6.481   5.302
10017SOL    HW340388   4.394   6.375   5.409
10017SOL    MW440389   4.386   6.398   5.324
10018SOL     OW40390   4.106   6.901   5.572
10018SOL    HW240391   4.178   6.903   5.509
10018SOL    HW340392   4.076   6.810   5.571
10018SOL    MW440393   4.111   6.890   5.564
10019SOL     OW40394   5.190   5.664   5.039
10019SOL    HW240395   5.261   5.610   5.003
10019SOL    HW340396   5.189   5.643   5.132
10019SOL    MW440397   5.199   5.655   5.047
10020SOL     OW40398   5.390   7.194   5.523
10020SOL    HW240399   5.363   7.191   5.614
10020SOL    HW340400   5.486   7.198   5.526
10020SOL    MW440401   5.400   7.194   5.535
10021SOL     OW40402   4.201   6.056   4.507
10021SOL    HW240403   4.272   6.004   4.470
10021SOL    HW340404   4.187   6.021   4.594
10021SOL    MW440405   4.209   6.045   4.514
10022SOL     OW40406   3.756   7.391   5.579
10022SOL    HW240407   3.806   7.369   5.501
10022SOL    HW340408   3.764   7.486   5.587
10022SOL    MW440409   3.764   7.400   5.570
10023SOL     OW40410   3.922   5.687   4.163
10023SOL    HW240411   3.993   5.708   4.102
10023SOL    HW340412   3.876   5.615   4.121
10023SOL    MW440413   3.926   5.681   4.149
10024SOL     OW40414   3.753   6.154   5.306
10024SOL    HW240415   3.817   6.220   5.281
10024SOL    HW340416   3.672   6.181   5.263
10024SOL    MW440417   3.751   6.166   5.298
10025SOL     OW40418   5.491   7.061   4.263
10025SOL    HW240419   5.461   6.994   4.324
10025SOL    HW340420   5.585   7.067   4.277
10025SOL    MW440421   5.499   7.053   4.273
10026SOL     OW40422   5.047   6.738   4.193
10026SOL    HW240423   5.019   6.824   4.226
10026SOL    HW340424   5.075   6.754   4.103
10026SOL    MW440425   5.047   6.752   4.185
10027SOL     OW40426   4.709   5.658   4.246
10027SOL    HW240427   4.746   5.717   4.311
10027SOL    HW340428   4.686   5.714   4.172
10027SOL    MW440429   4.710   5.673   4.245
10028SOL     OW40430   5.562   6.540   4.668
10028SOL    HW240431   5.553   6.572   4.579
10028SOL    HW340432   5.515   6.456   4.668
10028SOL    MW440433   5.555   6.533   4.658
10029SOL     OW40434   3.938   6.380   5.247
10029SOL    HW240435   3.959   6.449   5.185
10029SOL    HW340436   4.018   6.327   5.252
10029SOL    MW440437   3.951   6.381   5.241
10030SOL     OW40438   5.474   6.471   4.369
10030SOL    HW240439   5.568   6.460   4.357
10030SOL    HW340440   5.450   6.543   4.310
10030SOL    MW440441   5.484   6.479   4.360
10031SOL     OW40442   3.923   6.395   5.514
10031SOL    HW240443   3.849   6.339   5.540
10031SOL    HW340444   3.918   6.398   5.419
10031SOL    MW440445   3.912   6.388   5.504
10032SOL     OW40446   4.089   5.682   4.964
10032SOL    HW240447   4.132   5.766   4.984
10032SOL    HW340448   4.162   5.620   4.957
10032SOL    MW440449   4.104   5.685   4.965
10033SOL     OW40450   4.906   6.208   5.206
10033SOL    HW240451   4.942   6.181   5.122
10033SOL    HW340452   4.819   6.242   5.185
10033SOL    MW440453   4.900   6.209   5.193
10034SOL     OW40454   3.889   6.080   4.431
10034SOL    HW240455   3.951   6.087   4.504
10034SOL    HW340456   3.889   5.987   4.408
10034SOL    MW440457   3.897   6.069   4.438
10035SOL     OW40458   5.436   7.420   3.963
10035SOL    HW240459   5.503   7.453   3.903
10035SOL    HW340460   5.393   7.499   3.997
10035SOL    MW440461   5.438   7.435   3.959
10036SOL     OW40462   4.571   6.341   4.915
10036SOL    HW240463   4.529   6.259   4.891
10036SOL    HW340464   4.572   6.340   5.011
10036SOL    MW440465   4.564   6.330   4.924
10037SOL     OW40466   5.242   7.474   5.314
10037SOL    HW240467   5.245   7.380   5.297
10037SOL    HW340468   5.265   7.482   5.406
10037SOL    MW440469   5.245   7.462   5.324
10038SOL     OW40470   4.375   5.811   5.020
10038SOL    HW240471   4.306   5.874   5.041
10038SOL    HW340472   4.402   5.775   5.105
10038SOL    MW440473   4.369   5.814   5.033
10039SOL     OW40474   3.758   6.652   3.889
10039SOL    HW240475   3.727   6.717   3.952
10039SOL    HW340476   3.707   6.574   3.908
10039SOL    MW440477   3.748   6.649   3.899
10040SOL     OW40478   5.170   5.664   4.637
10040SOL    HW240479   5.258   5.673   4.674
10040SOL    HW340480   5.180   5.605   4.563
10040SOL    MW440481   5.184   5.658   4.631
10041SOL     OW40482   5.202   6.403   4.481
10041SOL    HW240483   5.282   6.418   4.430
10041SOL    HW340484   5.195   6.308   4.487
10041SOL    MW440485   5.211   6.392   4.476
10042SOL     OW40486   4.342   7.452   3.831
10042SOL    HW240487   4.247   7.452   3.823
10042SOL    HW340488   4.358   7.398   3.909
10042SOL    MW440489   4.332   7.446   3.840
10043SOL     OW40490   4.652   6.329   5.178
10043SOL    HW240491   4.721   6.396   5.175
10043SOL    HW340492   4.585   6.367   5.234
10043SOL    MW440493   4.653   6.342   5.185
10044SOL     OW40494   4.070   6.629   5.426
10044SOL    HW240495   4.024   6.545   5.428
10044SOL    HW340496   4.127   6.623   5.350
10044SOL    MW440497   4.072   6.617   5.418
10045SOL     OW40498   4.321   7.004   4.427
10045SOL    HW240499   4.386   6.937   4.448
10045SOL    HW340500   4.373   7.081   4.404
10045SOL    MW440501   4.336   7.006   4.426
10046SOL     OW40502   4.582   6.169   4.557
10046SOL    HW240503   4.522   6.187   4.629
10046SOL    HW340504   4.616   6.081   4.576
10046SOL    MW440505   4.578   6.159   4.570
10047SOL     OW40506   5.523   5.668   5.226
10047SOL    HW240507   5.444   5.714   5.254
10047SOL    HW340508   5.558   5.722   5.155
10047SOL    MW440509   5.517   5.681   5.220
10048SOL     OW40510   4.807   6.752   4.576
10048SOL    HW240511   4.899   6.733   4.594
10048SOL    HW340512   4.780   6.682   4.516
10048SOL    MW440513   4.815   6.740   4.570
10049SOL     OW40514   4.600   6.572   3.931
10049SOL    HW240515   4.586   6.484   3.896
10049SOL    HW340516   4.551   6.629   3.872
10049SOL    MW440517   4.592   6.567   3.919
10050SOL     OW40518   5.081   6.990   4.672
10050SOL    HW240519   5.054   7.074   4.637
10050SOL    HW340520   5.041   6.985   4.759
10050SOL    MW440521   5.074   6.999   4.678
10051SOL     OW40522   5.000   6.938   4.940
10051SOL    HW240523   5.011   6.905   5.029
10051SOL    HW340524   4.919   6.897   4.909
10051SOL    MW440525   4.990   6.930   4.946
10052SOL     OW40526   5.080   7.060   5.472
10052SOL    HW240527   5.080   7.154   5.488
10052SOL    HW340528   5.125   7.050   5.388
10052SOL    MW440529   5.086   7.070   5.463
10053SOL     OW40530   5.319   5.778   4.033
10053SOL    HW240531   5.312   5.782   4.128
10053SOL    HW340532   5.331   5.869   4.006
10053SOL    MW440533   5.320   5.791   4.041
10054SOL     OW40534   3.935   5.964   5.451
10054SOL    HW240535   3.892   6.023   5.388
10054SOL    HW340536   4.003   6.019   5.491
10054SOL    MW440537   3.939   5.979   5.448
10055SOL     OW40538   5.047   6.584   4.996
10055SOL    HW240539   5.110   6.581   5.069
10055SOL    HW340540   4.963   6.602   5.038
10055SOL    MW440541   5.043   6.586   5.011
10056SOL     OW40542   4.591   7.299   4.185
10056SOL    HW240543   4.649   7.370   4.212
10056SOL    HW340544   4.614   7.227   4.243
10056SOL    MW440545   4.602   7.299   4.196
10057SOL     OW40546   5.386   5.761   4.775
10057SOL    HW240547   5.431   5.679   4.794
10057SOL    HW340548   5.406   5.817   4.851
10057SOL    MW440549   5.396   5.757   4.787
10058SOL     OW40550   3.834   5.604   4.874
10058SOL    HW240551   3.825   5.605   4.779
10058SOL    HW340552   3.928   5.616   4.889
10058SOL    MW440553   3.846   5.607   4.865
10059SOL     OW40554   5.471   6.797   4.494
10059SOL    HW240555   5.450   6.743   4.417
10059SOL    HW340556   5.567   6.795   4.498
10059SOL    MW440557   5.480   6.790   4.483
10060SOL     OW40558   4.163   6.942   5.237
10060SOL    HW240559   4.084   6.892   5.260
10060SOL    HW340560   4.233   6.901   5.287
10060SOL    MW440561   4.161   6.930   5.247
10061SOL     OW40562   4.047   5.731   3.920
10061SOL    HW240563   3.976   5.786   3.888
10061SOL    HW340564   4.089   5.697   3.841
10061SOL    MW440565   4.043   5.733   3.906
10062SOL     OW40566   5.171   6.228   4.756
10062SOL    HW240567   5.094   6.274   4.722
10062SOL    HW340568   5.228   6.297   4.790
10062SOL    MW440569   5.168   6.243   4.756
10063SOL     OW40570   3.803   5.830   3.769
10063SOL    HW240571   3.770   5.909   3.813
10063SOL    HW340572   3.858   5.863   3.698
10063SOL    MW440573   3.806   5.844   3.766
10064SOL     OW40574   3.837   7.087   3.958
10064SOL    HW240575   3.854   7.171   4.000
10064SOL    HW340576   3.872   7.096   3.870
10064SOL    MW440577   3.842   7.100   3.952
10065SOL     OW40578   5.472   6.444   5.862
10065SOL    HW240579   5.513   6.386   5.927
10065SOL    HW340580   5.379   6.436   5.879
10065SOL    MW440581   5.466   6.436   5.872
10066SOL     OW40582   5.338   6.376   6.857
10066SOL    HW240583   5.293   6.443   6.908
10066SOL    HW340584   5.426   6.412   6.843
10066SOL    MW440585   5.344   6.389   6.861
10067SOL     OW40586   4.266   6.627   6.091
10067SOL    HW240587   4.356   6.602   6.075
10067SOL    HW340588   4.262   6.720   6.068
10067SOL    MW440589   4.278   6.636   6.086
10068SOL     OW40590   5.382   7.330   6.233
10068SOL    HW240591   5.394   7.276   6.311
10068SOL    HW340592   5.419   7.278   6.162
10068SOL    MW440593   5.388   7.315   6.234
10069SOL     OW40594   4.761   7.215   7.234
10069SOL    HW240595   4.802   7.251   7.155
10069SOL    HW340596   4.796   7.126   7.241
10069SOL    MW440597   4.772   7.208   7.225
10070SOL     OW40598   5.318   6.770   6.838
10070SOL    HW240599   5.239   6.735   6.796
10070SOL    HW340600   5.345   6.842   6.782
10070SOL    MW440601   5.311   6.775   6.825
10071SOL     OW40602   4.550   6.083   6.104
10071SOL    HW240603   4.525   6.171   6.132
10071SOL    HW340604   4.547   6.086   6.008
10071SOL    MW440605   4.546   6.095   6.096
10072SOL     OW40606   3.992   6.111   6.032
10072SOL    HW240607   4.024   6.199   6.014
10072SOL    HW340608   3.980   6.109   6.127
10072SOL    MW440609   3.995   6.123   6.044
10073SOL     OW40610   4.070   6.524   6.933
10073SOL    HW240611   4.133   6.471   6.884
10073SOL    HW340612   4.051   6.598   6.876
10073SOL    MW440613   4.076   6.526   6.920
10074SOL     OW40614   4.391   5.866   6.119
10074SOL    HW240615   4.449   5.942   6.121
10074SOL    HW340616   4.326   5.887   6.052
10074SOL    MW440617   4.390   5.878   6.110
10075SOL     OW40618   4.478   6.793   6.294
10075SOL    HW240619   4.558   6.796   6.346
10075SOL    HW340620   4.506   6.760   6.208
10075SOL    MW440621   4.492   6.789   6.289
10076SOL     OW40622   4.503   7.134   7.197
10076SOL    HW240623   4.587   7.160   7.236
10076SOL    HW340624   4.527   7.078   7.123
10076SOL    MW440625   4.517   7.130   7.192
10077SOL     OW40626   4.255   6.297   6.285
10077SOL    HW240627   4.240   6.217   6.336
10077SOL    HW340628   4.337   6.332   6.319
10077SOL    MW440629   4.263   6.289   6.297
10078SOL     OW40630   4.592   6.983   6.970
10078SOL    HW240631   4.556   7.049   6.910
10078SOL    HW340632   4.520   6.921   6.983
10078SOL    MW440633   4.578   6.983   6.964
10079SOL     OW40634   4.397   6.123   6.662
10079SOL    HW240635   4.303   6.119   6.680
10079SOL    HW340636   4.427   6.032   6.671
10079SOL    MW440637   4.388   6.111   6.665
10080SOL     OW40638   4.143   6.537   6.566
10080SOL    HW240639   4.098   6.544   6.482
10080SOL    HW340640   4.123   6.620   6.610
10080SOL    MW440641   4.135   6.549   6.560
10081SOL     OW40642   3.840   7.383   6.441
10081SOL    HW240643   3.929   7.375   6.476
10081SOL    HW340644   3.804   7.295   6.446
10081SOL    MW440645   3.847   7.370   6.446
10082SOL     OW40646   5.105   6.775   5.810
10082SOL    HW240647   5.023   6.811   5.776
10082SOL    HW340648   5.173   6.818   5.759
10082SOL    MW440649   5.103   6.785   5.798
10083SOL     OW40650   4.104   6.910   6.476
10083SOL    HW240651   4.080   6.963   6.552
10083SOL    HW340652   4.160   6.968   6.424
10083SOL    MW440653   4.108   6.925   6.479
10084SOL     OW40654   4.666   6.554   6.286
10084SOL    HW240655   4.580   6.541   6.326
10084SOL    HW340656   4.719   6.481   6.318
10084SOL    MW440657   4.662   6.543   6.295
10085SOL     OW40658   4.074   7.206   7.071
10085SOL    HW240659   3.982   7.182   7.056
10085SOL    HW340660   4.118   7.123   7.088
10085SOL    MW440661   4.068   7.191   7.070
10086SOL     OW40662   4.657   6.916   6.003
10086SOL    HW240663   4.634   6.978   6.071
10086SOL    HW340664   4.614   6.834   6.029
10086SOL    MW440665   4.649   6.912   6.014
10087SOL     OW40666   5.530   5.917   6.459
10087SOL    HW240667   5.467   5.897   6.528
10087SOL    HW340668   5.520   5.846   6.396
10087SOL    MW440669   5.520   5.904   6.460
10088SOL     OW40670   4.154   5.889   5.971
10088SOL    HW240671   4.128   5.851   5.887
10088SOL    HW340672   4.091   5.959   5.987
10088SOL    MW440673   4.143   5.892   5.962
10089SOL     OW40674   3.989   6.850   6.008
10089SOL    HW240675   3.937   6.918   5.964
10089SOL    HW340676   3.986   6.776   5.948
10089SOL    MW440677   3.981   6.849   5.995
10090SOL     OW40678   4.651   7.313   5.786
10090SOL    HW240679   4.606   7.329   5.869
10090SOL    HW340680   4.582   7.278   5.728
10090SOL    MW440681   4.637   7.310   5.788
10091SOL     OW40682   5.586   6.086   5.761
10091SOL    HW240683   5.495   6.088   5.789
10091SOL    HW340684   5.631   6.148   5.819
10091SOL    MW440685   5.579   6.094   5.771
10092SOL     OW40686   5.331   6.689   6.111
10092SOL    HW240687   5.241   6.689   6.146
10092SOL    HW340688   5.324   6.735   6.028
10092SOL    MW440689   5.318   6.695   6.105
10093SOL     OW40690   5.131   6.324   7.183
10093SOL    HW240691   5.200   6.262   7.160
10093SOL    HW340692   5.056   6.298   7.130
10093SOL    MW440693   5.131   6.311   7.174
10094SOL     OW40694   3.872   7.204   6.735
10094SOL    HW240695   3.855   7.150   6.812
10094SOL    HW340696   3.860   7.294   6.765
10094SOL    MW440697   3.869   7.208   6.749
10095SOL     OW40698   4.867   6.711   7.175
10095SOL    HW240699   4.852   6.804   7.160
10095SOL    HW340700   4.962   6.701   7.175
10095SOL    MW440701   4.876   6.721   7.172
10096SOL     OW40702   4.663   6.135   7.376
10096SOL    HW240703   4.753   6.136   7.343
10096SOL    HW340704   4.622   6.060   7.334
10096SOL    MW440705   4.669   6.125   7.367
10097SOL     OW40706   5.238   6.667   6.503
10097SOL    HW240707   5.241   6.601   6.434
10097SOL    HW340708   5.323   6.710   6.499
10097SOL    MW440709   5.250   6.663   6.494
10098SOL     OW40710   4.858   6.270   6.072
10098SOL    HW240711   4.884   6.294   5.983
10098SOL    HW340712   4.840   6.177   6.068
10098SOL    MW440713   4.860   6.262   6.059
10099SOL     OW40714   5.523   6.890   5.923
10099SOL    HW240715   5.479   6.931   5.998
10099SOL    HW340716   5.580   6.958   5.888
10099SOL    MW440717   5.525   6.904   5.928
10100SOL     OW40718   4.443   5.939   7.326
10100SOL    HW240719   4.453   5.865   7.266
10100SOL    HW340720   4.479   5.908   7.409
10100SOL    MW440721   4.449   5.925   7.328
10101SOL     OW40722   4.179   7.306   6.241
10101SOL    HW240723   4.211   7.394   6.219
10101SOL    HW340724   4.132   7.278   6.163
10101SOL    MW440725   4.178   7.314   6.228
10102SOL     OW40726   5.563   5.668   6.290
10102SOL    HW240727   5.617   5.619   6.352
10102SOL    HW340728   5.506   5.602   6.251
10102SOL    MW440729   5.563   5.652   6.292
10103SOL     OW40730   3.895   7.366   5.818
10103SOL    HW240731   3.924   7.456   5.810
10103SOL    HW340732   3.845   7.349   5.739
10103SOL    MW440733   3.893   7.374   5.807
10104SOL     OW40734   4.682   5.621   6.703
10104SOL    HW240735   4.641   5.699   6.665
10104SOL    HW340736   4.776   5.639   6.698
10104SOL    MW440737   4.688   5.633   6.698
10105SOL     OW40738   5.299   7.174   5.789
10105SOL    HW240739   5.347   7.243   5.835
10105SOL    HW340740   5.220   7.218   5.758
10105SOL    MW440741   5.294   7.188   5.792
10106SOL     OW40742   4.697   6.299   5.733
10106SOL    HW240743   4.699   6.246   5.654
10106SOL    HW340744   4.785   6.336   5.739
10106SOL    MW440745   4.709   6.298   5.722
10107SOL     OW40746   5.311   6.225   6.069
10107SOL    HW240747   5.350   6.225   6.156
10107SOL    HW340748   5.252   6.301   6.069
10107SOL    MW440749   5.308   6.236   6.080
10108SOL     OW40750   4.628   6.592   7.198
10108SOL    HW240751   4.605   6.572   7.288
10108SOL    HW340752   4.713   6.636   7.203
10108SOL    MW440753   4.635   6.595   7.210
10109SOL     OW40754   4.708   5.729   6.958
10109SOL    HW240755   4.714   5.691   6.871
10109SOL    HW340756   4.697   5.823   6.943
10109SOL    MW440757   4.709   5.737   6.946
10110SOL     OW40758   4.797   6.218   6.792
10110SOL    HW240759   4.872   6.247   6.739
10110SOL    HW340760   4.729   6.283   6.776
10110SOL    MW440761   4.798   6.230   6.782
10111SOL     OW40762   5.347   6.186   7.069
10111SOL    HW240763   5.328   6.095   7.048
10111SOL    HW340764   5.325   6.235   6.990
10111SOL    MW440765   5.342   6.179   7.056
10112SOL     OW40766   5.489   7.280   6.973
10112SOL    HW240767   5.417   7.242   7.024
10112SOL    HW340768   5.506   7.365   7.014
10112SOL    MW440769   5.483   7.285   6.985
10113SOL     OW40770   4.794   5.924   7.175
10113SOL    HW240771   4.760   5.963   7.094
10113SOL    HW340772   4.772   5.832   7.168
10113SOL    MW440773   4.787   5.917   7.165
10114SOL     OW40774   5.203   6.738   7.251
10114SOL    HW240775   5.285   6.779   7.281
10114SOL    HW340776   5.166   6.700   7.331
10114SOL    MW440777   5.209   6.739   7.266
10115SOL     OW40778   5.498   6.111   6.235
10115SOL    HW240779   5.587   6.080   6.252
10115SOL    HW340780   5.441   6.051   6.283
10115SOL    MW440781   5.501   6.099   6.244
10116SOL     OW40782   3.924   5.825   6.264
10116SOL    HW240783   3.915   5.765   6.190
10116SOL    HW340784   3.857   5.796   6.327
10116SOL    MW440785   3.914   5.812   6.262
10117SOL     OW40786   4.867   6.918   5.825
10117SOL    HW240787   4.817   6.920   5.907
10117SOL    HW340788   4.801   6.936   5.757
10117SOL    MW440789   4.853   6.920   5.827
10118SOL     OW40790   3.871   5.998   6.627
10118SOL    HW240791   3.843   6.089   6.636
10118SOL    HW340792   3.808   5.959   6.566
10118SOL    MW440793   3.858   6.004   6.621
10119SOL     OW40794   4.330   7.336   5.933
10119SOL    HW240795   4.251   7.294   5.966
10119SOL    HW340796   4.396   7.319   6.000
10119SOL    MW440797   4.329   7.328   5.946
10120SOL     OW40798   5.458   6.856   7.330
10120SOL    HW240799   5.508   6.782   7.362
10120SOL    HW340800   5.404   6.883   7.405
10120SOL    MW440801   5.458   6.850   7.343
10121SOL     OW40802   4.466   6.751   5.640
10121SOL    HW240803   4.388   6.697   5.627
10121SOL    HW340804   4.437   6.824   5.693
10121SOL    MW440805   4.452   6.753   5.645
10122SOL     OW40806   5.592   6.491   6.832
10122SOL    HW240807   5.608   6.529   6.745
10122SOL    HW340808   5.626   6.557   6.893
10122SOL    MW440809   5.599   6.504   6.828
10123SOL     OW40810   5.384   7.200   6.501
10123SOL    HW240811   5.413   7.267   6.562
10123SOL    HW340812   5.365   7.124   6.556
10123SOL    MW440813   5.386   7.200   6.516
10124SOL     OW40814   5.047   7.267   5.708
10124SOL    HW240815   4.973   7.230   5.758
10124SOL    HW340816   5.055   7.357   5.741
10124SOL    MW440817   5.038   7.274   5.720
10125SOL     OW40818   3.855   6.273   6.797
10125SOL    HW240819   3.917   6.303   6.863
10125SOL    HW340820   3.789   6.342   6.791
10125SOL    MW440821   3.854   6.286   6.804
10126SOL     OW40822   5.271   6.941   5.650
10126SOL    HW240823   5.218   6.990   5.586
10126SOL    HW340824   5.302   7.007   5.711
10126SOL    MW440825   5.269   6.955   5.648
10127SOL     OW40826   4.496   5.830   5.705
10127SOL    HW240827   4.444   5.750   5.693
10127SOL    HW340828   4.583   5.807   5.673
10127SOL    MW440829   4.499   5.816   5.699
10128SOL     OW40830   3.950   7.382   7.249
10128SOL    HW240831   3.924   7.450   7.187
10128SOL    HW340832   3.998   7.319   7.197
10128SOL    MW440833   3.952   7.382   7.235
10129SOL     OW40834   4.002   6.701   6.756
10129SOL    HW240835   4.055   6.776   6.781
10129SOL    HW340836   3.921   6.739   6.722
10129SOL    MW440837   3.998   6.716   6.756
10130SOL     OW40838   4.542   6.605   6.744
10130SOL    HW240839   4.570   6.514   6.756
10130SOL    HW340840   4.471   6.599   6.680
10130SOL    MW440841   4.535   6.593   6.739
10131SOL     OW40842   3.857   6.470   6.162
10131SOL    HW240843   3.948   6.485   6.189
10131SOL    HW340844   3.860   6.391   6.108
10131SOL    MW440845   3.869   6.462   6.160
10132SOL     OW40846   4.093   6.178   7.416
10132SOL    HW240847   4.040   6.258   7.423
10132SOL    HW340848   4.163   6.190   7.481
10132SOL    MW440849   4.095   6.191   7.424
10133SOL     OW40850   4.479   5.728   7.123
10133SOL    HW240851   4.456   5.636   7.125
10133SOL    HW340852   4.565   5.730   7.080
10133SOL    MW440853   4.486   5.718   7.119
10134SOL     OW40854   4.163   6.252   7.162
10134SOL    HW240855   4.243   6.302   7.148
10134SOL    HW340856   4.154   6.246   7.257
10134SOL    MW440857   4.172   6.258   7.172
10135SOL     OW40858   4.484   7.402   6.536
10135SOL    HW240859   4.573   7.417   6.566
10135SOL    HW340860   4.479   7.449   6.452
10135SOL    MW440861   4.494   7.410   6.529
10136SOL     OW40862   5.140   5.777   7.433
10136SOL    HW240863   5.196   5.704   7.459
10136SOL    HW340864   5.110   5.815   7.515
10136SOL    MW440865   5.144   5.772   7.446
10137SOL     OW40866   3.865   7.082   6.201
10137SOL    HW240867   3.837   7.121   6.283
10137SOL    HW340868   3.885   6.991   6.223
10137SOL    MW440869   3.863   7.074   6.214
10138SOL     OW40870   4.698   7.125   6.236
10138SOL    HW240871   4.781   7.079   6.220
10138SOL    HW340872   4.688   7.124   6.332
10138SOL    MW440873   4.708   7.118   6.246
10139SOL     OW40874   5.530   6.270   6.550
10139SOL    HW240875   5.619   6.300   6.532
10139SOL    HW340876   5.510   6.210   6.479
10139SOL    MW440877   5.539   6.267   6.539
10140SOL     OW40878   5.381   6.449   7.430
10140SOL    HW240879   5.436   6.373   7.411
10140SOL    HW340880   5.383   6.457   7.525
10140SOL    MW440881   5.389   6.440   7.438
10141SOL     OW40882   4.431   7.182   5.641
10141SOL    HW240883   4.371   7.251   5.611
10141SOL    HW340884   4.376   7.124   5.694
10141SOL    MW440885   4.415   7.184   5.643
10142SOL     OW40886   4.869   5.827   5.864
10142SOL    HW240887   4.802   5.803   5.801
10142SOL    HW340888   4.934   5.876   5.813
10142SOL    MW440889   4.869   5.829   5.849
10143SOL     OW40890   4.676   6.011   6.949
10143SOL    HW240891   4.595   6.052   6.977
10143SOL    HW340892   4.723   6.079   6.901
10143SOL    MW440893   4.671   6.026   6.947
10144SOL     OW40894   4.936   6.349   6.572
10144SOL    HW240895   4.949   6.443   6.582
10144SOL    HW340896   4.897   6.339   6.486
10144SOL    MW440897   4.932   6.360   6.562
10145SOL     OW40898   4.388   6.544   6.376
10145SOL    HW240899   4.299   6.535   6.409
10145SOL    HW340900   4.392   6.634   6.344
10145SOL    MW440901   4.377   6.555   6.376
10146SOL     OW40902   5.187   6.127   6.371
10146SOL    HW240903   5.132   6.048   6.370
10146SOL    HW340904   5.169   6.168   6.455
10146SOL    MW440905   5.177   6.122   6.380
10147SOL     OW40906   4.158   5.814   7.188
10147SOL    HW240907   4.079   5.832   7.240
10147SOL    HW340908   4.153   5.876   7.115
10147SOL    MW440909   4.148   5.824   7.185
10148SOL     OW40910   4.806   6.331   6.328
10148SOL    HW240911   4.743   6.263   6.352
10148SOL    HW340912   4.826   6.312   6.236
10148SOL    MW440913   4.800   6.318   6.320
10149SOL     OW40914   4.062   7.226   6.030
10149SOL    HW240915   4.023   7.273   5.956
10149SOL    HW340916   3.996   7.161   6.055
10149SOL    MW440917   4.049   7.224   6.024
10150SOL     OW40918   4.554   6.635   6.054
10150SOL    HW240919   4.556   6.609   5.961
10150SOL    HW340920   4.612   6.572   6.097
10150SOL    MW440921   4.562   6.624   6.048
10151SOL     OW40922   5.107   7.195   6.826
10151SOL    HW240923   5.032   7.241   6.864
10151SOL    HW340924   5.089   7.102   6.843
10151SOL    MW440925   5.096   7.189   6.834
10152SOL     OW40926   5.111   7.403   6.256
10152SOL    HW240927   5.054   7.356   6.195
10152SOL    HW340928   5.197   7.364   6.243
10152SOL    MW440929   5.114   7.394   6.246
10153SOL     OW40930   5.064   5.879   6.387
10153SOL    HW240931   5.092   5.811   6.448
10153SOL    HW340932   4.978   5.850   6.357
10153SOL    MW440933   5.057   5.866   6.391
10154SOL     OW40934   3.869   6.813   6.321
10154SOL    HW240935   3.933   6.845   6.384
10154SOL    HW340936   3.918   6.749   6.269
10154SOL    MW440937   3.884   6.809   6.322
10155SOL     OW40938   4.369   6.889   7.303
10155SOL    HW240939   4.417   6.972   7.290
10155SOL    HW340940   4.426   6.837   7.359
10155SOL    MW440941   4.383   6.893   7.309
10156SOL     OW40942   3.945   7.131   7.443
10156SOL    HW240943   4.001   7.055   7.458
10156SOL    HW340944   3.894   7.109   7.365
10156SOL    MW440945   3.945   7.118   7.434
10157SOL     OW40946   5.044   5.983   5.722
10157SOL    HW240947   5.017   6.049   5.658
10157SOL    HW340948   5.114   6.026   5.772
10157SOL    MW440949   5.049   5.996   5.719
10158SOL     OW40950   4.712   5.688   5.659
10158SOL    HW240951   4.768   5.680   5.581
10158SOL    HW340952   4.689   5.598   5.681
10158SOL    MW440953   4.717   5.675   5.652
10159SOL     OW40954   5.217   6.539   5.864
10159SOL    HW240955   5.184   6.628   5.854
10159SOL    HW340956   5.182   6.510   5.949
10159SOL    MW440957   5.207   6.548   5.875
10160SOL     OW40958   4.830   6.968   7.052
10160SOL    HW240959   4.741   6.974   7.020
10160SOL    HW340960   4.874   7.047   7.020
10160SOL    MW440961   4.825   6.978   7.044
10161SOL     OW40962   4.123   5.636   7.394
10161SOL    HW240963   4.051   5.601   7.342
10161SOL    HW340964   4.181   5.677   7.329
10161SOL    MW440965   4.121   5.637   7.379
10162SOL     OW40966   4.147   7.126   6.693
10162SOL    HW240967   4.192   7.188   6.750
10162SOL    HW340968   4.054   7.145   6.706
10162SOL    MW440969   4.140   7.136   6.700
10163SOL     OW40970   5.587   6.655   7.047
10163SOL    HW240971   5.502   6.668   7.006
10163SOL    HW340972   5.567   6.619   7.134
10163SOL    MW440973   5.574   6.651   7.052
10164SOL     OW40974   4.569   7.194   6.801
10164SOL    HW240975   4.593   7.183   6.710
10164SOL    HW340976   4.492   7.251   6.799
10164SOL    MW440977   4.561   7.199   6.790
10165SOL     OW40978   4.211   6.577   5.656
10165SOL    HW240979   4.134   6.590   5.712
10165SOL    HW340980   4.175   6.541   5.575
10165SOL    MW440981   4.197   6.573   5.653
10166SOL     OW40982   4.864   6.550   5.899
10166SOL    HW240983   4.774   6.571   5.874
10166SOL    HW340984   4.891   6.623   5.955
10166SOL    MW440985   4.856   6.562   5.902
10167SOL     OW40986   4.364   6.899   6.591
10167SOL    HW240987   4.357   6.878   6.685
10167SOL    HW340988   4.282   6.867   6.554
10167SOL    MW440989   4.352   6.893   6.598
10168SOL     OW40990   5.228   5.909   6.993
10168SOL    HW240991   5.175   5.911   7.073
10168SOL    HW340992   5.213   5.822   6.956
10168SOL    MW440993   5.220   5.899   6.998
10169SOL     OW40994   5.564   5.833   6.866
10169SOL    HW240995   5.545   5.900   6.801
10169SOL    HW340996   5.621   5.771   6.821
10169SOL    MW440997   5.568   5.834   6.852
10170SOL     OW40998   3.810   6.991   7.254
10170SOL    HW240999   3.854   6.924   7.200
10170SOL    HW341000   3.725   6.953   7.274
10170SOL    MW441001   3.805   6.977   7.250
10171SOL     OW41002   4.493   5.666   6.306
10171SOL    HW241003   4.422   5.727   6.288
10171SOL    HW341004   4.544   5.663   6.225
10171SOL    MW441005   4.489   5.672   6.293
10172SOL     OW41006   4.251   6.906   6.055
10172SOL    HW241007   4.244   6.938   6.145
10172SOL    HW341008   4.161   6.890   6.027
10172SOL    MW441009   4.239   6.908   6.062
10173SOL     OW41010   4.846   7.299   6.964
10173SOL    HW241011   4.766   7.284   6.914
10173SOL    HW341012   4.853   7.394   6.971
10173SOL    MW441013   4.837   7.310   6.958
10174SOL     OW41014   4.960   7.264   6.454
10174SOL    HW241015   5.007   7.337   6.413
10174SOL    HW341016   4.881   7.303   6.490
10174SOL    MW441017   4.955   7.279   6.453
10175SOL     OW41018   5.368   7.359   6.729
10175SOL    HW241019   5.411   7.329   6.809
10175SOL    HW341020   5.287   7.307   6.726
10175SOL    MW441021   5.363   7.348   6.739
10176SOL     OW41022   4.453   6.323   7.436
10176SOL    HW241023   4.523   6.265   7.408
10176SOL    HW341024   4.396   6.268   7.491
10176SOL    MW441025   4.455   6.310   7.440
10177SOL     OW41026   5.240   6.535   7.069
10177SOL    HW241027   5.245   6.588   7.149
10177SOL    HW341028   5.202   6.452   7.097
10177SOL    MW441029   5.236   6.530   7.084
10178SOL     OW41030   4.880   5.670   7.315
10178SOL    HW241031   4.875   5.577   7.296
10178SOL    HW341032   4.963   5.681   7.361
10178SOL    MW441033   4.888   5.659   7.319
10179SOL     OW41034   4.254   6.190   5.769
10179SOL    HW241035   4.220   6.246   5.839
10179SOL    HW341036   4.325   6.140   5.809
10179SOL    MW441037   4.260   6.191   5.783
10180SOL     OW41038   5.350   6.941   6.591
10180SOL    HW241039   5.385   6.923   6.504
10180SOL    HW341040   5.255   6.942   6.578
10180SOL    MW441041   5.342   6.938   6.578
10181SOL     OW41042   4.779   6.589   6.960
10181SOL    HW241043   4.822   6.624   7.038
10181SOL    HW341044   4.762   6.666   6.906
10181SOL    MW441045   4.782   6.604   6.963
10182SOL     OW41046   5.310   6.076   5.833
10182SOL    HW241047   5.302   6.147   5.770
10182SOL    HW341048   5.328   6.120   5.916
10182SOL    MW441049   5.311   6.090   5.835
10183SOL     OW41050   4.170   5.731   6.262
10183SOL    HW241051   4.220   5.774   6.193
10183SOL    HW341052   4.085   5.775   6.262
10183SOL    MW441053   4.167   5.744   6.253
10184SOL     OW41054   3.929   6.793   7.122
10184SOL    HW241055   3.957   6.746   7.200
10184SOL    HW341056   3.850   6.748   7.093
10184SOL    MW441057   3.922   6.782   7.128
10185SOL     OW41058   4.437   6.120   7.089
10185SOL    HW241059   4.409   6.208   7.113
10185SOL    HW341060   4.406   6.064   7.160
10185SOL    MW441061   4.429   6.123   7.101
10186SOL     OW41062   4.979   6.338   5.808
10186SOL    HW241063   5.026   6.356   5.727
10186SOL    HW341064   4.945   6.422   5.836
10186SOL    MW441065   4.981   6.352   5.801
10187SOL     OW41066   4.092   6.516   6.302
10187SOL    HW241067   4.150   6.572   6.250
10187SOL    HW341068   4.136   6.431   6.304
10187SOL    MW441069   4.105   6.513   6.295
10188SOL     OW41070   5.232   5.868   6.139
10188SOL    HW241071   5.154   5.818   6.164
10188SOL    HW341072   5.203   5.959   6.139
10188SOL    MW441073   5.218   5.872   6.142
10189SOL     OW41074   4.818   5.830   6.298
10189SOL    HW241075   4.838   5.905   6.242
10189SOL    HW341076   4.798   5.869   6.383
10189SOL    MW441077   4.819   5.846   6.302
10190SOL     OW41078   4.714   7.080   5.630
10190SOL    HW241079   4.741   7.158   5.582
10190SOL    HW341080   4.621   7.095   5.649
10190SOL    MW441081   4.705   7.093   5.626
10191SOL     OW41082   5.578   6.603   7.317
10191SOL    HW241083   5.491   6.583   7.353
10191SOL    HW341084   5.632   6.529   7.342
10191SOL    MW441085   5.573   6.592   7.325
10192SOL     OW41086   3.799   7.116   6.474
10192SOL    HW241087   3.831   7.120   6.565
10192SOL    HW341088   3.704   7.124   6.482
10192SOL    MW441089   3.791   7.119   6.487
10193SOL     OW41090   3.754   6.242   6.021
10193SOL    HW241091   3.694   6.214   6.091
10193SOL    HW341092   3.828   6.182   6.027
10193SOL    MW441093   3.756   6.231   6.030
10194SOL     OW41094   5.322   7.454   7.455
10194SOL    HW241095   5.367   7.378   7.420
10194SOL    HW341096   5.360   7.467   7.542
10194SOL    MW441097   5.332   7.447   7.461
10195SOL     OW41098   4.922   6.973   6.181
10195SOL    HW241099   4.945   6.924   6.259
10195SOL    HW341100   5.003   7.015   6.153
10195SOL    MW441101   4.935   6.973   6.188
10196SOL     OW41102   4.180   5.981   6.910
10196SOL    HW241103   4.213   6.062   6.950
10196SOL    HW341104   4.153   6.007   6.822
10196SOL    MW441105   4.179   5.995   6.904
10197SOL     OW41106   4.134   5.948   6.646
10197SOL    HW241107   4.164   5.862   6.617
10197SOL    HW341108   4.039   5.941   6.649
10197SOL    MW441109   4.126   5.937   6.644
10198SOL     OW41110   4.963   6.157   7.337
10198SOL    HW241111   5.015   6.092   7.290
10198SOL    HW341112   4.921   6.208   7.267
10198SOL    MW441113   4.964   6.154   7.320
10199SOL     OW41114   5.062   5.952   7.198
10199SOL    HW241115   4.969   5.936   7.185
10199SOL    HW341116   5.088   5.890   7.266
10199SOL    MW441117   5.052   5.942   7.205
10200SOL     OW41118   4.277   5.726   6.537
10200SOL    HW241119   4.287   5.635   6.563
10200SOL    HW341120   4.233   5.722   6.452
10200SOL    MW441121   4.273   5.714   6.529
10201SOL     OW41122   4.371   7.341   7.083
10201SOL    HW241123   4.288   7.326   7.128
10201SOL    HW341124   4.430   7.274   7.118
10201SOL    MW441125   4.369   7.331   7.093
10202SOL     OW41126   5.428   6.048   6.708
10202SOL    HW241127   5.361   6.081   6.768
10202SOL    HW341128   5.471   6.126   6.674
10202SOL    MW441129   5.426   6.063   6.712
10203SOL     OW41130   5.606   6.768   6.678
10203SOL    HW241131   5.599   6.708   6.603
10203SOL    HW341132   5.532   6.828   6.667
10203SOL    MW441133   5.596   6.768   6.667
10204SOL     OW41134   4.988   6.630   6.596
10204SOL    HW241135   5.002   6.602   6.687
10204SOL    HW341136   5.074   6.661   6.568
10204SOL    MW441137   5.001   6.631   6.605
10205SOL     OW41138   5.071   6.125   6.875
10205SOL    HW241139   5.092   6.126   6.782
10205SOL    HW341140   5.116   6.047   6.908
10205SOL    MW441141   5.078   6.115   6.867
10206SOL     OW41142   5.564   6.256   7.417
10206SOL    HW241143   5.601   6.201   7.486
10206SOL    HW341144   5.589   6.213   7.335
10206SOL    MW441145   5.571   6.244   7.416
10207SOL     OW41146   5.111   6.554   7.468
10207SOL    HW241147   5.177   6.502   7.422
10207SOL    HW341148   5.131   6.541   7.561
10207SOL    MW441149   5.122   6.545   7.475
10208SOL     OW41150   5.062   5.640   5.817
10208SOL    HW241151   5.136   5.684   5.860
10208SOL    HW341152   4.986   5.694   5.839
10208SOL    MW441153   5.062   5.652   5.825
10209SOL     OW41154   5.122   6.415   6.095
10209SOL    HW241155   5.037   6.385   6.065
10209SOL    HW341156   5.114   6.422   6.190
10209SOL    MW441157   5.110   6.413   6.104
10210SOL     OW41158   4.198   6.878   6.826
10210SOL    HW241159   4.210   6.905   6.917
10210SOL    HW341160   4.179   6.959   6.779
10210SOL    MW441161   4.197   6.893   6.831
10211SOL     OW41162   4.482   5.858   6.649
10211SOL    HW241163   4.455   5.860   6.740
10211SOL    HW341164   4.412   5.810   6.604
10211SOL    MW441165   4.470   5.854   6.656
10212SOL     OW41166   4.336   7.350   6.811
10212SOL    HW241167   4.388   7.427   6.788
10212SOL    HW341168   4.345   7.342   6.906
10212SOL    MW441169   4.345   7.357   6.822
10213SOL     OW41170   5.238   6.935   7.043
10213SOL    HW241171   5.223   6.864   7.106
10213SOL    HW341172   5.284   6.893   6.971
10213SOL    MW441173   5.244   6.919   7.043
10214SOL     OW41174   4.312   6.666   7.160
10214SOL    HW241175   4.349   6.671   7.072
10214SOL    HW341176   4.351   6.739   7.207
10214SOL    MW441177   4.322   6.676   7.155
10215SOL     OW41178   4.492   6.709   6.972
10215SOL    HW241179   4.551   6.655   7.025
10215SOL    HW341180   4.507   6.681   6.882
10215SOL    MW441181   4.502   6.698   6.968
10216SOL     OW41182   4.495   6.081   5.821
10216SOL    HW241183   4.568   6.130   5.784
10216SOL    HW341184   4.511   5.990   5.795
10216SOL    MW441185   4.507   6.076   5.814
10217SOL     OW41186   5.303   7.198   7.144
10217SOL    HW241187   5.345   7.183   7.229
10217SOL    HW341188   5.294   7.111   7.106
10217SOL    MW441189   5.307   7.186   7.151
10218SOL     OW41190   4.963   5.677   6.735
10218SOL    HW241191   5.018   5.686   6.657
10218SOL    HW341192   5.018   5.711   6.806
10218SOL    MW441193   4.977   5.682   6.734
10219SOL     OW41194   3.970   6.590   5.919
10219SOL    HW241195   3.907   6.606   5.848
10219SOL    HW341196   3.917   6.553   5.990
10219SOL    MW441197   3.955   6.587   5.919
10220SOL     OW41198   4.326   6.944   5.778
10220SOL    HW241199   4.341   6.920   5.870
10220SOL    HW341200   4.234   6.922   5.762
10220SOL    MW441201   4.316   6.937   5.788
10221SOL     OW41202   4.865   7.175   5.930
10221SOL    HW241203   4.873   7.093   5.881
10221SOL    HW341204   4.784   7.214   5.897
10221SOL    MW441205   4.855   7.170   5.920
10222SOL     OW41206   4.124   7.333   6.499
10222SOL    HW241207   4.128   7.244   6.534
10222SOL    HW341208   4.150   7.324   6.408
10222SOL    MW441209   4.127   7.321   6.491
10223SOL     OW41210   4.741   6.811   6.742
10223SOL    HW241211   4.673   6.745   6.758
10223SOL    HW341212   4.759   6.805   6.649
10223SOL    MW441213   4.734   6.802   6.733
10224SOL     OW41214   3.830   7.086   6.993
10224SOL    HW241215   3.820   7.044   7.079
10224SOL    HW341216   3.751   7.139   6.983
10224SOL    MW441217   3.819   7.087   7.004
10225SOL     OW41218   4.734   5.950   6.563
10225SOL    HW241219   4.664   5.902   6.608
10225SOL    HW341220   4.766   6.013   6.627
10225SOL    MW441221   4.729   5.952   6.577
10226SOL     OW41222   4.385   6.386   7.183
10226SOL    HW241223   4.378   6.481   7.171
10226SOL    HW341224   4.394   6.375   7.278
10226SOL    MW441225   4.386   6.398   7.193
10227SOL     OW41226   4.106   6.901   7.441
10227SOL    HW241227   4.178   6.903   7.378
10227SOL    HW341228   4.076   6.810   7.440
10227SOL    MW441229   4.111   6.890   7.433
10228SOL     OW41230   5.190   5.664   6.908
10228SOL    HW241231   5.261   5.610   6.872
10228SOL    HW341232   5.189   5.643   7.001
10228SOL    MW441233   5.199   5.655   6.916
10229SOL     OW41234   5.390   7.194   7.392
10229SOL    HW241235   5.363   7.191   7.483
10229SOL    HW341236   5.486   7.198   7.395
10229SOL    MW441237   5.400   7.194   7.404
10230SOL     OW41238   4.201   6.056   6.376
10230SOL    HW241239   4.272   6.004   6.339
10230SOL    HW341240   4.187   6.021   6.463
10230SOL    MW441241   4.209   6.045   6.383
10231SOL     OW41242   3.756   7.391   7.448
10231SOL    HW241243   3.806   7.369   7.370
10231SOL    HW341244   3.764   7.486   7.456
10231SOL    MW441245   3.764   7.400   7.439
10232SOL     OW41246   4.517   7.149   6.452
10232SOL    HW241247   4.445   7.086   6.465
10232SOL    HW341248   4.478   7.234   6.470
10232SOL    MW441249   4.501   7.152   6.455
10233SOL     OW41250   4.837   5.997   6.100
10233SOL    HW241251   4.859   5.934   6.032
10233SOL    HW341252   4.742   5.989   6.111
10233SOL    MW441253   4.827   5.988   6.092
10234SOL     OW41254   3.922   5.687   6.032
10234SOL    HW241255   3.993   5.708   5.971
10234SOL    HW341256   3.876   5.615   5.990
10234SOL    MW441257   3.926   5.681   6.018
10235SOL     OW41258   3.753   6.154   7.175
10235SOL    HW241259   3.817   6.220   7.150
10235SOL    HW341260   3.672   6.181   7.132
10235SOL    MW441261   3.751   6.166   7.167
10236SOL     OW41262   5.491   7.061   6.132
10236SOL    HW241263   5.461   6.994   6.193
10236SOL    HW341264   5.585   7.067   6.146
10236SOL    MW441265   5.499   7.053   6.142
10237SOL     OW41266   5.047   6.738   6.062
10237SOL    HW241267   5.019   6.824   6.095
10237SOL    HW341268   5.075   6.754   5.972
10237SOL    MW441269   5.047   6.752   6.054
10238SOL     OW41270   4.709   5.658   6.115
10238SOL    HW241271   4.746   5.717   6.180
10238SOL    HW341272   4.686   5.714   6.041
10238SOL    MW441273   4.710   5.673   6.114
10239SOL     OW41274   5.562   6.540   6.537
10239SOL    HW241275   5.553   6.572   6.448
10239SOL    HW341276   5.515   6.456   6.537
10239SOL    MW441277   5.555   6.533   6.527
10240SOL     OW41278   3.938   6.380   7.116
10240SOL    HW241279   3.959   6.449   7.054
10240SOL    HW341280   4.018   6.327   7.121
10240SOL    MW441281   3.951   6.381   7.110
10241SOL     OW41282   5.474   6.471   6.238
10241SOL    HW241283   5.568   6.460   6.226
10241SOL    HW341284   5.450   6.543   6.179
10241SOL    MW441285   5.484   6.479   6.229
10242SOL     OW41286   3.923   6.395   7.383
10242SOL    HW241287   3.849   6.339   7.409
10242SOL    HW341288   3.918   6.398   7.288
10242SOL    MW441289   3.912   6.388   7.373
10243SOL     OW41290   4.089   5.682   6.833
10243SOL    HW241291   4.132   5.766   6.853
10243SOL    HW341292   4.162   5.620   6.826
10243SOL    MW441293   4.104   5.685   6.834
10244SOL     OW41294   4.130   6.349   6.011
10244SOL    HW241295   4.130   6.444   5.996
10244SOL    HW341296   4.207   6.333   6.065
10244SOL    MW441297   4.140   6.360   6.016
10245SOL     OW41298   4.906   6.208   7.075
10245SOL    HW241299   4.942   6.181   6.991
10245SOL    HW341300   4.819   6.242   7.054
10245SOL    MW441301   4.900   6.209   7.062
10246SOL     OW41302   3.889   6.080   6.300
10246SOL    HW241303   3.951   6.087   6.373
10246SOL    HW341304   3.889   5.987   6.277
10246SOL    MW441305   3.897   6.069   6.307
10247SOL     OW41306   5.436   7.420   5.832
10247SOL    HW241307   5.503   7.453   5.772
10247SOL    HW341308   5.393   7.499   5.866
10247SOL    MW441309   5.438   7.435   5.828
10248SOL     OW41310   4.571   6.341   6.784
10248SOL    HW241311   4.529   6.259   6.760
10248SOL    HW341312   4.572   6.340   6.880
10248SOL    MW441313   4.564   6.330   6.793
10249SOL     OW41314   5.242   7.474   7.183
10249SOL    HW241315   5.245   7.380   7.166
10249SOL    HW341316   5.265   7.482   7.275
10249SOL    MW441317   5.245   7.462   7.193
10250SOL     OW41318   4.375   5.811   6.889
10250SOL    HW241319   4.306   5.874   6.910
10250SOL    HW341320   4.402   5.775   6.974
10250SOL    MW441321   4.369   5.814   6.902
10251SOL     OW41322   3.758   6.652   5.758
10251SOL    HW241323   3.727   6.717   5.821
10251SOL    HW341324   3.707   6.574   5.777
10251SOL    MW441325   3.748   6.649   5.768
10252SOL     OW41326   5.170   5.664   6.506
10252SOL    HW241327   5.258   5.673   6.543
10252SOL    HW341328   5.180   5.605   6.432
10252SOL    MW441329   5.184   5.658   6.500
10253SOL     OW41330   5.202   6.403   6.350
10253SOL    HW241331   5.282   6.418   6.299
10253SOL    HW341332   5.195   6.308   6.356
10253SOL    MW441333   5.211   6.392   6.345
10254SOL     OW41334   4.342   7.452   5.700
10254SOL    HW241335   4.247   7.452   5.692
10254SOL    HW341336   4.358   7.398   5.778
10254SOL    MW441337   4.332   7.446   5.709
10255SOL     OW41338   4.652   6.329   7.047
10255SOL    HW241339   4.721   6.396   7.044
10255SOL    HW341340   4.585   6.367   7.103
10255SOL    MW441341   4.653   6.342   7.054
10256SOL     OW41342   4.070   6.629   7.295
10256SOL    HW241343   4.024   6.545   7.297
10256SOL    HW341344   4.127   6.623   7.219
10256SOL    MW441345   4.072   6.617   7.287
10257SOL     OW41346   5.187   6.272   5.615
10257SOL    HW241347   5.115   6.248   5.557
10257SOL    HW341348   5.253   6.309   5.557
10257SOL    MW441349   5.186   6.274   5.600
10258SOL     OW41350   4.321   7.004   6.296
10258SOL    HW241351   4.386   6.937   6.317
10258SOL    HW341352   4.373   7.081   6.273
10258SOL    MW441353   4.336   7.006   6.295
10259SOL     OW41354   4.582   6.169   6.426
10259SOL    HW241355   4.522   6.187   6.498
10259SOL    HW341356   4.616   6.081   6.445
10259SOL    MW441357   4.578   6.159   6.439
10260SOL     OW41358   5.523   5.668   7.095
10260SOL    HW241359   5.444   5.714   7.123
10260SOL    HW341360   5.558   5.722   7.024
10260SOL    MW441361   5.517   5.681   7.089
10261SOL     OW41362   4.807   6.752   6.445
10261SOL    HW241363   4.899   6.733   6.463
10261SOL    HW341364   4.780   6.682   6.385
10261SOL    MW441365   4.815   6.740   6.439
10262SOL     OW41366   4.600   6.572   5.800
10262SOL    HW241367   4.586   6.484   5.765
10262SOL    HW341368   4.551   6.629   5.741
10262SOL    MW441369   4.592   6.567   5.788
10263SOL     OW41370   5.081   6.990   6.541
10263SOL    HW241371   5.054   7.074   6.506
10263SOL    HW341372   5.041   6.985   6.628
10263SOL    MW441373   5.074   6.999   6.547
10264SOL     OW41374   5.000   6.938   6.809
10264SOL    HW241375   5.011   6.905   6.898
10264SOL    HW341376   4.919   6.897   6.778
10264SOL    MW441377   4.990   6.930   6.815
10265SOL     OW41378   4.013   6.296   6.579
10265SOL    HW241379   3.963   6.295   6.660
10265SOL    HW341380   4.033   6.388   6.563
10265SOL    MW441381   4.009   6.308   6.587
10266SOL     OW41382   5.080   7.060   7.341
10266SOL    HW241383   5.080   7.154   7.357
10266SOL    HW341384   5.125   7.050   7.257
10266SOL    MW441385   5.086   7.070   7.332
10267SOL     OW41386   5.319   5.778   5.902
10267SOL    HW241387   5.312   5.782   5.997
10267SOL    HW341388   5.331   5.869   5.875
10267SOL    MW441389   5.320   5.791   5.910
10268SOL     OW41390   4.608   6.341   6.016
10268SOL    HW241391   4.588   6.327   5.923
10268SOL    HW341392   4.701   6.320   6.023
10268SOL    MW441393   4.618   6.336   6.005
10269SOL     OW41394   3.935   5.964   7.320
10269SOL    HW241395   3.892   6.023   7.257
10269SOL    HW341396   4.003   6.019   7.360
10269SOL    MW441397   3.939   5.979   7.317
10270SOL     OW41398   5.047   6.584   6.865
10270SOL    HW241399   5.110   6.581   6.938
10270SOL    HW341400   4.963   6.602   6.907
10270SOL    MW441401   5.043   6.586   6.880
10271SOL     OW41402   4.591   7.299   6.054
10271SOL    HW241403   4.649   7.370   6.081
10271SOL    HW341404   4.614   7.227   6.112
10271SOL    MW441405   4.602   7.299   6.065
10272SOL     OW41406   5.386   5.761   6.644
10272SOL    HW241407   5.431   5.679   6.663
10272SOL    HW341408   5.406   5.817   6.720
10272SOL    MW441409   5.396   5.757   6.656
10273SOL     OW41410   3.834   5.604   6.743
10273SOL    HW241411   3.825   5.605   6.648
10273SOL    HW341412   3.928   5.616   6.758
10273SOL    MW441413   3.846   5.607   6.734
10274SOL     OW41414   5.471   6.797   6.363
10274SOL    HW241415   5.450   6.743   6.286
10274SOL    HW341416   5.567   6.795   6.367
10274SOL    MW441417   5.480   6.790   6.352
10275SOL     OW41418   4.163   6.942   7.106
10275SOL    HW241419   4.084   6.892   7.129
10275SOL    HW341420   4.233   6.901   7.156
10275SOL    MW441421   4.161   6.930   7.116
10276SOL     OW41422   4.047   5.731   5.789
10276SOL    HW241423   3.976   5.786   5.757
10276SOL    HW341424   4.089   5.697   5.710
10276SOL    MW441425   4.043   5.733   5.775
10277SOL     OW41426   5.171   6.228   6.625
10277SOL    HW241427   5.094   6.274   6.591
10277SOL    HW341428   5.228   6.297   6.659
10277SOL    MW441429   5.168   6.243   6.625
10278SOL     OW41430   3.803   5.830   5.638
10278SOL    HW241431   3.770   5.909   5.682
10278SOL    HW341432   3.858   5.863   5.567
10278SOL    MW441433   3.806   5.844   5.635
10279SOL     OW41434   3.837   7.087   5.827
10279SOL    HW241435   3.854   7.171   5.869
10279SOL    HW341436   3.872   7.096   5.739
10279SOL    MW441437   3.842   7.100   5.821
10280SOL     OW41438   5.109   7.176   6.044
10280SOL    HW241439   5.172   7.166   5.973
10280SOL    HW341440   5.026   7.196   5.999
10280SOL    MW441441   5.106   7.177   6.029
10281SOL     OW41442   7.341   0.839   0.257
10281SOL    HW241443   7.382   0.781   0.322
10281SOL    HW341444   7.248   0.831   0.274
10281SOL    MW441445   7.335   0.831   0.267
10282SOL     OW41446   7.207   0.771   1.252
10282SOL    HW241447   7.162   0.838   1.303
10282SOL    HW341448   7.295   0.807   1.238
10282SOL    MW441449   7.213   0.784   1.256
10283SOL     OW41450   6.135   1.022   0.486
10283SOL    HW241451   6.225   0.997   0.470
10283SOL    HW341452   6.131   1.115   0.463
10283SOL    MW441453   6.147   1.031   0.481
10284SOL     OW41454   7.251   1.725   0.628
10284SOL    HW241455   7.263   1.671   0.706
10284SOL    HW341456   7.288   1.673   0.557
10284SOL    MW441457   7.257   1.710   0.629
10285SOL     OW41458   6.630   1.610   1.629
10285SOL    HW241459   6.671   1.646   1.550
10285SOL    HW341460   6.665   1.521   1.636
10285SOL    MW441461   6.641   1.603   1.620
10286SOL     OW41462   7.187   1.165   1.233
10286SOL    HW241463   7.108   1.130   1.191
10286SOL    HW341464   7.214   1.237   1.177
10286SOL    MW441465   7.180   1.170   1.220
10287SOL     OW41466   6.419   0.478   0.499
10287SOL    HW241467   6.394   0.566   0.527
10287SOL    HW341468   6.416   0.481   0.403
10287SOL    MW441469   6.415   0.490   0.491
10288SOL     OW41470   5.861   0.506   0.427
10288SOL    HW241471   5.893   0.594   0.409
10288SOL    HW341472   5.849   0.504   0.522
10288SOL    MW441473   5.864   0.518   0.439
10289SOL     OW41474   5.939   0.919   1.328
10289SOL    HW241475   6.002   0.866   1.279
10289SOL    HW341476   5.920   0.993   1.271
10289SOL    MW441477   5.945   0.921   1.315
10290SOL     OW41478   6.260   0.261   0.514
10290SOL    HW241479   6.318   0.337   0.516
10290SOL    HW341480   6.195   0.282   0.447
10290SOL    MW441481   6.259   0.273   0.505
10291SOL     OW41482   6.347   1.188   0.689
10291SOL    HW241483   6.427   1.191   0.741
10291SOL    HW341484   6.375   1.155   0.603
10291SOL    MW441485   6.361   1.184   0.684
10292SOL     OW41486   6.372   1.529   1.592
10292SOL    HW241487   6.456   1.555   1.631
10292SOL    HW341488   6.396   1.473   1.518
10292SOL    MW441489   6.386   1.525   1.587
10293SOL     OW41490   6.124   0.692   0.680
10293SOL    HW241491   6.109   0.612   0.731
10293SOL    HW341492   6.206   0.727   0.714
10293SOL    MW441493   6.132   0.684   0.692
10294SOL     OW41494   6.461   1.378   1.365
10294SOL    HW241495   6.425   1.444   1.305
10294SOL    HW341496   6.389   1.316   1.378
10294SOL    MW441497   6.447   1.378   1.359
10295SOL     OW41498   6.266   0.518   1.057
10295SOL    HW241499   6.172   0.514   1.075
10295SOL    HW341500   6.296   0.427   1.066
10295SOL    MW441501   6.257   0.506   1.060
10296SOL     OW41502   6.012   0.932   0.961
10296SOL    HW241503   5.967   0.939   0.877
10296SOL    HW341504   5.992   1.015   1.005
10296SOL    MW441505   6.004   0.944   0.955
10297SOL     OW41506   5.709   1.778   0.836
10297SOL    HW241507   5.798   1.770   0.871
10297SOL    HW341508   5.673   1.690   0.841
10297SOL    MW441509   5.716   1.765   0.841
10298SOL     OW41510   6.974   1.170   0.205
10298SOL    HW241511   6.892   1.206   0.171
10298SOL    HW341512   7.042   1.213   0.154
10298SOL    MW441513   6.972   1.180   0.193
10299SOL     OW41514   5.973   1.305   0.871
10299SOL    HW241515   5.949   1.358   0.947
10299SOL    HW341516   6.029   1.363   0.819
10299SOL    MW441517   5.977   1.320   0.874
10300SOL     OW41518   6.535   0.949   0.681
10300SOL    HW241519   6.449   0.936   0.721
10300SOL    HW341520   6.588   0.876   0.713
10300SOL    MW441521   6.531   0.938   0.690
10301SOL     OW41522   5.943   1.601   1.466
10301SOL    HW241523   5.851   1.577   1.451
10301SOL    HW341524   5.987   1.518   1.483
10301SOL    MW441525   5.937   1.586   1.465
10302SOL     OW41526   6.526   1.311   0.398
10302SOL    HW241527   6.503   1.373   0.466
10302SOL    HW341528   6.483   1.229   0.424
10302SOL    MW441529   6.518   1.307   0.409
10303SOL     OW41530   7.399   0.312   0.854
10303SOL    HW241531   7.336   0.292   0.923
10303SOL    HW341532   7.389   0.241   0.791
10303SOL    MW441533   7.389   0.299   0.855
10304SOL     OW41534   6.023   0.284   0.366
10304SOL    HW241535   5.997   0.246   0.282
10304SOL    HW341536   5.960   0.354   0.382
10304SOL    MW441537   6.012   0.287   0.357
10305SOL     OW41538   5.858   1.245   0.403
10305SOL    HW241539   5.806   1.313   0.359
10305SOL    HW341540   5.855   1.171   0.343
10305SOL    MW441541   5.850   1.244   0.390
10306SOL     OW41542   6.520   1.708   0.181
10306SOL    HW241543   6.475   1.724   0.264
10306SOL    HW341544   6.451   1.673   0.123
10306SOL    MW441545   6.506   1.705   0.183
10307SOL     OW41546   7.455   0.481   0.156
10307SOL    HW241547   7.364   0.483   0.184
10307SOL    HW341548   7.500   0.543   0.214
10307SOL    MW441549   7.448   0.489   0.166
10308SOL     OW41550   7.200   1.084   0.506
10308SOL    HW241551   7.110   1.084   0.541
10308SOL    HW341552   7.193   1.130   0.423
10308SOL    MW441553   7.187   1.090   0.500
10309SOL     OW41554   7.000   0.719   1.578
10309SOL    HW241555   7.069   0.657   1.555
10309SOL    HW341556   6.925   0.693   1.525
10309SOL    MW441557   7.000   0.706   1.569
10310SOL     OW41558   5.741   1.599   1.130
10310SOL    HW241559   5.724   1.545   1.207
10310SOL    HW341560   5.729   1.689   1.160
10310SOL    MW441561   5.738   1.603   1.144
10311SOL     OW41562   6.736   1.106   1.570
10311SOL    HW241563   6.721   1.199   1.555
10311SOL    HW341564   6.831   1.096   1.570
10311SOL    MW441565   6.745   1.116   1.567
10312SOL     OW41566   6.532   0.530   1.771
10312SOL    HW241567   6.622   0.531   1.738
10312SOL    HW341568   6.491   0.455   1.729
10312SOL    MW441569   6.538   0.520   1.762
10313SOL     OW41570   7.107   1.062   0.898
10313SOL    HW241571   7.110   0.996   0.829
10313SOL    HW341572   7.192   1.105   0.894
10313SOL    MW441573   7.119   1.058   0.889
10314SOL     OW41574   6.727   0.665   0.467
10314SOL    HW241575   6.753   0.689   0.378
10314SOL    HW341576   6.709   0.572   0.463
10314SOL    MW441577   6.729   0.657   0.454
10315SOL     OW41578   7.392   1.285   0.318
10315SOL    HW241579   7.348   1.326   0.393
10315SOL    HW341580   7.449   1.353   0.283
10315SOL    MW441581   7.394   1.299   0.323
10316SOL     OW41582   6.312   0.334   1.721
10316SOL    HW241583   6.322   0.260   1.661
10316SOL    HW341584   6.348   0.303   1.804
10316SOL    MW441585   6.318   0.320   1.723
10317SOL     OW41586   6.048   1.701   0.636
10317SOL    HW241587   6.080   1.789   0.614
10317SOL    HW341588   6.001   1.673   0.558
10317SOL    MW441589   6.047   1.709   0.623
10318SOL     OW41590   7.432   0.063   0.685
10318SOL    HW241591   7.486   0.014   0.747
10318SOL    HW341592   7.375  -0.003   0.646
10318SOL    MW441593   7.432   0.047   0.687
10319SOL     OW41594   5.764   1.761   0.213
10319SOL    HW241595   5.793   1.851   0.205
10319SOL    HW341596   5.714   1.744   0.134
10319SOL    MW441597   5.762   1.769   0.202
10320SOL     OW41598   6.551   0.016   1.098
10320SOL    HW241599   6.510   0.094   1.060
10320SOL    HW341600   6.645   0.034   1.093
10320SOL    MW441601   6.557   0.028   1.093
10321SOL     OW41602   7.168   1.569   0.184
10321SOL    HW241603   7.216   1.638   0.230
10321SOL    HW341604   7.089   1.613   0.153
10321SOL    MW441605   7.163   1.583   0.187
10322SOL     OW41606   6.566   0.694   0.128
10322SOL    HW241607   6.568   0.641   0.049
10322SOL    HW341608   6.654   0.731   0.134
10322SOL    MW441609   6.578   0.693   0.117
10323SOL     OW41610   7.180   0.620   0.464
10323SOL    HW241611   7.219   0.620   0.551
10323SOL    HW341612   7.121   0.696   0.464
10323SOL    MW441613   7.177   0.631   0.475
10324SOL     OW41614   6.497   0.987   1.593
10324SOL    HW241615   6.474   0.967   1.683
10324SOL    HW341616   6.582   1.031   1.598
10324SOL    MW441617   6.504   0.990   1.605
10325SOL     OW41618   6.577   0.124   1.353
10325SOL    HW241619   6.583   0.086   1.266
10325SOL    HW341620   6.566   0.218   1.338
10325SOL    MW441621   6.578   0.132   1.341
10326SOL     OW41622   6.666   0.613   1.187
10326SOL    HW241623   6.741   0.642   1.134
10326SOL    HW341624   6.598   0.678   1.171
10326SOL    MW441625   6.667   0.625   1.177
10327SOL     OW41626   7.216   0.581   1.464
10327SOL    HW241627   7.197   0.490   1.443
10327SOL    HW341628   7.194   0.630   1.385
10327SOL    MW441629   7.211   0.574   1.451
10328SOL     OW41630   7.358   1.675   1.368
10328SOL    HW241631   7.286   1.637   1.419
10328SOL    HW341632   7.375   1.760   1.409
10328SOL    MW441633   7.352   1.680   1.380
10329SOL     OW41634   6.663   0.319   1.570
10329SOL    HW241635   6.629   0.358   1.489
10329SOL    HW341636   6.641   0.227   1.563
10329SOL    MW441637   6.656   0.312   1.560
10330SOL     OW41638   7.072   1.133   1.646
10330SOL    HW241639   7.154   1.174   1.676
10330SOL    HW341640   7.035   1.095   1.726
10330SOL    MW441641   7.078   1.134   1.661
10331SOL     OW41642   7.367   0.506   0.630
10331SOL    HW241643   7.456   0.475   0.647
10331SOL    HW341644   7.310   0.446   0.678
10331SOL    MW441645   7.370   0.494   0.639
10332SOL     OW41646   5.793   0.220   0.659
10332SOL    HW241647   5.784   0.160   0.585
10332SOL    HW341648   5.726   0.191   0.722
10332SOL    MW441649   5.783   0.207   0.657
10333SOL     OW41650   6.736   1.313   0.220
10333SOL    HW241651   6.686   1.315   0.302
10333SOL    HW341652   6.670   1.331   0.152
10333SOL    MW441653   6.722   1.315   0.222
10334SOL     OW41654   5.740   0.393   1.022
10334SOL    HW241655   5.712   0.484   1.031
10334SOL    HW341656   5.677   0.354   0.961
10334SOL    MW441657   5.727   0.399   1.016
10335SOL     OW41658   6.199   1.731   0.328
10335SOL    HW241659   6.120   1.689   0.361
10335SOL    HW341660   6.265   1.714   0.395
10335SOL    MW441661   6.198   1.723   0.341
10336SOL     OW41662   7.327   1.251   1.725
10336SOL    HW241663   7.377   1.177   1.757
10336SOL    HW341664   7.273   1.278   1.800
10336SOL    MW441665   7.327   1.245   1.738
10337SOL     OW41666   6.335   1.146   0.035
10337SOL    HW241667   6.257   1.092   0.022
10337SOL    HW341668   6.306   1.219   0.088
10337SOL    MW441669   6.321   1.148   0.040
10338SOL     OW41670   7.461   0.886   1.227
10338SOL    HW241671   7.477   0.924   1.140
10338SOL    HW341672   7.495   0.952   1.288
10338SOL    MW441673   7.468   0.899   1.223
10339SOL     OW41674   7.253   1.595   0.896
10339SOL    HW241675   7.282   1.662   0.957
10339SOL    HW341676   7.234   1.519   0.951
10339SOL    MW441677   7.255   1.595   0.911
10340SOL     OW41678   6.916   1.662   0.103
10340SOL    HW241679   6.842   1.625   0.153
10340SOL    HW341680   6.924   1.752   0.136
10340SOL    MW441681   6.907   1.669   0.115
10341SOL     OW41682   5.724   0.668   1.192
10341SOL    HW241683   5.786   0.698   1.258
10341SOL    HW341684   5.658   0.737   1.186
10341SOL    MW441685   5.723   0.681   1.199
10342SOL     OW41686   7.140   1.336   0.045
10342SOL    HW241687   7.087   1.385  -0.019
10342SOL    HW341688   7.171   1.402   0.106
10342SOL    MW441689   7.138   1.350   0.043
10343SOL     OW41690   6.365   0.225   0.100
10343SOL    HW241691   6.313   0.145   0.088
10343SOL    HW341692   6.452   0.202   0.068
10343SOL    MW441693   6.368   0.211   0.094
10344SOL     OW41694   5.819   1.777   1.644
10344SOL    HW241695   5.793   1.845   1.582
10344SOL    HW341696   5.867   1.714   1.592
10344SOL    MW441697   5.821   1.777   1.630
10345SOL     OW41698   5.871   1.096   1.151
10345SOL    HW241699   5.924   1.171   1.176
10345SOL    HW341700   5.790   1.134   1.117
10345SOL    MW441701   5.867   1.111   1.151
10346SOL     OW41702   6.411   1.000   1.139
10346SOL    HW241703   6.439   0.909   1.151
10346SOL    HW341704   6.340   0.994   1.075
10346SOL    MW441705   6.404   0.988   1.134
10347SOL     OW41706   5.726   0.865   0.557
10347SOL    HW241707   5.817   0.880   0.584
10347SOL    HW341708   5.729   0.786   0.503
10347SOL    MW441709   5.738   0.857   0.555
10348SOL     OW41710   5.962   0.573   1.811
10348SOL    HW241711   5.909   0.653   1.818
10348SOL    HW341712   6.032   0.585   1.876
10348SOL    MW441713   5.964   0.586   1.819
10349SOL     OW41714   6.348   0.123   1.518
10349SOL    HW241715   6.325   0.031   1.520
10349SOL    HW341716   6.434   0.125   1.475
10349SOL    MW441717   6.355   0.113   1.514
10350SOL     OW41718   6.032   0.647   1.557
10350SOL    HW241719   6.112   0.697   1.543
10350SOL    HW341720   6.023   0.641   1.652
10350SOL    MW441721   6.041   0.653   1.567
10351SOL     OW41722   6.353   1.797   0.931
10351SOL    HW241723   6.442   1.812   0.961
10351SOL    HW341724   6.348   1.844   0.847
10351SOL    MW441725   6.363   1.805   0.924
10352SOL     OW41726   7.009   0.172   1.828
10352SOL    HW241727   7.065   0.099   1.854
10352SOL    HW341728   6.979   0.210   1.910
10352SOL    MW441729   7.013   0.167   1.841
10353SOL     OW41730   5.734   1.477   0.596
10353SOL    HW241731   5.706   1.516   0.678
10353SOL    HW341732   5.754   1.386   0.618
10353SOL    MW441733   5.732   1.469   0.609
10354SOL     OW41734   6.567   1.520   0.631
10354SOL    HW241735   6.650   1.474   0.615
10354SOL    HW341736   6.557   1.519   0.727
10354SOL    MW441737   6.577   1.513   0.641
10355SOL     OW41738   7.399   0.665   0.945
10355SOL    HW241739   7.488   0.695   0.927
10355SOL    HW341740   7.379   0.605   0.874
10355SOL    MW441741   7.408   0.662   0.934
10356SOL     OW41742   7.250   0.844   1.825
10356SOL    HW241743   7.305   0.768   1.806
10356SOL    HW341744   7.252   0.852   1.920
10356SOL    MW441745   7.258   0.835   1.833
10357SOL     OW41746   6.300   1.577   0.036
10357SOL    HW241747   6.240   1.646   0.006
10357SOL    HW341748   6.245   1.519   0.089
10357SOL    MW441749   6.284   1.579   0.038
10358SOL     OW41750   6.738   0.222   0.259
10358SOL    HW241751   6.671   0.198   0.196
10358SOL    HW341752   6.803   0.271   0.208
10358SOL    MW441753   6.738   0.224   0.244
10359SOL     OW41754   6.545   0.406   1.344
10359SOL    HW241755   6.464   0.447   1.372
10359SOL    HW341756   6.592   0.474   1.296
10359SOL    MW441757   6.540   0.421   1.342
10360SOL     OW41758   6.805   0.744   0.967
10360SOL    HW241759   6.818   0.838   0.977
10360SOL    HW341760   6.766   0.734   0.881
10360SOL    MW441761   6.801   0.755   0.957
10361SOL     OW41762   6.257   0.939   0.771
10361SOL    HW241763   6.168   0.930   0.804
10361SOL    HW341764   6.261   1.029   0.739
10361SOL    MW441765   6.246   0.950   0.771
10362SOL     OW41766   7.056   0.522   0.766
10362SOL    HW241767   7.001   0.443   0.765
10362SOL    HW341768   7.038   0.563   0.850
10362SOL    MW441769   7.046   0.517   0.775
10363SOL     OW41770   6.027   0.209   1.583
10363SOL    HW241771   5.948   0.227   1.635
10363SOL    HW341772   6.022   0.271   1.510
10363SOL    MW441773   6.017   0.219   1.580
10364SOL     OW41774   6.675   0.726   0.723
10364SOL    HW241775   6.612   0.658   0.747
10364SOL    HW341776   6.695   0.707   0.631
10364SOL    MW441777   6.669   0.713   0.715
10365SOL     OW41778   5.931   1.621   0.425
10365SOL    HW241779   5.892   1.668   0.351
10365SOL    HW341780   5.865   1.556   0.450
10365SOL    MW441781   5.918   1.619   0.419
10366SOL     OW41782   6.423   1.030   0.449
10366SOL    HW241783   6.425   1.004   0.356
10366SOL    HW341784   6.481   0.967   0.492
10366SOL    MW441785   6.431   1.019   0.443
10367SOL     OW41786   6.976   1.590   1.221
10367SOL    HW241787   6.901   1.636   1.259
10367SOL    HW341788   6.958   1.497   1.238
10367SOL    MW441789   6.965   1.584   1.229
10368SOL     OW41790   6.980   1.798   0.651
10368SOL    HW241791   6.923   1.751   0.590
10368SOL    HW341792   7.066   1.759   0.638
10368SOL    MW441793   6.983   1.789   0.641
10369SOL     OW41794   6.933   0.274   0.782
10369SOL    HW241795   6.961   0.206   0.843
10369SOL    HW341796   6.847   0.245   0.752
10369SOL    MW441797   6.926   0.261   0.786
10370SOL     OW41798   5.738   1.208   0.716
10370SOL    HW241799   5.802   1.240   0.779
10370SOL    HW341800   5.787   1.144   0.664
10370SOL    MW441801   5.753   1.204   0.717
10371SOL     OW41802   6.238   1.284   1.698
10371SOL    HW241803   6.286   1.367   1.685
10371SOL    HW341804   6.295   1.232   1.754
10371SOL    MW441805   6.252   1.288   1.704
10372SOL     OW41806   5.814   1.526   1.838
10372SOL    HW241807   5.870   1.450   1.853
10372SOL    HW341808   5.763   1.504   1.760
10372SOL    MW441809   5.814   1.513   1.829
10373SOL     OW41810   6.913   0.378   0.117
10373SOL    HW241811   6.886   0.444   0.053
10373SOL    HW341812   6.983   0.421   0.167
10373SOL    MW441813   6.918   0.391   0.114
10374SOL     OW41814   6.581   0.083   0.054
10374SOL    HW241815   6.637   0.075  -0.024
10374SOL    HW341816   6.558  -0.007   0.076
10374SOL    MW441817   6.586   0.070   0.047
10375SOL     OW41818   7.086   0.934   0.259
10375SOL    HW241819   7.053   1.023   0.249
10375SOL    HW341820   7.051   0.905   0.344
10375SOL    MW441821   7.076   0.943   0.270
10376SOL     OW41822   6.699   1.363   1.447
10376SOL    HW241823   6.610   1.369   1.415
10376SOL    HW341824   6.743   1.442   1.415
10376SOL    MW441825   6.694   1.373   1.439
10377SOL     OW41826   5.992   0.031   1.789
10377SOL    HW241827   5.920  -0.004   1.737
10377SOL    HW341828   6.050   0.072   1.724
10377SOL    MW441829   5.990   0.032   1.774
10378SOL     OW41830   6.016   1.521   1.088
10378SOL    HW241831   6.061   1.583   1.145
10378SOL    HW341832   5.923   1.540   1.101
10378SOL    MW441833   6.009   1.531   1.095
10379SOL     OW41834   7.456   1.050   1.442
10379SOL    HW241835   7.371   1.063   1.401
10379SOL    HW341836   7.436   1.014   1.529
10379SOL    MW441837   7.443   1.046   1.447
10380SOL     OW41838   6.438   1.589   1.196
10380SOL    HW241839   6.462   1.578   1.105
10380SOL    HW341840   6.361   1.646   1.194
10380SOL    MW441841   6.430   1.594   1.185
10381SOL     OW41842   6.080   0.972   0.051
10381SOL    HW241843   6.003   0.985   0.107
10381SOL    HW341844   6.044   0.936  -0.030
10381SOL    MW441845   6.066   0.968   0.048
10382SOL     OW41846   6.733   0.945   0.294
10382SOL    HW241847   6.643   0.966   0.269
10382SOL    HW341848   6.760   1.018   0.350
10382SOL    MW441849   6.725   0.957   0.297
10383SOL     OW41850   6.233   1.294   0.986
10383SOL    HW241851   6.226   1.273   1.080
10383SOL    HW341852   6.151   1.262   0.949
10383SOL    MW441853   6.221   1.288   0.993
10384SOL     OW41854   7.097   0.304   1.388
10384SOL    HW241855   7.044   0.306   1.468
10384SOL    HW341856   7.082   0.217   1.351
10384SOL    MW441857   7.089   0.294   1.393
10385SOL     OW41858   7.433   0.228   1.261
10385SOL    HW241859   7.414   0.295   1.196
10385SOL    HW341860   7.490   0.166   1.216
10385SOL    MW441861   7.437   0.229   1.247
10386SOL     OW41862   5.679   1.386   1.649
10386SOL    HW241863   5.723   1.319   1.595
10386SOL    HW341864   5.594   1.348   1.669
10386SOL    MW441865   5.674   1.372   1.645
10387SOL     OW41866   6.362   0.061   0.701
10387SOL    HW241867   6.291   0.122   0.683
10387SOL    HW341868   6.413   0.058   0.620
10387SOL    MW441869   6.358   0.067   0.688
10388SOL     OW41870   6.120   1.301   0.450
10388SOL    HW241871   6.113   1.333   0.540
10388SOL    HW341872   6.030   1.285   0.422
10388SOL    MW441873   6.108   1.303   0.457
10389SOL     OW41874   6.715   1.694   1.359
10389SOL    HW241875   6.635   1.679   1.309
10389SOL    HW341876   6.722   1.789   1.366
10389SOL    MW441877   6.706   1.705   1.353
10390SOL     OW41878   6.829   1.659   0.849
10390SOL    HW241879   6.876   1.732   0.808
10390SOL    HW341880   6.750   1.698   0.885
10390SOL    MW441881   6.824   1.674   0.848
10391SOL     OW41882   7.237   1.754   1.124
10391SOL    HW241883   7.280   1.724   1.204
10391SOL    HW341884   7.156   1.702   1.121
10391SOL    MW441885   7.232   1.743   1.134
10392SOL     OW41886   6.322   0.718   1.831
10392SOL    HW241887   6.392   0.660   1.803
10392SOL    HW341888   6.265   0.663   1.886
10392SOL    MW441889   6.324   0.705   1.835
10393SOL     OW41890   7.109   0.930   1.464
10393SOL    HW241891   7.114   0.983   1.544
10393SOL    HW341892   7.071   0.847   1.492
10393SOL    MW441893   7.105   0.925   1.479
10394SOL     OW41894   6.749   0.065   1.710
10394SOL    HW241895   6.744  -0.028   1.691
10394SOL    HW341896   6.832   0.076   1.756
10394SOL    MW441897   6.757   0.054   1.714
10395SOL     OW41898   6.123   0.585   0.164
10395SOL    HW241899   6.089   0.641   0.234
10395SOL    HW341900   6.194   0.535   0.204
10395SOL    MW441901   6.129   0.586   0.178
10396SOL     OW41902   7.219   1.336   0.986
10396SOL    HW241903   7.254   1.318   0.899
10396SOL    HW341904   7.124   1.337   0.973
10396SOL    MW441905   7.211   1.333   0.973
10397SOL     OW41906   6.648   0.984   1.355
10397SOL    HW241907   6.691   1.019   1.433
10397SOL    HW341908   6.631   1.061   1.301
10397SOL    MW441909   6.651   0.999   1.358
10398SOL     OW41910   7.179   0.471   0.228
10398SOL    HW241911   7.171   0.542   0.165
10398SOL    HW341912   7.197   0.515   0.311
10398SOL    MW441913   7.180   0.485   0.230
10399SOL     OW41914   6.039   0.126   0.657
10399SOL    HW241915   6.089   0.169   0.588
10399SOL    HW341916   5.954   0.170   0.657
10399SOL    MW441917   6.036   0.139   0.648
10400SOL     OW41918   5.798   1.188   1.517
10400SOL    HW241919   5.826   1.141   1.595
10400SOL    HW341920   5.719   1.143   1.488
10400SOL    MW441921   5.791   1.177   1.523
10401SOL     OW41922   6.306   0.515   1.484
10401SOL    HW241923   6.278   0.603   1.508
10401SOL    HW341924   6.275   0.459   1.555
10401SOL    MW441925   6.298   0.518   1.496
10402SOL     OW41926   6.848   0.733   0.203
10402SOL    HW241927   6.895   0.751   0.122
10402SOL    HW341928   6.814   0.817   0.231
10402SOL    MW441929   6.850   0.747   0.196
10403SOL     OW41930   5.961   0.911   0.697
10403SOL    HW241931   6.019   0.967   0.645
10403SOL    HW341932   6.005   0.826   0.699
10403SOL    MW441933   5.974   0.908   0.690
10404SOL     OW41934   7.101   0.263   0.534
10404SOL    HW241935   7.023   0.213   0.559
10404SOL    HW341936   7.072   0.354   0.534
10404SOL    MW441937   7.087   0.267   0.537
10405SOL     OW41938   6.687   0.225   0.693
10405SOL    HW241939   6.707   0.300   0.637
10405SOL    HW341940   6.667   0.264   0.778
10405SOL    MW441941   6.688   0.241   0.697
10406SOL     OW41942   6.583   1.475   0.025
10406SOL    HW241943   6.610   1.553  -0.023
10406SOL    HW341944   6.490   1.490   0.044
10406SOL    MW441945   6.574   1.488   0.021
10407SOL     OW41946   7.447   0.998   1.712
10407SOL    HW241947   7.360   0.978   1.748
10407SOL    HW341948   7.501   0.924   1.737
10407SOL    MW441949   7.442   0.987   1.720
10408SOL     OW41950   5.668   1.511   0.869
10408SOL    HW241951   5.700   1.515   0.960
10408SOL    HW341952   5.573   1.519   0.877
10408SOL    MW441953   5.660   1.514   0.882
10409SOL     OW41954   5.623   0.637   0.416
10409SOL    HW241955   5.563   0.609   0.486
10409SOL    HW341956   5.697   0.577   0.422
10409SOL    MW441957   5.625   0.626   0.425
10410SOL     OW41958   7.191   1.849   1.850
10410SOL    HW241959   7.236   1.773   1.815
10410SOL    HW341960   7.229   1.862   1.937
10410SOL    MW441961   7.201   1.842   1.856
10411SOL     OW41962   6.791   1.368   0.576
10411SOL    HW241963   6.814   1.319   0.654
10411SOL    HW341964   6.872   1.410   0.548
10411SOL    MW441965   6.804   1.368   0.583
10412SOL     OW41966   6.049   0.376   1.305
10412SOL    HW241967   6.082   0.457   1.345
10412SOL    HW341968   6.022   0.402   1.217
10412SOL    MW441969   6.048   0.390   1.299
10413SOL     OW41970   6.003   0.343   1.041
10413SOL    HW241971   6.033   0.257   1.012
10413SOL    HW341972   5.908   0.336   1.044
10413SOL    MW441973   5.995   0.332   1.039
10414SOL     OW41974   6.832   0.552   1.732
10414SOL    HW241975   6.884   0.487   1.685
10414SOL    HW341976   6.790   0.603   1.662
10414SOL    MW441977   6.833   0.549   1.715
10415SOL     OW41978   6.931   0.347   1.593
10415SOL    HW241979   6.838   0.331   1.580
10415SOL    HW341980   6.957   0.285   1.661
10415SOL    MW441981   6.921   0.337   1.600
10416SOL     OW41982   6.146   0.121   0.932
10416SOL    HW241983   6.156   0.030   0.958
10416SOL    HW341984   6.102   0.117   0.847
10416SOL    MW441985   6.142   0.109   0.924
10417SOL     OW41986   6.240   1.736   1.478
10417SOL    HW241987   6.157   1.721   1.523
10417SOL    HW341988   6.299   1.669   1.513
10417SOL    MW441989   6.238   1.726   1.488
10418SOL     OW41990   7.297   0.443   1.103
10418SOL    HW241991   7.230   0.476   1.163
10418SOL    HW341992   7.340   0.521   1.069
10418SOL    MW441993   7.295   0.458   1.107
10419SOL     OW41994   7.475   1.163   1.073
10419SOL    HW241995   7.468   1.103   0.998
10419SOL    HW341996   7.401   1.223   1.062
10419SOL    MW441997   7.465   1.163   1.062
10420SOL     OW41998   6.857   1.025   0.991
10420SOL    HW241999   6.871   0.997   1.082
10420SOL    HW342000   6.943   1.056   0.963
10420SOL    MW442001   6.870   1.026   1.000
10421SOL     OW42002   6.940   0.520   1.270
10421SOL    HW242003   6.961   0.521   1.177
10421SOL    HW342004   6.985   0.442   1.303
10421SOL    MW442005   6.947   0.510   1.262
10422SOL     OW42006   7.433   0.651   1.812
10422SOL    HW242007   7.470   0.596   1.881
10422SOL    HW342008   7.458   0.608   1.730
10422SOL    MW442009   7.440   0.639   1.811
10423SOL     OW42010   6.980   0.949   1.863
10423SOL    HW242011   7.046   0.897   1.817
10423SOL    HW342012   7.000   0.936   1.956
10423SOL    MW442013   6.991   0.940   1.870
10424SOL     OW42014   6.931   0.035   0.212
10424SOL    HW242015   7.005   0.079   0.255
10424SOL    HW342016   6.855   0.089   0.234
10424SOL    MW442017   6.931   0.047   0.220
10425SOL     OW42018   6.991   0.810   0.490
10425SOL    HW242019   6.906   0.780   0.460
10425SOL    HW342020   6.983   0.817   0.585
10425SOL    MW442021   6.979   0.808   0.499
10426SOL     OW42022   6.067   1.273   1.221
10426SOL    HW242023   6.079   1.300   1.312
10426SOL    HW342024   6.048   1.354   1.174
10426SOL    MW442025   6.066   1.288   1.226
10427SOL     OW42026   6.351   0.253   1.044
10427SOL    HW242027   6.324   0.255   1.135
10427SOL    HW342028   6.281   0.205   0.999
10427SOL    MW442029   6.339   0.249   1.051
10428SOL     OW42030   6.205   1.745   1.206
10428SOL    HW242031   6.257   1.822   1.183
10428SOL    HW342032   6.214   1.737   1.301
10428SOL    MW442033   6.214   1.752   1.217
10429SOL     OW42034   7.107   1.330   1.438
10429SOL    HW242035   7.092   1.259   1.501
10429SOL    HW342036   7.153   1.288   1.366
10429SOL    MW442037   7.113   1.314   1.438
10430SOL     OW42038   6.181   1.061   1.555
10430SOL    HW242039   6.218   1.066   1.467
10430SOL    HW342040   6.220   1.134   1.602
10430SOL    MW442041   6.191   1.071   1.550
10431SOL     OW42042   6.361   1.104   1.367
10431SOL    HW242043   6.420   1.050   1.420
10431SOL    HW342044   6.376   1.076   1.277
10431SOL    MW442045   6.371   1.093   1.363
10432SOL     OW42046   6.364   0.476   0.216
10432SOL    HW242047   6.437   0.525   0.179
10432SOL    HW342048   6.380   0.385   0.190
10432SOL    MW442049   6.376   0.471   0.209
10433SOL     OW42050   7.172   1.593   1.539
10433SOL    HW242051   7.214   1.578   1.624
10433SOL    HW342052   7.163   1.506   1.501
10433SOL    MW442053   7.176   1.581   1.546
10434SOL     OW42054   6.832   0.072   1.130
10434SOL    HW242055   6.887   0.081   1.052
10434SOL    HW342056   6.887   0.106   1.201
10434SOL    MW442057   6.846   0.077   1.129
10435SOL     OW42058   5.839   0.985   0.314
10435SOL    HW242059   5.776   1.001   0.243
10435SOL    HW342060   5.786   0.948   0.385
10435SOL    MW442061   5.824   0.982   0.314
10436SOL     OW42062   6.195   1.339   0.173
10436SOL    HW242063   6.210   1.315   0.265
10436SOL    HW342064   6.103   1.317   0.157
10436SOL    MW442065   6.185   1.332   0.183
10437SOL     OW42066   6.734   1.570   0.325
10437SOL    HW242067   6.742   1.488   0.276
10437SOL    HW342068   6.653   1.609   0.292
10437SOL    MW442069   6.724   1.565   0.315
10438SOL     OW42070   5.993   1.728   0.894
10438SOL    HW242071   5.997   1.639   0.929
10438SOL    HW342072   6.019   1.719   0.803
10438SOL    MW442073   5.996   1.716   0.886
10439SOL     OW42074   6.610   1.206   1.137
10439SOL    HW242075   6.542   1.140   1.153
10439SOL    HW342076   6.628   1.200   1.044
10439SOL    MW442077   6.603   1.197   1.128
10440SOL     OW42078   5.699   1.481   1.388
10440SOL    HW242079   5.689   1.439   1.474
10440SOL    HW342080   5.620   1.534   1.378
10440SOL    MW442081   5.688   1.482   1.399
10441SOL     OW42082   6.603   0.345   0.958
10441SOL    HW242083   6.533   0.297   1.003
10441SOL    HW342084   6.635   0.408   1.022
10441SOL    MW442085   6.598   0.347   0.972
10442SOL     OW42086   6.254   0.781   1.578
10442SOL    HW242087   6.247   0.876   1.566
10442SOL    HW342088   6.263   0.770   1.673
10442SOL    MW442089   6.255   0.793   1.588
10443SOL     OW42090   5.975   1.296   1.836
10443SOL    HW242091   6.047   1.298   1.773
10443SOL    HW342092   5.945   1.205   1.835
10443SOL    MW442093   5.980   1.285   1.828
10444SOL     OW42094   7.059   0.059   1.303
10444SOL    HW242095   7.130   0.005   1.267
10444SOL    HW342096   7.058   0.038   1.396
10444SOL    MW442097   7.068   0.050   1.311
10445SOL     OW42098   7.259   1.589   1.787
10445SOL    HW242099   7.232   1.586   1.878
10445SOL    HW342100   7.355   1.593   1.790
10445SOL    MW442101   7.269   1.589   1.799
10446SOL     OW42102   6.070   0.451   0.771
10446SOL    HW242103   6.141   0.399   0.734
10446SOL    HW342104   6.056   0.416   0.858
10446SOL    MW442105   6.078   0.440   0.778
10447SOL     OW42106   5.625   1.786   1.843
10447SOL    HW242107   5.675   1.764   1.765
10447SOL    HW342108   5.633   1.881   1.851
10447SOL    MW442109   5.633   1.795   1.834
10448SOL     OW42110   6.386   1.544   0.847
10448SOL    HW242111   6.314   1.481   0.860
10448SOL    HW342112   6.347   1.629   0.865
10448SOL    MW442113   6.370   1.547   0.850
10449SOL     OW42114   6.706   0.392   0.495
10449SOL    HW242115   6.728   0.329   0.427
10449SOL    HW342116   6.611   0.384   0.506
10449SOL    MW442117   6.696   0.383   0.487
10450SOL     OW42118   5.791   0.082   0.427
10450SOL    HW242119   5.862   0.103   0.366
10450SOL    HW342120   5.745   0.010   0.385
10450SOL    MW442121   5.795   0.076   0.413
10451SOL     OW42122   5.622   0.549   1.570
10451SOL    HW242123   5.686   0.615   1.545
10451SOL    HW342124   5.541   0.576   1.527
10451SOL    MW442125   5.620   0.561   1.562
10452SOL     OW42126   7.360   1.456   0.527
10452SOL    HW242127   7.330   1.389   0.588
10452SOL    HW342128   7.454   1.462   0.541
10452SOL    MW442129   7.368   1.448   0.537
10453SOL     OW42130   6.916   1.133   0.457
10453SOL    HW242131   6.888   1.219   0.490
10453SOL    HW342132   6.944   1.149   0.367
10453SOL    MW442133   6.916   1.147   0.449
10454SOL     OW42134   6.578   0.053   0.510
10454SOL    HW242135   6.615   0.112   0.575
10454SOL    HW342136   6.555   0.109   0.436
10454SOL    MW442137   6.579   0.068   0.509
10455SOL     OW42138   7.431   0.935   0.932
10455SOL    HW242139   7.422   0.967   0.843
10455SOL    HW342140   7.384   0.851   0.932
10455SOL    MW442141   7.424   0.928   0.922
10456SOL     OW42142   5.807   0.775   1.511
10456SOL    HW242143   5.828   0.844   1.449
10456SOL    HW342144   5.887   0.722   1.516
10456SOL    MW442145   5.820   0.776   1.505
10457SOL     OW42146   7.343   0.866   0.633
10457SOL    HW242147   7.437   0.855   0.621
10457SOL    HW342148   7.319   0.938   0.574
10457SOL    MW442149   7.353   0.874   0.624
10458SOL     OW42150   5.792   0.790   1.778
10458SOL    HW242151   5.718   0.734   1.804
10458SOL    HW342152   5.787   0.793   1.683
10458SOL    MW442153   5.781   0.783   1.768
10459SOL     OW42154   5.958   0.077   1.228
10459SOL    HW242155   6.001   0.161   1.248
10459SOL    HW342156   6.031   0.015   1.221
10459SOL    MW442157   5.973   0.080   1.229
10460SOL     OW42158   5.999   0.744   0.406
10460SOL    HW242159   5.999   0.839   0.391
10460SOL    HW342160   6.076   0.728   0.460
10460SOL    MW442161   6.009   0.755   0.411
10461SOL     OW42162   6.775   0.603   1.470
10461SOL    HW242163   6.811   0.576   1.386
10461SOL    HW342164   6.688   0.637   1.449
10461SOL    MW442165   6.769   0.604   1.457
10462SOL     OW42166   5.758   0.475   0.695
10462SOL    HW242167   5.820   0.482   0.768
10462SOL    HW342168   5.758   0.382   0.672
10462SOL    MW442169   5.766   0.464   0.702
10463SOL     OW42170   7.305   1.815   0.227
10463SOL    HW242171   7.372   1.848   0.167
10463SOL    HW342172   7.262   1.894   0.261
10463SOL    MW442173   7.307   1.830   0.223
10464SOL     OW42174   6.440   0.736   1.179
10464SOL    HW242175   6.398   0.654   1.155
10464SOL    HW342176   6.441   0.735   1.275
10464SOL    MW442177   6.433   0.725   1.188
10465SOL     OW42178   7.111   1.869   1.578
10465SOL    HW242179   7.114   1.775   1.561
10465SOL    HW342180   7.134   1.877   1.670
10465SOL    MW442181   7.114   1.857   1.588
10466SOL     OW42182   6.244   0.206   1.284
10466SOL    HW242183   6.175   0.269   1.305
10466SOL    HW342184   6.271   0.170   1.369
10466SOL    MW442185   6.238   0.209   1.297
10467SOL     OW42186   5.627   1.047   0.153
10467SOL    HW242187   5.596   1.112   0.216
10467SOL    HW342188   5.576   0.969   0.172
10467SOL    MW442189   5.617   1.044   0.163
10468SOL     OW42190   7.039   0.059   0.901
10468SOL    HW242191   7.127   0.068   0.938
10468SOL    HW342192   7.049   0.000   0.827
10468SOL    MW442193   7.053   0.053   0.895
10469SOL     OW42194   7.071   0.798   0.745
10469SOL    HW242195   7.151   0.813   0.694
10469SOL    HW342196   7.064   0.703   0.751
10469SOL    MW442197   7.080   0.787   0.740
10470SOL     OW42198   6.211   1.847   0.095
10470SOL    HW242199   6.116   1.847   0.087
10470SOL    HW342200   6.227   1.793   0.173
10470SOL    MW442201   6.201   1.841   0.104
10471SOL     OW42202   6.521   0.724   1.442
10471SOL    HW242203   6.590   0.791   1.439
10471SOL    HW342204   6.454   0.762   1.498
10471SOL    MW442205   6.522   0.737   1.449
10472SOL     OW42206   5.939   1.024   1.690
10472SOL    HW242207   5.893   0.940   1.692
10472SOL    HW342208   5.996   1.018   1.614
10472SOL    MW442209   5.941   1.012   1.682
10473SOL     OW42210   7.056   0.667   0.011
10473SOL    HW242211   6.984   0.643  -0.047
10473SOL    HW342212   7.122   0.704  -0.047
10473SOL    MW442213   7.055   0.669  -0.004
10474SOL     OW42214   6.190   1.399   0.691
10474SOL    HW242215   6.255   1.332   0.712
10474SOL    HW342216   6.242   1.476   0.668
10474SOL    MW442217   6.205   1.401   0.690
10475SOL     OW42218   6.451   0.564   0.821
10475SOL    HW242219   6.391   0.582   0.893
10475SOL    HW342220   6.485   0.476   0.840
10475SOL    MW442221   6.447   0.554   0.834
10476SOL     OW42222   7.392   0.063   1.490
10476SOL    HW242223   7.313   0.109   1.518
10476SOL    HW342224   7.427   0.117   1.419
10476SOL    MW442225   7.386   0.076   1.484
10477SOL     OW42226   6.676   1.147   0.840
10477SOL    HW242227   6.768   1.128   0.858
10477SOL    HW342228   6.649   1.077   0.780
10477SOL    MW442229   6.684   1.135   0.834
10478SOL     OW42230   6.469   0.967   0.195
10478SOL    HW242231   6.455   0.879   0.160
10478SOL    HW342232   6.420   1.024   0.136
10478SOL    MW442233   6.461   0.962   0.183
10479SOL     OW42234   6.950   1.385   0.936
10479SOL    HW242235   6.923   1.469   0.901
10479SOL    HW342236   6.910   1.380   1.023
10479SOL    MW442237   6.943   1.394   0.942
10480SOL     OW42238   6.869   1.333   1.204
10480SOL    HW242239   6.880   1.300   1.293
10480SOL    HW342240   6.788   1.292   1.173
10480SOL    MW442241   6.859   1.325   1.210
10481SOL     OW42242   5.882   0.691   0.974
10481SOL    HW242243   5.832   0.690   1.055
10481SOL    HW342244   5.902   0.783   0.958
10481SOL    MW442245   5.878   0.703   0.982
10482SOL     OW42246   6.949   1.455   1.736
10482SOL    HW242247   6.949   1.549   1.752
10482SOL    HW342248   6.994   1.445   1.652
10482SOL    MW442249   6.955   1.465   1.727
10483SOL     OW42250   7.188   0.173   0.297
10483SOL    HW242251   7.181   0.177   0.392
10483SOL    HW342252   7.200   0.264   0.270
10483SOL    MW442253   7.189   0.186   0.305
10484SOL     OW42254   6.477   0.736   0.411
10484SOL    HW242255   6.457   0.722   0.318
10484SOL    HW342256   6.570   0.715   0.418
10484SOL    MW442257   6.487   0.731   0.400
10485SOL     OW42258   5.804   0.359   1.715
10485SOL    HW242259   5.761   0.418   1.652
10485SOL    HW342260   5.872   0.414   1.755
10485SOL    MW442261   5.808   0.374   1.712
10486SOL     OW42262   6.916   0.979   1.260
10486SOL    HW242263   6.979   0.976   1.333
10486SOL    HW342264   6.832   0.997   1.302
10486SOL    MW442265   6.912   0.981   1.275
10487SOL     OW42266   6.460   1.694   0.449
10487SOL    HW242267   6.518   1.765   0.476
10487SOL    HW342268   6.483   1.622   0.507
10487SOL    MW442269   6.471   1.694   0.460
10488SOL     OW42270   7.255   0.156   1.039
10488SOL    HW242271   7.300   0.074   1.058
10488SOL    HW342272   7.275   0.212   1.115
10488SOL    MW442273   7.265   0.152   1.051
10489SOL     OW42274   5.703  -0.001   1.138
10489SOL    HW242275   5.694   0.000   1.043
10489SOL    HW342276   5.797   0.011   1.153
10489SOL    MW442277   5.715   0.002   1.129
10490SOL     OW42278   7.340   1.192   0.758
10490SOL    HW242279   7.319   1.138   0.681
10490SOL    HW342280   7.436   1.190   0.762
10490SOL    MW442281   7.349   1.185   0.747
10491SOL     OW42282   6.032   1.337   1.501
10491SOL    HW242283   5.953   1.287   1.524
10491SOL    HW342284   6.102   1.296   1.551
10491SOL    MW442285   6.030   1.325   1.511
10492SOL     OW42286   5.916   0.126   0.184
10492SOL    HW242287   5.845   0.181   0.152
10492SOL    HW342288   5.958   0.092   0.105
10492SOL    MW442289   5.912   0.128   0.170
10493SOL     OW42290   7.040   0.623   1.020
10493SOL    HW242291   6.963   0.669   0.986
10493SOL    HW342292   7.097   0.692   1.054
10493SOL    MW442293   7.037   0.638   1.020
10494SOL     OW42294   5.672   0.225   0.033
10494SOL    HW242295   5.639   0.304   0.077
10494SOL    HW342296   5.727   0.258  -0.038
10494SOL    MW442297   5.675   0.239   0.030
10495SOL     OW42298   5.706   1.482   0.222
10495SOL    HW242299   5.723   1.566   0.264
10495SOL    HW342300   5.741   1.491   0.134
10495SOL    MW442301   5.711   1.495   0.216
10496SOL     OW42302   6.978   1.571   0.439
10496SOL    HW242303   7.041   1.561   0.368
10496SOL    HW342304   6.895   1.591   0.394
10496SOL    MW442305   6.975   1.572   0.424
10497SOL     OW42306   7.341   0.839   2.125
10497SOL    HW242307   7.382   0.781   2.190
10497SOL    HW342308   7.248   0.831   2.142
10497SOL    MW442309   7.335   0.831   2.135
10498SOL     OW42310   7.207   0.771   3.120
10498SOL    HW242311   7.162   0.838   3.171
10498SOL    HW342312   7.295   0.807   3.106
10498SOL    MW442313   7.213   0.784   3.124
10499SOL     OW42314   6.135   1.022   2.354
10499SOL    HW242315   6.225   0.997   2.338
10499SOL    HW342316   6.131   1.115   2.331
10499SOL    MW442317   6.147   1.031   2.349
10500SOL     OW42318   7.251   1.725   2.496
10500SOL    HW242319   7.263   1.671   2.574
10500SOL    HW342320   7.288   1.673   2.425
10500SOL    MW442321   7.257   1.710   2.497
10501SOL     OW42322   6.630   1.610   3.497
10501SOL    HW242323   6.671   1.646   3.418
10501SOL    HW342324   6.665   1.521   3.504
10501SOL    MW442325   6.641   1.603   3.488
10502SOL     OW42326   7.187   1.165   3.101
10502SOL    HW242327   7.108   1.130   3.059
10502SOL    HW342328   7.214   1.237   3.045
10502SOL    MW442329   7.180   1.170   3.088
10503SOL     OW42330   6.419   0.478   2.367
10503SOL    HW242331   6.394   0.566   2.395
10503SOL    HW342332   6.416   0.481   2.271
10503SOL    MW442333   6.415   0.490   2.359
10504SOL     OW42334   5.861   0.506   2.295
10504SOL    HW242335   5.893   0.594   2.277
10504SOL    HW342336   5.849   0.504   2.390
10504SOL    MW442337   5.864   0.518   2.307
10505SOL     OW42338   5.939   0.919   3.196
10505SOL    HW242339   6.002   0.866   3.147
10505SOL    HW342340   5.920   0.993   3.139
10505SOL    MW442341   5.945   0.921   3.183
10506SOL     OW42342   6.260   0.261   2.382
10506SOL    HW242343   6.318   0.337   2.384
10506SOL    HW342344   6.195   0.282   2.315
10506SOL    MW442345   6.259   0.273   2.373
10507SOL     OW42346   6.347   1.188   2.557
10507SOL    HW242347   6.427   1.191   2.609
10507SOL    HW342348   6.375   1.155   2.471
10507SOL    MW442349   6.361   1.184   2.552
10508SOL     OW42350   6.372   1.529   3.460
10508SOL    HW242351   6.456   1.555   3.499
10508SOL    HW342352   6.396   1.473   3.386
10508SOL    MW442353   6.386   1.525   3.455
10509SOL     OW42354   6.124   0.692   2.548
10509SOL    HW242355   6.109   0.612   2.599
10509SOL    HW342356   6.206   0.727   2.582
10509SOL    MW442357   6.132   0.684   2.560
10510SOL     OW42358   6.461   1.378   3.233
10510SOL    HW242359   6.425   1.444   3.173
10510SOL    HW342360   6.389   1.316   3.246
10510SOL    MW442361   6.447   1.378   3.227
10511SOL     OW42362   6.266   0.518   2.925
10511SOL    HW242363   6.172   0.514   2.943
10511SOL    HW342364   6.296   0.427   2.934
10511SOL    MW442365   6.257   0.506   2.928
10512SOL     OW42366   6.012   0.932   2.829
10512SOL    HW242367   5.967   0.939   2.745
10512SOL    HW342368   5.992   1.015   2.873
10512SOL    MW442369   6.004   0.944   2.823
10513SOL     OW42370   5.709   1.778   2.704
10513SOL    HW242371   5.798   1.770   2.739
10513SOL    HW342372   5.673   1.690   2.709
10513SOL    MW442373   5.716   1.765   2.709
10514SOL     OW42374   6.974   1.170   2.073
10514SOL    HW242375   6.892   1.206   2.039
10514SOL    HW342376   7.042   1.213   2.022
10514SOL    MW442377   6.972   1.180   2.061
10515SOL     OW42378   5.973   1.305   2.739
10515SOL    HW242379   5.949   1.358   2.815
10515SOL    HW342380   6.029   1.363   2.687
10515SOL    MW442381   5.977   1.320   2.742
10516SOL     OW42382   6.535   0.949   2.549
10516SOL    HW242383   6.449   0.936   2.589
10516SOL    HW342384   6.588   0.876   2.581
10516SOL    MW442385   6.531   0.938   2.558
10517SOL     OW42386   5.943   1.601   3.334
10517SOL    HW242387   5.851   1.577   3.319
10517SOL    HW342388   5.987   1.518   3.351
10517SOL    MW442389   5.937   1.586   3.333
10518SOL     OW42390   6.526   1.311   2.266
10518SOL    HW242391   6.503   1.373   2.334
10518SOL    HW342392   6.483   1.229   2.292
10518SOL    MW442393   6.518   1.307   2.277
10519SOL     OW42394   7.399   0.312   2.722
10519SOL    HW242395   7.336   0.292   2.791
10519SOL    HW342396   7.389   0.241   2.659
10519SOL    MW442397   7.389   0.299   2.723
10520SOL     OW42398   6.023   0.284   2.234
10520SOL    HW242399   5.997   0.246   2.150
10520SOL    HW342400   5.960   0.354   2.250
10520SOL    MW442401   6.012   0.287   2.225
10521SOL     OW42402   5.858   1.245   2.271
10521SOL    HW242403   5.806   1.313   2.227
10521SOL    HW342404   5.855   1.171   2.211
10521SOL    MW442405   5.850   1.244   2.258
10522SOL     OW42406   6.520   1.708   2.049
10522SOL    HW242407   6.475   1.724   2.132
10522SOL    HW342408   6.451   1.673   1.991
10522SOL    MW442409   6.506   1.705   2.051
10523SOL     OW42410   7.455   0.481   2.024
10523SOL    HW242411   7.364   0.483   2.052
10523SOL    HW342412   7.500   0.543   2.082
10523SOL    MW442413   7.448   0.489   2.034
10524SOL     OW42414   7.200   1.084   2.374
10524SOL    HW242415   7.110   1.084   2.409
10524SOL    HW342416   7.193   1.130   2.291
10524SOL    MW442417   7.187   1.090   2.368
10525SOL     OW42418   7.000   0.719   3.446
10525SOL    HW242419   7.069   0.657   3.423
10525SOL    HW342420   6.925   0.693   3.393
10525SOL    MW442421   7.000   0.706   3.437
10526SOL     OW42422   5.741   1.599   2.998
10526SOL    HW242423   5.724   1.545   3.075
10526SOL    HW342424   5.729   1.689   3.028
10526SOL    MW442425   5.738   1.603   3.012
10527SOL     OW42426   6.736   1.106   3.438
10527SOL    HW242427   6.721   1.199   3.423
10527SOL    HW342428   6.831   1.096   3.438
10527SOL    MW442429   6.745   1.116   3.435
10528SOL     OW42430   6.532   0.530   3.639
10528SOL    HW242431   6.622   0.531   3.606
10528SOL    HW342432   6.491   0.455   3.597
10528SOL    MW442433   6.538   0.520   3.630
10529SOL     OW42434   7.107   1.062   2.766
10529SOL    HW242435   7.110   0.996   2.697
10529SOL    HW342436   7.192   1.105   2.762
10529SOL    MW442437   7.119   1.058   2.757
10530SOL     OW42438   6.727   0.665   2.335
10530SOL    HW242439   6.753   0.689   2.246
10530SOL    HW342440   6.709   0.572   2.331
10530SOL    MW442441   6.729   0.657   2.322
10531SOL     OW42442   7.392   1.285   2.186
10531SOL    HW242443   7.348   1.326   2.261
10531SOL    HW342444   7.449   1.353   2.151
10531SOL    MW442445   7.394   1.299   2.191
10532SOL     OW42446   6.312   0.334   3.589
10532SOL    HW242447   6.322   0.260   3.529
10532SOL    HW342448   6.348   0.303   3.672
10532SOL    MW442449   6.318   0.320   3.591
10533SOL     OW42450   6.048   1.701   2.504
10533SOL    HW242451   6.080   1.789   2.482
10533SOL    HW342452   6.001   1.673   2.426
10533SOL    MW442453   6.047   1.709   2.491
10534SOL     OW42454   7.432   0.063   2.553
10534SOL    HW242455   7.486   0.014   2.615
10534SOL    HW342456   7.375  -0.003   2.514
10534SOL    MW442457   7.432   0.047   2.555
10535SOL     OW42458   5.764   1.761   2.081
10535SOL    HW242459   5.793   1.851   2.073
10535SOL    HW342460   5.714   1.744   2.002
10535SOL    MW442461   5.762   1.769   2.070
10536SOL     OW42462   6.551   0.016   2.966
10536SOL    HW242463   6.510   0.094   2.928
10536SOL    HW342464   6.645   0.034   2.961
10536SOL    MW442465   6.557   0.028   2.961
10537SOL     OW42466   7.168   1.569   2.052
10537SOL    HW242467   7.216   1.638   2.098
10537SOL    HW342468   7.089   1.613   2.021
10537SOL    MW442469   7.163   1.583   2.055
10538SOL     OW42470   6.566   0.694   1.996
10538SOL    HW242471   6.568   0.641   1.917
10538SOL    HW342472   6.654   0.731   2.002
10538SOL    MW442473   6.578   0.693   1.985
10539SOL     OW42474   7.180   0.620   2.332
10539SOL    HW242475   7.219   0.620   2.419
10539SOL    HW342476   7.121   0.696   2.332
10539SOL    MW442477   7.177   0.631   2.343
10540SOL     OW42478   6.497   0.987   3.461
10540SOL    HW242479   6.474   0.967   3.551
10540SOL    HW342480   6.582   1.031   3.466
10540SOL    MW442481   6.504   0.990   3.473
10541SOL     OW42482   6.577   0.124   3.221
10541SOL    HW242483   6.583   0.086   3.134
10541SOL    HW342484   6.566   0.218   3.206
10541SOL    MW442485   6.578   0.132   3.209
10542SOL     OW42486   6.666   0.613   3.055
10542SOL    HW242487   6.741   0.642   3.002
10542SOL    HW342488   6.598   0.678   3.039
10542SOL    MW442489   6.667   0.625   3.045
10543SOL     OW42490   7.216   0.581   3.332
10543SOL    HW242491   7.197   0.490   3.311
10543SOL    HW342492   7.194   0.630   3.253
10543SOL    MW442493   7.211   0.574   3.319
10544SOL     OW42494   7.358   1.675   3.236
10544SOL    HW242495   7.286   1.637   3.287
10544SOL    HW342496   7.375   1.760   3.277
10544SOL    MW442497   7.352   1.680   3.248
10545SOL     OW42498   6.663   0.319   3.438
10545SOL    HW242499   6.629   0.358   3.357
10545SOL    HW342500   6.641   0.227   3.431
10545SOL    MW442501   6.656   0.312   3.428
10546SOL     OW42502   7.072   1.133   3.514
10546SOL    HW242503   7.154   1.174   3.544
10546SOL    HW342504   7.035   1.095   3.594
10546SOL    MW442505   7.078   1.134   3.529
10547SOL     OW42506   7.367   0.506   2.498
10547SOL    HW242507   7.456   0.475   2.515
10547SOL    HW342508   7.310   0.446   2.546
10547SOL    MW442509   7.370   0.494   2.507
10548SOL     OW42510   5.793   0.220   2.527
10548SOL    HW242511   5.784   0.160   2.453
10548SOL    HW342512   5.726   0.191   2.590
10548SOL    MW442513   5.783   0.207   2.525
10549SOL     OW42514   6.736   1.313   2.088
10549SOL    HW242515   6.686   1.315   2.170
10549SOL    HW342516   6.670   1.331   2.020
10549SOL    MW442517   6.722   1.315   2.090
10550SOL     OW42518   5.740   0.393   2.890
10550SOL    HW242519   5.712   0.484   2.899
10550SOL    HW342520   5.677   0.354   2.829
10550SOL    MW442521   5.727   0.399   2.884
10551SOL     OW42522   6.199   1.731   2.196
10551SOL    HW242523   6.120   1.689   2.229
10551SOL    HW342524   6.265   1.714   2.263
10551SOL    MW442525   6.198   1.723   2.209
10552SOL     OW42526   7.327   1.251   3.593
10552SOL    HW242527   7.377   1.177   3.625
10552SOL    HW342528   7.273   1.278   3.668
10552SOL    MW442529   7.327   1.245   3.606
10553SOL     OW42530   6.335   1.146   1.903
10553SOL    HW242531   6.257   1.092   1.890
10553SOL    HW342532   6.306   1.219   1.956
10553SOL    MW442533   6.321   1.148   1.908
10554SOL     OW42534   7.461   0.886   3.095
10554SOL    HW242535   7.477   0.924   3.008
10554SOL    HW342536   7.495   0.952   3.156
10554SOL    MW442537   7.468   0.899   3.091
10555SOL     OW42538   7.253   1.595   2.764
10555SOL    HW242539   7.282   1.662   2.825
10555SOL    HW342540   7.234   1.519   2.819
10555SOL    MW442541   7.255   1.595   2.779
10556SOL     OW42542   6.916   1.662   1.971
10556SOL    HW242543   6.842   1.625   2.021
10556SOL    HW342544   6.924   1.752   2.004
10556SOL    MW442545   6.907   1.669   1.983
10557SOL     OW42546   5.724   0.668   3.060
10557SOL    HW242547   5.786   0.698   3.126
10557SOL    HW342548   5.658   0.737   3.054
10557SOL    MW442549   5.723   0.681   3.067
10558SOL     OW42550   7.140   1.336   1.913
10558SOL    HW242551   7.087   1.385   1.849
10558SOL    HW342552   7.171   1.402   1.974
10558SOL    MW442553   7.138   1.350   1.911
10559SOL     OW42554   6.365   0.225   1.968
10559SOL    HW242555   6.313   0.145   1.956
10559SOL    HW342556   6.452   0.202   1.936
10559SOL    MW442557   6.368   0.211   1.962
10560SOL     OW42558   5.819   1.777   3.512
10560SOL    HW242559   5.793   1.845   3.450
10560SOL    HW342560   5.867   1.714   3.460
10560SOL    MW442561   5.821   1.777   3.498
10561SOL     OW42562   5.871   1.096   3.019
10561SOL    HW242563   5.924   1.171   3.044
10561SOL    HW342564   5.790   1.134   2.985
10561SOL    MW442565   5.867   1.111   3.019
10562SOL     OW42566   6.411   1.000   3.007
10562SOL    HW242567   6.439   0.909   3.019
10562SOL    HW342568   6.340   0.994   2.943
10562SOL    MW442569   6.404   0.988   3.002
10563SOL     OW42570   5.726   0.865   2.425
10563SOL    HW242571   5.817   0.880   2.452
10563SOL    HW342572   5.729   0.786   2.371
10563SOL    MW442573   5.738   0.857   2.423
10564SOL     OW42574   5.962   0.573   3.679
10564SOL    HW242575   5.909   0.653   3.686
10564SOL    HW342576   6.032   0.585   3.744
10564SOL    MW442577   5.964   0.586   3.687
10565SOL     OW42578   6.348   0.123   3.386
10565SOL    HW242579   6.325   0.031   3.388
10565SOL    HW342580   6.434   0.125   3.343
10565SOL    MW442581   6.355   0.113   3.382
10566SOL     OW42582   6.032   0.647   3.425
10566SOL    HW242583   6.112   0.697   3.411
10566SOL    HW342584   6.023   0.641   3.520
10566SOL    MW442585   6.041   0.653   3.435
10567SOL     OW42586   6.353   1.797   2.799
10567SOL    HW242587   6.442   1.812   2.829
10567SOL    HW342588   6.348   1.844   2.715
10567SOL    MW442589   6.363   1.805   2.792
10568SOL     OW42590   7.009   0.172   3.696
10568SOL    HW242591   7.065   0.099   3.722
10568SOL    HW342592   6.979   0.210   3.778
10568SOL    MW442593   7.013   0.167   3.709
10569SOL     OW42594   5.734   1.477   2.464
10569SOL    HW242595   5.706   1.516   2.546
10569SOL    HW342596   5.754   1.386   2.486
10569SOL    MW442597   5.732   1.469   2.477
10570SOL     OW42598   6.567   1.520   2.499
10570SOL    HW242599   6.650   1.474   2.483
10570SOL    HW342600   6.557   1.519   2.595
10570SOL    MW442601   6.577   1.513   2.509
10571SOL     OW42602   7.399   0.665   2.813
10571SOL    HW242603   7.488   0.695   2.795
10571SOL    HW342604   7.379   0.605   2.742
10571SOL    MW442605   7.408   0.662   2.802
10572SOL     OW42606   7.250   0.844   3.693
10572SOL    HW242607   7.305   0.768   3.674
10572SOL    HW342608   7.252   0.852   3.788
10572SOL    MW442609   7.258   0.835   3.701
10573SOL     OW42610   6.300   1.577   1.904
10573SOL    HW242611   6.240   1.646   1.874
10573SOL    HW342612   6.245   1.519   1.957
10573SOL    MW442613   6.284   1.579   1.906
10574SOL     OW42614   6.738   0.222   2.127
10574SOL    HW242615   6.671   0.198   2.064
10574SOL    HW342616   6.803   0.271   2.076
10574SOL    MW442617   6.738   0.224   2.112
10575SOL     OW42618   6.545   0.406   3.212
10575SOL    HW242619   6.464   0.447   3.240
10575SOL    HW342620   6.592   0.474   3.164
10575SOL    MW442621   6.540   0.421   3.210
10576SOL     OW42622   6.805   0.744   2.835
10576SOL    HW242623   6.818   0.838   2.845
10576SOL    HW342624   6.766   0.734   2.749
10576SOL    MW442625   6.801   0.755   2.825
10577SOL     OW42626   6.257   0.939   2.639
10577SOL    HW242627   6.168   0.930   2.672
10577SOL    HW342628   6.261   1.029   2.607
10577SOL    MW442629   6.246   0.950   2.639
10578SOL     OW42630   7.056   0.522   2.634
10578SOL    HW242631   7.001   0.443   2.633
10578SOL    HW342632   7.038   0.563   2.718
10578SOL    MW442633   7.046   0.517   2.643
10579SOL     OW42634   6.027   0.209   3.451
10579SOL    HW242635   5.948   0.227   3.503
10579SOL    HW342636   6.022   0.271   3.378
10579SOL    MW442637   6.017   0.219   3.448
10580SOL     OW42638   6.675   0.726   2.591
10580SOL    HW242639   6.612   0.658   2.615
10580SOL    HW342640   6.695   0.707   2.499
10580SOL    MW442641   6.669   0.713   2.583
10581SOL     OW42642   5.931   1.621   2.293
10581SOL    HW242643   5.892   1.668   2.219
10581SOL    HW342644   5.865   1.556   2.318
10581SOL    MW442645   5.918   1.619   2.287
10582SOL     OW42646   6.423   1.030   2.317
10582SOL    HW242647   6.425   1.004   2.224
10582SOL    HW342648   6.481   0.967   2.360
10582SOL    MW442649   6.431   1.019   2.311
10583SOL     OW42650   6.976   1.590   3.089
10583SOL    HW242651   6.901   1.636   3.127
10583SOL    HW342652   6.958   1.497   3.106
10583SOL    MW442653   6.965   1.584   3.097
10584SOL     OW42654   6.980   1.798   2.519
10584SOL    HW242655   6.923   1.751   2.458
10584SOL    HW342656   7.066   1.759   2.506
10584SOL    MW442657   6.983   1.789   2.509
10585SOL     OW42658   6.933   0.274   2.650
10585SOL    HW242659   6.961   0.206   2.711
10585SOL    HW342660   6.847   0.245   2.620
10585SOL    MW442661   6.926   0.261   2.654
10586SOL     OW42662   5.738   1.208   2.584
10586SOL    HW242663   5.802   1.240   2.647
10586SOL    HW342664   5.787   1.144   2.532
10586SOL    MW442665   5.753   1.204   2.585
10587SOL     OW42666   6.238   1.284   3.566
10587SOL    HW242667   6.286   1.367   3.553
10587SOL    HW342668   6.295   1.232   3.622
10587SOL    MW442669   6.252   1.288   3.572
10588SOL     OW42670   5.814   1.526   3.706
10588SOL    HW242671   5.870   1.450   3.721
10588SOL    HW342672   5.763   1.504   3.628
10588SOL    MW442673   5.814   1.513   3.697
10589SOL     OW42674   6.913   0.378   1.985
10589SOL    HW242675   6.886   0.444   1.921
10589SOL    HW342676   6.983   0.421   2.035
10589SOL    MW442677   6.918   0.391   1.982
10590SOL     OW42678   6.581   0.083   1.922
10590SOL    HW242679   6.637   0.075   1.844
10590SOL    HW342680   6.558  -0.007   1.944
10590SOL    MW442681   6.586   0.070   1.915
10591SOL     OW42682   7.086   0.934   2.127
10591SOL    HW242683   7.053   1.023   2.117
10591SOL    HW342684   7.051   0.905   2.212
10591SOL    MW442685   7.076   0.943   2.138
10592SOL     OW42686   6.699   1.363   3.315
10592SOL    HW242687   6.610   1.369   3.283
10592SOL    HW342688   6.743   1.442   3.283
10592SOL    MW442689   6.694   1.373   3.307
10593SOL     OW42690   5.992   0.031   3.657
10593SOL    HW242691   5.920  -0.004   3.605
10593SOL    HW342692   6.050   0.072   3.592
10593SOL    MW442693   5.990   0.032   3.642
10594SOL     OW42694   6.016   1.521   2.956
10594SOL    HW242695   6.061   1.583   3.013
10594SOL    HW342696   5.923   1.540   2.969
10594SOL    MW442697   6.009   1.531   2.963
10595SOL     OW42698   7.456   1.050   3.310
10595SOL    HW242699   7.371   1.063   3.269
10595SOL    HW342700   7.436   1.014   3.397
10595SOL    MW442701   7.443   1.046   3.315
10596SOL     OW42702   6.438   1.589   3.064
10596SOL    HW242703   6.462   1.578   2.973
10596SOL    HW342704   6.361   1.646   3.062
10596SOL    MW442705   6.430   1.594   3.053
10597SOL     OW42706   6.080   0.972   1.919
10597SOL    HW242707   6.003   0.985   1.975
10597SOL    HW342708   6.044   0.936   1.838
10597SOL    MW442709   6.066   0.968   1.916
10598SOL     OW42710   6.733   0.945   2.162
10598SOL    HW242711   6.643   0.966   2.137
10598SOL    HW342712   6.760   1.018   2.218
10598SOL    MW442713   6.725   0.957   2.165
10599SOL     OW42714   6.233   1.294   2.854
10599SOL    HW242715   6.226   1.273   2.948
10599SOL    HW342716   6.151   1.262   2.817
10599SOL    MW442717   6.221   1.288   2.861
10600SOL     OW42718   7.097   0.304   3.256
10600SOL    HW242719   7.044   0.306   3.336
10600SOL    HW342720   7.082   0.217   3.219
10600SOL    MW442721   7.089   0.294   3.261
10601SOL     OW42722   7.433   0.228   3.129
10601SOL    HW242723   7.414   0.295   3.064
10601SOL    HW342724   7.490   0.166   3.084
10601SOL    MW442725   7.437   0.229   3.115
10602SOL     OW42726   5.679   1.386   3.517
10602SOL    HW242727   5.723   1.319   3.463
10602SOL    HW342728   5.594   1.348   3.537
10602SOL    MW442729   5.674   1.372   3.513
10603SOL     OW42730   6.362   0.061   2.569
10603SOL    HW242731   6.291   0.122   2.551
10603SOL    HW342732   6.413   0.058   2.488
10603SOL    MW442733   6.358   0.067   2.556
10604SOL     OW42734   6.120   1.301   2.318
10604SOL    HW242735   6.113   1.333   2.408
10604SOL    HW342736   6.030   1.285   2.290
10604SOL    MW442737   6.108   1.303   2.325
10605SOL     OW42738   6.715   1.694   3.227
10605SOL    HW242739   6.635   1.679   3.177
10605SOL    HW342740   6.722   1.789   3.234
10605SOL    MW442741   6.706   1.705   3.221
10606SOL     OW42742   6.829   1.659   2.717
10606SOL    HW242743   6.876   1.732   2.676
10606SOL    HW342744   6.750   1.698   2.753
10606SOL    MW442745   6.824   1.674   2.716
10607SOL     OW42746   7.237   1.754   2.992
10607SOL    HW242747   7.280   1.724   3.072
10607SOL    HW342748   7.156   1.702   2.989
10607SOL    MW442749   7.232   1.743   3.002
10608SOL     OW42750   6.322   0.718   3.699
10608SOL    HW242751   6.392   0.660   3.671
10608SOL    HW342752   6.265   0.663   3.754
10608SOL    MW442753   6.324   0.705   3.703
10609SOL     OW42754   7.109   0.930   3.332
10609SOL    HW242755   7.114   0.983   3.412
10609SOL    HW342756   7.071   0.847   3.360
10609SOL    MW442757   7.105   0.925   3.347
10610SOL     OW42758   6.749   0.065   3.578
10610SOL    HW242759   6.744  -0.028   3.559
10610SOL    HW342760   6.832   0.076   3.624
10610SOL    MW442761   6.757   0.054   3.582
10611SOL     OW42762   6.123   0.585   2.032
10611SOL    HW242763   6.089   0.641   2.102
10611SOL    HW342764   6.194   0.535   2.072
10611SOL    MW442765   6.129   0.586   2.046
10612SOL     OW42766   7.219   1.336   2.854
10612SOL    HW242767   7.254   1.318   2.767
10612SOL    HW342768   7.124   1.337   2.841
10612SOL    MW442769   7.211   1.333   2.841
10613SOL     OW42770   6.648   0.984   3.223
10613SOL    HW242771   6.691   1.019   3.301
10613SOL    HW342772   6.631   1.061   3.169
10613SOL    MW442773   6.651   0.999   3.226
10614SOL     OW42774   7.179   0.471   2.096
10614SOL    HW242775   7.171   0.542   2.033
10614SOL    HW342776   7.197   0.515   2.179
10614SOL    MW442777   7.180   0.485   2.098
10615SOL     OW42778   6.039   0.126   2.525
10615SOL    HW242779   6.089   0.169   2.456
10615SOL    HW342780   5.954   0.170   2.525
10615SOL    MW442781   6.036   0.139   2.516
10616SOL     OW42782   5.798   1.188   3.385
10616SOL    HW242783   5.826   1.141   3.463
10616SOL    HW342784   5.719   1.143   3.356
10616SOL    MW442785   5.791   1.177   3.391
10617SOL     OW42786   6.306   0.515   3.352
10617SOL    HW242787   6.278   0.603   3.376
10617SOL    HW342788   6.275   0.459   3.423
10617SOL    MW442789   6.298   0.518   3.364
10618SOL     OW42790   6.848   0.733   2.071
10618SOL    HW242791   6.895   0.751   1.990
10618SOL    HW342792   6.814   0.817   2.099
10618SOL    MW442793   6.850   0.747   2.064
10619SOL     OW42794   5.961   0.911   2.565
10619SOL    HW242795   6.019   0.967   2.513
10619SOL    HW342796   6.005   0.826   2.567
10619SOL    MW442797   5.974   0.908   2.558
10620SOL     OW42798   7.101   0.263   2.402
10620SOL    HW242799   7.023   0.213   2.427
10620SOL    HW342800   7.072   0.354   2.402
10620SOL    MW442801   7.087   0.267   2.405
10621SOL     OW42802   6.687   0.225   2.561
10621SOL    HW242803   6.707   0.300   2.505
10621SOL    HW342804   6.667   0.264   2.646
10621SOL    MW442805   6.688   0.241   2.565
10622SOL     OW42806   6.583   1.475   1.893
10622SOL    HW242807   6.610   1.553   1.845
10622SOL    HW342808   6.490   1.490   1.912
10622SOL    MW442809   6.574   1.488   1.889
10623SOL     OW42810   7.447   0.998   3.580
10623SOL    HW242811   7.360   0.978   3.616
10623SOL    HW342812   7.501   0.924   3.605
10623SOL    MW442813   7.442   0.987   3.588
10624SOL     OW42814   5.668   1.511   2.737
10624SOL    HW242815   5.700   1.515   2.828
10624SOL    HW342816   5.573   1.519   2.745
10624SOL    MW442817   5.660   1.514   2.750
10625SOL     OW42818   5.623   0.637   2.284
10625SOL    HW242819   5.563   0.609   2.354
10625SOL    HW342820   5.697   0.577   2.290
10625SOL    MW442821   5.625   0.626   2.293
10626SOL     OW42822   7.191   1.849   3.718
10626SOL    HW242823   7.236   1.773   3.683
10626SOL    HW342824   7.229   1.862   3.805
10626SOL    MW442825   7.201   1.842   3.724
10627SOL     OW42826   6.791   1.368   2.444
10627SOL    HW242827   6.814   1.319   2.522
10627SOL    HW342828   6.872   1.410   2.416
10627SOL    MW442829   6.804   1.368   2.451
10628SOL     OW42830   6.049   0.376   3.173
10628SOL    HW242831   6.082   0.457   3.213
10628SOL    HW342832   6.022   0.402   3.085
10628SOL    MW442833   6.048   0.390   3.167
10629SOL     OW42834   6.003   0.343   2.909
10629SOL    HW242835   6.033   0.257   2.880
10629SOL    HW342836   5.908   0.336   2.912
10629SOL    MW442837   5.995   0.332   2.907
10630SOL     OW42838   6.832   0.552   3.600
10630SOL    HW242839   6.884   0.487   3.553
10630SOL    HW342840   6.790   0.603   3.530
10630SOL    MW442841   6.833   0.549   3.583
10631SOL     OW42842   6.931   0.347   3.461
10631SOL    HW242843   6.838   0.331   3.448
10631SOL    HW342844   6.957   0.285   3.529
10631SOL    MW442845   6.921   0.337   3.468
10632SOL     OW42846   6.146   0.121   2.800
10632SOL    HW242847   6.156   0.030   2.826
10632SOL    HW342848   6.102   0.117   2.715
10632SOL    MW442849   6.142   0.109   2.792
10633SOL     OW42850   6.240   1.736   3.346
10633SOL    HW242851   6.157   1.721   3.391
10633SOL    HW342852   6.299   1.669   3.381
10633SOL    MW442853   6.238   1.726   3.356
10634SOL     OW42854   7.297   0.443   2.971
10634SOL    HW242855   7.230   0.476   3.031
10634SOL    HW342856   7.340   0.521   2.937
10634SOL    MW442857   7.295   0.458   2.975
10635SOL     OW42858   7.475   1.163   2.941
10635SOL    HW242859   7.468   1.103   2.866
10635SOL    HW342860   7.401   1.223   2.930
10635SOL    MW442861   7.465   1.163   2.930
10636SOL     OW42862   6.857   1.025   2.859
10636SOL    HW242863   6.871   0.997   2.950
10636SOL    HW342864   6.943   1.056   2.831
10636SOL    MW442865   6.870   1.026   2.868
10637SOL     OW42866   6.940   0.520   3.138
10637SOL    HW242867   6.961   0.521   3.045
10637SOL    HW342868   6.985   0.442   3.171
10637SOL    MW442869   6.947   0.510   3.130
10638SOL     OW42870   7.433   0.651   3.680
10638SOL    HW242871   7.470   0.596   3.749
10638SOL    HW342872   7.458   0.608   3.598
10638SOL    MW442873   7.440   0.639   3.679
10639SOL     OW42874   6.980   0.949   3.731
10639SOL    HW242875   7.046   0.897   3.685
10639SOL    HW342876   7.000   0.936   3.824
10639SOL    MW442877   6.991   0.940   3.738
10640SOL     OW42878   6.931   0.035   2.080
10640SOL    HW242879   7.005   0.079   2.123
10640SOL    HW342880   6.855   0.089   2.102
10640SOL    MW442881   6.931   0.047   2.088
10641SOL     OW42882   6.991   0.810   2.358
10641SOL    HW242883   6.906   0.780   2.328
10641SOL    HW342884   6.983   0.817   2.453
10641SOL    MW442885   6.979   0.808   2.367
10642SOL     OW42886   6.067   1.273   3.089
10642SOL    HW242887   6.079   1.300   3.180
10642SOL    HW342888   6.048   1.354   3.042
10642SOL    MW442889   6.066   1.288   3.094
10643SOL     OW42890   6.351   0.253   2.912
10643SOL    HW242891   6.324   0.255   3.003
10643SOL    HW342892   6.281   0.205   2.867
10643SOL    MW442893   6.339   0.249   2.919
10644SOL     OW42894   6.205   1.745   3.074
10644SOL    HW242895   6.257   1.822   3.051
10644SOL    HW342896   6.214   1.737   3.169
10644SOL    MW442897   6.214   1.752   3.085
10645SOL     OW42898   7.107   1.330   3.306
10645SOL    HW242899   7.092   1.259   3.369
10645SOL    HW342900   7.153   1.288   3.234
10645SOL    MW442901   7.113   1.314   3.306
10646SOL     OW42902   6.181   1.061   3.423
10646SOL    HW242903   6.218   1.066   3.335
10646SOL    HW342904   6.220   1.134   3.470
10646SOL    MW442905   6.191   1.071   3.418
10647SOL     OW42906   6.361   1.104   3.235
10647SOL    HW242907   6.420   1.050   3.288
10647SOL    HW342908   6.376   1.076   3.145
10647SOL    MW442909   6.371   1.093   3.231
10648SOL     OW42910   6.364   0.476   2.084
10648SOL    HW242911   6.437   0.525   2.047
10648SOL    HW342912   6.380   0.385   2.058
10648SOL    MW442913   6.376   0.471   2.077
10649SOL     OW42914   7.172   1.593   3.407
10649SOL    HW242915   7.214   1.578   3.492
10649SOL    HW342916   7.163   1.506   3.369
10649SOL    MW442917   7.176   1.581   3.414
10650SOL     OW42918   6.832   0.072   2.998
10650SOL    HW242919   6.887   0.081   2.920
10650SOL    HW342920   6.887   0.106   3.069
10650SOL    MW442921   6.846   0.077   2.997
10651SOL     OW42922   5.839   0.985   2.182
10651SOL    HW242923   5.776   1.001   2.111
10651SOL    HW342924   5.786   0.948   2.253
10651SOL    MW442925   5.824   0.982   2.182
10652SOL     OW42926   6.195   1.339   2.041
10652SOL    HW242927   6.210   1.315   2.133
10652SOL    HW342928   6.103   1.317   2.025
10652SOL    MW442929   6.185   1.332   2.051
10653SOL     OW42930   6.734   1.570   2.193
10653SOL    HW242931   6.742   1.488   2.144
10653SOL    HW342932   6.653   1.609   2.160
10653SOL    MW442933   6.724   1.565   2.183
10654SOL     OW42934   5.993   1.728   2.762
10654SOL    HW242935   5.997   1.639   2.797
10654SOL    HW342936   6.019   1.719   2.671
10654SOL    MW442937   5.996   1.716   2.754
10655SOL     OW42938   6.610   1.206   3.005
10655SOL    HW242939   6.542   1.140   3.021
10655SOL    HW342940   6.628   1.200   2.912
10655SOL    MW442941   6.603   1.197   2.996
10656SOL     OW42942   5.699   1.481   3.256
10656SOL    HW242943   5.689   1.439   3.342
10656SOL    HW342944   5.620   1.534   3.246
10656SOL    MW442945   5.688   1.482   3.267
10657SOL     OW42946   6.603   0.345   2.826
10657SOL    HW242947   6.533   0.297   2.871
10657SOL    HW342948   6.635   0.408   2.890
10657SOL    MW442949   6.598   0.347   2.840
10658SOL     OW42950   6.254   0.781   3.446
10658SOL    HW242951   6.247   0.876   3.434
10658SOL    HW342952   6.263   0.770   3.541
10658SOL    MW442953   6.255   0.793   3.456
10659SOL     OW42954   5.975   1.296   3.704
10659SOL    HW242955   6.047   1.298   3.641
10659SOL    HW342956   5.945   1.205   3.703
10659SOL    MW442957   5.980   1.285   3.696
10660SOL     OW42958   7.059   0.059   3.171
10660SOL    HW242959   7.130   0.005   3.135
10660SOL    HW342960   7.058   0.038   3.264
10660SOL    MW442961   7.068   0.050   3.179
10661SOL     OW42962   7.259   1.589   3.655
10661SOL    HW242963   7.232   1.586   3.746
10661SOL    HW342964   7.355   1.593   3.658
10661SOL    MW442965   7.269   1.589   3.667
10662SOL     OW42966   6.070   0.451   2.639
10662SOL    HW242967   6.141   0.399   2.602
10662SOL    HW342968   6.056   0.416   2.726
10662SOL    MW442969   6.078   0.440   2.646
10663SOL     OW42970   5.625   1.786   3.711
10663SOL    HW242971   5.675   1.764   3.633
10663SOL    HW342972   5.633   1.881   3.719
10663SOL    MW442973   5.633   1.795   3.702
10664SOL     OW42974   6.386   1.544   2.715
10664SOL    HW242975   6.314   1.481   2.728
10664SOL    HW342976   6.347   1.629   2.733
10664SOL    MW442977   6.370   1.547   2.718
10665SOL     OW42978   6.706   0.392   2.363
10665SOL    HW242979   6.728   0.329   2.295
10665SOL    HW342980   6.611   0.384   2.374
10665SOL    MW442981   6.696   0.383   2.355
10666SOL     OW42982   5.791   0.082   2.295
10666SOL    HW242983   5.862   0.103   2.234
10666SOL    HW342984   5.745   0.010   2.253
10666SOL    MW442985   5.795   0.076   2.281
10667SOL     OW42986   5.622   0.549   3.438
10667SOL    HW242987   5.686   0.615   3.413
10667SOL    HW342988   5.541   0.576   3.395
10667SOL    MW442989   5.620   0.561   3.430
10668SOL     OW42990   7.360   1.456   2.395
10668SOL    HW242991   7.330   1.389   2.456
10668SOL    HW342992   7.454   1.462   2.409
10668SOL    MW442993   7.368   1.448   2.405
10669SOL     OW42994   6.916   1.133   2.325
10669SOL    HW242995   6.888   1.219   2.358
10669SOL    HW342996   6.944   1.149   2.235
10669SOL    MW442997   6.916   1.147   2.317
10670SOL     OW42998   6.578   0.053   2.378
10670SOL    HW242999   6.615   0.112   2.443
10670SOL    HW343000   6.555   0.109   2.304
10670SOL    MW443001   6.579   0.068   2.377
10671SOL     OW43002   7.431   0.935   2.800
10671SOL    HW243003   7.422   0.967   2.711
10671SOL    HW343004   7.384   0.851   2.800
10671SOL    MW443005   7.424   0.928   2.790
10672SOL     OW43006   5.807   0.775   3.379
10672SOL    HW243007   5.828   0.844   3.317
10672SOL    HW343008   5.887   0.722   3.384
10672SOL    MW443009   5.820   0.776   3.373
10673SOL     OW43010   7.343   0.866   2.501
10673SOL    HW243011   7.437   0.855   2.489
10673SOL    HW343012   7.319   0.938   2.442
10673SOL    MW443013   7.353   0.874   2.492
10674SOL     OW43014   5.792   0.790   3.646
10674SOL    HW243015   5.718   0.734   3.672
10674SOL    HW343016   5.787   0.793   3.551
10674SOL    MW443017   5.781   0.783   3.636
10675SOL     OW43018   5.958   0.077   3.096
10675SOL    HW243019   6.001   0.161   3.116
10675SOL    HW343020   6.031   0.015   3.089
10675SOL    MW443021   5.973   0.080   3.097
10676SOL     OW43022   5.999   0.744   2.274
10676SOL    HW243023   5.999   0.839   2.259
10676SOL    HW343024   6.076   0.728   2.328
10676SOL    MW443025   6.009   0.755   2.279
10677SOL     OW43026   6.775   0.603   3.338
10677SOL    HW243027   6.811   0.576   3.254
10677SOL    HW343028   6.688   0.637   3.317
10677SOL    MW443029   6.769   0.604   3.325
10678SOL     OW43030   5.758   0.475   2.563
10678SOL    HW243031   5.820   0.482   2.636
10678SOL    HW343032   5.758   0.382   2.540
10678SOL    MW443033   5.766   0.464   2.570
10679SOL     OW43034   7.305   1.815   2.095
10679SOL    HW243035   7.372   1.848   2.035
10679SOL    HW343036   7.262   1.894   2.129
10679SOL    MW443037   7.307   1.830   2.091
10680SOL     OW43038   6.440   0.736   3.047
10680SOL    HW243039   6.398   0.654   3.023
10680SOL    HW343040   6.441   0.735   3.143
10680SOL    MW443041   6.433   0.725   3.056
10681SOL     OW43042   7.111   1.869   3.446
10681SOL    HW243043   7.114   1.775   3.429
10681SOL    HW343044   7.134   1.877   3.538
10681SOL    MW443045   7.114   1.857   3.456
10682SOL     OW43046   6.244   0.206   3.152
10682SOL    HW243047   6.175   0.269   3.173
10682SOL    HW343048   6.271   0.170   3.237
10682SOL    MW443049   6.238   0.209   3.165
10683SOL     OW43050   5.627   1.047   2.021
10683SOL    HW243051   5.596   1.112   2.084
10683SOL    HW343052   5.576   0.969   2.040
10683SOL    MW443053   5.617   1.044   2.031
10684SOL     OW43054   7.039   0.059   2.769
10684SOL    HW243055   7.127   0.068   2.806
10684SOL    HW343056   7.049   0.000   2.695
10684SOL    MW443057   7.053   0.053   2.763
10685SOL     OW43058   7.071   0.798   2.613
10685SOL    HW243059   7.151   0.813   2.562
10685SOL    HW343060   7.064   0.703   2.619
10685SOL    MW443061   7.080   0.787   2.608
10686SOL     OW43062   6.211   1.847   1.963
10686SOL    HW243063   6.116   1.847   1.955
10686SOL    HW343064   6.227   1.793   2.041
10686SOL    MW443065   6.201   1.841   1.972
10687SOL     OW43066   6.521   0.724   3.310
10687SOL    HW243067   6.590   0.791   3.307
10687SOL    HW343068   6.454   0.762   3.366
10687SOL    MW443069   6.522   0.737   3.317
10688SOL     OW43070   5.939   1.024   3.558
10688SOL    HW243071   5.893   0.940   3.560
10688SOL    HW343072   5.996   1.018   3.482
10688SOL    MW443073   5.941   1.012   3.550
10689SOL     OW43074   7.056   0.667   1.879
10689SOL    HW243075   6.984   0.643   1.821
10689SOL    HW343076   7.122   0.704   1.821
10689SOL    MW443077   7.055   0.669   1.864
10690SOL     OW43078   6.190   1.399   2.559
10690SOL    HW243079   6.255   1.332   2.580
10690SOL    HW343080   6.242   1.476   2.536
10690SOL    MW443081   6.205   1.401   2.558
10691SOL     OW43082   6.451   0.564   2.689
10691SOL    HW243083   6.391   0.582   2.761
10691SOL    HW343084   6.485   0.476   2.708
10691SOL    MW443085   6.447   0.554   2.702
10692SOL     OW43086   7.392   0.063   3.358
10692SOL    HW243087   7.313   0.109   3.386
10692SOL    HW343088   7.427   0.117   3.287
10692SOL    MW443089   7.386   0.076   3.352
10693SOL     OW43090   6.676   1.147   2.708
10693SOL    HW243091   6.768   1.128   2.726
10693SOL    HW343092   6.649   1.077   2.648
10693SOL    MW443093   6.684   1.135   2.702
10694SOL     OW43094   6.469   0.967   2.063
10694SOL    HW243095   6.455   0.879   2.028
10694SOL    HW343096   6.420   1.024   2.004
10694SOL    MW443097   6.461   0.962   2.051
10695SOL     OW43098   6.950   1.385   2.804
10695SOL    HW243099   6.923   1.469   2.769
10695SOL    HW343100   6.910   1.380   2.891
10695SOL    MW443101   6.943   1.394   2.810
10696SOL     OW43102   6.869   1.333   3.072
10696SOL    HW243103   6.880   1.300   3.161
10696SOL    HW343104   6.788   1.292   3.041
10696SOL    MW443105   6.859   1.325   3.078
10697SOL     OW43106   5.882   0.691   2.842
10697SOL    HW243107   5.832   0.690   2.923
10697SOL    HW343108   5.902   0.783   2.826
10697SOL    MW443109   5.878   0.703   2.850
10698SOL     OW43110   6.949   1.455   3.604
10698SOL    HW243111   6.949   1.549   3.620
10698SOL    HW343112   6.994   1.445   3.520
10698SOL    MW443113   6.955   1.465   3.595
10699SOL     OW43114   7.188   0.173   2.165
10699SOL    HW243115   7.181   0.177   2.260
10699SOL    HW343116   7.200   0.264   2.138
10699SOL    MW443117   7.189   0.186   2.173
10700SOL     OW43118   6.477   0.736   2.279
10700SOL    HW243119   6.457   0.722   2.186
10700SOL    HW343120   6.570   0.715   2.286
10700SOL    MW443121   6.487   0.731   2.268
10701SOL     OW43122   5.804   0.359   3.583
10701SOL    HW243123   5.761   0.418   3.520
10701SOL    HW343124   5.872   0.414   3.623
10701SOL    MW443125   5.808   0.374   3.580
10702SOL     OW43126   6.916   0.979   3.128
10702SOL    HW243127   6.979   0.976   3.201
10702SOL    HW343128   6.832   0.997   3.170
10702SOL    MW443129   6.912   0.981   3.143
10703SOL     OW43130   6.460   1.694   2.317
10703SOL    HW243131   6.518   1.765   2.344
10703SOL    HW343132   6.483   1.622   2.375
10703SOL    MW443133   6.471   1.694   2.328
10704SOL     OW43134   7.255   0.156   2.907
10704SOL    HW243135   7.300   0.074   2.926
10704SOL    HW343136   7.275   0.212   2.983
10704SOL    MW443137   7.265   0.152   2.919
10705SOL     OW43138   5.703  -0.001   3.006
10705SOL    HW243139   5.694   0.000   2.911
10705SOL    HW343140   5.797   0.011   3.021
10705SOL    MW443141   5.715   0.002   2.997
10706SOL     OW43142   7.340   1.192   2.626
10706SOL    HW243143   7.319   1.138   2.549
10706SOL    HW343144   7.436   1.190   2.630
10706SOL    MW443145   7.349   1.185   2.615
10707SOL     OW43146   6.032   1.337   3.369
10707SOL    HW243147   5.953   1.287   3.392
10707SOL    HW343148   6.102   1.296   3.419
10707SOL    MW443149   6.030   1.325   3.379
10708SOL     OW43150   5.916   0.126   2.052
10708SOL    HW243151   5.845   0.181   2.020
10708SOL    HW343152   5.958   0.092   1.973
10708SOL    MW443153   5.912   0.128   2.038
10709SOL     OW43154   7.040   0.623   2.888
10709SOL    HW243155   6.963   0.669   2.854
10709SOL    HW343156   7.097   0.692   2.922
10709SOL    MW443157   7.037   0.638   2.888
10710SOL     OW43158   5.672   0.225   1.901
10710SOL    HW243159   5.639   0.304   1.945
10710SOL    HW343160   5.727   0.258   1.830
10710SOL    MW443161   5.675   0.239   1.898
10711SOL     OW43162   5.706   1.482   2.090
10711SOL    HW243163   5.723   1.566   2.132
10711SOL    HW343164   5.741   1.491   2.002
10711SOL    MW443165   5.711   1.495   2.084
10712SOL     OW43166   6.978   1.571   2.307
10712SOL    HW243167   7.041   1.561   2.236
10712SOL    HW343168   6.895   1.591   2.262
10712SOL    MW443169   6.975   1.572   2.292
10713SOL     OW43170   7.341   0.839   3.993
10713SOL    HW243171   7.382   0.781   4.058
10713SOL    HW343172   7.248   0.831   4.010
10713SOL    MW443173   7.335   0.831   4.003
10714SOL     OW43174   7.207   0.771   4.988
10714SOL    HW243175   7.162   0.838   5.039
10714SOL    HW343176   7.295   0.807   4.974
10714SOL    MW443177   7.213   0.784   4.992
10715SOL     OW43178   6.135   1.022   4.222
10715SOL    HW243179   6.225   0.997   4.206
10715SOL    HW343180   6.131   1.115   4.199
10715SOL    MW443181   6.147   1.031   4.217
10716SOL     OW43182   7.251   1.725   4.364
10716SOL    HW243183   7.263   1.671   4.442
10716SOL    HW343184   7.288   1.673   4.293
10716SOL    MW443185   7.257   1.710   4.365
10717SOL     OW43186   6.630   1.610   5.365
10717SOL    HW243187   6.671   1.646   5.286
10717SOL    HW343188   6.665   1.521   5.372
10717SOL    MW443189   6.641   1.603   5.356
10718SOL     OW43190   7.187   1.165   4.969
10718SOL    HW243191   7.108   1.130   4.927
10718SOL    HW343192   7.214   1.237   4.913
10718SOL    MW443193   7.180   1.170   4.956
10719SOL     OW43194   6.419   0.478   4.235
10719SOL    HW243195   6.394   0.566   4.263
10719SOL    HW343196   6.416   0.481   4.139
10719SOL    MW443197   6.415   0.490   4.227
10720SOL     OW43198   5.861   0.506   4.163
10720SOL    HW243199   5.893   0.594   4.145
10720SOL    HW343200   5.849   0.504   4.258
10720SOL    MW443201   5.864   0.518   4.175
10721SOL     OW43202   5.939   0.919   5.064
10721SOL    HW243203   6.002   0.866   5.015
10721SOL    HW343204   5.920   0.993   5.007
10721SOL    MW443205   5.945   0.921   5.051
10722SOL     OW43206   6.260   0.261   4.250
10722SOL    HW243207   6.318   0.337   4.252
10722SOL    HW343208   6.195   0.282   4.183
10722SOL    MW443209   6.259   0.273   4.241
10723SOL     OW43210   6.347   1.188   4.425
10723SOL    HW243211   6.427   1.191   4.477
10723SOL    HW343212   6.375   1.155   4.339
10723SOL    MW443213   6.361   1.184   4.420
10724SOL     OW43214   6.372   1.529   5.328
10724SOL    HW243215   6.456   1.555   5.367
10724SOL    HW343216   6.396   1.473   5.254
10724SOL    MW443217   6.386   1.525   5.323
10725SOL     OW43218   6.124   0.692   4.416
10725SOL    HW243219   6.109   0.612   4.467
10725SOL    HW343220   6.206   0.727   4.450
10725SOL    MW443221   6.132   0.684   4.428
10726SOL     OW43222   6.461   1.378   5.101
10726SOL    HW243223   6.425   1.444   5.041
10726SOL    HW343224   6.389   1.316   5.114
10726SOL    MW443225   6.447   1.378   5.095
10727SOL     OW43226   6.266   0.518   4.793
10727SOL    HW243227   6.172   0.514   4.811
10727SOL    HW343228   6.296   0.427   4.802
10727SOL    MW443229   6.257   0.506   4.796
10728SOL     OW43230   6.012   0.932   4.697
10728SOL    HW243231   5.967   0.939   4.613
10728SOL    HW343232   5.992   1.015   4.741
10728SOL    MW443233   6.004   0.944   4.691
10729SOL     OW43234   5.709   1.778   4.572
10729SOL    HW243235   5.798   1.770   4.607
10729SOL    HW343236   5.673   1.690   4.577
10729SOL    MW443237   5.716   1.765   4.577
10730SOL     OW43238   6.974   1.170   3.941
10730SOL    HW243239   6.892   1.206   3.907
10730SOL    HW343240   7.042   1.213   3.890
10730SOL    MW443241   6.972   1.180   3.929
10731SOL     OW43242   5.973   1.305   4.607
10731SOL    HW243243   5.949   1.358   4.683
10731SOL    HW343244   6.029   1.363   4.555
10731SOL    MW443245   5.977   1.320   4.610
10732SOL     OW43246   6.535   0.949   4.417
10732SOL    HW243247   6.449   0.936   4.457
10732SOL    HW343248   6.588   0.876   4.449
10732SOL    MW443249   6.531   0.938   4.426
10733SOL     OW43250   5.943   1.601   5.202
10733SOL    HW243251   5.851   1.577   5.187
10733SOL    HW343252   5.987   1.518   5.219
10733SOL    MW443253   5.937   1.586   5.201
10734SOL     OW43254   6.526   1.311   4.134
10734SOL    HW243255   6.503   1.373   4.202
10734SOL    HW343256   6.483   1.229   4.160
10734SOL    MW443257   6.518   1.307   4.145
10735SOL     OW43258   7.399   0.312   4.590
10735SOL    HW243259   7.336   0.292   4.659
10735SOL    HW343260   7.389   0.241   4.527
10735SOL    MW443261   7.389   0.299   4.591
10736SOL     OW43262   6.023   0.284   4.102
10736SOL    HW243263   5.997   0.246   4.018
10736SOL    HW343264   5.960   0.354   4.118
10736SOL    MW443265   6.012   0.287   4.093
10737SOL     OW43266   5.858   1.245   4.139
10737SOL    HW243267   5.806   1.313   4.095
10737SOL    HW343268   5.855   1.171   4.079
10737SOL    MW443269   5.850   1.244   4.126
10738SOL     OW43270   6.520   1.708   3.917
10738SOL    HW243271   6.475   1.724   4.000
10738SOL    HW343272   6.451   1.673   3.859
10738SOL    MW443273   6.506   1.705   3.919
10739SOL     OW43274   7.455   0.481   3.892
10739SOL    HW243275   7.364   0.483   3.920
10739SOL    HW343276   7.500   0.543   3.950
10739SOL    MW443277   7.448   0.489   3.902
10740SOL     OW43278   7.200   1.084   4.242
10740SOL    HW243279   7.110   1.084   4.277
10740SOL    HW343280   7.193   1.130   4.159
10740SOL    MW443281   7.187   1.090   4.236
10741SOL     OW43282   7.000   0.719   5.314
10741SOL    HW243283   7.069   0.657   5.291
10741SOL    HW343284   6.925   0.693   5.261
10741SOL    MW443285   7.000   0.706   5.305
10742SOL     OW43286   5.741   1.599   4.866
10742SOL    HW243287   5.724   1.545   4.943
10742SOL    HW343288   5.729   1.689   4.896
10742SOL    MW443289   5.738   1.603   4.880
10743SOL     OW43290   6.736   1.106   5.306
10743SOL    HW243291   6.721   1.199   5.291
10743SOL    HW343292   6.831   1.096   5.306
10743SOL    MW443293   6.745   1.116   5.303
10744SOL     OW43294   6.532   0.530   5.507
10744SOL    HW243295   6.622   0.531   5.474
10744SOL    HW343296   6.491   0.455   5.465
10744SOL    MW443297   6.538   0.520   5.498
10745SOL     OW43298   7.107   1.062   4.634
10745SOL    HW243299   7.110   0.996   4.565
10745SOL    HW343300   7.192   1.105   4.630
10745SOL    MW443301   7.119   1.058   4.625
10746SOL     OW43302   6.727   0.665   4.203
10746SOL    HW243303   6.753   0.689   4.114
10746SOL    HW343304   6.709   0.572   4.199
10746SOL    MW443305   6.729   0.657   4.190
10747SOL     OW43306   7.392   1.285   4.054
10747SOL    HW243307   7.348   1.326   4.129
10747SOL    HW343308   7.449   1.353   4.019
10747SOL    MW443309   7.394   1.299   4.059
10748SOL     OW43310   6.312   0.334   5.457
10748SOL    HW243311   6.322   0.260   5.397
10748SOL    HW343312   6.348   0.303   5.540
10748SOL    MW443313   6.318   0.320   5.459
10749SOL     OW43314   6.048   1.701   4.372
10749SOL    HW243315   6.080   1.789   4.350
10749SOL    HW343316   6.001   1.673   4.294
10749SOL    MW443317   6.047   1.709   4.359
10750SOL     OW43318   7.432   0.063   4.421
10750SOL    HW243319   7.486   0.014   4.483
10750SOL    HW343320   7.375  -0.003   4.382
10750SOL    MW443321   7.432   0.047   4.423
10751SOL     OW43322   5.764   1.761   3.949
10751SOL    HW243323   5.793   1.851   3.941
10751SOL    HW343324   5.714   1.744   3.870
10751SOL    MW443325   5.762   1.769   3.938
10752SOL     OW43326   6.551   0.016   4.834
10752SOL    HW243327   6.510   0.094   4.796
10752SOL    HW343328   6.645   0.034   4.829
10752SOL    MW443329   6.557   0.028   4.829
10753SOL     OW43330   7.168   1.569   3.920
10753SOL    HW243331   7.216   1.638   3.966
10753SOL    HW343332   7.089   1.613   3.889
10753SOL    MW443333   7.163   1.583   3.923
10754SOL     OW43334   6.566   0.694   3.864
10754SOL    HW243335   6.568   0.641   3.785
10754SOL    HW343336   6.654   0.731   3.870
10754SOL    MW443337   6.578   0.693   3.853
10755SOL     OW43338   7.180   0.620   4.200
10755SOL    HW243339   7.219   0.620   4.287
10755SOL    HW343340   7.121   0.696   4.200
10755SOL    MW443341   7.177   0.631   4.211
10756SOL     OW43342   6.497   0.987   5.329
10756SOL    HW243343   6.474   0.967   5.419
10756SOL    HW343344   6.582   1.031   5.334
10756SOL    MW443345   6.504   0.990   5.341
10757SOL     OW43346   6.577   0.124   5.089
10757SOL    HW243347   6.583   0.086   5.002
10757SOL    HW343348   6.566   0.218   5.074
10757SOL    MW443349   6.578   0.132   5.077
10758SOL     OW43350   6.666   0.613   4.923
10758SOL    HW243351   6.741   0.642   4.870
10758SOL    HW343352   6.598   0.678   4.907
10758SOL    MW443353   6.667   0.625   4.913
10759SOL     OW43354   7.216   0.581   5.200
10759SOL    HW243355   7.197   0.490   5.179
10759SOL    HW343356   7.194   0.630   5.121
10759SOL    MW443357   7.211   0.574   5.187
10760SOL     OW43358   7.358   1.675   5.104
10760SOL    HW243359   7.286   1.637   5.155
10760SOL    HW343360   7.375   1.760   5.145
10760SOL    MW443361   7.352   1.680   5.116
10761SOL     OW43362   6.663   0.319   5.306
10761SOL    HW243363   6.629   0.358   5.225
10761SOL    HW343364   6.641   0.227   5.299
10761SOL    MW443365   6.656   0.312   5.296
10762SOL     OW43366   7.072   1.133   5.382
10762SOL    HW243367   7.154   1.174   5.412
10762SOL    HW343368   7.035   1.095   5.462
10762SOL    MW443369   7.078   1.134   5.397
10763SOL     OW43370   7.367   0.506   4.366
10763SOL    HW243371   7.456   0.475   4.383
10763SOL    HW343372   7.310   0.446   4.414
10763SOL    MW443373   7.370   0.494   4.375
10764SOL     OW43374   5.793   0.220   4.395
10764SOL    HW243375   5.784   0.160   4.321
10764SOL    HW343376   5.726   0.191   4.458
10764SOL    MW443377   5.783   0.207   4.393
10765SOL     OW43378   6.736   1.313   3.956
10765SOL    HW243379   6.686   1.315   4.038
10765SOL    HW343380   6.670   1.331   3.888
10765SOL    MW443381   6.722   1.315   3.958
10766SOL     OW43382   5.740   0.393   4.758
10766SOL    HW243383   5.712   0.484   4.767
10766SOL    HW343384   5.677   0.354   4.697
10766SOL    MW443385   5.727   0.399   4.752
10767SOL     OW43386   6.199   1.731   4.064
10767SOL    HW243387   6.120   1.689   4.097
10767SOL    HW343388   6.265   1.714   4.131
10767SOL    MW443389   6.198   1.723   4.077
10768SOL     OW43390   7.327   1.251   5.461
10768SOL    HW243391   7.377   1.177   5.493
10768SOL    HW343392   7.273   1.278   5.536
10768SOL    MW443393   7.327   1.245   5.474
10769SOL     OW43394   6.335   1.146   3.771
10769SOL    HW243395   6.257   1.092   3.758
10769SOL    HW343396   6.306   1.219   3.824
10769SOL    MW443397   6.321   1.148   3.776
10770SOL     OW43398   7.461   0.886   4.963
10770SOL    HW243399   7.477   0.924   4.876
10770SOL    HW343400   7.495   0.952   5.024
10770SOL    MW443401   7.468   0.899   4.959
10771SOL     OW43402   7.253   1.595   4.632
10771SOL    HW243403   7.282   1.662   4.693
10771SOL    HW343404   7.234   1.519   4.687
10771SOL    MW443405   7.255   1.595   4.647
10772SOL     OW43406   6.916   1.662   3.839
10772SOL    HW243407   6.842   1.625   3.889
10772SOL    HW343408   6.924   1.752   3.872
10772SOL    MW443409   6.907   1.669   3.851
10773SOL     OW43410   5.724   0.668   4.928
10773SOL    HW243411   5.786   0.698   4.994
10773SOL    HW343412   5.658   0.737   4.922
10773SOL    MW443413   5.723   0.681   4.935
10774SOL     OW43414   7.140   1.336   3.781
10774SOL    HW243415   7.087   1.385   3.717
10774SOL    HW343416   7.171   1.402   3.842
10774SOL    MW443417   7.138   1.350   3.779
10775SOL     OW43418   6.365   0.225   3.836
10775SOL    HW243419   6.313   0.145   3.824
10775SOL    HW343420   6.452   0.202   3.804
10775SOL    MW443421   6.368   0.211   3.830
10776SOL     OW43422   5.819   1.777   5.380
10776SOL    HW243423   5.793   1.845   5.318
10776SOL    HW343424   5.867   1.714   5.328
10776SOL    MW443425   5.821   1.777   5.366
10777SOL     OW43426   5.871   1.096   4.887
10777SOL    HW243427   5.924   1.171   4.912
10777SOL    HW343428   5.790   1.134   4.853
10777SOL    MW443429   5.867   1.111   4.887
10778SOL     OW43430   6.411   1.000   4.875
10778SOL    HW243431   6.439   0.909   4.887
10778SOL    HW343432   6.340   0.994   4.811
10778SOL    MW443433   6.404   0.988   4.870
10779SOL     OW43434   5.726   0.865   4.293
10779SOL    HW243435   5.817   0.880   4.320
10779SOL    HW343436   5.729   0.786   4.239
10779SOL    MW443437   5.738   0.857   4.291
10780SOL     OW43438   5.962   0.573   5.547
10780SOL    HW243439   5.909   0.653   5.554
10780SOL    HW343440   6.032   0.585   5.612
10780SOL    MW443441   5.964   0.586   5.555
10781SOL     OW43442   6.348   0.123   5.254
10781SOL    HW243443   6.325   0.031   5.256
10781SOL    HW343444   6.434   0.125   5.211
10781SOL    MW443445   6.355   0.113   5.250
10782SOL     OW43446   6.032   0.647   5.293
10782SOL    HW243447   6.112   0.697   5.279
10782SOL    HW343448   6.023   0.641   5.388
10782SOL    MW443449   6.041   0.653   5.303
10783SOL     OW43450   6.353   1.797   4.667
10783SOL    HW243451   6.442   1.812   4.697
10783SOL    HW343452   6.348   1.844   4.583
10783SOL    MW443453   6.363   1.805   4.660
10784SOL     OW43454   7.009   0.172   5.564
10784SOL    HW243455   7.065   0.099   5.590
10784SOL    HW343456   6.979   0.210   5.646
10784SOL    MW443457   7.013   0.167   5.577
10785SOL     OW43458   5.734   1.477   4.332
10785SOL    HW243459   5.706   1.516   4.414
10785SOL    HW343460   5.754   1.386   4.354
10785SOL    MW443461   5.732   1.469   4.345
10786SOL     OW43462   6.567   1.520   4.367
10786SOL    HW243463   6.650   1.474   4.351
10786SOL    HW343464   6.557   1.519   4.463
10786SOL    MW443465   6.577   1.513   4.377
10787SOL     OW43466   7.399   0.665   4.681
10787SOL    HW243467   7.488   0.695   4.663
10787SOL    HW343468   7.379   0.605   4.610
10787SOL    MW443469   7.408   0.662   4.670
10788SOL     OW43470   7.250   0.844   5.561
10788SOL    HW243471   7.305   0.768   5.542
10788SOL    HW343472   7.252   0.852   5.656
10788SOL    MW443473   7.258   0.835   5.569
10789SOL     OW43474   6.300   1.577   3.772
10789SOL    HW243475   6.240   1.646   3.742
10789SOL    HW343476   6.245   1.519   3.825
10789SOL    MW443477   6.284   1.579   3.774
10790SOL     OW43478   6.738   0.222   3.995
10790SOL    HW243479   6.671   0.198   3.932
10790SOL    HW343480   6.803   0.271   3.944
10790SOL    MW443481   6.738   0.224   3.980
10791SOL     OW43482   6.545   0.406   5.080
10791SOL    HW243483   6.464   0.447   5.108
10791SOL    HW343484   6.592   0.474   5.032
10791SOL    MW443485   6.540   0.421   5.078
10792SOL     OW43486   6.805   0.744   4.703
10792SOL    HW243487   6.818   0.838   4.713
10792SOL    HW343488   6.766   0.734   4.617
10792SOL    MW443489   6.801   0.755   4.693
10793SOL     OW43490   6.257   0.939   4.507
10793SOL    HW243491   6.168   0.930   4.540
10793SOL    HW343492   6.261   1.029   4.475
10793SOL    MW443493   6.246   0.950   4.507
10794SOL     OW43494   7.056   0.522   4.502
10794SOL    HW243495   7.001   0.443   4.501
10794SOL    HW343496   7.038   0.563   4.586
10794SOL    MW443497   7.046   0.517   4.511
10795SOL     OW43498   6.027   0.209   5.319
10795SOL    HW243499   5.948   0.227   5.371
10795SOL    HW343500   6.022   0.271   5.246
10795SOL    MW443501   6.017   0.219   5.316
10796SOL     OW43502   6.675   0.726   4.459
10796SOL    HW243503   6.612   0.658   4.483
10796SOL    HW343504   6.695   0.707   4.367
10796SOL    MW443505   6.669   0.713   4.451
10797SOL     OW43506   5.931   1.621   4.161
10797SOL    HW243507   5.892   1.668   4.087
10797SOL    HW343508   5.865   1.556   4.186
10797SOL    MW443509   5.918   1.619   4.155
10798SOL     OW43510   6.423   1.030   4.185
10798SOL    HW243511   6.425   1.004   4.092
10798SOL    HW343512   6.481   0.967   4.228
10798SOL    MW443513   6.431   1.019   4.179
10799SOL     OW43514   6.976   1.590   4.957
10799SOL    HW243515   6.901   1.636   4.995
10799SOL    HW343516   6.958   1.497   4.974
10799SOL    MW443517   6.965   1.584   4.965
10800SOL     OW43518   6.980   1.798   4.387
10800SOL    HW243519   6.923   1.751   4.326
10800SOL    HW343520   7.066   1.759   4.374
10800SOL    MW443521   6.983   1.789   4.377
10801SOL     OW43522   6.933   0.274   4.518
10801SOL    HW243523   6.961   0.206   4.579
10801SOL    HW343524   6.847   0.245   4.488
10801SOL    MW443525   6.926   0.261   4.522
10802SOL     OW43526   5.738   1.208   4.452
10802SOL    HW243527   5.802   1.240   4.515
10802SOL    HW343528   5.787   1.144   4.400
10802SOL    MW443529   5.753   1.204   4.453
10803SOL     OW43530   6.238   1.284   5.434
10803SOL    HW243531   6.286   1.367   5.421
10803SOL    HW343532   6.295   1.232   5.490
10803SOL    MW443533   6.252   1.288   5.440
10804SOL     OW43534   5.814   1.526   5.574
10804SOL    HW243535   5.870   1.450   5.589
10804SOL    HW343536   5.763   1.504   5.496
10804SOL    MW443537   5.814   1.513   5.565
10805SOL     OW43538   6.913   0.378   3.853
10805SOL    HW243539   6.886   0.444   3.789
10805SOL    HW343540   6.983   0.421   3.903
10805SOL    MW443541   6.918   0.391   3.850
10806SOL     OW43542   6.581   0.083   3.790
10806SOL    HW243543   6.637   0.075   3.712
10806SOL    HW343544   6.558  -0.007   3.812
10806SOL    MW443545   6.586   0.070   3.783
10807SOL     OW43546   7.086   0.934   3.995
10807SOL    HW243547   7.053   1.023   3.985
10807SOL    HW343548   7.051   0.905   4.080
10807SOL    MW443549   7.076   0.943   4.006
10808SOL     OW43550   6.699   1.363   5.183
10808SOL    HW243551   6.610   1.369   5.151
10808SOL    HW343552   6.743   1.442   5.151
10808SOL    MW443553   6.694   1.373   5.175
10809SOL     OW43554   5.992   0.031   5.525
10809SOL    HW243555   5.920  -0.004   5.473
10809SOL    HW343556   6.050   0.072   5.460
10809SOL    MW443557   5.990   0.032   5.510
10810SOL     OW43558   6.016   1.521   4.824
10810SOL    HW243559   6.061   1.583   4.881
10810SOL    HW343560   5.923   1.540   4.837
10810SOL    MW443561   6.009   1.531   4.831
10811SOL     OW43562   7.456   1.050   5.178
10811SOL    HW243563   7.371   1.063   5.137
10811SOL    HW343564   7.436   1.014   5.265
10811SOL    MW443565   7.443   1.046   5.183
10812SOL     OW43566   6.438   1.589   4.932
10812SOL    HW243567   6.462   1.578   4.841
10812SOL    HW343568   6.361   1.646   4.930
10812SOL    MW443569   6.430   1.594   4.921
10813SOL     OW43570   6.080   0.972   3.787
10813SOL    HW243571   6.003   0.985   3.843
10813SOL    HW343572   6.044   0.936   3.706
10813SOL    MW443573   6.066   0.968   3.784
10814SOL     OW43574   6.733   0.945   4.030
10814SOL    HW243575   6.643   0.966   4.005
10814SOL    HW343576   6.760   1.018   4.086
10814SOL    MW443577   6.725   0.957   4.033
10815SOL     OW43578   6.233   1.294   4.722
10815SOL    HW243579   6.226   1.273   4.816
10815SOL    HW343580   6.151   1.262   4.685
10815SOL    MW443581   6.221   1.288   4.729
10816SOL     OW43582   7.097   0.304   5.124
10816SOL    HW243583   7.044   0.306   5.204
10816SOL    HW343584   7.082   0.217   5.087
10816SOL    MW443585   7.089   0.294   5.129
10817SOL     OW43586   7.433   0.228   4.997
10817SOL    HW243587   7.414   0.295   4.932
10817SOL    HW343588   7.490   0.166   4.952
10817SOL    MW443589   7.437   0.229   4.983
10818SOL     OW43590   5.679   1.386   5.385
10818SOL    HW243591   5.723   1.319   5.331
10818SOL    HW343592   5.594   1.348   5.405
10818SOL    MW443593   5.674   1.372   5.381
10819SOL     OW43594   6.362   0.061   4.437
10819SOL    HW243595   6.291   0.122   4.419
10819SOL    HW343596   6.413   0.058   4.356
10819SOL    MW443597   6.358   0.067   4.424
10820SOL     OW43598   6.120   1.301   4.186
10820SOL    HW243599   6.113   1.333   4.276
10820SOL    HW343600   6.030   1.285   4.158
10820SOL    MW443601   6.108   1.303   4.193
10821SOL     OW43602   6.715   1.694   5.095
10821SOL    HW243603   6.635   1.679   5.045
10821SOL    HW343604   6.722   1.789   5.102
10821SOL    MW443605   6.706   1.705   5.089
10822SOL     OW43606   6.829   1.659   4.585
10822SOL    HW243607   6.876   1.732   4.544
10822SOL    HW343608   6.750   1.698   4.621
10822SOL    MW443609   6.824   1.674   4.584
10823SOL     OW43610   7.237   1.754   4.860
10823SOL    HW243611   7.280   1.724   4.940
10823SOL    HW343612   7.156   1.702   4.857
10823SOL    MW443613   7.232   1.743   4.870
10824SOL     OW43614   6.322   0.718   5.567
10824SOL    HW243615   6.392   0.660   5.539
10824SOL    HW343616   6.265   0.663   5.622
10824SOL    MW443617   6.324   0.705   5.571
10825SOL     OW43618   7.109   0.930   5.200
10825SOL    HW243619   7.114   0.983   5.280
10825SOL    HW343620   7.071   0.847   5.228
10825SOL    MW443621   7.105   0.925   5.215
10826SOL     OW43622   6.749   0.065   5.446
10826SOL    HW243623   6.744  -0.028   5.427
10826SOL    HW343624   6.832   0.076   5.492
10826SOL    MW443625   6.757   0.054   5.450
10827SOL     OW43626   6.123   0.585   3.900
10827SOL    HW243627   6.089   0.641   3.970
10827SOL    HW343628   6.194   0.535   3.940
10827SOL    MW443629   6.129   0.586   3.914
10828SOL     OW43630   7.219   1.336   4.722
10828SOL    HW243631   7.254   1.318   4.635
10828SOL    HW343632   7.124   1.337   4.709
10828SOL    MW443633   7.211   1.333   4.709
10829SOL     OW43634   6.648   0.984   5.091
10829SOL    HW243635   6.691   1.019   5.169
10829SOL    HW343636   6.631   1.061   5.037
10829SOL    MW443637   6.651   0.999   5.094
10830SOL     OW43638   7.179   0.471   3.964
10830SOL    HW243639   7.171   0.542   3.901
10830SOL    HW343640   7.197   0.515   4.047
10830SOL    MW443641   7.180   0.485   3.966
10831SOL     OW43642   6.039   0.126   4.393
10831SOL    HW243643   6.089   0.169   4.324
10831SOL    HW343644   5.954   0.170   4.393
10831SOL    MW443645   6.036   0.139   4.384
10832SOL     OW43646   5.798   1.188   5.253
10832SOL    HW243647   5.826   1.141   5.331
10832SOL    HW343648   5.719   1.143   5.224
10832SOL    MW443649   5.791   1.177   5.259
10833SOL     OW43650   6.306   0.515   5.220
10833SOL    HW243651   6.278   0.603   5.244
10833SOL    HW343652   6.275   0.459   5.291
10833SOL    MW443653   6.298   0.518   5.232
10834SOL     OW43654   6.848   0.733   3.939
10834SOL    HW243655   6.895   0.751   3.858
10834SOL    HW343656   6.814   0.817   3.967
10834SOL    MW443657   6.850   0.747   3.932
10835SOL     OW43658   5.961   0.911   4.433
10835SOL    HW243659   6.019   0.967   4.381
10835SOL    HW343660   6.005   0.826   4.435
10835SOL    MW443661   5.974   0.908   4.426
10836SOL     OW43662   7.101   0.263   4.270
10836SOL    HW243663   7.023   0.213   4.295
10836SOL    HW343664   7.072   0.354   4.270
10836SOL    MW443665   7.087   0.267   4.273
10837SOL     OW43666   6.687   0.225   4.429
10837SOL    HW243667   6.707   0.300   4.373
10837SOL    HW343668   6.667   0.264   4.514
10837SOL    MW443669   6.688   0.241   4.433
10838SOL     OW43670   6.583   1.475   3.761
10838SOL    HW243671   6.610   1.553   3.713
10838SOL    HW343672   6.490   1.490   3.780
10838SOL    MW443673   6.574   1.488   3.757
10839SOL     OW43674   7.447   0.998   5.448
10839SOL    HW243675   7.360   0.978   5.484
10839SOL    HW343676   7.501   0.924   5.473
10839SOL    MW443677   7.442   0.987   5.456
10840SOL     OW43678   5.668   1.511   4.605
10840SOL    HW243679   5.700   1.515   4.696
10840SOL    HW343680   5.573   1.519   4.613
10840SOL    MW443681   5.660   1.514   4.618
10841SOL     OW43682   5.623   0.637   4.152
10841SOL    HW243683   5.563   0.609   4.222
10841SOL    HW343684   5.697   0.577   4.158
10841SOL    MW443685   5.625   0.626   4.161
10842SOL     OW43686   7.191   1.849   5.586
10842SOL    HW243687   7.236   1.773   5.551
10842SOL    HW343688   7.229   1.862   5.673
10842SOL    MW443689   7.201   1.842   5.592
10843SOL     OW43690   6.791   1.368   4.312
10843SOL    HW243691   6.814   1.319   4.390
10843SOL    HW343692   6.872   1.410   4.284
10843SOL    MW443693   6.804   1.368   4.319
10844SOL     OW43694   6.049   0.376   5.041
10844SOL    HW243695   6.082   0.457   5.081
10844SOL    HW343696   6.022   0.402   4.953
10844SOL    MW443697   6.048   0.390   5.035
10845SOL     OW43698   6.003   0.343   4.777
10845SOL    HW243699   6.033   0.257   4.748
10845SOL    HW343700   5.908   0.336   4.780
10845SOL    MW443701   5.995   0.332   4.775
10846SOL     OW43702   6.832   0.552   5.468
10846SOL    HW243703   6.884   0.487   5.421
10846SOL    HW343704   6.790   0.603   5.398
10846SOL    MW443705   6.833   0.549   5.451
10847SOL     OW43706   6.931   0.347   5.329
10847SOL    HW243707   6.838   0.331   5.316
10847SOL    HW343708   6.957   0.285   5.397
10847SOL    MW443709   6.921   0.337   5.336
10848SOL     OW43710   6.146   0.121   4.668
10848SOL    HW243711   6.156   0.030   4.694
10848SOL    HW343712   6.102   0.117   4.583
10848SOL    MW443713   6.142   0.109   4.660
10849SOL     OW43714   6.240   1.736   5.214
10849SOL    HW243715   6.157   1.721   5.259
10849SOL    HW343716   6.299   1.669   5.249
10849SOL    MW443717   6.238   1.726   5.224
10850SOL     OW43718   7.297   0.443   4.839
10850SOL    HW243719   7.230   0.476   4.899
10850SOL    HW343720   7.340   0.521   4.805
10850SOL    MW443721   7.295   0.458   4.843
10851SOL     OW43722   7.475   1.163   4.809
10851SOL    HW243723   7.468   1.103   4.734
10851SOL    HW343724   7.401   1.223   4.798
10851SOL    MW443725   7.465   1.163   4.798
10852SOL     OW43726   6.857   1.025   4.727
10852SOL    HW243727   6.871   0.997   4.818
10852SOL    HW343728   6.943   1.056   4.699
10852SOL    MW443729   6.870   1.026   4.736
10853SOL     OW43730   6.940   0.520   5.006
10853SOL    HW243731   6.961   0.521   4.913
10853SOL    HW343732   6.985   0.442   5.039
10853SOL    MW443733   6.947   0.510   4.998
10854SOL     OW43734   7.433   0.651   5.548
10854SOL    HW243735   7.470   0.596   5.617
10854SOL    HW343736   7.458   0.608   5.466
10854SOL    MW443737   7.440   0.639   5.547
10855SOL     OW43738   6.980   0.949   5.600
10855SOL    HW243739   7.046   0.897   5.554
10855SOL    HW343740   7.000   0.936   5.693
10855SOL    MW443741   6.991   0.940   5.607
10856SOL     OW43742   6.931   0.035   3.948
10856SOL    HW243743   7.005   0.079   3.991
10856SOL    HW343744   6.855   0.089   3.970
10856SOL    MW443745   6.931   0.047   3.956
10857SOL     OW43746   6.991   0.810   4.226
10857SOL    HW243747   6.906   0.780   4.196
10857SOL    HW343748   6.983   0.817   4.321
10857SOL    MW443749   6.979   0.808   4.235
10858SOL     OW43750   6.067   1.273   4.957
10858SOL    HW243751   6.079   1.300   5.048
10858SOL    HW343752   6.048   1.354   4.910
10858SOL    MW443753   6.066   1.288   4.962
10859SOL     OW43754   6.351   0.253   4.780
10859SOL    HW243755   6.324   0.255   4.871
10859SOL    HW343756   6.281   0.205   4.735
10859SOL    MW443757   6.339   0.249   4.787
10860SOL     OW43758   6.205   1.745   4.942
10860SOL    HW243759   6.257   1.822   4.919
10860SOL    HW343760   6.214   1.737   5.037
10860SOL    MW443761   6.214   1.752   4.953
10861SOL     OW43762   7.107   1.330   5.174
10861SOL    HW243763   7.092   1.259   5.237
10861SOL    HW343764   7.153   1.288   5.102
10861SOL    MW443765   7.113   1.314   5.174
10862SOL     OW43766   6.181   1.061   5.291
10862SOL    HW243767   6.218   1.066   5.203
10862SOL    HW343768   6.220   1.134   5.338
10862SOL    MW443769   6.191   1.071   5.286
10863SOL     OW43770   6.361   1.104   5.103
10863SOL    HW243771   6.420   1.050   5.156
10863SOL    HW343772   6.376   1.076   5.013
10863SOL    MW443773   6.371   1.093   5.099
10864SOL     OW43774   6.364   0.476   3.952
10864SOL    HW243775   6.437   0.525   3.915
10864SOL    HW343776   6.380   0.385   3.926
10864SOL    MW443777   6.376   0.471   3.945
10865SOL     OW43778   7.172   1.593   5.275
10865SOL    HW243779   7.214   1.578   5.360
10865SOL    HW343780   7.163   1.506   5.237
10865SOL    MW443781   7.176   1.581   5.282
10866SOL     OW43782   6.832   0.072   4.866
10866SOL    HW243783   6.887   0.081   4.788
10866SOL    HW343784   6.887   0.106   4.937
10866SOL    MW443785   6.846   0.077   4.865
10867SOL     OW43786   5.839   0.985   4.050
10867SOL    HW243787   5.776   1.001   3.979
10867SOL    HW343788   5.786   0.948   4.121
10867SOL    MW443789   5.824   0.982   4.050
10868SOL     OW43790   6.195   1.339   3.909
10868SOL    HW243791   6.210   1.315   4.001
10868SOL    HW343792   6.103   1.317   3.893
10868SOL    MW443793   6.185   1.332   3.919
10869SOL     OW43794   6.734   1.570   4.061
10869SOL    HW243795   6.742   1.488   4.012
10869SOL    HW343796   6.653   1.609   4.028
10869SOL    MW443797   6.724   1.565   4.051
10870SOL     OW43798   5.993   1.728   4.630
10870SOL    HW243799   5.997   1.639   4.665
10870SOL    HW343800   6.019   1.719   4.539
10870SOL    MW443801   5.996   1.716   4.622
10871SOL     OW43802   6.610   1.206   4.873
10871SOL    HW243803   6.542   1.140   4.889
10871SOL    HW343804   6.628   1.200   4.780
10871SOL    MW443805   6.603   1.197   4.864
10872SOL     OW43806   5.699   1.481   5.124
10872SOL    HW243807   5.689   1.439   5.210
10872SOL    HW343808   5.620   1.534   5.114
10872SOL    MW443809   5.688   1.482   5.135
10873SOL     OW43810   6.603   0.345   4.694
10873SOL    HW243811   6.533   0.297   4.739
10873SOL    HW343812   6.635   0.408   4.758
10873SOL    MW443813   6.598   0.347   4.708
10874SOL     OW43814   6.254   0.781   5.314
10874SOL    HW243815   6.247   0.876   5.302
10874SOL    HW343816   6.263   0.770   5.409
10874SOL    MW443817   6.255   0.793   5.324
10875SOL     OW43818   5.975   1.296   5.572
10875SOL    HW243819   6.047   1.298   5.509
10875SOL    HW343820   5.945   1.205   5.571
10875SOL    MW443821   5.980   1.285   5.564
10876SOL     OW43822   7.059   0.059   5.039
10876SOL    HW243823   7.130   0.005   5.003
10876SOL    HW343824   7.058   0.038   5.132
10876SOL    MW443825   7.068   0.050   5.047
10877SOL     OW43826   7.259   1.589   5.523
10877SOL    HW243827   7.232   1.586   5.614
10877SOL    HW343828   7.355   1.593   5.526
10877SOL    MW443829   7.269   1.589   5.535
10878SOL     OW43830   6.070   0.451   4.507
10878SOL    HW243831   6.141   0.399   4.470
10878SOL    HW343832   6.056   0.416   4.594
10878SOL    MW443833   6.078   0.440   4.514
10879SOL     OW43834   5.625   1.786   5.579
10879SOL    HW243835   5.675   1.764   5.501
10879SOL    HW343836   5.633   1.881   5.587
10879SOL    MW443837   5.633   1.795   5.570
10880SOL     OW43838   6.386   1.544   4.583
10880SOL    HW243839   6.314   1.481   4.596
10880SOL    HW343840   6.347   1.629   4.601
10880SOL    MW443841   6.370   1.547   4.586
10881SOL     OW43842   6.706   0.392   4.231
10881SOL    HW243843   6.728   0.329   4.163
10881SOL    HW343844   6.611   0.384   4.242
10881SOL    MW443845   6.696   0.383   4.223
10882SOL     OW43846   5.791   0.082   4.163
10882SOL    HW243847   5.862   0.103   4.102
10882SOL    HW343848   5.745   0.010   4.121
10882SOL    MW443849   5.795   0.076   4.149
10883SOL     OW43850   5.622   0.549   5.306
10883SOL    HW243851   5.686   0.615   5.281
10883SOL    HW343852   5.541   0.576   5.263
10883SOL    MW443853   5.620   0.561   5.298
10884SOL     OW43854   7.360   1.456   4.263
10884SOL    HW243855   7.330   1.389   4.324
10884SOL    HW343856   7.454   1.462   4.277
10884SOL    MW443857   7.368   1.448   4.273
10885SOL     OW43858   6.916   1.133   4.193
10885SOL    HW243859   6.888   1.219   4.226
10885SOL    HW343860   6.944   1.149   4.103
10885SOL    MW443861   6.916   1.147   4.185
10886SOL     OW43862   6.578   0.053   4.246
10886SOL    HW243863   6.615   0.112   4.311
10886SOL    HW343864   6.555   0.109   4.172
10886SOL    MW443865   6.579   0.068   4.245
10887SOL     OW43866   7.431   0.935   4.668
10887SOL    HW243867   7.422   0.967   4.579
10887SOL    HW343868   7.384   0.851   4.668
10887SOL    MW443869   7.424   0.928   4.658
10888SOL     OW43870   5.807   0.775   5.247
10888SOL    HW243871   5.828   0.844   5.185
10888SOL    HW343872   5.887   0.722   5.252
10888SOL    MW443873   5.820   0.776   5.241
10889SOL     OW43874   7.343   0.866   4.369
10889SOL    HW243875   7.437   0.855   4.357
10889SOL    HW343876   7.319   0.938   4.310
10889SOL    MW443877   7.353   0.874   4.360
10890SOL     OW43878   5.792   0.790   5.514
10890SOL    HW243879   5.718   0.734   5.540
10890SOL    HW343880   5.787   0.793   5.419
10890SOL    MW443881   5.781   0.783   5.504
10891SOL     OW43882   5.958   0.077   4.964
10891SOL    HW243883   6.001   0.161   4.984
10891SOL    HW343884   6.031   0.015   4.957
10891SOL    MW443885   5.973   0.080   4.965
10892SOL     OW43886   5.999   0.744   4.142
10892SOL    HW243887   5.999   0.839   4.127
10892SOL    HW343888   6.076   0.728   4.196
10892SOL    MW443889   6.009   0.755   4.147
10893SOL     OW43890   6.775   0.603   5.206
10893SOL    HW243891   6.811   0.576   5.122
10893SOL    HW343892   6.688   0.637   5.185
10893SOL    MW443893   6.769   0.604   5.193
10894SOL     OW43894   5.758   0.475   4.431
10894SOL    HW243895   5.820   0.482   4.504
10894SOL    HW343896   5.758   0.382   4.408
10894SOL    MW443897   5.766   0.464   4.438
10895SOL     OW43898   7.305   1.815   3.963
10895SOL    HW243899   7.372   1.848   3.903
10895SOL    HW343900   7.262   1.894   3.997
10895SOL    MW443901   7.307   1.830   3.959
10896SOL     OW43902   6.440   0.736   4.915
10896SOL    HW243903   6.398   0.654   4.891
10896SOL    HW343904   6.441   0.735   5.011
10896SOL    MW443905   6.433   0.725   4.924
10897SOL     OW43906   7.111   1.869   5.314
10897SOL    HW243907   7.114   1.775   5.297
10897SOL    HW343908   7.134   1.877   5.406
10897SOL    MW443909   7.114   1.857   5.324
10898SOL     OW43910   6.244   0.206   5.020
10898SOL    HW243911   6.175   0.269   5.041
10898SOL    HW343912   6.271   0.170   5.105
10898SOL    MW443913   6.238   0.209   5.033
10899SOL     OW43914   5.627   1.047   3.889
10899SOL    HW243915   5.596   1.112   3.952
10899SOL    HW343916   5.576   0.969   3.908
10899SOL    MW443917   5.617   1.044   3.899
10900SOL     OW43918   7.039   0.059   4.637
10900SOL    HW243919   7.127   0.068   4.674
10900SOL    HW343920   7.049   0.000   4.563
10900SOL    MW443921   7.053   0.053   4.631
10901SOL     OW43922   7.071   0.798   4.481
10901SOL    HW243923   7.151   0.813   4.430
10901SOL    HW343924   7.064   0.703   4.487
10901SOL    MW443925   7.080   0.787   4.476
10902SOL     OW43926   6.211   1.847   3.831
10902SOL    HW243927   6.116   1.847   3.823
10902SOL    HW343928   6.227   1.793   3.909
10902SOL    MW443929   6.201   1.841   3.840
10903SOL     OW43930   6.521   0.724   5.178
10903SOL    HW243931   6.590   0.791   5.175
10903SOL    HW343932   6.454   0.762   5.234
10903SOL    MW443933   6.522   0.737   5.185
10904SOL     OW43934   5.939   1.024   5.426
10904SOL    HW243935   5.893   0.940   5.428
10904SOL    HW343936   5.996   1.018   5.350
10904SOL    MW443937   5.941   1.012   5.418
10905SOL     OW43938   7.056   0.667   3.747
10905SOL    HW243939   6.984   0.643   3.689
10905SOL    HW343940   7.122   0.704   3.689
10905SOL    MW443941   7.055   0.669   3.732
10906SOL     OW43942   6.190   1.399   4.427
10906SOL    HW243943   6.255   1.332   4.448
10906SOL    HW343944   6.242   1.476   4.404
10906SOL    MW443945   6.205   1.401   4.426
10907SOL     OW43946   6.451   0.564   4.557
10907SOL    HW243947   6.391   0.582   4.629
10907SOL    HW343948   6.485   0.476   4.576
10907SOL    MW443949   6.447   0.554   4.570
10908SOL     OW43950   7.392   0.063   5.226
10908SOL    HW243951   7.313   0.109   5.254
10908SOL    HW343952   7.427   0.117   5.155
10908SOL    MW443953   7.386   0.076   5.220
10909SOL     OW43954   6.676   1.147   4.576
10909SOL    HW243955   6.768   1.128   4.594
10909SOL    HW343956   6.649   1.077   4.516
10909SOL    MW443957   6.684   1.135   4.570
10910SOL     OW43958   6.469   0.967   3.931
10910SOL    HW243959   6.455   0.879   3.896
10910SOL    HW343960   6.420   1.024   3.872
10910SOL    MW443961   6.461   0.962   3.919
10911SOL     OW43962   6.950   1.385   4.672
10911SOL    HW243963   6.923   1.469   4.637
10911SOL    HW343964   6.910   1.380   4.759
10911SOL    MW443965   6.943   1.394   4.678
10912SOL     OW43966   6.869   1.333   4.940
10912SOL    HW243967   6.880   1.300   5.029
10912SOL    HW343968   6.788   1.292   4.909
10912SOL    MW443969   6.859   1.325   4.946
10913SOL     OW43970   5.882   0.691   4.710
10913SOL    HW243971   5.832   0.690   4.791
10913SOL    HW343972   5.902   0.783   4.694
10913SOL    MW443973   5.878   0.703   4.718
10914SOL     OW43974   6.949   1.455   5.472
10914SOL    HW243975   6.949   1.549   5.488
10914SOL    HW343976   6.994   1.445   5.388
10914SOL    MW443977   6.955   1.465   5.463
10915SOL     OW43978   7.188   0.173   4.033
10915SOL    HW243979   7.181   0.177   4.128
10915SOL    HW343980   7.200   0.264   4.006
10915SOL    MW443981   7.189   0.186   4.041
10916SOL     OW43982   6.477   0.736   4.147
10916SOL    HW243983   6.457   0.722   4.054
10916SOL    HW343984   6.570   0.715   4.154
10916SOL    MW443985   6.487   0.731   4.136
10917SOL     OW43986   5.804   0.359   5.451
10917SOL    HW243987   5.761   0.418   5.388
10917SOL    HW343988   5.872   0.414   5.491
10917SOL    MW443989   5.808   0.374   5.448
10918SOL     OW43990   6.916   0.979   4.996
10918SOL    HW243991   6.979   0.976   5.069
10918SOL    HW343992   6.832   0.997   5.038
10918SOL    MW443993   6.912   0.981   5.011
10919SOL     OW43994   6.460   1.694   4.185
10919SOL    HW243995   6.518   1.765   4.212
10919SOL    HW343996   6.483   1.622   4.243
10919SOL    MW443997   6.471   1.694   4.196
10920SOL     OW43998   7.255   0.156   4.775
10920SOL    HW243999   7.300   0.074   4.794
10920SOL    HW344000   7.275   0.212   4.851
10920SOL    MW444001   7.265   0.152   4.787
10921SOL     OW44002   5.703  -0.001   4.874
10921SOL    HW244003   5.694   0.000   4.779
10921SOL    HW344004   5.797   0.011   4.889
10921SOL    MW444005   5.715   0.002   4.865
10922SOL     OW44006   7.340   1.192   4.494
10922SOL    HW244007   7.319   1.138   4.417
10922SOL    HW344008   7.436   1.190   4.498
10922SOL    MW444009   7.349   1.185   4.483
10923SOL     OW44010   6.032   1.337   5.237
10923SOL    HW244011   5.953   1.287   5.260
10923SOL    HW344012   6.102   1.296   5.287
10923SOL    MW444013   6.030   1.325   5.247
10924SOL     OW44014   5.916   0.126   3.920
10924SOL    HW244015   5.845   0.181   3.888
10924SOL    HW344016   5.958   0.092   3.841
10924SOL    MW444017   5.912   0.128   3.906
10925SOL     OW44018   7.040   0.623   4.756
10925SOL    HW244019   6.963   0.669   4.722
10925SOL    HW344020   7.097   0.692   4.790
10925SOL    MW444021   7.037   0.638   4.756
10926SOL     OW44022   5.672   0.225   3.769
10926SOL    HW244023   5.639   0.304   3.813
10926SOL    HW344024   5.727   0.258   3.698
10926SOL    MW444025   5.675   0.239   3.766
10927SOL     OW44026   5.706   1.482   3.958
10927SOL    HW244027   5.723   1.566   4.000
10927SOL    HW344028   5.741   1.491   3.870
10927SOL    MW444029   5.711   1.495   3.952
10928SOL     OW44030   6.978   1.571   4.175
10928SOL    HW244031   7.041   1.561   4.104
10928SOL    HW344032   6.895   1.591   4.130
10928SOL    MW444033   6.975   1.572   4.160
10929SOL     OW44034   7.341   0.839   5.862
10929SOL    HW244035   7.382   0.781   5.927
10929SOL    HW344036   7.248   0.831   5.879
10929SOL    MW444037   7.335   0.831   5.872
10930SOL     OW44038   7.207   0.771   6.857
10930SOL    HW244039   7.162   0.838   6.908
10930SOL    HW344040   7.295   0.807   6.843
10930SOL    MW444041   7.213   0.784   6.861
10931SOL     OW44042   6.135   1.022   6.091
10931SOL    HW244043   6.225   0.997   6.075
10931SOL    HW344044   6.131   1.115   6.068
10931SOL    MW444045   6.147   1.031   6.086
10932SOL     OW44046   7.251   1.725   6.233
10932SOL    HW244047   7.263   1.671   6.311
10932SOL    HW344048   7.288   1.673   6.162
10932SOL    MW444049   7.257   1.710   6.234
10933SOL     OW44050   6.630   1.610   7.234
10933SOL    HW244051   6.671   1.646   7.155
10933SOL    HW344052   6.665   1.521   7.241
10933SOL    MW444053   6.641   1.603   7.225
10934SOL     OW44054   7.187   1.165   6.838
10934SOL    HW244055   7.108   1.130   6.796
10934SOL    HW344056   7.214   1.237   6.782
10934SOL    MW444057   7.180   1.170   6.825
10935SOL     OW44058   6.419   0.478   6.104
10935SOL    HW244059   6.394   0.566   6.132
10935SOL    HW344060   6.416   0.481   6.008
10935SOL    MW444061   6.415   0.490   6.096
10936SOL     OW44062   5.861   0.506   6.032
10936SOL    HW244063   5.893   0.594   6.014
10936SOL    HW344064   5.849   0.504   6.127
10936SOL    MW444065   5.864   0.518   6.044
10937SOL     OW44066   5.939   0.919   6.933
10937SOL    HW244067   6.002   0.866   6.884
10937SOL    HW344068   5.920   0.993   6.876
10937SOL    MW444069   5.945   0.921   6.920
10938SOL     OW44070   6.260   0.261   6.119
10938SOL    HW244071   6.318   0.337   6.121
10938SOL    HW344072   6.195   0.282   6.052
10938SOL    MW444073   6.259   0.273   6.110
10939SOL     OW44074   6.347   1.188   6.294
10939SOL    HW244075   6.427   1.191   6.346
10939SOL    HW344076   6.375   1.155   6.208
10939SOL    MW444077   6.361   1.184   6.289
10940SOL     OW44078   6.372   1.529   7.197
10940SOL    HW244079   6.456   1.555   7.236
10940SOL    HW344080   6.396   1.473   7.123
10940SOL    MW444081   6.386   1.525   7.192
10941SOL     OW44082   6.124   0.692   6.285
10941SOL    HW244083   6.109   0.612   6.336
10941SOL    HW344084   6.206   0.727   6.319
10941SOL    MW444085   6.132   0.684   6.297
10942SOL     OW44086   6.461   1.378   6.970
10942SOL    HW244087   6.425   1.444   6.910
10942SOL    HW344088   6.389   1.316   6.983
10942SOL    MW444089   6.447   1.378   6.964
10943SOL     OW44090   6.266   0.518   6.662
10943SOL    HW244091   6.172   0.514   6.680
10943SOL    HW344092   6.296   0.427   6.671
10943SOL    MW444093   6.257   0.506   6.665
10944SOL     OW44094   6.012   0.932   6.566
10944SOL    HW244095   5.967   0.939   6.482
10944SOL    HW344096   5.992   1.015   6.610
10944SOL    MW444097   6.004   0.944   6.560
10945SOL     OW44098   5.709   1.778   6.441
10945SOL    HW244099   5.798   1.770   6.476
10945SOL    HW344100   5.673   1.690   6.446
10945SOL    MW444101   5.716   1.765   6.446
10946SOL     OW44102   6.974   1.170   5.810
10946SOL    HW244103   6.892   1.206   5.776
10946SOL    HW344104   7.042   1.213   5.759
10946SOL    MW444105   6.972   1.180   5.798
10947SOL     OW44106   5.973   1.305   6.476
10947SOL    HW244107   5.949   1.358   6.552
10947SOL    HW344108   6.029   1.363   6.424
10947SOL    MW444109   5.977   1.320   6.479
10948SOL     OW44110   6.535   0.949   6.286
10948SOL    HW244111   6.449   0.936   6.326
10948SOL    HW344112   6.588   0.876   6.318
10948SOL    MW444113   6.531   0.938   6.295
10949SOL     OW44114   5.943   1.601   7.071
10949SOL    HW244115   5.851   1.577   7.056
10949SOL    HW344116   5.987   1.518   7.088
10949SOL    MW444117   5.937   1.586   7.070
10950SOL     OW44118   6.526   1.311   6.003
10950SOL    HW244119   6.503   1.373   6.071
10950SOL    HW344120   6.483   1.229   6.029
10950SOL    MW444121   6.518   1.307   6.014
10951SOL     OW44122   7.399   0.312   6.459
10951SOL    HW244123   7.336   0.292   6.528
10951SOL    HW344124   7.389   0.241   6.396
10951SOL    MW444125   7.389   0.299   6.460
10952SOL     OW44126   6.023   0.284   5.971
10952SOL    HW244127   5.997   0.246   5.887
10952SOL    HW344128   5.960   0.354   5.987
10952SOL    MW444129   6.012   0.287   5.962
10953SOL     OW44130   5.858   1.245   6.008
10953SOL    HW244131   5.806   1.313   5.964
10953SOL    HW344132   5.855   1.171   5.948
10953SOL    MW444133   5.850   1.244   5.995
10954SOL     OW44134   6.520   1.708   5.786
10954SOL    HW244135   6.475   1.724   5.869
10954SOL    HW344136   6.451   1.673   5.728
10954SOL    MW444137   6.506   1.705   5.788
10955SOL     OW44138   7.455   0.481   5.761
10955SOL    HW244139   7.364   0.483   5.789
10955SOL    HW344140   7.500   0.543   5.819
10955SOL    MW444141   7.448   0.489   5.771
10956SOL     OW44142   7.200   1.084   6.111
10956SOL    HW244143   7.110   1.084   6.146
10956SOL    HW344144   7.193   1.130   6.028
10956SOL    MW444145   7.187   1.090   6.105
10957SOL     OW44146   7.000   0.719   7.183
10957SOL    HW244147   7.069   0.657   7.160
10957SOL    HW344148   6.925   0.693   7.130
10957SOL    MW444149   7.000   0.706   7.174
10958SOL     OW44150   5.741   1.599   6.735
10958SOL    HW244151   5.724   1.545   6.812
10958SOL    HW344152   5.729   1.689   6.765
10958SOL    MW444153   5.738   1.603   6.749
10959SOL     OW44154   6.736   1.106   7.175
10959SOL    HW244155   6.721   1.199   7.160
10959SOL    HW344156   6.831   1.096   7.175
10959SOL    MW444157   6.745   1.116   7.172
10960SOL     OW44158   6.532   0.530   7.376
10960SOL    HW244159   6.622   0.531   7.343
10960SOL    HW344160   6.491   0.455   7.334
10960SOL    MW444161   6.538   0.520   7.367
10961SOL     OW44162   7.107   1.062   6.503
10961SOL    HW244163   7.110   0.996   6.434
10961SOL    HW344164   7.192   1.105   6.499
10961SOL    MW444165   7.119   1.058   6.494
10962SOL     OW44166   6.727   0.665   6.072
10962SOL    HW244167   6.753   0.689   5.983
10962SOL    HW344168   6.709   0.572   6.068
10962SOL    MW444169   6.729   0.657   6.059
10963SOL     OW44170   7.392   1.285   5.923
10963SOL    HW244171   7.348   1.326   5.998
10963SOL    HW344172   7.449   1.353   5.888
10963SOL    MW444173   7.394   1.299   5.928
10964SOL     OW44174   6.312   0.334   7.326
10964SOL    HW244175   6.322   0.260   7.266
10964SOL    HW344176   6.348   0.303   7.409
10964SOL    MW444177   6.318   0.320   7.328
10965SOL     OW44178   6.048   1.701   6.241
10965SOL    HW244179   6.080   1.789   6.219
10965SOL    HW344180   6.001   1.673   6.163
10965SOL    MW444181   6.047   1.709   6.228
10966SOL     OW44182   7.432   0.063   6.290
10966SOL    HW244183   7.486   0.014   6.352
10966SOL    HW344184   7.375  -0.003   6.251
10966SOL    MW444185   7.432   0.047   6.292
10967SOL     OW44186   5.764   1.761   5.818
10967SOL    HW244187   5.793   1.851   5.810
10967SOL    HW344188   5.714   1.744   5.739
10967SOL    MW444189   5.762   1.769   5.807
10968SOL     OW44190   6.551   0.016   6.703
10968SOL    HW244191   6.510   0.094   6.665
10968SOL    HW344192   6.645   0.034   6.698
10968SOL    MW444193   6.557   0.028   6.698
10969SOL     OW44194   7.168   1.569   5.789
10969SOL    HW244195   7.216   1.638   5.835
10969SOL    HW344196   7.089   1.613   5.758
10969SOL    MW444197   7.163   1.583   5.792
10970SOL     OW44198   6.566   0.694   5.733
10970SOL    HW244199   6.568   0.641   5.654
10970SOL    HW344200   6.654   0.731   5.739
10970SOL    MW444201   6.578   0.693   5.722
10971SOL     OW44202   7.180   0.620   6.069
10971SOL    HW244203   7.219   0.620   6.156
10971SOL    HW344204   7.121   0.696   6.069
10971SOL    MW444205   7.177   0.631   6.080
10972SOL     OW44206   6.497   0.987   7.198
10972SOL    HW244207   6.474   0.967   7.288
10972SOL    HW344208   6.582   1.031   7.203
10972SOL    MW444209   6.504   0.990   7.210
10973SOL     OW44210   6.577   0.124   6.958
10973SOL    HW244211   6.583   0.086   6.871
10973SOL    HW344212   6.566   0.218   6.943
10973SOL    MW444213   6.578   0.132   6.946
10974SOL     OW44214   6.666   0.613   6.792
10974SOL    HW244215   6.741   0.642   6.739
10974SOL    HW344216   6.598   0.678   6.776
10974SOL    MW444217   6.667   0.625   6.782
10975SOL     OW44218   7.216   0.581   7.069
10975SOL    HW244219   7.197   0.490   7.048
10975SOL    HW344220   7.194   0.630   6.990
10975SOL    MW444221   7.211   0.574   7.056
10976SOL     OW44222   7.358   1.675   6.973
10976SOL    HW244223   7.286   1.637   7.024
10976SOL    HW344224   7.375   1.760   7.014
10976SOL    MW444225   7.352   1.680   6.985
10977SOL     OW44226   6.663   0.319   7.175
10977SOL    HW244227   6.629   0.358   7.094
10977SOL    HW344228   6.641   0.227   7.168
10977SOL    MW444229   6.656   0.312   7.165
10978SOL     OW44230   7.072   1.133   7.251
10978SOL    HW244231   7.154   1.174   7.281
10978SOL    HW344232   7.035   1.095   7.331
10978SOL    MW444233   7.078   1.134   7.266
10979SOL     OW44234   7.367   0.506   6.235
10979SOL    HW244235   7.456   0.475   6.252
10979SOL    HW344236   7.310   0.446   6.283
10979SOL    MW444237   7.370   0.494   6.244
10980SOL     OW44238   5.793   0.220   6.264
10980SOL    HW244239   5.784   0.160   6.190
10980SOL    HW344240   5.726   0.191   6.327
10980SOL    MW444241   5.783   0.207   6.262
10981SOL     OW44242   6.736   1.313   5.825
10981SOL    HW244243   6.686   1.315   5.907
10981SOL    HW344244   6.670   1.331   5.757
10981SOL    MW444245   6.722   1.315   5.827
10982SOL     OW44246   5.740   0.393   6.627
10982SOL    HW244247   5.712   0.484   6.636
10982SOL    HW344248   5.677   0.354   6.566
10982SOL    MW444249   5.727   0.399   6.621
10983SOL     OW44250   6.199   1.731   5.933
10983SOL    HW244251   6.120   1.689   5.966
10983SOL    HW344252   6.265   1.714   6.000
10983SOL    MW444253   6.198   1.723   5.946
10984SOL     OW44254   7.327   1.251   7.330
10984SOL    HW244255   7.377   1.177   7.362
10984SOL    HW344256   7.273   1.278   7.405
10984SOL    MW444257   7.327   1.245   7.343
10985SOL     OW44258   6.335   1.146   5.640
10985SOL    HW244259   6.257   1.092   5.627
10985SOL    HW344260   6.306   1.219   5.693
10985SOL    MW444261   6.321   1.148   5.645
10986SOL     OW44262   7.461   0.886   6.832
10986SOL    HW244263   7.477   0.924   6.745
10986SOL    HW344264   7.495   0.952   6.893
10986SOL    MW444265   7.468   0.899   6.828
10987SOL     OW44266   7.253   1.595   6.501
10987SOL    HW244267   7.282   1.662   6.562
10987SOL    HW344268   7.234   1.519   6.556
10987SOL    MW444269   7.255   1.595   6.516
10988SOL     OW44270   6.916   1.662   5.708
10988SOL    HW244271   6.842   1.625   5.758
10988SOL    HW344272   6.924   1.752   5.741
10988SOL    MW444273   6.907   1.669   5.720
10989SOL     OW44274   5.724   0.668   6.797
10989SOL    HW244275   5.786   0.698   6.863
10989SOL    HW344276   5.658   0.737   6.791
10989SOL    MW444277   5.723   0.681   6.804
10990SOL     OW44278   7.140   1.336   5.650
10990SOL    HW244279   7.087   1.385   5.586
10990SOL    HW344280   7.171   1.402   5.711
10990SOL    MW444281   7.138   1.350   5.648
10991SOL     OW44282   6.365   0.225   5.705
10991SOL    HW244283   6.313   0.145   5.693
10991SOL    HW344284   6.452   0.202   5.673
10991SOL    MW444285   6.368   0.211   5.699
10992SOL     OW44286   5.819   1.777   7.249
10992SOL    HW244287   5.793   1.845   7.187
10992SOL    HW344288   5.867   1.714   7.197
10992SOL    MW444289   5.821   1.777   7.235
10993SOL     OW44290   5.871   1.096   6.756
10993SOL    HW244291   5.924   1.171   6.781
10993SOL    HW344292   5.790   1.134   6.722
10993SOL    MW444293   5.867   1.111   6.756
10994SOL     OW44294   6.411   1.000   6.744
10994SOL    HW244295   6.439   0.909   6.756
10994SOL    HW344296   6.340   0.994   6.680
10994SOL    MW444297   6.404   0.988   6.739
10995SOL     OW44298   5.726   0.865   6.162
10995SOL    HW244299   5.817   0.880   6.189
10995SOL    HW344300   5.729   0.786   6.108
10995SOL    MW444301   5.738   0.857   6.160
10996SOL     OW44302   5.962   0.573   7.416
10996SOL    HW244303   5.909   0.653   7.423
10996SOL    HW344304   6.032   0.585   7.481
10996SOL    MW444305   5.964   0.586   7.424
10997SOL     OW44306   6.348   0.123   7.123
10997SOL    HW244307   6.325   0.031   7.125
10997SOL    HW344308   6.434   0.125   7.080
10997SOL    MW444309   6.355   0.113   7.119
10998SOL     OW44310   6.032   0.647   7.162
10998SOL    HW244311   6.112   0.697   7.148
10998SOL    HW344312   6.023   0.641   7.257
10998SOL    MW444313   6.041   0.653   7.172
10999SOL     OW44314   6.353   1.797   6.536
10999SOL    HW244315   6.442   1.812   6.566
10999SOL    HW344316   6.348   1.844   6.452
10999SOL    MW444317   6.363   1.805   6.529
11000SOL     OW44318   7.009   0.172   7.433
11000SOL    HW244319   7.065   0.099   7.459
11000SOL    HW344320   6.979   0.210   7.515
11000SOL    MW444321   7.013   0.167   7.446
11001SOL     OW44322   5.734   1.477   6.201
11001SOL    HW244323   5.706   1.516   6.283
11001SOL    HW344324   5.754   1.386   6.223
11001SOL    MW444325   5.732   1.469   6.214
11002SOL     OW44326   6.567   1.520   6.236
11002SOL    HW244327   6.650   1.474   6.220
11002SOL    HW344328   6.557   1.519   6.332
11002SOL    MW444329   6.577   1.513   6.246
11003SOL     OW44330   7.399   0.665   6.550
11003SOL    HW244331   7.488   0.695   6.532
11003SOL    HW344332   7.379   0.605   6.479
11003SOL    MW444333   7.408   0.662   6.539
11004SOL     OW44334   7.250   0.844   7.430
11004SOL    HW244335   7.305   0.768   7.411
11004SOL    HW344336   7.252   0.852   7.525
11004SOL    MW444337   7.258   0.835   7.438
11005SOL     OW44338   6.300   1.577   5.641
11005SOL    HW244339   6.240   1.646   5.611
11005SOL    HW344340   6.245   1.519   5.694
11005SOL    MW444341   6.284   1.579   5.643
11006SOL     OW44342   6.738   0.222   5.864
11006SOL    HW244343   6.671   0.198   5.801
11006SOL    HW344344   6.803   0.271   5.813
11006SOL    MW444345   6.738   0.224   5.849
11007SOL     OW44346   6.545   0.406   6.949
11007SOL    HW244347   6.464   0.447   6.977
11007SOL    HW344348   6.592   0.474   6.901
11007SOL    MW444349   6.540   0.421   6.947
11008SOL     OW44350   6.805   0.744   6.572
11008SOL    HW244351   6.818   0.838   6.582
11008SOL    HW344352   6.766   0.734   6.486
11008SOL    MW444353   6.801   0.755   6.562
11009SOL     OW44354   6.257   0.939   6.376
11009SOL    HW244355   6.168   0.930   6.409
11009SOL    HW344356   6.261   1.029   6.344
11009SOL    MW444357   6.246   0.950   6.376
11010SOL     OW44358   7.056   0.522   6.371
11010SOL    HW244359   7.001   0.443   6.370
11010SOL    HW344360   7.038   0.563   6.455
11010SOL    MW444361   7.046   0.517   6.380
11011SOL     OW44362   6.027   0.209   7.188
11011SOL    HW244363   5.948   0.227   7.240
11011SOL    HW344364   6.022   0.271   7.115
11011SOL    MW444365   6.017   0.219   7.185
11012SOL     OW44366   6.675   0.726   6.328
11012SOL    HW244367   6.612   0.658   6.352
11012SOL    HW344368   6.695   0.707   6.236
11012SOL    MW444369   6.669   0.713   6.320
11013SOL     OW44370   5.931   1.621   6.030
11013SOL    HW244371   5.892   1.668   5.956
11013SOL    HW344372   5.865   1.556   6.055
11013SOL    MW444373   5.918   1.619   6.024
11014SOL     OW44374   6.423   1.030   6.054
11014SOL    HW244375   6.425   1.004   5.961
11014SOL    HW344376   6.481   0.967   6.097
11014SOL    MW444377   6.431   1.019   6.048
11015SOL     OW44378   6.976   1.590   6.826
11015SOL    HW244379   6.901   1.636   6.864
11015SOL    HW344380   6.958   1.497   6.843
11015SOL    MW444381   6.965   1.584   6.834
11016SOL     OW44382   6.980   1.798   6.256
11016SOL    HW244383   6.923   1.751   6.195
11016SOL    HW344384   7.066   1.759   6.243
11016SOL    MW444385   6.983   1.789   6.246
11017SOL     OW44386   6.933   0.274   6.387
11017SOL    HW244387   6.961   0.206   6.448
11017SOL    HW344388   6.847   0.245   6.357
11017SOL    MW444389   6.926   0.261   6.391
11018SOL     OW44390   5.738   1.208   6.321
11018SOL    HW244391   5.802   1.240   6.384
11018SOL    HW344392   5.787   1.144   6.269
11018SOL    MW444393   5.753   1.204   6.322
11019SOL     OW44394   6.238   1.284   7.303
11019SOL    HW244395   6.286   1.367   7.290
11019SOL    HW344396   6.295   1.232   7.359
11019SOL    MW444397   6.252   1.288   7.309
11020SOL     OW44398   5.814   1.526   7.443
11020SOL    HW244399   5.870   1.450   7.458
11020SOL    HW344400   5.763   1.504   7.365
11020SOL    MW444401   5.814   1.513   7.434
11021SOL     OW44402   6.913   0.378   5.722
11021SOL    HW244403   6.886   0.444   5.658
11021SOL    HW344404   6.983   0.421   5.772
11021SOL    MW444405   6.918   0.391   5.719
11022SOL     OW44406   6.581   0.083   5.659
11022SOL    HW244407   6.637   0.075   5.581
11022SOL    HW344408   6.558  -0.007   5.681
11022SOL    MW444409   6.586   0.070   5.652
11023SOL     OW44410   7.086   0.934   5.864
11023SOL    HW244411   7.053   1.023   5.854
11023SOL    HW344412   7.051   0.905   5.949
11023SOL    MW444413   7.076   0.943   5.875
11024SOL     OW44414   6.699   1.363   7.052
11024SOL    HW244415   6.610   1.369   7.020
11024SOL    HW344416   6.743   1.442   7.020
11024SOL    MW444417   6.694   1.373   7.044
11025SOL     OW44418   5.992   0.031   7.394
11025SOL    HW244419   5.920  -0.004   7.342
11025SOL    HW344420   6.050   0.072   7.329
11025SOL    MW444421   5.990   0.032   7.379
11026SOL     OW44422   6.016   1.521   6.693
11026SOL    HW244423   6.061   1.583   6.750
11026SOL    HW344424   5.923   1.540   6.706
11026SOL    MW444425   6.009   1.531   6.700
11027SOL     OW44426   7.456   1.050   7.047
11027SOL    HW244427   7.371   1.063   7.006
11027SOL    HW344428   7.436   1.014   7.134
11027SOL    MW444429   7.443   1.046   7.052
11028SOL     OW44430   6.438   1.589   6.801
11028SOL    HW244431   6.462   1.578   6.710
11028SOL    HW344432   6.361   1.646   6.799
11028SOL    MW444433   6.430   1.594   6.790
11029SOL     OW44434   6.080   0.972   5.656
11029SOL    HW244435   6.003   0.985   5.712
11029SOL    HW344436   6.044   0.936   5.575
11029SOL    MW444437   6.066   0.968   5.653
11030SOL     OW44438   6.733   0.945   5.899
11030SOL    HW244439   6.643   0.966   5.874
11030SOL    HW344440   6.760   1.018   5.955
11030SOL    MW444441   6.725   0.957   5.902
11031SOL     OW44442   6.233   1.294   6.591
11031SOL    HW244443   6.226   1.273   6.685
11031SOL    HW344444   6.151   1.262   6.554
11031SOL    MW444445   6.221   1.288   6.598
11032SOL     OW44446   7.097   0.304   6.993
11032SOL    HW244447   7.044   0.306   7.073
11032SOL    HW344448   7.082   0.217   6.956
11032SOL    MW444449   7.089   0.294   6.998
11033SOL     OW44450   7.433   0.228   6.866
11033SOL    HW244451   7.414   0.295   6.801
11033SOL    HW344452   7.490   0.166   6.821
11033SOL    MW444453   7.437   0.229   6.852
11034SOL     OW44454   5.679   1.386   7.254
11034SOL    HW244455   5.723   1.319   7.200
11034SOL    HW344456   5.594   1.348   7.274
11034SOL    MW444457   5.674   1.372   7.250
11035SOL     OW44458   6.362   0.061   6.306
11035SOL    HW244459   6.291   0.122   6.288
11035SOL    HW344460   6.413   0.058   6.225
11035SOL    MW444461   6.358   0.067   6.293
11036SOL     OW44462   6.120   1.301   6.055
11036SOL    HW244463   6.113   1.333   6.145
11036SOL    HW344464   6.030   1.285   6.027
11036SOL    MW444465   6.108   1.303   6.062
11037SOL     OW44466   6.715   1.694   6.964
11037SOL    HW244467   6.635   1.679   6.914
11037SOL    HW344468   6.722   1.789   6.971
11037SOL    MW444469   6.706   1.705   6.958
11038SOL     OW44470   6.829   1.659   6.454
11038SOL    HW244471   6.876   1.732   6.413
11038SOL    HW344472   6.750   1.698   6.490
11038SOL    MW444473   6.824   1.674   6.453
11039SOL     OW44474   7.237   1.754   6.729
11039SOL    HW244475   7.280   1.724   6.809
11039SOL    HW344476   7.156   1.702   6.726
11039SOL    MW444477   7.232   1.743   6.739
11040SOL     OW44478   6.322   0.718   7.436
11040SOL    HW244479   6.392   0.660   7.408
11040SOL    HW344480   6.265   0.663   7.491
11040SOL    MW444481   6.324   0.705   7.440
11041SOL     OW44482   7.109   0.930   7.069
11041SOL    HW244483   7.114   0.983   7.149
11041SOL    HW344484   7.071   0.847   7.097
11041SOL    MW444485   7.105   0.925   7.084
11042SOL     OW44486   6.749   0.065   7.315
11042SOL    HW244487   6.744  -0.028   7.296
11042SOL    HW344488   6.832   0.076   7.361
11042SOL    MW444489   6.757   0.054   7.319
11043SOL     OW44490   6.123   0.585   5.769
11043SOL    HW244491   6.089   0.641   5.839
11043SOL    HW344492   6.194   0.535   5.809
11043SOL    MW444493   6.129   0.586   5.783
11044SOL     OW44494   7.219   1.336   6.591
11044SOL    HW244495   7.254   1.318   6.504
11044SOL    HW344496   7.124   1.337   6.578
11044SOL    MW444497   7.211   1.333   6.578
11045SOL     OW44498   6.648   0.984   6.960
11045SOL    HW244499   6.691   1.019   7.038
11045SOL    HW344500   6.631   1.061   6.906
11045SOL    MW444501   6.651   0.999   6.963
11046SOL     OW44502   7.179   0.471   5.833
11046SOL    HW244503   7.171   0.542   5.770
11046SOL    HW344504   7.197   0.515   5.916
11046SOL    MW444505   7.180   0.485   5.835
11047SOL     OW44506   6.039   0.126   6.262
11047SOL    HW244507   6.089   0.169   6.193
11047SOL    HW344508   5.954   0.170   6.262
11047SOL    MW444509   6.036   0.139   6.253
11048SOL     OW44510   5.798   1.188   7.122
11048SOL    HW244511   5.826   1.141   7.200
11048SOL    HW344512   5.719   1.143   7.093
11048SOL    MW444513   5.791   1.177   7.128
11049SOL     OW44514   6.306   0.515   7.089
11049SOL    HW244515   6.278   0.603   7.113
11049SOL    HW344516   6.275   0.459   7.160
11049SOL    MW444517   6.298   0.518   7.101
11050SOL     OW44518   6.848   0.733   5.808
11050SOL    HW244519   6.895   0.751   5.727
11050SOL    HW344520   6.814   0.817   5.836
11050SOL    MW444521   6.850   0.747   5.801
11051SOL     OW44522   5.961   0.911   6.302
11051SOL    HW244523   6.019   0.967   6.250
11051SOL    HW344524   6.005   0.826   6.304
11051SOL    MW444525   5.974   0.908   6.295
11052SOL     OW44526   7.101   0.263   6.139
11052SOL    HW244527   7.023   0.213   6.164
11052SOL    HW344528   7.072   0.354   6.139
11052SOL    MW444529   7.087   0.267   6.142
11053SOL     OW44530   6.687   0.225   6.298
11053SOL    HW244531   6.707   0.300   6.242
11053SOL    HW344532   6.667   0.264   6.383
11053SOL    MW444533   6.688   0.241   6.302
11054SOL     OW44534   6.583   1.475   5.630
11054SOL    HW244535   6.610   1.553   5.582
11054SOL    HW344536   6.490   1.490   5.649
11054SOL    MW444537   6.574   1.488   5.626
11055SOL     OW44538   7.447   0.998   7.317
11055SOL    HW244539   7.360   0.978   7.353
11055SOL    HW344540   7.501   0.924   7.342
11055SOL    MW444541   7.442   0.987   7.325
11056SOL     OW44542   5.668   1.511   6.474
11056SOL    HW244543   5.700   1.515   6.565
11056SOL    HW344544   5.573   1.519   6.482
11056SOL    MW444545   5.660   1.514   6.487
11057SOL     OW44546   5.623   0.637   6.021
11057SOL    HW244547   5.563   0.609   6.091
11057SOL    HW344548   5.697   0.577   6.027
11057SOL    MW444549   5.625   0.626   6.030
11058SOL     OW44550   7.191   1.849   7.455
11058SOL    HW244551   7.236   1.773   7.420
11058SOL    HW344552   7.229   1.862   7.542
11058SOL    MW444553   7.201   1.842   7.461
11059SOL     OW44554   6.791   1.368   6.181
11059SOL    HW244555   6.814   1.319   6.259
11059SOL    HW344556   6.872   1.410   6.153
11059SOL    MW444557   6.804   1.368   6.188
11060SOL     OW44558   6.049   0.376   6.910
11060SOL    HW244559   6.082   0.457   6.950
11060SOL    HW344560   6.022   0.402   6.822
11060SOL    MW444561   6.048   0.390   6.904
11061SOL     OW44562   6.003   0.343   6.646
11061SOL    HW244563   6.033   0.257   6.617
11061SOL    HW344564   5.908   0.336   6.649
11061SOL    MW444565   5.995   0.332   6.644
11062SOL     OW44566   6.832   0.552   7.337
11062SOL    HW244567   6.884   0.487   7.290
11062SOL    HW344568   6.790   0.603   7.267
11062SOL    MW444569   6.833   0.549   7.320
11063SOL     OW44570   6.931   0.347   7.198
11063SOL    HW244571   6.838   0.331   7.185
11063SOL    HW344572   6.957   0.285   7.266
11063SOL    MW444573   6.921   0.337   7.205
11064SOL     OW44574   6.146   0.121   6.537
11064SOL    HW244575   6.156   0.030   6.563
11064SOL    HW344576   6.102   0.117   6.452
11064SOL    MW444577   6.142   0.109   6.529
11065SOL     OW44578   6.240   1.736   7.083
11065SOL    HW244579   6.157   1.721   7.128
11065SOL    HW344580   6.299   1.669   7.118
11065SOL    MW444581   6.238   1.726   7.093
11066SOL     OW44582   7.297   0.443   6.708
11066SOL    HW244583   7.230   0.476   6.768
11066SOL    HW344584   7.340   0.521   6.674
11066SOL    MW444585   7.295   0.458   6.712
11067SOL     OW44586   7.475   1.163   6.678
11067SOL    HW244587   7.468   1.103   6.603
11067SOL    HW344588   7.401   1.223   6.667
11067SOL    MW444589   7.465   1.163   6.667
11068SOL     OW44590   6.857   1.025   6.596
11068SOL    HW244591   6.871   0.997   6.687
11068SOL    HW344592   6.943   1.056   6.568
11068SOL    MW444593   6.870   1.026   6.605
11069SOL     OW44594   6.940   0.520   6.875
11069SOL    HW244595   6.961   0.521   6.782
11069SOL    HW344596   6.985   0.442   6.908
11069SOL    MW444597   6.947   0.510   6.867
11070SOL     OW44598   7.433   0.651   7.417
11070SOL    HW244599   7.470   0.596   7.486
11070SOL    HW344600   7.458   0.608   7.335
11070SOL    MW444601   7.440   0.639   7.416
11071SOL     OW44602   6.980   0.949   7.468
11071SOL    HW244603   7.046   0.897   7.422
11071SOL    HW344604   7.000   0.936   7.561
11071SOL    MW444605   6.991   0.940   7.475
11072SOL     OW44606   6.931   0.035   5.817
11072SOL    HW244607   7.005   0.079   5.860
11072SOL    HW344608   6.855   0.089   5.839
11072SOL    MW444609   6.931   0.047   5.825
11073SOL     OW44610   6.991   0.810   6.095
11073SOL    HW244611   6.906   0.780   6.065
11073SOL    HW344612   6.983   0.817   6.190
11073SOL    MW444613   6.979   0.808   6.104
11074SOL     OW44614   6.067   1.273   6.826
11074SOL    HW244615   6.079   1.300   6.917
11074SOL    HW344616   6.048   1.354   6.779
11074SOL    MW444617   6.066   1.288   6.831
11075SOL     OW44618   6.351   0.253   6.649
11075SOL    HW244619   6.324   0.255   6.740
11075SOL    HW344620   6.281   0.205   6.604
11075SOL    MW444621   6.339   0.249   6.656
11076SOL     OW44622   6.205   1.745   6.811
11076SOL    HW244623   6.257   1.822   6.788
11076SOL    HW344624   6.214   1.737   6.906
11076SOL    MW444625   6.214   1.752   6.822
11077SOL     OW44626   7.107   1.330   7.043
11077SOL    HW244627   7.092   1.259   7.106
11077SOL    HW344628   7.153   1.288   6.971
11077SOL    MW444629   7.113   1.314   7.043
11078SOL     OW44630   6.181   1.061   7.160
11078SOL    HW244631   6.218   1.066   7.072
11078SOL    HW344632   6.220   1.134   7.207
11078SOL    MW444633   6.191   1.071   7.155
11079SOL     OW44634   6.361   1.104   6.972
11079SOL    HW244635   6.420   1.050   7.025
11079SOL    HW344636   6.376   1.076   6.882
11079SOL    MW444637   6.371   1.093   6.968
11080SOL     OW44638   6.364   0.476   5.821
11080SOL    HW244639   6.437   0.525   5.784
11080SOL    HW344640   6.380   0.385   5.795
11080SOL    MW444641   6.376   0.471   5.814
11081SOL     OW44642   7.172   1.593   7.144
11081SOL    HW244643   7.214   1.578   7.229
11081SOL    HW344644   7.163   1.506   7.106
11081SOL    MW444645   7.176   1.581   7.151
11082SOL     OW44646   6.832   0.072   6.735
11082SOL    HW244647   6.887   0.081   6.657
11082SOL    HW344648   6.887   0.106   6.806
11082SOL    MW444649   6.846   0.077   6.734
11083SOL     OW44650   5.839   0.985   5.919
11083SOL    HW244651   5.776   1.001   5.848
11083SOL    HW344652   5.786   0.948   5.990
11083SOL    MW444653   5.824   0.982   5.919
11084SOL     OW44654   6.195   1.339   5.778
11084SOL    HW244655   6.210   1.315   5.870
11084SOL    HW344656   6.103   1.317   5.762
11084SOL    MW444657   6.185   1.332   5.788
11085SOL     OW44658   6.734   1.570   5.930
11085SOL    HW244659   6.742   1.488   5.881
11085SOL    HW344660   6.653   1.609   5.897
11085SOL    MW444661   6.724   1.565   5.920
11086SOL     OW44662   5.993   1.728   6.499
11086SOL    HW244663   5.997   1.639   6.534
11086SOL    HW344664   6.019   1.719   6.408
11086SOL    MW444665   5.996   1.716   6.491
11087SOL     OW44666   6.610   1.206   6.742
11087SOL    HW244667   6.542   1.140   6.758
11087SOL    HW344668   6.628   1.200   6.649
11087SOL    MW444669   6.603   1.197   6.733
11088SOL     OW44670   5.699   1.481   6.993
11088SOL    HW244671   5.689   1.439   7.079
11088SOL    HW344672   5.620   1.534   6.983
11088SOL    MW444673   5.688   1.482   7.004
11089SOL     OW44674   6.603   0.345   6.563
11089SOL    HW244675   6.533   0.297   6.608
11089SOL    HW344676   6.635   0.408   6.627
11089SOL    MW444677   6.598   0.347   6.577
11090SOL     OW44678   6.254   0.781   7.183
11090SOL    HW244679   6.247   0.876   7.171
11090SOL    HW344680   6.263   0.770   7.278
11090SOL    MW444681   6.255   0.793   7.193
11091SOL     OW44682   5.975   1.296   7.441
11091SOL    HW244683   6.047   1.298   7.378
11091SOL    HW344684   5.945   1.205   7.440
11091SOL    MW444685   5.980   1.285   7.433
11092SOL     OW44686   7.059   0.059   6.908
11092SOL    HW244687   7.130   0.005   6.872
11092SOL    HW344688   7.058   0.038   7.001
11092SOL    MW444689   7.068   0.050   6.916
11093SOL     OW44690   7.259   1.589   7.392
11093SOL    HW244691   7.232   1.586   7.483
11093SOL    HW344692   7.355   1.593   7.395
11093SOL    MW444693   7.269   1.589   7.404
11094SOL     OW44694   6.070   0.451   6.376
11094SOL    HW244695   6.141   0.399   6.339
11094SOL    HW344696   6.056   0.416   6.463
11094SOL    MW444697   6.078   0.440   6.383
11095SOL     OW44698   5.625   1.786   7.448
11095SOL    HW244699   5.675   1.764   7.370
11095SOL    HW344700   5.633   1.881   7.456
11095SOL    MW444701   5.633   1.795   7.439
11096SOL     OW44702   6.386   1.544   6.452
11096SOL    HW244703   6.314   1.481   6.465
11096SOL    HW344704   6.347   1.629   6.470
11096SOL    MW444705   6.370   1.547   6.455
11097SOL     OW44706   6.706   0.392   6.100
11097SOL    HW244707   6.728   0.329   6.032
11097SOL    HW344708   6.611   0.384   6.111
11097SOL    MW444709   6.696   0.383   6.092
11098SOL     OW44710   5.791   0.082   6.032
11098SOL    HW244711   5.862   0.103   5.971
11098SOL    HW344712   5.745   0.010   5.990
11098SOL    MW444713   5.795   0.076   6.018
11099SOL     OW44714   5.622   0.549   7.175
11099SOL    HW244715   5.686   0.615   7.150
11099SOL    HW344716   5.541   0.576   7.132
11099SOL    MW444717   5.620   0.561   7.167
11100SOL     OW44718   7.360   1.456   6.132
11100SOL    HW244719   7.330   1.389   6.193
11100SOL    HW344720   7.454   1.462   6.146
11100SOL    MW444721   7.368   1.448   6.142
11101SOL     OW44722   6.916   1.133   6.062
11101SOL    HW244723   6.888   1.219   6.095
11101SOL    HW344724   6.944   1.149   5.972
11101SOL    MW444725   6.916   1.147   6.054
11102SOL     OW44726   6.578   0.053   6.115
11102SOL    HW244727   6.615   0.112   6.180
11102SOL    HW344728   6.555   0.109   6.041
11102SOL    MW444729   6.579   0.068   6.114
11103SOL     OW44730   7.431   0.935   6.537
11103SOL    HW244731   7.422   0.967   6.448
11103SOL    HW344732   7.384   0.851   6.537
11103SOL    MW444733   7.424   0.928   6.527
11104SOL     OW44734   5.807   0.775   7.116
11104SOL    HW244735   5.828   0.844   7.054
11104SOL    HW344736   5.887   0.722   7.121
11104SOL    MW444737   5.820   0.776   7.110
11105SOL     OW44738   7.343   0.866   6.238
11105SOL    HW244739   7.437   0.855   6.226
11105SOL    HW344740   7.319   0.938   6.179
11105SOL    MW444741   7.353   0.874   6.229
11106SOL     OW44742   5.792   0.790   7.383
11106SOL    HW244743   5.718   0.734   7.409
11106SOL    HW344744   5.787   0.793   7.288
11106SOL    MW444745   5.781   0.783   7.373
11107SOL     OW44746   5.958   0.077   6.833
11107SOL    HW244747   6.001   0.161   6.853
11107SOL    HW344748   6.031   0.015   6.826
11107SOL    MW444749   5.973   0.080   6.834
11108SOL     OW44750   5.999   0.744   6.011
11108SOL    HW244751   5.999   0.839   5.996
11108SOL    HW344752   6.076   0.728   6.065
11108SOL    MW444753   6.009   0.755   6.016
11109SOL     OW44754   6.775   0.603   7.075
11109SOL    HW244755   6.811   0.576   6.991
11109SOL    HW344756   6.688   0.637   7.054
11109SOL    MW444757   6.769   0.604   7.062
11110SOL     OW44758   5.758   0.475   6.300
11110SOL    HW244759   5.820   0.482   6.373
11110SOL    HW344760   5.758   0.382   6.277
11110SOL    MW444761   5.766   0.464   6.307
11111SOL     OW44762   7.305   1.815   5.832
11111SOL    HW244763   7.372   1.848   5.772
11111SOL    HW344764   7.262   1.894   5.866
11111SOL    MW444765   7.307   1.830   5.828
11112SOL     OW44766   6.440   0.736   6.784
11112SOL    HW244767   6.398   0.654   6.760
11112SOL    HW344768   6.441   0.735   6.880
11112SOL    MW444769   6.433   0.725   6.793
11113SOL     OW44770   7.111   1.869   7.183
11113SOL    HW244771   7.114   1.775   7.166
11113SOL    HW344772   7.134   1.877   7.275
11113SOL    MW444773   7.114   1.857   7.193
11114SOL     OW44774   6.244   0.206   6.889
11114SOL    HW244775   6.175   0.269   6.910
11114SOL    HW344776   6.271   0.170   6.974
11114SOL    MW444777   6.238   0.209   6.902
11115SOL     OW44778   5.627   1.047   5.758
11115SOL    HW244779   5.596   1.112   5.821
11115SOL    HW344780   5.576   0.969   5.777
11115SOL    MW444781   5.617   1.044   5.768
11116SOL     OW44782   7.039   0.059   6.506
11116SOL    HW244783   7.127   0.068   6.543
11116SOL    HW344784   7.049   0.000   6.432
11116SOL    MW444785   7.053   0.053   6.500
11117SOL     OW44786   7.071   0.798   6.350
11117SOL    HW244787   7.151   0.813   6.299
11117SOL    HW344788   7.064   0.703   6.356
11117SOL    MW444789   7.080   0.787   6.345
11118SOL     OW44790   6.211   1.847   5.700
11118SOL    HW244791   6.116   1.847   5.692
11118SOL    HW344792   6.227   1.793   5.778
11118SOL    MW444793   6.201   1.841   5.709
11119SOL     OW44794   6.521   0.724   7.047
11119SOL    HW244795   6.590   0.791   7.044
11119SOL    HW344796   6.454   0.762   7.103
11119SOL    MW444797   6.522   0.737   7.054
11120SOL     OW44798   5.939   1.024   7.295
11120SOL    HW244799   5.893   0.940   7.297
11120SOL    HW344800   5.996   1.018   7.219
11120SOL    MW444801   5.941   1.012   7.287
11121SOL     OW44802   7.056   0.667   5.615
11121SOL    HW244803   6.984   0.643   5.557
11121SOL    HW344804   7.122   0.704   5.557
11121SOL    MW444805   7.055   0.669   5.600
11122SOL     OW44806   6.190   1.399   6.296
11122SOL    HW244807   6.255   1.332   6.317
11122SOL    HW344808   6.242   1.476   6.273
11122SOL    MW444809   6.205   1.401   6.295
11123SOL     OW44810   6.451   0.564   6.426
11123SOL    HW244811   6.391   0.582   6.498
11123SOL    HW344812   6.485   0.476   6.445
11123SOL    MW444813   6.447   0.554   6.439
11124SOL     OW44814   7.392   0.063   7.095
11124SOL    HW244815   7.313   0.109   7.123
11124SOL    HW344816   7.427   0.117   7.024
11124SOL    MW444817   7.386   0.076   7.089
11125SOL     OW44818   6.676   1.147   6.445
11125SOL    HW244819   6.768   1.128   6.463
11125SOL    HW344820   6.649   1.077   6.385
11125SOL    MW444821   6.684   1.135   6.439
11126SOL     OW44822   6.469   0.967   5.800
11126SOL    HW244823   6.455   0.879   5.765
11126SOL    HW344824   6.420   1.024   5.741
11126SOL    MW444825   6.461   0.962   5.788
11127SOL     OW44826   6.950   1.385   6.541
11127SOL    HW244827   6.923   1.469   6.506
11127SOL    HW344828   6.910   1.380   6.628
11127SOL    MW444829   6.943   1.394   6.547
11128SOL     OW44830   6.869   1.333   6.809
11128SOL    HW244831   6.880   1.300   6.898
11128SOL    HW344832   6.788   1.292   6.778
11128SOL    MW444833   6.859   1.325   6.815
11129SOL     OW44834   5.882   0.691   6.579
11129SOL    HW244835   5.832   0.690   6.660
11129SOL    HW344836   5.902   0.783   6.563
11129SOL    MW444837   5.878   0.703   6.587
11130SOL     OW44838   6.949   1.455   7.341
11130SOL    HW244839   6.949   1.549   7.357
11130SOL    HW344840   6.994   1.445   7.257
11130SOL    MW444841   6.955   1.465   7.332
11131SOL     OW44842   7.188   0.173   5.902
11131SOL    HW244843   7.181   0.177   5.997
11131SOL    HW344844   7.200   0.264   5.875
11131SOL    MW444845   7.189   0.186   5.910
11132SOL     OW44846   6.477   0.736   6.016
11132SOL    HW244847   6.457   0.722   5.923
11132SOL    HW344848   6.570   0.715   6.023
11132SOL    MW444849   6.487   0.731   6.005
11133SOL     OW44850   5.804   0.359   7.320
11133SOL    HW244851   5.761   0.418   7.257
11133SOL    HW344852   5.872   0.414   7.360
11133SOL    MW444853   5.808   0.374   7.317
11134SOL     OW44854   6.916   0.979   6.865
11134SOL    HW244855   6.979   0.976   6.938
11134SOL    HW344856   6.832   0.997   6.907
11134SOL    MW444857   6.912   0.981   6.880
11135SOL     OW44858   6.460   1.694   6.054
11135SOL    HW244859   6.518   1.765   6.081
11135SOL    HW344860   6.483   1.622   6.112
11135SOL    MW444861   6.471   1.694   6.065
11136SOL     OW44862   7.255   0.156   6.644
11136SOL    HW244863   7.300   0.074   6.663
11136SOL    HW344864   7.275   0.212   6.720
11136SOL    MW444865   7.265   0.152   6.656
11137SOL     OW44866   5.703  -0.001   6.743
11137SOL    HW244867   5.694   0.000   6.648
11137SOL    HW344868   5.797   0.011   6.758
11137SOL    MW444869   5.715   0.002   6.734
11138SOL     OW44870   7.340   1.192   6.363
11138SOL    HW244871   7.319   1.138   6.286
11138SOL    HW344872   7.436   1.190   6.367
11138SOL    MW444873   7.349   1.185   6.352
11139SOL     OW44874   6.032   1.337   7.106
11139SOL    HW244875   5.953   1.287   7.129
11139SOL    HW344876   6.102   1.296   7.156
11139SOL    MW444877   6.030   1.325   7.116
11140SOL     OW44878   5.916   0.126   5.789
11140SOL    HW244879   5.845   0.181   5.757
11140SOL    HW344880   5.958   0.092   5.710
11140SOL    MW444881   5.912   0.128   5.775
11141SOL     OW44882   7.040   0.623   6.625
11141SOL    HW244883   6.963   0.669   6.591
11141SOL    HW344884   7.097   0.692   6.659
11141SOL    MW444885   7.037   0.638   6.625
11142SOL     OW44886   5.672   0.225   5.638
11142SOL    HW244887   5.639   0.304   5.682
11142SOL    HW344888   5.727   0.258   5.567
11142SOL    MW444889   5.675   0.239   5.635
11143SOL     OW44890   5.706   1.482   5.827
11143SOL    HW244891   5.723   1.566   5.869
11143SOL    HW344892   5.741   1.491   5.739
11143SOL    MW444893   5.711   1.495   5.821
11144SOL     OW44894   6.978   1.571   6.044
11144SOL    HW244895   7.041   1.561   5.973
11144SOL    HW344896   6.895   1.591   5.999
11144SOL    MW444897   6.975   1.572   6.029
11145SOL     OW44898   7.341   2.707   0.257
11145SOL    HW244899   7.382   2.649   0.322
11145SOL    HW344900   7.248   2.699   0.274
11145SOL    MW444901   7.335   2.699   0.267
11146SOL     OW44902   7.207   2.639   1.252
11146SOL    HW244903   7.162   2.706   1.303
11146SOL    HW344904   7.295   2.675   1.238
11146SOL    MW444905   7.213   2.652   1.256
11147SOL     OW44906   6.135   2.890   0.486
11147SOL    HW244907   6.225   2.865   0.470
11147SOL    HW344908   6.131   2.983   0.463
11147SOL    MW444909   6.147   2.899   0.481
11148SOL     OW44910   7.251   3.593   0.628
11148SOL    HW244911   7.263   3.539   0.706
11148SOL    HW344912   7.288   3.541   0.557
11148SOL    MW444913   7.257   3.578   0.629
11149SOL     OW44914   6.630   3.478   1.629
11149SOL    HW244915   6.671   3.514   1.550
11149SOL    HW344916   6.665   3.389   1.636
11149SOL    MW444917   6.641   3.471   1.620
11150SOL     OW44918   7.187   3.033   1.233
11150SOL    HW244919   7.108   2.998   1.191
11150SOL    HW344920   7.214   3.105   1.177
11150SOL    MW444921   7.180   3.038   1.220
11151SOL     OW44922   6.419   2.346   0.499
11151SOL    HW244923   6.394   2.434   0.527
11151SOL    HW344924   6.416   2.349   0.403
11151SOL    MW444925   6.415   2.358   0.491
11152SOL     OW44926   5.861   2.374   0.427
11152SOL    HW244927   5.893   2.462   0.409
11152SOL    HW344928   5.849   2.372   0.522
11152SOL    MW444929   5.864   2.386   0.439
11153SOL     OW44930   5.939   2.787   1.328
11153SOL    HW244931   6.002   2.734   1.279
11153SOL    HW344932   5.920   2.861   1.271
11153SOL    MW444933   5.945   2.789   1.315
11154SOL     OW44934   6.260   2.129   0.514
11154SOL    HW244935   6.318   2.205   0.516
11154SOL    HW344936   6.195   2.150   0.447
11154SOL    MW444937   6.259   2.141   0.505
11155SOL     OW44938   6.347   3.056   0.689
11155SOL    HW244939   6.427   3.059   0.741
11155SOL    HW344940   6.375   3.023   0.603
11155SOL    MW444941   6.361   3.052   0.684
11156SOL     OW44942   6.372   3.397   1.592
11156SOL    HW244943   6.456   3.423   1.631
11156SOL    HW344944   6.396   3.341   1.518
11156SOL    MW444945   6.386   3.393   1.587
11157SOL     OW44946   6.124   2.560   0.680
11157SOL    HW244947   6.109   2.480   0.731
11157SOL    HW344948   6.206   2.595   0.714
11157SOL    MW444949   6.132   2.552   0.692
11158SOL     OW44950   6.461   3.246   1.365
11158SOL    HW244951   6.425   3.312   1.305
11158SOL    HW344952   6.389   3.184   1.378
11158SOL    MW444953   6.447   3.246   1.359
11159SOL     OW44954   6.266   2.386   1.057
11159SOL    HW244955   6.172   2.382   1.075
11159SOL    HW344956   6.296   2.295   1.066
11159SOL    MW444957   6.257   2.374   1.060
11160SOL     OW44958   6.012   2.800   0.961
11160SOL    HW244959   5.967   2.807   0.877
11160SOL    HW344960   5.992   2.883   1.005
11160SOL    MW444961   6.004   2.812   0.955
11161SOL     OW44962   5.709   3.646   0.836
11161SOL    HW244963   5.798   3.638   0.871
11161SOL    HW344964   5.673   3.558   0.841
11161SOL    MW444965   5.716   3.633   0.841
11162SOL     OW44966   6.974   3.038   0.205
11162SOL    HW244967   6.892   3.074   0.171
11162SOL    HW344968   7.042   3.081   0.154
11162SOL    MW444969   6.972   3.048   0.193
11163SOL     OW44970   5.973   3.173   0.871
11163SOL    HW244971   5.949   3.226   0.947
11163SOL    HW344972   6.029   3.231   0.819
11163SOL    MW444973   5.977   3.188   0.874
11164SOL     OW44974   6.535   2.817   0.681
11164SOL    HW244975   6.449   2.804   0.721
11164SOL    HW344976   6.588   2.744   0.713
11164SOL    MW444977   6.531   2.806   0.690
11165SOL     OW44978   5.943   3.469   1.466
11165SOL    HW244979   5.851   3.445   1.451
11165SOL    HW344980   5.987   3.386   1.483
11165SOL    MW444981   5.937   3.454   1.465
11166SOL     OW44982   6.526   3.179   0.398
11166SOL    HW244983   6.503   3.241   0.466
11166SOL    HW344984   6.483   3.097   0.424
11166SOL    MW444985   6.518   3.175   0.409
11167SOL     OW44986   7.399   2.180   0.854
11167SOL    HW244987   7.336   2.160   0.923
11167SOL    HW344988   7.389   2.109   0.791
11167SOL    MW444989   7.389   2.167   0.855
11168SOL     OW44990   6.023   2.152   0.366
11168SOL    HW244991   5.997   2.114   0.282
11168SOL    HW344992   5.960   2.222   0.382
11168SOL    MW444993   6.012   2.155   0.357
11169SOL     OW44994   5.858   3.113   0.403
11169SOL    HW244995   5.806   3.181   0.359
11169SOL    HW344996   5.855   3.039   0.343
11169SOL    MW444997   5.850   3.112   0.390
11170SOL     OW44998   6.520   3.576   0.181
11170SOL    HW244999   6.475   3.592   0.264
11170SOL    HW345000   6.451   3.541   0.123
11170SOL    MW445001   6.506   3.573   0.183
11171SOL     OW45002   7.455   2.349   0.156
11171SOL    HW245003   7.364   2.351   0.184
11171SOL    HW345004   7.500   2.411   0.214
11171SOL    MW445005   7.448   2.357   0.166
11172SOL     OW45006   7.200   2.952   0.506
11172SOL    HW245007   7.110   2.952   0.541
11172SOL    HW345008   7.193   2.998   0.423
11172SOL    MW445009   7.187   2.958   0.500
11173SOL     OW45010   7.000   2.587   1.578
11173SOL    HW245011   7.069   2.525   1.555
11173SOL    HW345012   6.925   2.561   1.525
11173SOL    MW445013   7.000   2.574   1.569
11174SOL     OW45014   5.741   3.467   1.130
11174SOL    HW245015   5.724   3.413   1.207
11174SOL    HW345016   5.729   3.557   1.160
11174SOL    MW445017   5.738   3.471   1.144
11175SOL     OW45018   6.736   2.974   1.570
11175SOL    HW245019   6.721   3.067   1.555
11175SOL    HW345020   6.831   2.964   1.570
11175SOL    MW445021   6.745   2.984   1.567
11176SOL     OW45022   6.532   2.398   1.771
11176SOL    HW245023   6.622   2.399   1.738
11176SOL    HW345024   6.491   2.323   1.729
11176SOL    MW445025   6.538   2.388   1.762
11177SOL     OW45026   7.107   2.930   0.898
11177SOL    HW245027   7.110   2.864   0.829
11177SOL    HW345028   7.192   2.973   0.894
11177SOL    MW445029   7.119   2.926   0.889
11178SOL     OW45030   6.727   2.533   0.467
11178SOL    HW245031   6.753   2.557   0.378
11178SOL    HW345032   6.709   2.440   0.463
11178SOL    MW445033   6.729   2.525   0.454
11179SOL     OW45034   7.392   3.153   0.318
11179SOL    HW245035   7.348   3.194   0.393
11179SOL    HW345036   7.449   3.221   0.283
11179SOL    MW445037   7.394   3.167   0.323
11180SOL     OW45038   6.312   2.202   1.721
11180SOL    HW245039   6.322   2.128   1.661
11180SOL    HW345040   6.348   2.171   1.804
11180SOL    MW445041   6.318   2.188   1.723
11181SOL     OW45042   6.048   3.569   0.636
11181SOL    HW245043   6.080   3.657   0.614
11181SOL    HW345044   6.001   3.541   0.558
11181SOL    MW445045   6.047   3.577   0.623
11182SOL     OW45046   7.432   1.931   0.685
11182SOL    HW245047   7.486   1.882   0.747
11182SOL    HW345048   7.375   1.865   0.646
11182SOL    MW445049   7.432   1.915   0.687
11183SOL     OW45050   5.764   3.629   0.213
11183SOL    HW245051   5.793   3.719   0.205
11183SOL    HW345052   5.714   3.612   0.134
11183SOL    MW445053   5.762   3.637   0.202
11184SOL     OW45054   6.551   1.884   1.098
11184SOL    HW245055   6.510   1.962   1.060
11184SOL    HW345056   6.645   1.902   1.093
11184SOL    MW445057   6.557   1.896   1.093
11185SOL     OW45058   7.168   3.437   0.184
11185SOL    HW245059   7.216   3.506   0.230
11185SOL    HW345060   7.089   3.481   0.153
11185SOL    MW445061   7.163   3.451   0.187
11186SOL     OW45062   6.566   2.562   0.128
11186SOL    HW245063   6.568   2.509   0.049
11186SOL    HW345064   6.654   2.599   0.134
11186SOL    MW445065   6.578   2.561   0.117
11187SOL     OW45066   7.180   2.488   0.464
11187SOL    HW245067   7.219   2.488   0.551
11187SOL    HW345068   7.121   2.564   0.464
11187SOL    MW445069   7.177   2.499   0.475
11188SOL     OW45070   6.497   2.855   1.593
11188SOL    HW245071   6.474   2.835   1.683
11188SOL    HW345072   6.582   2.899   1.598
11188SOL    MW445073   6.504   2.858   1.605
11189SOL     OW45074   6.577   1.992   1.353
11189SOL    HW245075   6.583   1.954   1.266
11189SOL    HW345076   6.566   2.086   1.338
11189SOL    MW445077   6.578   2.000   1.341
11190SOL     OW45078   6.666   2.481   1.187
11190SOL    HW245079   6.741   2.510   1.134
11190SOL    HW345080   6.598   2.546   1.171
11190SOL    MW445081   6.667   2.493   1.177
11191SOL     OW45082   7.216   2.449   1.464
11191SOL    HW245083   7.197   2.358   1.443
11191SOL    HW345084   7.194   2.498   1.385
11191SOL    MW445085   7.211   2.442   1.451
11192SOL     OW45086   7.358   3.543   1.368
11192SOL    HW245087   7.286   3.505   1.419
11192SOL    HW345088   7.375   3.628   1.409
11192SOL    MW445089   7.352   3.548   1.380
11193SOL     OW45090   6.663   2.187   1.570
11193SOL    HW245091   6.629   2.226   1.489
11193SOL    HW345092   6.641   2.095   1.563
11193SOL    MW445093   6.656   2.180   1.560
11194SOL     OW45094   7.072   3.001   1.646
11194SOL    HW245095   7.154   3.042   1.676
11194SOL    HW345096   7.035   2.963   1.726
11194SOL    MW445097   7.078   3.002   1.661
11195SOL     OW45098   7.367   2.374   0.630
11195SOL    HW245099   7.456   2.343   0.647
11195SOL    HW345100   7.310   2.314   0.678
11195SOL    MW445101   7.370   2.362   0.639
11196SOL     OW45102   5.793   2.088   0.659
11196SOL    HW245103   5.784   2.028   0.585
11196SOL    HW345104   5.726   2.059   0.722
11196SOL    MW445105   5.783   2.075   0.657
11197SOL     OW45106   6.736   3.181   0.220
11197SOL    HW245107   6.686   3.183   0.302
11197SOL    HW345108   6.670   3.199   0.152
11197SOL    MW445109   6.722   3.183   0.222
11198SOL     OW45110   5.740   2.261   1.022
11198SOL    HW245111   5.712   2.352   1.031
11198SOL    HW345112   5.677   2.222   0.961
11198SOL    MW445113   5.727   2.267   1.016
11199SOL     OW45114   6.199   3.599   0.328
11199SOL    HW245115   6.120   3.557   0.361
11199SOL    HW345116   6.265   3.582   0.395
11199SOL    MW445117   6.198   3.591   0.341
11200SOL     OW45118   7.327   3.119   1.725
11200SOL    HW245119   7.377   3.045   1.757
11200SOL    HW345120   7.273   3.146   1.800
11200SOL    MW445121   7.327   3.113   1.738
11201SOL     OW45122   6.335   3.014   0.035
11201SOL    HW245123   6.257   2.960   0.022
11201SOL    HW345124   6.306   3.087   0.088
11201SOL    MW445125   6.321   3.016   0.040
11202SOL     OW45126   7.461   2.754   1.227
11202SOL    HW245127   7.477   2.792   1.140
11202SOL    HW345128   7.495   2.820   1.288
11202SOL    MW445129   7.468   2.767   1.223
11203SOL     OW45130   7.253   3.463   0.896
11203SOL    HW245131   7.282   3.530   0.957
11203SOL    HW345132   7.234   3.387   0.951
11203SOL    MW445133   7.255   3.463   0.911
11204SOL     OW45134   6.916   3.530   0.103
11204SOL    HW245135   6.842   3.493   0.153
11204SOL    HW345136   6.924   3.620   0.136
11204SOL    MW445137   6.907   3.537   0.115
11205SOL     OW45138   5.724   2.536   1.192
11205SOL    HW245139   5.786   2.566   1.258
11205SOL    HW345140   5.658   2.605   1.186
11205SOL    MW445141   5.723   2.549   1.199
11206SOL     OW45142   7.140   3.204   0.045
11206SOL    HW245143   7.087   3.253  -0.019
11206SOL    HW345144   7.171   3.270   0.106
11206SOL    MW445145   7.138   3.218   0.043
11207SOL     OW45146   6.365   2.093   0.100
11207SOL    HW245147   6.313   2.013   0.088
11207SOL    HW345148   6.452   2.070   0.068
11207SOL    MW445149   6.368   2.079   0.094
11208SOL     OW45150   5.819   3.645   1.644
11208SOL    HW245151   5.793   3.713   1.582
11208SOL    HW345152   5.867   3.582   1.592
11208SOL    MW445153   5.821   3.645   1.630
11209SOL     OW45154   5.871   2.964   1.151
11209SOL    HW245155   5.924   3.039   1.176
11209SOL    HW345156   5.790   3.002   1.117
11209SOL    MW445157   5.867   2.979   1.151
11210SOL     OW45158   6.411   2.868   1.139
11210SOL    HW245159   6.439   2.777   1.151
11210SOL    HW345160   6.340   2.862   1.075
11210SOL    MW445161   6.404   2.856   1.134
11211SOL     OW45162   5.726   2.733   0.557
11211SOL    HW245163   5.817   2.748   0.584
11211SOL    HW345164   5.729   2.654   0.503
11211SOL    MW445165   5.738   2.725   0.555
11212SOL     OW45166   5.962   2.441   1.811
11212SOL    HW245167   5.909   2.521   1.818
11212SOL    HW345168   6.032   2.453   1.876
11212SOL    MW445169   5.964   2.454   1.819
11213SOL     OW45170   6.348   1.991   1.518
11213SOL    HW245171   6.325   1.899   1.520
11213SOL    HW345172   6.434   1.993   1.475
11213SOL    MW445173   6.355   1.981   1.514
11214SOL     OW45174   6.032   2.515   1.557
11214SOL    HW245175   6.112   2.565   1.543
11214SOL    HW345176   6.023   2.509   1.652
11214SOL    MW445177   6.041   2.521   1.567
11215SOL     OW45178   6.353   3.665   0.931
11215SOL    HW245179   6.442   3.680   0.961
11215SOL    HW345180   6.348   3.712   0.847
11215SOL    MW445181   6.363   3.673   0.924
11216SOL     OW45182   7.009   2.040   1.828
11216SOL    HW245183   7.065   1.967   1.854
11216SOL    HW345184   6.979   2.078   1.910
11216SOL    MW445185   7.013   2.035   1.841
11217SOL     OW45186   5.734   3.345   0.596
11217SOL    HW245187   5.706   3.384   0.678
11217SOL    HW345188   5.754   3.254   0.618
11217SOL    MW445189   5.732   3.337   0.609
11218SOL     OW45190   6.567   3.388   0.631
11218SOL    HW245191   6.650   3.342   0.615
11218SOL    HW345192   6.557   3.387   0.727
11218SOL    MW445193   6.577   3.381   0.641
11219SOL     OW45194   7.399   2.533   0.945
11219SOL    HW245195   7.488   2.563   0.927
11219SOL    HW345196   7.379   2.473   0.874
11219SOL    MW445197   7.408   2.530   0.934
11220SOL     OW45198   7.250   2.712   1.825
11220SOL    HW245199   7.305   2.636   1.806
11220SOL    HW345200   7.252   2.720   1.920
11220SOL    MW445201   7.258   2.703   1.833
11221SOL     OW45202   6.300   3.445   0.036
11221SOL    HW245203   6.240   3.514   0.006
11221SOL    HW345204   6.245   3.387   0.089
11221SOL    MW445205   6.284   3.447   0.038
11222SOL     OW45206   6.738   2.090   0.259
11222SOL    HW245207   6.671   2.066   0.196
11222SOL    HW345208   6.803   2.139   0.208
11222SOL    MW445209   6.738   2.092   0.244
11223SOL     OW45210   6.545   2.274   1.344
11223SOL    HW245211   6.464   2.315   1.372
11223SOL    HW345212   6.592   2.342   1.296
11223SOL    MW445213   6.540   2.289   1.342
11224SOL     OW45214   6.805   2.612   0.967
11224SOL    HW245215   6.818   2.706   0.977
11224SOL    HW345216   6.766   2.602   0.881
11224SOL    MW445217   6.801   2.623   0.957
11225SOL     OW45218   6.257   2.807   0.771
11225SOL    HW245219   6.168   2.798   0.804
11225SOL    HW345220   6.261   2.897   0.739
11225SOL    MW445221   6.246   2.818   0.771
11226SOL     OW45222   7.056   2.390   0.766
11226SOL    HW245223   7.001   2.311   0.765
11226SOL    HW345224   7.038   2.431   0.850
11226SOL    MW445225   7.046   2.385   0.775
11227SOL     OW45226   6.027   2.077   1.583
11227SOL    HW245227   5.948   2.095   1.635
11227SOL    HW345228   6.022   2.139   1.510
11227SOL    MW445229   6.017   2.087   1.580
11228SOL     OW45230   6.675   2.594   0.723
11228SOL    HW245231   6.612   2.526   0.747
11228SOL    HW345232   6.695   2.575   0.631
11228SOL    MW445233   6.669   2.581   0.715
11229SOL     OW45234   5.931   3.489   0.425
11229SOL    HW245235   5.892   3.536   0.351
11229SOL    HW345236   5.865   3.424   0.450
11229SOL    MW445237   5.918   3.487   0.419
11230SOL     OW45238   6.423   2.898   0.449
11230SOL    HW245239   6.425   2.872   0.356
11230SOL    HW345240   6.481   2.835   0.492
11230SOL    MW445241   6.431   2.887   0.443
11231SOL     OW45242   6.976   3.458   1.221
11231SOL    HW245243   6.901   3.504   1.259
11231SOL    HW345244   6.958   3.365   1.238
11231SOL    MW445245   6.965   3.452   1.229
11232SOL     OW45246   6.980   3.666   0.651
11232SOL    HW245247   6.923   3.619   0.590
11232SOL    HW345248   7.066   3.627   0.638
11232SOL    MW445249   6.983   3.657   0.641
11233SOL     OW45250   6.933   2.142   0.782
11233SOL    HW245251   6.961   2.074   0.843
11233SOL    HW345252   6.847   2.113   0.752
11233SOL    MW445253   6.926   2.129   0.786
11234SOL     OW45254   5.738   3.076   0.716
11234SOL    HW245255   5.802   3.108   0.779
11234SOL    HW345256   5.787   3.012   0.664
11234SOL    MW445257   5.753   3.072   0.717
11235SOL     OW45258   6.238   3.152   1.698
11235SOL    HW245259   6.286   3.235   1.685
11235SOL    HW345260   6.295   3.100   1.754
11235SOL    MW445261   6.252   3.156   1.704
11236SOL     OW45262   5.814   3.394   1.838
11236SOL    HW245263   5.870   3.318   1.853
11236SOL    HW345264   5.763   3.372   1.760
11236SOL    MW445265   5.814   3.381   1.829
11237SOL     OW45266   6.913   2.246   0.117
11237SOL    HW245267   6.886   2.312   0.053
11237SOL    HW345268   6.983   2.289   0.167
11237SOL    MW445269   6.918   2.259   0.114
11238SOL     OW45270   6.581   1.951   0.054
11238SOL    HW245271   6.637   1.943  -0.024
11238SOL    HW345272   6.558   1.861   0.076
11238SOL    MW445273   6.586   1.938   0.047
11239SOL     OW45274   7.086   2.802   0.259
11239SOL    HW245275   7.053   2.891   0.249
11239SOL    HW345276   7.051   2.773   0.344
11239SOL    MW445277   7.076   2.811   0.270
11240SOL     OW45278   6.699   3.231   1.447
11240SOL    HW245279   6.610   3.237   1.415
11240SOL    HW345280   6.743   3.310   1.415
11240SOL    MW445281   6.694   3.241   1.439
11241SOL     OW45282   5.992   1.899   1.789
11241SOL    HW245283   5.920   1.864   1.737
11241SOL    HW345284   6.050   1.940   1.724
11241SOL    MW445285   5.990   1.900   1.774
11242SOL     OW45286   6.016   3.389   1.088
11242SOL    HW245287   6.061   3.451   1.145
11242SOL    HW345288   5.923   3.408   1.101
11242SOL    MW445289   6.009   3.399   1.095
11243SOL     OW45290   7.456   2.918   1.442
11243SOL    HW245291   7.371   2.931   1.401
11243SOL    HW345292   7.436   2.882   1.529
11243SOL    MW445293   7.443   2.914   1.447
11244SOL     OW45294   6.438   3.457   1.196
11244SOL    HW245295   6.462   3.446   1.105
11244SOL    HW345296   6.361   3.514   1.194
11244SOL    MW445297   6.430   3.462   1.185
11245SOL     OW45298   6.080   2.840   0.051
11245SOL    HW245299   6.003   2.853   0.107
11245SOL    HW345300   6.044   2.804  -0.030
11245SOL    MW445301   6.066   2.836   0.048
11246SOL     OW45302   6.733   2.813   0.294
11246SOL    HW245303   6.643   2.834   0.269
11246SOL    HW345304   6.760   2.886   0.350
11246SOL    MW445305   6.725   2.825   0.297
11247SOL     OW45306   6.233   3.162   0.986
11247SOL    HW245307   6.226   3.141   1.080
11247SOL    HW345308   6.151   3.130   0.949
11247SOL    MW445309   6.221   3.156   0.993
11248SOL     OW45310   7.097   2.172   1.388
11248SOL    HW245311   7.044   2.174   1.468
11248SOL    HW345312   7.082   2.085   1.351
11248SOL    MW445313   7.089   2.162   1.393
11249SOL     OW45314   7.433   2.096   1.261
11249SOL    HW245315   7.414   2.163   1.196
11249SOL    HW345316   7.490   2.034   1.216
11249SOL    MW445317   7.437   2.097   1.247
11250SOL     OW45318   5.679   3.254   1.649
11250SOL    HW245319   5.723   3.187   1.595
11250SOL    HW345320   5.594   3.216   1.669
11250SOL    MW445321   5.674   3.240   1.645
11251SOL     OW45322   6.362   1.929   0.701
11251SOL    HW245323   6.291   1.990   0.683
11251SOL    HW345324   6.413   1.926   0.620
11251SOL    MW445325   6.358   1.935   0.688
11252SOL     OW45326   6.120   3.169   0.450
11252SOL    HW245327   6.113   3.201   0.540
11252SOL    HW345328   6.030   3.153   0.422
11252SOL    MW445329   6.108   3.171   0.457
11253SOL     OW45330   6.715   3.562   1.359
11253SOL    HW245331   6.635   3.547   1.309
11253SOL    HW345332   6.722   3.657   1.366
11253SOL    MW445333   6.706   3.573   1.353
11254SOL     OW45334   6.829   3.527   0.849
11254SOL    HW245335   6.876   3.600   0.808
11254SOL    HW345336   6.750   3.566   0.885
11254SOL    MW445337   6.824   3.542   0.848
11255SOL     OW45338   7.237   3.622   1.124
11255SOL    HW245339   7.280   3.592   1.204
11255SOL    HW345340   7.156   3.570   1.121
11255SOL    MW445341   7.232   3.611   1.134
11256SOL     OW45342   6.322   2.586   1.831
11256SOL    HW245343   6.392   2.528   1.803
11256SOL    HW345344   6.265   2.531   1.886
11256SOL    MW445345   6.324   2.573   1.835
11257SOL     OW45346   7.109   2.798   1.464
11257SOL    HW245347   7.114   2.851   1.544
11257SOL    HW345348   7.071   2.715   1.492
11257SOL    MW445349   7.105   2.793   1.479
11258SOL     OW45350   6.749   1.933   1.710
11258SOL    HW245351   6.744   1.840   1.691
11258SOL    HW345352   6.832   1.944   1.756
11258SOL    MW445353   6.757   1.922   1.714
11259SOL     OW45354   6.123   2.453   0.164
11259SOL    HW245355   6.089   2.509   0.234
11259SOL    HW345356   6.194   2.403   0.204
11259SOL    MW445357   6.129   2.454   0.178
11260SOL     OW45358   7.219   3.204   0.986
11260SOL    HW245359   7.254   3.186   0.899
11260SOL    HW345360   7.124   3.205   0.973
11260SOL    MW445361   7.211   3.201   0.973
11261SOL     OW45362   6.648   2.852   1.355
11261SOL    HW245363   6.691   2.887   1.433
11261SOL    HW345364   6.631   2.929   1.301
11261SOL    MW445365   6.651   2.867   1.358
11262SOL     OW45366   7.179   2.339   0.228
11262SOL    HW245367   7.171   2.410   0.165
11262SOL    HW345368   7.197   2.383   0.311
11262SOL    MW445369   7.180   2.353   0.230
11263SOL     OW45370   6.039   1.994   0.657
11263SOL    HW245371   6.089   2.037   0.588
11263SOL    HW345372   5.954   2.038   0.657
11263SOL    MW445373   6.036   2.007   0.648
11264SOL     OW45374   5.798   3.056   1.517
11264SOL    HW245375   5.826   3.009   1.595
11264SOL    HW345376   5.719   3.011   1.488
11264SOL    MW445377   5.791   3.045   1.523
11265SOL     OW45378   6.306   2.383   1.484
11265SOL    HW245379   6.278   2.471   1.508
11265SOL    HW345380   6.275   2.327   1.555
11265SOL    MW445381   6.298   2.386   1.496
11266SOL     OW45382   6.848   2.601   0.203
11266SOL    HW245383   6.895   2.619   0.122
11266SOL    HW345384   6.814   2.685   0.231
11266SOL    MW445385   6.850   2.615   0.196
11267SOL     OW45386   5.961   2.779   0.697
11267SOL    HW245387   6.019   2.835   0.645
11267SOL    HW345388   6.005   2.694   0.699
11267SOL    MW445389   5.974   2.776   0.690
11268SOL     OW45390   7.101   2.131   0.534
11268SOL    HW245391   7.023   2.081   0.559
11268SOL    HW345392   7.072   2.222   0.534
11268SOL    MW445393   7.087   2.135   0.537
11269SOL     OW45394   6.687   2.093   0.693
11269SOL    HW245395   6.707   2.168   0.637
11269SOL    HW345396   6.667   2.132   0.778
11269SOL    MW445397   6.688   2.109   0.697
11270SOL     OW45398   6.583   3.343   0.025
11270SOL    HW245399   6.610   3.421  -0.023
11270SOL    HW345400   6.490   3.358   0.044
11270SOL    MW445401   6.574   3.356   0.021
11271SOL     OW45402   7.447   2.866   1.712
11271SOL    HW245403   7.360   2.846   1.748
11271SOL    HW345404   7.501   2.792   1.737
11271SOL    MW445405   7.442   2.855   1.720
11272SOL     OW45406   5.668   3.379   0.869
11272SOL    HW245407   5.700   3.383   0.960
11272SOL    HW345408   5.573   3.387   0.877
11272SOL    MW445409   5.660   3.382   0.882
11273SOL     OW45410   5.623   2.505   0.416
11273SOL    HW245411   5.563   2.477   0.486
11273SOL    HW345412   5.697   2.445   0.422
11273SOL    MW445413   5.625   2.494   0.425
11274SOL     OW45414   7.191   3.717   1.850
11274SOL    HW245415   7.236   3.641   1.815
11274SOL    HW345416   7.229   3.730   1.937
11274SOL    MW445417   7.201   3.710   1.856
11275SOL     OW45418   6.791   3.236   0.576
11275SOL    HW245419   6.814   3.187   0.654
11275SOL    HW345420   6.872   3.278   0.548
11275SOL    MW445421   6.804   3.236   0.583
11276SOL     OW45422   6.049   2.244   1.305
11276SOL    HW245423   6.082   2.325   1.345
11276SOL    HW345424   6.022   2.270   1.217
11276SOL    MW445425   6.048   2.258   1.299
11277SOL     OW45426   6.003   2.211   1.041
11277SOL    HW245427   6.033   2.125   1.012
11277SOL    HW345428   5.908   2.204   1.044
11277SOL    MW445429   5.995   2.200   1.039
11278SOL     OW45430   6.832   2.420   1.732
11278SOL    HW245431   6.884   2.355   1.685
11278SOL    HW345432   6.790   2.471   1.662
11278SOL    MW445433   6.833   2.417   1.715
11279SOL     OW45434   6.931   2.215   1.593
11279SOL    HW245435   6.838   2.199   1.580
11279SOL    HW345436   6.957   2.153   1.661
11279SOL    MW445437   6.921   2.205   1.600
11280SOL     OW45438   6.146   1.989   0.932
11280SOL    HW245439   6.156   1.898   0.958
11280SOL    HW345440   6.102   1.985   0.847
11280SOL    MW445441   6.142   1.977   0.924
11281SOL     OW45442   6.240   3.604   1.478
11281SOL    HW245443   6.157   3.589   1.523
11281SOL    HW345444   6.299   3.537   1.513
11281SOL    MW445445   6.238   3.594   1.488
11282SOL     OW45446   7.297   2.311   1.103
11282SOL    HW245447   7.230   2.344   1.163
11282SOL    HW345448   7.340   2.389   1.069
11282SOL    MW445449   7.295   2.326   1.107
11283SOL     OW45450   7.475   3.031   1.073
11283SOL    HW245451   7.468   2.971   0.998
11283SOL    HW345452   7.401   3.091   1.062
11283SOL    MW445453   7.465   3.031   1.062
11284SOL     OW45454   6.857   2.893   0.991
11284SOL    HW245455   6.871   2.865   1.082
11284SOL    HW345456   6.943   2.924   0.963
11284SOL    MW445457   6.870   2.894   1.000
11285SOL     OW45458   6.940   2.388   1.270
11285SOL    HW245459   6.961   2.389   1.177
11285SOL    HW345460   6.985   2.310   1.303
11285SOL    MW445461   6.947   2.378   1.262
11286SOL     OW45462   7.433   2.519   1.812
11286SOL    HW245463   7.470   2.464   1.881
11286SOL    HW345464   7.458   2.476   1.730
11286SOL    MW445465   7.440   2.507   1.811
11287SOL     OW45466   6.980   2.817   1.863
11287SOL    HW245467   7.046   2.765   1.817
11287SOL    HW345468   7.000   2.804   1.956
11287SOL    MW445469   6.991   2.808   1.870
11288SOL     OW45470   6.931   1.903   0.212
11288SOL    HW245471   7.005   1.947   0.255
11288SOL    HW345472   6.855   1.957   0.234
11288SOL    MW445473   6.931   1.915   0.220
11289SOL     OW45474   6.991   2.678   0.490
11289SOL    HW245475   6.906   2.648   0.460
11289SOL    HW345476   6.983   2.685   0.585
11289SOL    MW445477   6.979   2.676   0.499
11290SOL     OW45478   6.067   3.141   1.221
11290SOL    HW245479   6.079   3.168   1.312
11290SOL    HW345480   6.048   3.222   1.174
11290SOL    MW445481   6.066   3.156   1.226
11291SOL     OW45482   6.351   2.121   1.044
11291SOL    HW245483   6.324   2.123   1.135
11291SOL    HW345484   6.281   2.073   0.999
11291SOL    MW445485   6.339   2.117   1.051
11292SOL     OW45486   6.205   3.613   1.206
11292SOL    HW245487   6.257   3.690   1.183
11292SOL    HW345488   6.214   3.605   1.301
11292SOL    MW445489   6.214   3.620   1.217
11293SOL     OW45490   7.107   3.198   1.438
11293SOL    HW245491   7.092   3.127   1.501
11293SOL    HW345492   7.153   3.156   1.366
11293SOL    MW445493   7.113   3.182   1.438
11294SOL     OW45494   6.181   2.929   1.555
11294SOL    HW245495   6.218   2.934   1.467
11294SOL    HW345496   6.220   3.002   1.602
11294SOL    MW445497   6.191   2.939   1.550
11295SOL     OW45498   6.361   2.972   1.367
11295SOL    HW245499   6.420   2.918   1.420
11295SOL    HW345500   6.376   2.944   1.277
11295SOL    MW445501   6.371   2.961   1.363
11296SOL     OW45502   6.364   2.344   0.216
11296SOL    HW245503   6.437   2.393   0.179
11296SOL    HW345504   6.380   2.253   0.190
11296SOL    MW445505   6.376   2.339   0.209
11297SOL     OW45506   7.172   3.461   1.539
11297SOL    HW245507   7.214   3.446   1.624
11297SOL    HW345508   7.163   3.374   1.501
11297SOL    MW445509   7.176   3.449   1.546
11298SOL     OW45510   6.832   1.940   1.130
11298SOL    HW245511   6.887   1.949   1.052
11298SOL    HW345512   6.887   1.974   1.201
11298SOL    MW445513   6.846   1.945   1.129
11299SOL     OW45514   5.839   2.853   0.314
11299SOL    HW245515   5.776   2.869   0.243
11299SOL    HW345516   5.786   2.816   0.385
11299SOL    MW445517   5.824   2.850   0.314
11300SOL     OW45518   6.195   3.207   0.173
11300SOL    HW245519   6.210   3.183   0.265
11300SOL    HW345520   6.103   3.185   0.157
11300SOL    MW445521   6.185   3.200   0.183
11301SOL     OW45522   6.734   3.438   0.325
11301SOL    HW245523   6.742   3.356   0.276
11301SOL    HW345524   6.653   3.477   0.292
11301SOL    MW445525   6.724   3.433   0.315
11302SOL     OW45526   5.993   3.596   0.894
11302SOL    HW245527   5.997   3.507   0.929
11302SOL    HW345528   6.019   3.587   0.803
11302SOL    MW445529   5.996   3.584   0.886
11303SOL     OW45530   6.610   3.074   1.137
11303SOL    HW245531   6.542   3.008   1.153
11303SOL    HW345532   6.628   3.068   1.044
11303SOL    MW445533   6.603   3.065   1.128
11304SOL     OW45534   5.699   3.349   1.388
11304SOL    HW245535   5.689   3.307   1.474
11304SOL    HW345536   5.620   3.402   1.378
11304SOL    MW445537   5.688   3.350   1.399
11305SOL     OW45538   6.603   2.213   0.958
11305SOL    HW245539   6.533   2.165   1.003
11305SOL    HW345540   6.635   2.276   1.022
11305SOL    MW445541   6.598   2.215   0.972
11306SOL     OW45542   6.254   2.649   1.578
11306SOL    HW245543   6.247   2.744   1.566
11306SOL    HW345544   6.263   2.638   1.673
11306SOL    MW445545   6.255   2.661   1.588
11307SOL     OW45546   5.975   3.164   1.836
11307SOL    HW245547   6.047   3.166   1.773
11307SOL    HW345548   5.945   3.073   1.835
11307SOL    MW445549   5.980   3.153   1.828
11308SOL     OW45550   7.059   1.927   1.303
11308SOL    HW245551   7.130   1.873   1.267
11308SOL    HW345552   7.058   1.906   1.396
11308SOL    MW445553   7.068   1.918   1.311
11309SOL     OW45554   7.259   3.457   1.787
11309SOL    HW245555   7.232   3.454   1.878
11309SOL    HW345556   7.355   3.461   1.790
11309SOL    MW445557   7.269   3.457   1.799
11310SOL     OW45558   6.070   2.319   0.771
11310SOL    HW245559   6.141   2.267   0.734
11310SOL    HW345560   6.056   2.284   0.858
11310SOL    MW445561   6.078   2.308   0.778
11311SOL     OW45562   5.625   3.654   1.843
11311SOL    HW245563   5.675   3.632   1.765
11311SOL    HW345564   5.633   3.749   1.851
11311SOL    MW445565   5.633   3.663   1.834
11312SOL     OW45566   6.386   3.412   0.847
11312SOL    HW245567   6.314   3.349   0.860
11312SOL    HW345568   6.347   3.497   0.865
11312SOL    MW445569   6.370   3.415   0.850
11313SOL     OW45570   6.706   2.260   0.495
11313SOL    HW245571   6.728   2.197   0.427
11313SOL    HW345572   6.611   2.252   0.506
11313SOL    MW445573   6.696   2.251   0.487
11314SOL     OW45574   5.791   1.950   0.427
11314SOL    HW245575   5.862   1.971   0.366
11314SOL    HW345576   5.745   1.878   0.385
11314SOL    MW445577   5.795   1.944   0.413
11315SOL     OW45578   5.622   2.417   1.570
11315SOL    HW245579   5.686   2.483   1.545
11315SOL    HW345580   5.541   2.444   1.527
11315SOL    MW445581   5.620   2.429   1.562
11316SOL     OW45582   7.360   3.324   0.527
11316SOL    HW245583   7.330   3.257   0.588
11316SOL    HW345584   7.454   3.330   0.541
11316SOL    MW445585   7.368   3.316   0.537
11317SOL     OW45586   6.916   3.001   0.457
11317SOL    HW245587   6.888   3.087   0.490
11317SOL    HW345588   6.944   3.017   0.367
11317SOL    MW445589   6.916   3.015   0.449
11318SOL     OW45590   6.578   1.921   0.510
11318SOL    HW245591   6.615   1.980   0.575
11318SOL    HW345592   6.555   1.977   0.436
11318SOL    MW445593   6.579   1.936   0.509
11319SOL     OW45594   7.431   2.803   0.932
11319SOL    HW245595   7.422   2.835   0.843
11319SOL    HW345596   7.384   2.719   0.932
11319SOL    MW445597   7.424   2.796   0.922
11320SOL     OW45598   5.807   2.643   1.511
11320SOL    HW245599   5.828   2.712   1.449
11320SOL    HW345600   5.887   2.590   1.516
11320SOL    MW445601   5.820   2.644   1.505
11321SOL     OW45602   7.343   2.734   0.633
11321SOL    HW245603   7.437   2.723   0.621
11321SOL    HW345604   7.319   2.806   0.574
11321SOL    MW445605   7.353   2.742   0.624
11322SOL     OW45606   5.792   2.658   1.778
11322SOL    HW245607   5.718   2.602   1.804
11322SOL    HW345608   5.787   2.661   1.683
11322SOL    MW445609   5.781   2.651   1.768
11323SOL     OW45610   5.958   1.945   1.228
11323SOL    HW245611   6.001   2.029   1.248
11323SOL    HW345612   6.031   1.883   1.221
11323SOL    MW445613   5.973   1.948   1.229
11324SOL     OW45614   5.999   2.612   0.406
11324SOL    HW245615   5.999   2.707   0.391
11324SOL    HW345616   6.076   2.596   0.460
11324SOL    MW445617   6.009   2.623   0.411
11325SOL     OW45618   6.775   2.471   1.470
11325SOL    HW245619   6.811   2.444   1.386
11325SOL    HW345620   6.688   2.505   1.449
11325SOL    MW445621   6.769   2.472   1.457
11326SOL     OW45622   5.758   2.343   0.695
11326SOL    HW245623   5.820   2.350   0.768
11326SOL    HW345624   5.758   2.250   0.672
11326SOL    MW445625   5.766   2.332   0.702
11327SOL     OW45626   7.305   3.683   0.227
11327SOL    HW245627   7.372   3.716   0.167
11327SOL    HW345628   7.262   3.762   0.261
11327SOL    MW445629   7.307   3.698   0.223
11328SOL     OW45630   6.440   2.604   1.179
11328SOL    HW245631   6.398   2.522   1.155
11328SOL    HW345632   6.441   2.603   1.275
11328SOL    MW445633   6.433   2.593   1.188
11329SOL     OW45634   7.111   3.737   1.578
11329SOL    HW245635   7.114   3.643   1.561
11329SOL    HW345636   7.134   3.745   1.670
11329SOL    MW445637   7.114   3.725   1.588
11330SOL     OW45638   6.244   2.074   1.284
11330SOL    HW245639   6.175   2.137   1.305
11330SOL    HW345640   6.271   2.038   1.369
11330SOL    MW445641   6.238   2.077   1.297
11331SOL     OW45642   5.627   2.915   0.153
11331SOL    HW245643   5.596   2.980   0.216
11331SOL    HW345644   5.576   2.837   0.172
11331SOL    MW445645   5.617   2.912   0.163
11332SOL     OW45646   7.039   1.927   0.901
11332SOL    HW245647   7.127   1.936   0.938
11332SOL    HW345648   7.049   1.868   0.827
11332SOL    MW445649   7.053   1.921   0.895
11333SOL     OW45650   7.071   2.666   0.745
11333SOL    HW245651   7.151   2.681   0.694
11333SOL    HW345652   7.064   2.571   0.751
11333SOL    MW445653   7.080   2.655   0.740
11334SOL     OW45654   6.211   3.715   0.095
11334SOL    HW245655   6.116   3.715   0.087
11334SOL    HW345656   6.227   3.661   0.173
11334SOL    MW445657   6.201   3.709   0.104
11335SOL     OW45658   6.521   2.592   1.442
11335SOL    HW245659   6.590   2.659   1.439
11335SOL    HW345660   6.454   2.630   1.498
11335SOL    MW445661   6.522   2.605   1.449
11336SOL     OW45662   5.939   2.892   1.690
11336SOL    HW245663   5.893   2.808   1.692
11336SOL    HW345664   5.996   2.886   1.614
11336SOL    MW445665   5.941   2.880   1.682
11337SOL     OW45666   7.056   2.535   0.011
11337SOL    HW245667   6.984   2.511  -0.047
11337SOL    HW345668   7.122   2.572  -0.047
11337SOL    MW445669   7.055   2.537  -0.004
11338SOL     OW45670   6.190   3.267   0.691
11338SOL    HW245671   6.255   3.200   0.712
11338SOL    HW345672   6.242   3.344   0.668
11338SOL    MW445673   6.205   3.269   0.690
11339SOL     OW45674   6.451   2.432   0.821
11339SOL    HW245675   6.391   2.450   0.893
11339SOL    HW345676   6.485   2.344   0.840
11339SOL    MW445677   6.447   2.422   0.834
11340SOL     OW45678   7.392   1.931   1.490
11340SOL    HW245679   7.313   1.977   1.518
11340SOL    HW345680   7.427   1.985   1.419
11340SOL    MW445681   7.386   1.944   1.484
11341SOL     OW45682   6.676   3.015   0.840
11341SOL    HW245683   6.768   2.996   0.858
11341SOL    HW345684   6.649   2.945   0.780
11341SOL    MW445685   6.684   3.003   0.834
11342SOL     OW45686   6.469   2.835   0.195
11342SOL    HW245687   6.455   2.747   0.160
11342SOL    HW345688   6.420   2.892   0.136
11342SOL    MW445689   6.461   2.830   0.183
11343SOL     OW45690   6.950   3.253   0.936
11343SOL    HW245691   6.923   3.337   0.901
11343SOL    HW345692   6.910   3.248   1.023
11343SOL    MW445693   6.943   3.262   0.942
11344SOL     OW45694   6.869   3.201   1.204
11344SOL    HW245695   6.880   3.168   1.293
11344SOL    HW345696   6.788   3.160   1.173
11344SOL    MW445697   6.859   3.193   1.210
11345SOL     OW45698   5.882   2.559   0.974
11345SOL    HW245699   5.832   2.558   1.055
11345SOL    HW345700   5.902   2.651   0.958
11345SOL    MW445701   5.878   2.571   0.982
11346SOL     OW45702   6.949   3.323   1.736
11346SOL    HW245703   6.949   3.417   1.752
11346SOL    HW345704   6.994   3.313   1.652
11346SOL    MW445705   6.955   3.333   1.727
11347SOL     OW45706   7.188   2.041   0.297
11347SOL    HW245707   7.181   2.045   0.392
11347SOL    HW345708   7.200   2.132   0.270
11347SOL    MW445709   7.189   2.054   0.305
11348SOL     OW45710   6.477   2.604   0.411
11348SOL    HW245711   6.457   2.590   0.318
11348SOL    HW345712   6.570   2.583   0.418
11348SOL    MW445713   6.487   2.599   0.400
11349SOL     OW45714   5.804   2.227   1.715
11349SOL    HW245715   5.761   2.286   1.652
11349SOL    HW345716   5.872   2.282   1.755
11349SOL    MW445717   5.808   2.242   1.712
11350SOL     OW45718   6.916   2.847   1.260
11350SOL    HW245719   6.979   2.844   1.333
11350SOL    HW345720   6.832   2.865   1.302
11350SOL    MW445721   6.912   2.849   1.275
11351SOL     OW45722   6.460   3.562   0.449
11351SOL    HW245723   6.518   3.633   0.476
11351SOL    HW345724   6.483   3.490   0.507
11351SOL    MW445725   6.471   3.562   0.460
11352SOL     OW45726   7.255   2.024   1.039
11352SOL    HW245727   7.300   1.942   1.058
11352SOL    HW345728   7.275   2.080   1.115
11352SOL    MW445729   7.265   2.020   1.051
11353SOL     OW45730   5.703   1.867   1.138
11353SOL    HW245731   5.694   1.868   1.043
11353SOL    HW345732   5.797   1.879   1.153
11353SOL    MW445733   5.715   1.870   1.129
11354SOL     OW45734   7.340   3.060   0.758
11354SOL    HW245735   7.319   3.006   0.681
11354SOL    HW345736   7.436   3.058   0.762
11354SOL    MW445737   7.349   3.053   0.747
11355SOL     OW45738   6.032   3.205   1.501
11355SOL    HW245739   5.953   3.155   1.524
11355SOL    HW345740   6.102   3.164   1.551
11355SOL    MW445741   6.030   3.193   1.511
11356SOL     OW45742   5.916   1.994   0.184
11356SOL    HW245743   5.845   2.049   0.152
11356SOL    HW345744   5.958   1.960   0.105
11356SOL    MW445745   5.912   1.996   0.170
11357SOL     OW45746   7.040   2.491   1.020
11357SOL    HW245747   6.963   2.537   0.986
11357SOL    HW345748   7.097   2.560   1.054
11357SOL    MW445749   7.037   2.506   1.020
11358SOL     OW45750   5.672   2.093   0.033
11358SOL    HW245751   5.639   2.172   0.077
11358SOL    HW345752   5.727   2.126  -0.038
11358SOL    MW445753   5.675   2.107   0.030
11359SOL     OW45754   5.706   3.350   0.222
11359SOL    HW245755   5.723   3.434   0.264
11359SOL    HW345756   5.741   3.359   0.134
11359SOL    MW445757   5.711   3.363   0.216
11360SOL     OW45758   6.978   3.439   0.439
11360SOL    HW245759   7.041   3.429   0.368
11360SOL    HW345760   6.895   3.459   0.394
11360SOL    MW445761   6.975   3.440   0.424
11361SOL     OW45762   7.341   2.707   2.125
11361SOL    HW245763   7.382   2.649   2.190
11361SOL    HW345764   7.248   2.699   2.142
11361SOL    MW445765   7.335   2.699   2.135
11362SOL     OW45766   7.207   2.639   3.120
11362SOL    HW245767   7.162   2.706   3.171
11362SOL    HW345768   7.295   2.675   3.106
11362SOL    MW445769   7.213   2.652   3.124
11363SOL     OW45770   6.135   2.890   2.354
11363SOL    HW245771   6.225   2.865   2.338
11363SOL    HW345772   6.131   2.983   2.331
11363SOL    MW445773   6.147   2.899   2.349
11364SOL     OW45774   7.251   3.593   2.496
11364SOL    HW245775   7.263   3.539   2.574
11364SOL    HW345776   7.288   3.541   2.425
11364SOL    MW445777   7.257   3.578   2.497
11365SOL     OW45778   6.630   3.478   3.497
11365SOL    HW245779   6.671   3.514   3.418
11365SOL    HW345780   6.665   3.389   3.504
11365SOL    MW445781   6.641   3.471   3.488
11366SOL     OW45782   7.187   3.033   3.101
11366SOL    HW245783   7.108   2.998   3.059
11366SOL    HW345784   7.214   3.105   3.045
11366SOL    MW445785   7.180   3.038   3.088
11367SOL     OW45786   6.419   2.346   2.367
11367SOL    HW245787   6.394   2.434   2.395
11367SOL    HW345788   6.416   2.349   2.271
11367SOL    MW445789   6.415   2.358   2.359
11368SOL     OW45790   5.861   2.374   2.295
11368SOL    HW245791   5.893   2.462   2.277
11368SOL    HW345792   5.849   2.372   2.390
11368SOL    MW445793   5.864   2.386   2.307
11369SOL     OW45794   5.939   2.787   3.196
11369SOL    HW245795   6.002   2.734   3.147
11369SOL    HW345796   5.920   2.861   3.139
11369SOL    MW445797   5.945   2.789   3.183
11370SOL     OW45798   6.260   2.129   2.382
11370SOL    HW245799   6.318   2.205   2.384
11370SOL    HW345800   6.195   2.150   2.315
11370SOL    MW445801   6.259   2.141   2.373
11371SOL     OW45802   6.347   3.056   2.557
11371SOL    HW245803   6.427   3.059   2.609
11371SOL    HW345804   6.375   3.023   2.471
11371SOL    MW445805   6.361   3.052   2.552
11372SOL     OW45806   6.372   3.397   3.460
11372SOL    HW245807   6.456   3.423   3.499
11372SOL    HW345808   6.396   3.341   3.386
11372SOL    MW445809   6.386   3.393   3.455
11373SOL     OW45810   6.124   2.560   2.548
11373SOL    HW245811   6.109   2.480   2.599
11373SOL    HW345812   6.206   2.595   2.582
11373SOL    MW445813   6.132   2.552   2.560
11374SOL     OW45814   6.461   3.246   3.233
11374SOL    HW245815   6.425   3.312   3.173
11374SOL    HW345816   6.389   3.184   3.246
11374SOL    MW445817   6.447   3.246   3.227
11375SOL     OW45818   6.266   2.386   2.925
11375SOL    HW245819   6.172   2.382   2.943
11375SOL    HW345820   6.296   2.295   2.934
11375SOL    MW445821   6.257   2.374   2.928
11376SOL     OW45822   6.012   2.800   2.829
11376SOL    HW245823   5.967   2.807   2.745
11376SOL    HW345824   5.992   2.883   2.873
11376SOL    MW445825   6.004   2.812   2.823
11377SOL     OW45826   5.709   3.646   2.704
11377SOL    HW245827   5.798   3.638   2.739
11377SOL    HW345828   5.673   3.558   2.709
11377SOL    MW445829   5.716   3.633   2.709
11378SOL     OW45830   6.974   3.038   2.073
11378SOL    HW245831   6.892   3.074   2.039
11378SOL    HW345832   7.042   3.081   2.022
11378SOL    MW445833   6.972   3.048   2.061
11379SOL     OW45834   5.973   3.173   2.739
11379SOL    HW245835   5.949   3.226   2.815
11379SOL    HW345836   6.029   3.231   2.687
11379SOL    MW445837   5.977   3.188   2.742
11380SOL     OW45838   6.535   2.817   2.549
11380SOL    HW245839   6.449   2.804   2.589
11380SOL    HW345840   6.588   2.744   2.581
11380SOL    MW445841   6.531   2.806   2.558
11381SOL     OW45842   5.943   3.469   3.334
11381SOL    HW245843   5.851   3.445   3.319
11381SOL    HW345844   5.987   3.386   3.351
11381SOL    MW445845   5.937   3.454   3.333
11382SOL     OW45846   6.526   3.179   2.266
11382SOL    HW245847   6.503   3.241   2.334
11382SOL    HW345848   6.483   3.097   2.292
11382SOL    MW445849   6.518   3.175   2.277
11383SOL     OW45850   7.399   2.180   2.722
11383SOL    HW245851   7.336   2.160   2.791
11383SOL    HW345852   7.389   2.109   2.659
11383SOL    MW445853   7.389   2.167   2.723
11384SOL     OW45854   6.023   2.152   2.234
11384SOL    HW245855   5.997   2.114   2.150
11384SOL    HW345856   5.960   2.222   2.250
11384SOL    MW445857   6.012   2.155   2.225
11385SOL     OW45858   5.858   3.113   2.271
11385SOL    HW245859   5.806   3.181   2.227
11385SOL    HW345860   5.855   3.039   2.211
11385SOL    MW445861   5.850   3.112   2.258
11386SOL     OW45862   6.520   3.576   2.049
11386SOL    HW245863   6.475   3.592   2.132
11386SOL    HW345864   6.451   3.541   1.991
11386SOL    MW445865   6.506   3.573   2.051
11387SOL     OW45866   7.455   2.349   2.024
11387SOL    HW245867   7.364   2.351   2.052
11387SOL    HW345868   7.500   2.411   2.082
11387SOL    MW445869   7.448   2.357   2.034
11388SOL     OW45870   7.200   2.952   2.374
11388SOL    HW245871   7.110   2.952   2.409
11388SOL    HW345872   7.193   2.998   2.291
11388SOL    MW445873   7.187   2.958   2.368
11389SOL     OW45874   7.000   2.587   3.446
11389SOL    HW245875   7.069   2.525   3.423
11389SOL    HW345876   6.925   2.561   3.393
11389SOL    MW445877   7.000   2.574   3.437
11390SOL     OW45878   5.741   3.467   2.998
11390SOL    HW245879   5.724   3.413   3.075
11390SOL    HW345880   5.729   3.557   3.028
11390SOL    MW445881   5.738   3.471   3.012
11391SOL     OW45882   6.736   2.974   3.438
11391SOL    HW245883   6.721   3.067   3.423
11391SOL    HW345884   6.831   2.964   3.438
11391SOL    MW445885   6.745   2.984   3.435
11392SOL     OW45886   6.532   2.398   3.639
11392SOL    HW245887   6.622   2.399   3.606
11392SOL    HW345888   6.491   2.323   3.597
11392SOL    MW445889   6.538   2.388   3.630
11393SOL     OW45890   7.107   2.930   2.766
11393SOL    HW245891   7.110   2.864   2.697
11393SOL    HW345892   7.192   2.973   2.762
11393SOL    MW445893   7.119   2.926   2.757
11394SOL     OW45894   6.727   2.533   2.335
11394SOL    HW245895   6.753   2.557   2.246
11394SOL    HW345896   6.709   2.440   2.331
11394SOL    MW445897   6.729   2.525   2.322
11395SOL     OW45898   7.392   3.153   2.186
11395SOL    HW245899   7.348   3.194   2.261
11395SOL    HW345900   7.449   3.221   2.151
11395SOL    MW445901   7.394   3.167   2.191
11396SOL     OW45902   6.312   2.202   3.589
11396SOL    HW245903   6.322   2.128   3.529
11396SOL    HW345904   6.348   2.171   3.672
11396SOL    MW445905   6.318   2.188   3.591
11397SOL     OW45906   6.048   3.569   2.504
11397SOL    HW245907   6.080   3.657   2.482
11397SOL    HW345908   6.001   3.541   2.426
11397SOL    MW445909   6.047   3.577   2.491
11398SOL     OW45910   7.432   1.931   2.553
11398SOL    HW245911   7.486   1.882   2.615
11398SOL    HW345912   7.375   1.865   2.514
11398SOL    MW445913   7.432   1.915   2.555
11399SOL     OW45914   5.764   3.629   2.081
11399SOL    HW245915   5.793   3.719   2.073
11399SOL    HW345916   5.714   3.612   2.002
11399SOL    MW445917   5.762   3.637   2.070
11400SOL     OW45918   6.551   1.884   2.966
11400SOL    HW245919   6.510   1.962   2.928
11400SOL    HW345920   6.645   1.902   2.961
11400SOL    MW445921   6.557   1.896   2.961
11401SOL     OW45922   7.168   3.437   2.052
11401SOL    HW245923   7.216   3.506   2.098
11401SOL    HW345924   7.089   3.481   2.021
11401SOL    MW445925   7.163   3.451   2.055
11402SOL     OW45926   6.566   2.562   1.996
11402SOL    HW245927   6.568   2.509   1.917
11402SOL    HW345928   6.654   2.599   2.002
11402SOL    MW445929   6.578   2.561   1.985
11403SOL     OW45930   7.180   2.488   2.332
11403SOL    HW245931   7.219   2.488   2.419
11403SOL    HW345932   7.121   2.564   2.332
11403SOL    MW445933   7.177   2.499   2.343
11404SOL     OW45934   6.497   2.855   3.461
11404SOL    HW245935   6.474   2.835   3.551
11404SOL    HW345936   6.582   2.899   3.466
11404SOL    MW445937   6.504   2.858   3.473
11405SOL     OW45938   6.577   1.992   3.221
11405SOL    HW245939   6.583   1.954   3.134
11405SOL    HW345940   6.566   2.086   3.206
11405SOL    MW445941   6.578   2.000   3.209
11406SOL     OW45942   6.666   2.481   3.055
11406SOL    HW245943   6.741   2.510   3.002
11406SOL    HW345944   6.598   2.546   3.039
11406SOL    MW445945   6.667   2.493   3.045
11407SOL     OW45946   7.216   2.449   3.332
11407SOL    HW245947   7.197   2.358   3.311
11407SOL    HW345948   7.194   2.498   3.253
11407SOL    MW445949   7.211   2.442   3.319
11408SOL     OW45950   7.358   3.543   3.236
11408SOL    HW245951   7.286   3.505   3.287
11408SOL    HW345952   7.375   3.628   3.277
11408SOL    MW445953   7.352   3.548   3.248
11409SOL     OW45954   6.663   2.187   3.438
11409SOL    HW245955   6.629   2.226   3.357
11409SOL    HW345956   6.641   2.095   3.431
11409SOL    MW445957   6.656   2.180   3.428
11410SOL     OW45958   7.072   3.001   3.514
11410SOL    HW245959   7.154   3.042   3.544
11410SOL    HW345960   7.035   2.963   3.594
11410SOL    MW445961   7.078   3.002   3.529
11411SOL     OW45962   7.367   2.374   2.498
11411SOL    HW245963   7.456   2.343   2.515
11411SOL    HW345964   7.310   2.314   2.546
11411SOL    MW445965   7.370   2.362   2.507
11412SOL     OW45966   5.793   2.088   2.527
11412SOL    HW245967   5.784   2.028   2.453
11412SOL    HW345968   5.726   2.059   2.590
11412SOL    MW445969   5.783   2.075   2.525
11413SOL     OW45970   6.736   3.181   2.088
11413SOL    HW245971   6.686   3.183   2.170
11413SOL    HW345972   6.670   3.199   2.020
11413SOL    MW445973   6.722   3.183   2.090
11414SOL     OW45974   5.740   2.261   2.890
11414SOL    HW245975   5.712   2.352   2.899
11414SOL    HW345976   5.677   2.222   2.829
11414SOL    MW445977   5.727   2.267   2.884
11415SOL     OW45978   6.199   3.599   2.196
11415SOL    HW245979   6.120   3.557   2.229
11415SOL    HW345980   6.265   3.582   2.263
11415SOL    MW445981   6.198   3.591   2.209
11416SOL     OW45982   7.327   3.119   3.593
11416SOL    HW245983   7.377   3.045   3.625
11416SOL    HW345984   7.273   3.146   3.668
11416SOL    MW445985   7.327   3.113   3.606
11417SOL     OW45986   6.335   3.014   1.903
11417SOL    HW245987   6.257   2.960   1.890
11417SOL    HW345988   6.306   3.087   1.956
11417SOL    MW445989   6.321   3.016   1.908
11418SOL     OW45990   7.461   2.754   3.095
11418SOL    HW245991   7.477   2.792   3.008
11418SOL    HW345992   7.495   2.820   3.156
11418SOL    MW445993   7.468   2.767   3.091
11419SOL     OW45994   7.253   3.463   2.764
11419SOL    HW245995   7.282   3.530   2.825
11419SOL    HW345996   7.234   3.387   2.819
11419SOL    MW445997   7.255   3.463   2.779
11420SOL     OW45998   6.916   3.530   1.971
11420SOL    HW245999   6.842   3.493   2.021
11420SOL    HW346000   6.924   3.620   2.004
11420SOL    MW446001   6.907   3.537   1.983
11421SOL     OW46002   5.724   2.536   3.060
11421SOL    HW246003   5.786   2.566   3.126
11421SOL    HW346004   5.658   2.605   3.054
11421SOL    MW446005   5.723   2.549   3.067
11422SOL     OW46006   7.140   3.204   1.913
11422SOL    HW246007   7.087   3.253   1.849
11422SOL    HW346008   7.171   3.270   1.974
11422SOL    MW446009   7.138   3.218   1.911
11423SOL     OW46010   6.365   2.093   1.968
11423SOL    HW246011   6.313   2.013   1.956
11423SOL    HW346012   6.452   2.070   1.936
11423SOL    MW446013   6.368   2.079   1.962
11424SOL     OW46014   5.819   3.645   3.512
11424SOL    HW246015   5.793   3.713   3.450
11424SOL    HW346016   5.867   3.582   3.460
11424SOL    MW446017   5.821   3.645   3.498
11425SOL     OW46018   5.871   2.964   3.019
11425SOL    HW246019   5.924   3.039   3.044
11425SOL    HW346020   5.790   3.002   2.985
11425SOL    MW446021   5.867   2.979   3.019
11426SOL     OW46022   6.411   2.868   3.007
11426SOL    HW246023   6.439   2.777   3.019
11426SOL    HW346024   6.340   2.862   2.943
11426SOL    MW446025   6.404   2.856   3.002
11427SOL     OW46026   5.726   2.733   2.425
11427SOL    HW246027   5.817   2.748   2.452
11427SOL    HW346028   5.729   2.654   2.371
11427SOL    MW446029   5.738   2.725   2.423
11428SOL     OW46030   5.962   2.441   3.679
11428SOL    HW246031   5.909   2.521   3.686
11428SOL    HW346032   6.032   2.453   3.744
11428SOL    MW446033   5.964   2.454   3.687
11429SOL     OW46034   6.348   1.991   3.386
11429SOL    HW246035   6.325   1.899   3.388
11429SOL    HW346036   6.434   1.993   3.343
11429SOL    MW446037   6.355   1.981   3.382
11430SOL     OW46038   6.032   2.515   3.425
11430SOL    HW246039   6.112   2.565   3.411
11430SOL    HW346040   6.023   2.509   3.520
11430SOL    MW446041   6.041   2.521   3.435
11431SOL     OW46042   6.353   3.665   2.799
11431SOL    HW246043   6.442   3.680   2.829
11431SOL    HW346044   6.348   3.712   2.715
11431SOL    MW446045   6.363   3.673   2.792
11432SOL     OW46046   7.009   2.040   3.696
11432SOL    HW246047   7.065   1.967   3.722
11432SOL    HW346048   6.979   2.078   3.778
11432SOL    MW446049   7.013   2.035   3.709
11433SOL     OW46050   5.734   3.345   2.464
11433SOL    HW246051   5.706   3.384   2.546
11433SOL    HW346052   5.754   3.254   2.486
11433SOL    MW446053   5.732   3.337   2.477
11434SOL     OW46054   6.567   3.388   2.499
11434SOL    HW246055   6.650   3.342   2.483
11434SOL    HW346056   6.557   3.387   2.595
11434SOL    MW446057   6.577   3.381   2.509
11435SOL     OW46058   7.399   2.533   2.813
11435SOL    HW246059   7.488   2.563   2.795
11435SOL    HW346060   7.379   2.473   2.742
11435SOL    MW446061   7.408   2.530   2.802
11436SOL     OW46062   7.250   2.712   3.693
11436SOL    HW246063   7.305   2.636   3.674
11436SOL    HW346064   7.252   2.720   3.788
11436SOL    MW446065   7.258   2.703   3.701
11437SOL     OW46066   6.300   3.445   1.904
11437SOL    HW246067   6.240   3.514   1.874
11437SOL    HW346068   6.245   3.387   1.957
11437SOL    MW446069   6.284   3.447   1.906
11438SOL     OW46070   6.738   2.090   2.127
11438SOL    HW246071   6.671   2.066   2.064
11438SOL    HW346072   6.803   2.139   2.076
11438SOL    MW446073   6.738   2.092   2.112
11439SOL     OW46074   6.545   2.274   3.212
11439SOL    HW246075   6.464   2.315   3.240
11439SOL    HW346076   6.592   2.342   3.164
11439SOL    MW446077   6.540   2.289   3.210
11440SOL     OW46078   6.805   2.612   2.835
11440SOL    HW246079   6.818   2.706   2.845
11440SOL    HW346080   6.766   2.602   2.749
11440SOL    MW446081   6.801   2.623   2.825
11441SOL     OW46082   6.257   2.807   2.639
11441SOL    HW246083   6.168   2.798   2.672
11441SOL    HW346084   6.261   2.897   2.607
11441SOL    MW446085   6.246   2.818   2.639
11442SOL     OW46086   7.056   2.390   2.634
11442SOL    HW246087   7.001   2.311   2.633
11442SOL    HW346088   7.038   2.431   2.718
11442SOL    MW446089   7.046   2.385   2.643
11443SOL     OW46090   6.027   2.077   3.451
11443SOL    HW246091   5.948   2.095   3.503
11443SOL    HW346092   6.022   2.139   3.378
11443SOL    MW446093   6.017   2.087   3.448
11444SOL     OW46094   6.675   2.594   2.591
11444SOL    HW246095   6.612   2.526   2.615
11444SOL    HW346096   6.695   2.575   2.499
11444SOL    MW446097   6.669   2.581   2.583
11445SOL     OW46098   5.931   3.489   2.293
11445SOL    HW246099   5.892   3.536   2.219
11445SOL    HW346100   5.865   3.424   2.318
11445SOL    MW446101   5.918   3.487   2.287
11446SOL     OW46102   6.423   2.898   2.317
11446SOL    HW246103   6.425   2.872   2.224
11446SOL    HW346104   6.481   2.835   2.360
11446SOL    MW446105   6.431   2.887   2.311
11447SOL     OW46106   6.976   3.458   3.089
11447SOL    HW246107   6.901   3.504   3.127
11447SOL    HW346108   6.958   3.365   3.106
11447SOL    MW446109   6.965   3.452   3.097
11448SOL     OW46110   6.980   3.666   2.519
11448SOL    HW246111   6.923   3.619   2.458
11448SOL    HW346112   7.066   3.627   2.506
11448SOL    MW446113   6.983   3.657   2.509
11449SOL     OW46114   6.933   2.142   2.650
11449SOL    HW246115   6.961   2.074   2.711
11449SOL    HW346116   6.847   2.113   2.620
11449SOL    MW446117   6.926   2.129   2.654
11450SOL     OW46118   5.738   3.076   2.584
11450SOL    HW246119   5.802   3.108   2.647
11450SOL    HW346120   5.787   3.012   2.532
11450SOL    MW446121   5.753   3.072   2.585
11451SOL     OW46122   6.238   3.152   3.566
11451SOL    HW246123   6.286   3.235   3.553
11451SOL    HW346124   6.295   3.100   3.622
11451SOL    MW446125   6.252   3.156   3.572
11452SOL     OW46126   5.814   3.394   3.706
11452SOL    HW246127   5.870   3.318   3.721
11452SOL    HW346128   5.763   3.372   3.628
11452SOL    MW446129   5.814   3.381   3.697
11453SOL     OW46130   6.913   2.246   1.985
11453SOL    HW246131   6.886   2.312   1.921
11453SOL    HW346132   6.983   2.289   2.035
11453SOL    MW446133   6.918   2.259   1.982
11454SOL     OW46134   6.581   1.951   1.922
11454SOL    HW246135   6.637   1.943   1.844
11454SOL    HW346136   6.558   1.861   1.944
11454SOL    MW446137   6.586   1.938   1.915
11455SOL     OW46138   7.086   2.802   2.127
11455SOL    HW246139   7.053   2.891   2.117
11455SOL    HW346140   7.051   2.773   2.212
11455SOL    MW446141   7.076   2.811   2.138
11456SOL     OW46142   6.699   3.231   3.315
11456SOL    HW246143   6.610   3.237   3.283
11456SOL    HW346144   6.743   3.310   3.283
11456SOL    MW446145   6.694   3.241   3.307
11457SOL     OW46146   5.992   1.899   3.657
11457SOL    HW246147   5.920   1.864   3.605
11457SOL    HW346148   6.050   1.940   3.592
11457SOL    MW446149   5.990   1.900   3.642
11458SOL     OW46150   6.016   3.389   2.956
11458SOL    HW246151   6.061   3.451   3.013
11458SOL    HW346152   5.923   3.408   2.969
11458SOL    MW446153   6.009   3.399   2.963
11459SOL     OW46154   7.456   2.918   3.310
11459SOL    HW246155   7.371   2.931   3.269
11459SOL    HW346156   7.436   2.882   3.397
11459SOL    MW446157   7.443   2.914   3.315
11460SOL     OW46158   6.438   3.457   3.064
11460SOL    HW246159   6.462   3.446   2.973
11460SOL    HW346160   6.361   3.514   3.062
11460SOL    MW446161   6.430   3.462   3.053
11461SOL     OW46162   6.080   2.840   1.919
11461SOL    HW246163   6.003   2.853   1.975
11461SOL    HW346164   6.044   2.804   1.838
11461SOL    MW446165   6.066   2.836   1.916
11462SOL     OW46166   6.733   2.813   2.162
11462SOL    HW246167   6.643   2.834   2.137
11462SOL    HW346168   6.760   2.886   2.218
11462SOL    MW446169   6.725   2.825   2.165
11463SOL     OW46170   6.233   3.162   2.854
11463SOL    HW246171   6.226   3.141   2.948
11463SOL    HW346172   6.151   3.130   2.817
11463SOL    MW446173   6.221   3.156   2.861
11464SOL     OW46174   7.097   2.172   3.256
11464SOL    HW246175   7.044   2.174   3.336
11464SOL    HW346176   7.082   2.085   3.219
11464SOL    MW446177   7.089   2.162   3.261
11465SOL     OW46178   7.433   2.096   3.129
11465SOL    HW246179   7.414   2.163   3.064
11465SOL    HW346180   7.490   2.034   3.084
11465SOL    MW446181   7.437   2.097   3.115
11466SOL     OW46182   5.679   3.254   3.517
11466SOL    HW246183   5.723   3.187   3.463
11466SOL    HW346184   5.594   3.216   3.537
11466SOL    MW446185   5.674   3.240   3.513
11467SOL     OW46186   6.362   1.929   2.569
11467SOL    HW246187   6.291   1.990   2.551
11467SOL    HW346188   6.413   1.926   2.488
11467SOL    MW446189   6.358   1.935   2.556
11468SOL     OW46190   6.120   3.169   2.318
11468SOL    HW246191   6.113   3.201   2.408
11468SOL    HW346192   6.030   3.153   2.290
11468SOL    MW446193   6.108   3.171   2.325
11469SOL     OW46194   6.715   3.562   3.227
11469SOL    HW246195   6.635   3.547   3.177
11469SOL    HW346196   6.722   3.657   3.234
11469SOL    MW446197   6.706   3.573   3.221
11470SOL     OW46198   6.829   3.527   2.717
11470SOL    HW246199   6.876   3.600   2.676
11470SOL    HW346200   6.750   3.566   2.753
11470SOL    MW446201   6.824   3.542   2.716
11471SOL     OW46202   7.237   3.622   2.992
11471SOL    HW246203   7.280   3.592   3.072
11471SOL    HW346204   7.156   3.570   2.989
11471SOL    MW446205   7.232   3.611   3.002
11472SOL     OW46206   6.322   2.586   3.699
11472SOL    HW246207   6.392   2.528   3.671
11472SOL    HW346208   6.265   2.531   3.754
11472SOL    MW446209   6.324   2.573   3.703
11473SOL     OW46210   7.109   2.798   3.332
11473SOL    HW246211   7.114   2.851   3.412
11473SOL    HW346212   7.071   2.715   3.360
11473SOL    MW446213   7.105   2.793   3.347
11474SOL     OW46214   6.749   1.933   3.578
11474SOL    HW246215   6.744   1.840   3.559
11474SOL    HW346216   6.832   1.944   3.624
11474SOL    MW446217   6.757   1.922   3.582
11475SOL     OW46218   6.123   2.453   2.032
11475SOL    HW246219   6.089   2.509   2.102
11475SOL    HW346220   6.194   2.403   2.072
11475SOL    MW446221   6.129   2.454   2.046
11476SOL     OW46222   7.219   3.204   2.854
11476SOL    HW246223   7.254   3.186   2.767
11476SOL    HW346224   7.124   3.205   2.841
11476SOL    MW446225   7.211   3.201   2.841
11477SOL     OW46226   6.648   2.852   3.223
11477SOL    HW246227   6.691   2.887   3.301
11477SOL    HW346228   6.631   2.929   3.169
11477SOL    MW446229   6.651   2.867   3.226
11478SOL     OW46230   7.179   2.339   2.096
11478SOL    HW246231   7.171   2.410   2.033
11478SOL    HW346232   7.197   2.383   2.179
11478SOL    MW446233   7.180   2.353   2.098
11479SOL     OW46234   6.039   1.994   2.525
11479SOL    HW246235   6.089   2.037   2.456
11479SOL    HW346236   5.954   2.038   2.525
11479SOL    MW446237   6.036   2.007   2.516
11480SOL     OW46238   5.798   3.056   3.385
11480SOL    HW246239   5.826   3.009   3.463
11480SOL    HW346240   5.719   3.011   3.356
11480SOL    MW446241   5.791   3.045   3.391
11481SOL     OW46242   6.306   2.383   3.352
11481SOL    HW246243   6.278   2.471   3.376
11481SOL    HW346244   6.275   2.327   3.423
11481SOL    MW446245   6.298   2.386   3.364
11482SOL     OW46246   6.848   2.601   2.071
11482SOL    HW246247   6.895   2.619   1.990
11482SOL    HW346248   6.814   2.685   2.099
11482SOL    MW446249   6.850   2.615   2.064
11483SOL     OW46250   5.961   2.779   2.565
11483SOL    HW246251   6.019   2.835   2.513
11483SOL    HW346252   6.005   2.694   2.567
11483SOL    MW446253   5.974   2.776   2.558
11484SOL     OW46254   7.101   2.131   2.402
11484SOL    HW246255   7.023   2.081   2.427
11484SOL    HW346256   7.072   2.222   2.402
11484SOL    MW446257   7.087   2.135   2.405
11485SOL     OW46258   6.687   2.093   2.561
11485SOL    HW246259   6.707   2.168   2.505
11485SOL    HW346260   6.667   2.132   2.646
11485SOL    MW446261   6.688   2.109   2.565
11486SOL     OW46262   6.583   3.343   1.893
11486SOL    HW246263   6.610   3.421   1.845
11486SOL    HW346264   6.490   3.358   1.912
11486SOL    MW446265   6.574   3.356   1.889
11487SOL     OW46266   7.447   2.866   3.580
11487SOL    HW246267   7.360   2.846   3.616
11487SOL    HW346268   7.501   2.792   3.605
11487SOL    MW446269   7.442   2.855   3.588
11488SOL     OW46270   5.668   3.379   2.737
11488SOL    HW246271   5.700   3.383   2.828
11488SOL    HW346272   5.573   3.387   2.745
11488SOL    MW446273   5.660   3.382   2.750
11489SOL     OW46274   5.623   2.505   2.284
11489SOL    HW246275   5.563   2.477   2.354
11489SOL    HW346276   5.697   2.445   2.290
11489SOL    MW446277   5.625   2.494   2.293
11490SOL     OW46278   7.191   3.717   3.718
11490SOL    HW246279   7.236   3.641   3.683
11490SOL    HW346280   7.229   3.730   3.805
11490SOL    MW446281   7.201   3.710   3.724
11491SOL     OW46282   6.791   3.236   2.444
11491SOL    HW246283   6.814   3.187   2.522
11491SOL    HW346284   6.872   3.278   2.416
11491SOL    MW446285   6.804   3.236   2.451
11492SOL     OW46286   6.049   2.244   3.173
11492SOL    HW246287   6.082   2.325   3.213
11492SOL    HW346288   6.022   2.270   3.085
11492SOL    MW446289   6.048   2.258   3.167
11493SOL     OW46290   6.003   2.211   2.909
11493SOL    HW246291   6.033   2.125   2.880
11493SOL    HW346292   5.908   2.204   2.912
11493SOL    MW446293   5.995   2.200   2.907
11494SOL     OW46294   6.832   2.420   3.600
11494SOL    HW246295   6.884   2.355   3.553
11494SOL    HW346296   6.790   2.471   3.530
11494SOL    MW446297   6.833   2.417   3.583
11495SOL     OW46298   6.931   2.215   3.461
11495SOL    HW246299   6.838   2.199   3.448
11495SOL    HW346300   6.957   2.153   3.529
11495SOL    MW446301   6.921   2.205   3.468
11496SOL     OW46302   6.146   1.989   2.800
11496SOL    HW246303   6.156   1.898   2.826
11496SOL    HW346304   6.102   1.985   2.715
11496SOL    MW446305   6.142   1.977   2.792
11497SOL     OW46306   6.240   3.604   3.346
11497SOL    HW246307   6.157   3.589   3.391
11497SOL    HW346308   6.299   3.537   3.381
11497SOL    MW446309   6.238   3.594   3.356
11498SOL     OW46310   7.297   2.311   2.971
11498SOL    HW246311   7.230   2.344   3.031
11498SOL    HW346312   7.340   2.389   2.937
11498SOL    MW446313   7.295   2.326   2.975
11499SOL     OW46314   7.475   3.031   2.941
11499SOL    HW246315   7.468   2.971   2.866
11499SOL    HW346316   7.401   3.091   2.930
11499SOL    MW446317   7.465   3.031   2.930
11500SOL     OW46318   6.857   2.893   2.859
11500SOL    HW246319   6.871   2.865   2.950
11500SOL    HW346320   6.943   2.924   2.831
11500SOL    MW446321   6.870   2.894   2.868
11501SOL     OW46322   6.940   2.388   3.138
11501SOL    HW246323   6.961   2.389   3.045
11501SOL    HW346324   6.985   2.310   3.171
11501SOL    MW446325   6.947   2.378   3.130
11502SOL     OW46326   7.433   2.519   3.680
11502SOL    HW246327   7.470   2.464   3.749
11502SOL    HW346328   7.458   2.476   3.598
11502SOL    MW446329   7.440   2.507   3.679
11503SOL     OW46330   6.980   2.817   3.731
11503SOL    HW246331   7.046   2.765   3.685
11503SOL    HW346332   7.000   2.804   3.824
11503SOL    MW446333   6.991   2.808   3.738
11504SOL     OW46334   6.931   1.903   2.080
11504SOL    HW246335   7.005   1.947   2.123
11504SOL    HW346336   6.855   1.957   2.102
11504SOL    MW446337   6.931   1.915   2.088
11505SOL     OW46338   6.991   2.678   2.358
11505SOL    HW246339   6.906   2.648   2.328
11505SOL    HW346340   6.983   2.685   2.453
11505SOL    MW446341   6.979   2.676   2.367
11506SOL     OW46342   6.067   3.141   3.089
11506SOL    HW246343   6.079   3.168   3.180
11506SOL    HW346344   6.048   3.222   3.042
11506SOL    MW446345   6.066   3.156   3.094
11507SOL     OW46346   6.351   2.121   2.912
11507SOL    HW246347   6.324   2.123   3.003
11507SOL    HW346348   6.281   2.073   2.867
11507SOL    MW446349   6.339   2.117   2.919
11508SOL     OW46350   6.205   3.613   3.074
11508SOL    HW246351   6.257   3.690   3.051
11508SOL    HW346352   6.214   3.605   3.169
11508SOL    MW446353   6.214   3.620   3.085
11509SOL     OW46354   7.107   3.198   3.306
11509SOL    HW246355   7.092   3.127   3.369
11509SOL    HW346356   7.153   3.156   3.234
11509SOL    MW446357   7.113   3.182   3.306
11510SOL     OW46358   6.181   2.929   3.423
11510SOL    HW246359   6.218   2.934   3.335
11510SOL    HW346360   6.220   3.002   3.470
11510SOL    MW446361   6.191   2.939   3.418
11511SOL     OW46362   6.361   2.972   3.235
11511SOL    HW246363   6.420   2.918   3.288
11511SOL    HW346364   6.376   2.944   3.145
11511SOL    MW446365   6.371   2.961   3.231
11512SOL     OW46366   6.364   2.344   2.084
11512SOL    HW246367   6.437   2.393   2.047
11512SOL    HW346368   6.380   2.253   2.058
11512SOL    MW446369   6.376   2.339   2.077
11513SOL     OW46370   7.172   3.461   3.407
11513SOL    HW246371   7.214   3.446   3.492
11513SOL    HW346372   7.163   3.374   3.369
11513SOL    MW446373   7.176   3.449   3.414
11514SOL     OW46374   6.832   1.940   2.998
11514SOL    HW246375   6.887   1.949   2.920
11514SOL    HW346376   6.887   1.974   3.069
11514SOL    MW446377   6.846   1.945   2.997
11515SOL     OW46378   5.839   2.853   2.182
11515SOL    HW246379   5.776   2.869   2.111
11515SOL    HW346380   5.786   2.816   2.253
11515SOL    MW446381   5.824   2.850   2.182
11516SOL     OW46382   6.195   3.207   2.041
11516SOL    HW246383   6.210   3.183   2.133
11516SOL    HW346384   6.103   3.185   2.025
11516SOL    MW446385   6.185   3.200   2.051
11517SOL     OW46386   6.734   3.438   2.193
11517SOL    HW246387   6.742   3.356   2.144
11517SOL    HW346388   6.653   3.477   2.160
11517SOL    MW446389   6.724   3.433   2.183
11518SOL     OW46390   5.993   3.596   2.762
11518SOL    HW246391   5.997   3.507   2.797
11518SOL    HW346392   6.019   3.587   2.671
11518SOL    MW446393   5.996   3.584   2.754
11519SOL     OW46394   6.610   3.074   3.005
11519SOL    HW246395   6.542   3.008   3.021
11519SOL    HW346396   6.628   3.068   2.912
11519SOL    MW446397   6.603   3.065   2.996
11520SOL     OW46398   5.699   3.349   3.256
11520SOL    HW246399   5.689   3.307   3.342
11520SOL    HW346400   5.620   3.402   3.246
11520SOL    MW446401   5.688   3.350   3.267
11521SOL     OW46402   6.603   2.213   2.826
11521SOL    HW246403   6.533   2.165   2.871
11521SOL    HW346404   6.635   2.276   2.890
11521SOL    MW446405   6.598   2.215   2.840
11522SOL     OW46406   6.254   2.649   3.446
11522SOL    HW246407   6.247   2.744   3.434
11522SOL    HW346408   6.263   2.638   3.541
11522SOL    MW446409   6.255   2.661   3.456
11523SOL     OW46410   5.975   3.164   3.704
11523SOL    HW246411   6.047   3.166   3.641
11523SOL    HW346412   5.945   3.073   3.703
11523SOL    MW446413   5.980   3.153   3.696
11524SOL     OW46414   7.059   1.927   3.171
11524SOL    HW246415   7.130   1.873   3.135
11524SOL    HW346416   7.058   1.906   3.264
11524SOL    MW446417   7.068   1.918   3.179
11525SOL     OW46418   7.259   3.457   3.655
11525SOL    HW246419   7.232   3.454   3.746
11525SOL    HW346420   7.355   3.461   3.658
11525SOL    MW446421   7.269   3.457   3.667
11526SOL     OW46422   6.070   2.319   2.639
11526SOL    HW246423   6.141   2.267   2.602
11526SOL    HW346424   6.056   2.284   2.726
11526SOL    MW446425   6.078   2.308   2.646
11527SOL     OW46426   5.625   3.654   3.711
11527SOL    HW246427   5.675   3.632   3.633
11527SOL    HW346428   5.633   3.749   3.719
11527SOL    MW446429   5.633   3.663   3.702
11528SOL     OW46430   6.386   3.412   2.715
11528SOL    HW246431   6.314   3.349   2.728
11528SOL    HW346432   6.347   3.497   2.733
11528SOL    MW446433   6.370   3.415   2.718
11529SOL     OW46434   6.706   2.260   2.363
11529SOL    HW246435   6.728   2.197   2.295
11529SOL    HW346436   6.611   2.252   2.374
11529SOL    MW446437   6.696   2.251   2.355
11530SOL     OW46438   5.791   1.950   2.295
11530SOL    HW246439   5.862   1.971   2.234
11530SOL    HW346440   5.745   1.878   2.253
11530SOL    MW446441   5.795   1.944   2.281
11531SOL     OW46442   5.622   2.417   3.438
11531SOL    HW246443   5.686   2.483   3.413
11531SOL    HW346444   5.541   2.444   3.395
11531SOL    MW446445   5.620   2.429   3.430
11532SOL     OW46446   7.360   3.324   2.395
11532SOL    HW246447   7.330   3.257   2.456
11532SOL    HW346448   7.454   3.330   2.409
11532SOL    MW446449   7.368   3.316   2.405
11533SOL     OW46450   6.916   3.001   2.325
11533SOL    HW246451   6.888   3.087   2.358
11533SOL    HW346452   6.944   3.017   2.235
11533SOL    MW446453   6.916   3.015   2.317
11534SOL     OW46454   6.578   1.921   2.378
11534SOL    HW246455   6.615   1.980   2.443
11534SOL    HW346456   6.555   1.977   2.304
11534SOL    MW446457   6.579   1.936   2.377
11535SOL     OW46458   7.431   2.803   2.800
11535SOL    HW246459   7.422   2.835   2.711
11535SOL    HW346460   7.384   2.719   2.800
11535SOL    MW446461   7.424   2.796   2.790
11536SOL     OW46462   5.807   2.643   3.379
11536SOL    HW246463   5.828   2.712   3.317
11536SOL    HW346464   5.887   2.590   3.384
11536SOL    MW446465   5.820   2.644   3.373
11537SOL     OW46466   7.343   2.734   2.501
11537SOL    HW246467   7.437   2.723   2.489
11537SOL    HW346468   7.319   2.806   2.442
11537SOL    MW446469   7.353   2.742   2.492
11538SOL     OW46470   5.792   2.658   3.646
11538SOL    HW246471   5.718   2.602   3.672
11538SOL    HW346472   5.787   2.661   3.551
11538SOL    MW446473   5.781   2.651   3.636
11539SOL     OW46474   5.958   1.945   3.096
11539SOL    HW246475   6.001   2.029   3.116
11539SOL    HW346476   6.031   1.883   3.089
11539SOL    MW446477   5.973   1.948   3.097
11540SOL     OW46478   5.999   2.612   2.274
11540SOL    HW246479   5.999   2.707   2.259
11540SOL    HW346480   6.076   2.596   2.328
11540SOL    MW446481   6.009   2.623   2.279
11541SOL     OW46482   6.775   2.471   3.338
11541SOL    HW246483   6.811   2.444   3.254
11541SOL    HW346484   6.688   2.505   3.317
11541SOL    MW446485   6.769   2.472   3.325
11542SOL     OW46486   5.758   2.343   2.563
11542SOL    HW246487   5.820   2.350   2.636
11542SOL    HW346488   5.758   2.250   2.540
11542SOL    MW446489   5.766   2.332   2.570
11543SOL     OW46490   7.305   3.683   2.095
11543SOL    HW246491   7.372   3.716   2.035
11543SOL    HW346492   7.262   3.762   2.129
11543SOL    MW446493   7.307   3.698   2.091
11544SOL     OW46494   6.440   2.604   3.047
11544SOL    HW246495   6.398   2.522   3.023
11544SOL    HW346496   6.441   2.603   3.143
11544SOL    MW446497   6.433   2.593   3.056
11545SOL     OW46498   7.111   3.737   3.446
11545SOL    HW246499   7.114   3.643   3.429
11545SOL    HW346500   7.134   3.745   3.538
11545SOL    MW446501   7.114   3.725   3.456
11546SOL     OW46502   6.244   2.074   3.152
11546SOL    HW246503   6.175   2.137   3.173
11546SOL    HW346504   6.271   2.038   3.237
11546SOL    MW446505   6.238   2.077   3.165
11547SOL     OW46506   5.627   2.915   2.021
11547SOL    HW246507   5.596   2.980   2.084
11547SOL    HW346508   5.576   2.837   2.040
11547SOL    MW446509   5.617   2.912   2.031
11548SOL     OW46510   7.039   1.927   2.769
11548SOL    HW246511   7.127   1.936   2.806
11548SOL    HW346512   7.049   1.868   2.695
11548SOL    MW446513   7.053   1.921   2.763
11549SOL     OW46514   7.071   2.666   2.613
11549SOL    HW246515   7.151   2.681   2.562
11549SOL    HW346516   7.064   2.571   2.619
11549SOL    MW446517   7.080   2.655   2.608
11550SOL     OW46518   6.211   3.715   1.963
11550SOL    HW246519   6.116   3.715   1.955
11550SOL    HW346520   6.227   3.661   2.041
11550SOL    MW446521   6.201   3.709   1.972
11551SOL     OW46522   6.521   2.592   3.310
11551SOL    HW246523   6.590   2.659   3.307
11551SOL    HW346524   6.454   2.630   3.366
11551SOL    MW446525   6.522   2.605   3.317
11552SOL     OW46526   5.939   2.892   3.558
11552SOL    HW246527   5.893   2.808   3.560
11552SOL    HW346528   5.996   2.886   3.482
11552SOL    MW446529   5.941   2.880   3.550
11553SOL     OW46530   7.056   2.535   1.879
11553SOL    HW246531   6.984   2.511   1.821
11553SOL    HW346532   7.122   2.572   1.821
11553SOL    MW446533   7.055   2.537   1.864
11554SOL     OW46534   6.190   3.267   2.559
11554SOL    HW246535   6.255   3.200   2.580
11554SOL    HW346536   6.242   3.344   2.536
11554SOL    MW446537   6.205   3.269   2.558
11555SOL     OW46538   6.451   2.432   2.689
11555SOL    HW246539   6.391   2.450   2.761
11555SOL    HW346540   6.485   2.344   2.708
11555SOL    MW446541   6.447   2.422   2.702
11556SOL     OW46542   7.392   1.931   3.358
11556SOL    HW246543   7.313   1.977   3.386
11556SOL    HW346544   7.427   1.985   3.287
11556SOL    MW446545   7.386   1.944   3.352
11557SOL     OW46546   6.676   3.015   2.708
11557SOL    HW246547   6.768   2.996   2.726
11557SOL    HW346548   6.649   2.945   2.648
11557SOL    MW446549   6.684   3.003   2.702
11558SOL     OW46550   6.469   2.835   2.063
11558SOL    HW246551   6.455   2.747   2.028
11558SOL    HW346552   6.420   2.892   2.004
11558SOL    MW446553   6.461   2.830   2.051
11559SOL     OW46554   6.950   3.253   2.804
11559SOL    HW246555   6.923   3.337   2.769
11559SOL    HW346556   6.910   3.248   2.891
11559SOL    MW446557   6.943   3.262   2.810
11560SOL     OW46558   6.869   3.201   3.072
11560SOL    HW246559   6.880   3.168   3.161
11560SOL    HW346560   6.788   3.160   3.041
11560SOL    MW446561   6.859   3.193   3.078
11561SOL     OW46562   5.882   2.559   2.842
11561SOL    HW246563   5.832   2.558   2.923
11561SOL    HW346564   5.902   2.651   2.826
11561SOL    MW446565   5.878   2.571   2.850
11562SOL     OW46566   6.949   3.323   3.604
11562SOL    HW246567   6.949   3.417   3.620
11562SOL    HW346568   6.994   3.313   3.520
11562SOL    MW446569   6.955   3.333   3.595
11563SOL     OW46570   7.188   2.041   2.165
11563SOL    HW246571   7.181   2.045   2.260
11563SOL    HW346572   7.200   2.132   2.138
11563SOL    MW446573   7.189   2.054   2.173
11564SOL     OW46574   6.477   2.604   2.279
11564SOL    HW246575   6.457   2.590   2.186
11564SOL    HW346576   6.570   2.583   2.286
11564SOL    MW446577   6.487   2.599   2.268
11565SOL     OW46578   5.804   2.227   3.583
11565SOL    HW246579   5.761   2.286   3.520
11565SOL    HW346580   5.872   2.282   3.623
11565SOL    MW446581   5.808   2.242   3.580
11566SOL     OW46582   6.916   2.847   3.128
11566SOL    HW246583   6.979   2.844   3.201
11566SOL    HW346584   6.832   2.865   3.170
11566SOL    MW446585   6.912   2.849   3.143
11567SOL     OW46586   6.460   3.562   2.317
11567SOL    HW246587   6.518   3.633   2.344
11567SOL    HW346588   6.483   3.490   2.375
11567SOL    MW446589   6.471   3.562   2.328
11568SOL     OW46590   7.255   2.024   2.907
11568SOL    HW246591   7.300   1.942   2.926
11568SOL    HW346592   7.275   2.080   2.983
11568SOL    MW446593   7.265   2.020   2.919
11569SOL     OW46594   5.703   1.867   3.006
11569SOL    HW246595   5.694   1.868   2.911
11569SOL    HW346596   5.797   1.879   3.021
11569SOL    MW446597   5.715   1.870   2.997
11570SOL     OW46598   7.340   3.060   2.626
11570SOL    HW246599   7.319   3.006   2.549
11570SOL    HW346600   7.436   3.058   2.630
11570SOL    MW446601   7.349   3.053   2.615
11571SOL     OW46602   6.032   3.205   3.369
11571SOL    HW246603   5.953   3.155   3.392
11571SOL    HW346604   6.102   3.164   3.419
11571SOL    MW446605   6.030   3.193   3.379
11572SOL     OW46606   5.916   1.994   2.052
11572SOL    HW246607   5.845   2.049   2.020
11572SOL    HW346608   5.958   1.960   1.973
11572SOL    MW446609   5.912   1.996   2.038
11573SOL     OW46610   7.040   2.491   2.888
11573SOL    HW246611   6.963   2.537   2.854
11573SOL    HW346612   7.097   2.560   2.922
11573SOL    MW446613   7.037   2.506   2.888
11574SOL     OW46614   5.672   2.093   1.901
11574SOL    HW246615   5.639   2.172   1.945
11574SOL    HW346616   5.727   2.126   1.830
11574SOL    MW446617   5.675   2.107   1.898
11575SOL     OW46618   5.706   3.350   2.090
11575SOL    HW246619   5.723   3.434   2.132
11575SOL    HW346620   5.741   3.359   2.002
11575SOL    MW446621   5.711   3.363   2.084
11576SOL     OW46622   6.978   3.439   2.307
11576SOL    HW246623   7.041   3.429   2.236
11576SOL    HW346624   6.895   3.459   2.262
11576SOL    MW446625   6.975   3.440   2.292
11577SOL     OW46626   7.341   2.707   3.993
11577SOL    HW246627   7.382   2.649   4.058
11577SOL    HW346628   7.248   2.699   4.010
11577SOL    MW446629   7.335   2.699   4.003
11578SOL     OW46630   7.207   2.639   4.988
11578SOL    HW246631   7.162   2.706   5.039
11578SOL    HW346632   7.295   2.675   4.974
11578SOL    MW446633   7.213   2.652   4.992
11579SOL     OW46634   6.135   2.890   4.222
11579SOL    HW246635   6.225   2.865   4.206
11579SOL    HW346636   6.131   2.983   4.199
11579SOL    MW446637   6.147   2.899   4.217
11580SOL     OW46638   7.251   3.593   4.364
11580SOL    HW246639   7.263   3.539   4.442
11580SOL    HW346640   7.288   3.541   4.293
11580SOL    MW446641   7.257   3.578   4.365
11581SOL     OW46642   6.630   3.478   5.365
11581SOL    HW246643   6.671   3.514   5.286
11581SOL    HW346644   6.665   3.389   5.372
11581SOL    MW446645   6.641   3.471   5.356
11582SOL     OW46646   7.187   3.033   4.969
11582SOL    HW246647   7.108   2.998   4.927
11582SOL    HW346648   7.214   3.105   4.913
11582SOL    MW446649   7.180   3.038   4.956
11583SOL     OW46650   6.419   2.346   4.235
11583SOL    HW246651   6.394   2.434   4.263
11583SOL    HW346652   6.416   2.349   4.139
11583SOL    MW446653   6.415   2.358   4.227
11584SOL     OW46654   5.861   2.374   4.163
11584SOL    HW246655   5.893   2.462   4.145
11584SOL    HW346656   5.849   2.372   4.258
11584SOL    MW446657   5.864   2.386   4.175
11585SOL     OW46658   5.939   2.787   5.064
11585SOL    HW246659   6.002   2.734   5.015
11585SOL    HW346660   5.920   2.861   5.007
11585SOL    MW446661   5.945   2.789   5.051
11586SOL     OW46662   6.260   2.129   4.250
11586SOL    HW246663   6.318   2.205   4.252
11586SOL    HW346664   6.195   2.150   4.183
11586SOL    MW446665   6.259   2.141   4.241
11587SOL     OW46666   6.347   3.056   4.425
11587SOL    HW246667   6.427   3.059   4.477
11587SOL    HW346668   6.375   3.023   4.339
11587SOL    MW446669   6.361   3.052   4.420
11588SOL     OW46670   6.372   3.397   5.328
11588SOL    HW246671   6.456   3.423   5.367
11588SOL    HW346672   6.396   3.341   5.254
11588SOL    MW446673   6.386   3.393   5.323
11589SOL     OW46674   6.124   2.560   4.416
11589SOL    HW246675   6.109   2.480   4.467
11589SOL    HW346676   6.206   2.595   4.450
11589SOL    MW446677   6.132   2.552   4.428
11590SOL     OW46678   6.461   3.246   5.101
11590SOL    HW246679   6.425   3.312   5.041
11590SOL    HW346680   6.389   3.184   5.114
11590SOL    MW446681   6.447   3.246   5.095
11591SOL     OW46682   6.266   2.386   4.793
11591SOL    HW246683   6.172   2.382   4.811
11591SOL    HW346684   6.296   2.295   4.802
11591SOL    MW446685   6.257   2.374   4.796
11592SOL     OW46686   6.012   2.800   4.697
11592SOL    HW246687   5.967   2.807   4.613
11592SOL    HW346688   5.992   2.883   4.741
11592SOL    MW446689   6.004   2.812   4.691
11593SOL     OW46690   5.709   3.646   4.572
11593SOL    HW246691   5.798   3.638   4.607
11593SOL    HW346692   5.673   3.558   4.577
11593SOL    MW446693   5.716   3.633   4.577
11594SOL     OW46694   6.974   3.038   3.941
11594SOL    HW246695   6.892   3.074   3.907
11594SOL    HW346696   7.042   3.081   3.890
11594SOL    MW446697   6.972   3.048   3.929
11595SOL     OW46698   5.973   3.173   4.607
11595SOL    HW246699   5.949   3.226   4.683
11595SOL    HW346700   6.029   3.231   4.555
11595SOL    MW446701   5.977   3.188   4.610
11596SOL     OW46702   6.535   2.817   4.417
11596SOL    HW246703   6.449   2.804   4.457
11596SOL    HW346704   6.588   2.744   4.449
11596SOL    MW446705   6.531   2.806   4.426
11597SOL     OW46706   5.943   3.469   5.202
11597SOL    HW246707   5.851   3.445   5.187
11597SOL    HW346708   5.987   3.386   5.219
11597SOL    MW446709   5.937   3.454   5.201
11598SOL     OW46710   6.526   3.179   4.134
11598SOL    HW246711   6.503   3.241   4.202
11598SOL    HW346712   6.483   3.097   4.160
11598SOL    MW446713   6.518   3.175   4.145
11599SOL     OW46714   7.399   2.180   4.590
11599SOL    HW246715   7.336   2.160   4.659
11599SOL    HW346716   7.389   2.109   4.527
11599SOL    MW446717   7.389   2.167   4.591
11600SOL     OW46718   6.023   2.152   4.102
11600SOL    HW246719   5.997   2.114   4.018
11600SOL    HW346720   5.960   2.222   4.118
11600SOL    MW446721   6.012   2.155   4.093
11601SOL     OW46722   5.858   3.113   4.139
11601SOL    HW246723   5.806   3.181   4.095
11601SOL    HW346724   5.855   3.039   4.079
11601SOL    MW446725   5.850   3.112   4.126
11602SOL     OW46726   6.520   3.576   3.917
11602SOL    HW246727   6.475   3.592   4.000
11602SOL    HW346728   6.451   3.541   3.859
11602SOL    MW446729   6.506   3.573   3.919
11603SOL     OW46730   7.455   2.349   3.892
11603SOL    HW246731   7.364   2.351   3.920
11603SOL    HW346732   7.500   2.411   3.950
11603SOL    MW446733   7.448   2.357   3.902
11604SOL     OW46734   7.200   2.952   4.242
11604SOL    HW246735   7.110   2.952   4.277
11604SOL    HW346736   7.193   2.998   4.159
11604SOL    MW446737   7.187   2.958   4.236
11605SOL     OW46738   7.000   2.587   5.314
11605SOL    HW246739   7.069   2.525   5.291
11605SOL    HW346740   6.925   2.561   5.261
11605SOL    MW446741   7.000   2.574   5.305
11606SOL     OW46742   5.741   3.467   4.866
11606SOL    HW246743   5.724   3.413   4.943
11606SOL    HW346744   5.729   3.557   4.896
11606SOL    MW446745   5.738   3.471   4.880
11607SOL     OW46746   6.736   2.974   5.306
11607SOL    HW246747   6.721   3.067   5.291
11607SOL    HW346748   6.831   2.964   5.306
11607SOL    MW446749   6.745   2.984   5.303
11608SOL     OW46750   6.532   2.398   5.507
11608SOL    HW246751   6.622   2.399   5.474
11608SOL    HW346752   6.491   2.323   5.465
11608SOL    MW446753   6.538   2.388   5.498
11609SOL     OW46754   7.107   2.930   4.634
11609SOL    HW246755   7.110   2.864   4.565
11609SOL    HW346756   7.192   2.973   4.630
11609SOL    MW446757   7.119   2.926   4.625
11610SOL     OW46758   6.727   2.533   4.203
11610SOL    HW246759   6.753   2.557   4.114
11610SOL    HW346760   6.709   2.440   4.199
11610SOL    MW446761   6.729   2.525   4.190
11611SOL     OW46762   7.392   3.153   4.054
11611SOL    HW246763   7.348   3.194   4.129
11611SOL    HW346764   7.449   3.221   4.019
11611SOL    MW446765   7.394   3.167   4.059
11612SOL     OW46766   6.312   2.202   5.457
11612SOL    HW246767   6.322   2.128   5.397
11612SOL    HW346768   6.348   2.171   5.540
11612SOL    MW446769   6.318   2.188   5.459
11613SOL     OW46770   6.048   3.569   4.372
11613SOL    HW246771   6.080   3.657   4.350
11613SOL    HW346772   6.001   3.541   4.294
11613SOL    MW446773   6.047   3.577   4.359
11614SOL     OW46774   7.432   1.931   4.421
11614SOL    HW246775   7.486   1.882   4.483
11614SOL    HW346776   7.375   1.865   4.382
11614SOL    MW446777   7.432   1.915   4.423
11615SOL     OW46778   5.764   3.629   3.949
11615SOL    HW246779   5.793   3.719   3.941
11615SOL    HW346780   5.714   3.612   3.870
11615SOL    MW446781   5.762   3.637   3.938
11616SOL     OW46782   6.551   1.884   4.834
11616SOL    HW246783   6.510   1.962   4.796
11616SOL    HW346784   6.645   1.902   4.829
11616SOL    MW446785   6.557   1.896   4.829
11617SOL     OW46786   7.168   3.437   3.920
11617SOL    HW246787   7.216   3.506   3.966
11617SOL    HW346788   7.089   3.481   3.889
11617SOL    MW446789   7.163   3.451   3.923
11618SOL     OW46790   6.566   2.562   3.864
11618SOL    HW246791   6.568   2.509   3.785
11618SOL    HW346792   6.654   2.599   3.870
11618SOL    MW446793   6.578   2.561   3.853
11619SOL     OW46794   7.180   2.488   4.200
11619SOL    HW246795   7.219   2.488   4.287
11619SOL    HW346796   7.121   2.564   4.200
11619SOL    MW446797   7.177   2.499   4.211
11620SOL     OW46798   6.497   2.855   5.329
11620SOL    HW246799   6.474   2.835   5.419
11620SOL    HW346800   6.582   2.899   5.334
11620SOL    MW446801   6.504   2.858   5.341
11621SOL     OW46802   6.577   1.992   5.089
11621SOL    HW246803   6.583   1.954   5.002
11621SOL    HW346804   6.566   2.086   5.074
11621SOL    MW446805   6.578   2.000   5.077
11622SOL     OW46806   6.666   2.481   4.923
11622SOL    HW246807   6.741   2.510   4.870
11622SOL    HW346808   6.598   2.546   4.907
11622SOL    MW446809   6.667   2.493   4.913
11623SOL     OW46810   7.216   2.449   5.200
11623SOL    HW246811   7.197   2.358   5.179
11623SOL    HW346812   7.194   2.498   5.121
11623SOL    MW446813   7.211   2.442   5.187
11624SOL     OW46814   7.358   3.543   5.104
11624SOL    HW246815   7.286   3.505   5.155
11624SOL    HW346816   7.375   3.628   5.145
11624SOL    MW446817   7.352   3.548   5.116
11625SOL     OW46818   6.663   2.187   5.306
11625SOL    HW246819   6.629   2.226   5.225
11625SOL    HW346820   6.641   2.095   5.299
11625SOL    MW446821   6.656   2.180   5.296
11626SOL     OW46822   7.072   3.001   5.382
11626SOL    HW246823   7.154   3.042   5.412
11626SOL    HW346824   7.035   2.963   5.462
11626SOL    MW446825   7.078   3.002   5.397
11627SOL     OW46826   7.367   2.374   4.366
11627SOL    HW246827   7.456   2.343   4.383
11627SOL    HW346828   7.310   2.314   4.414
11627SOL    MW446829   7.370   2.362   4.375
11628SOL     OW46830   5.793   2.088   4.395
11628SOL    HW246831   5.784   2.028   4.321
11628SOL    HW346832   5.726   2.059   4.458
11628SOL    MW446833   5.783   2.075   4.393
11629SOL     OW46834   6.736   3.181   3.956
11629SOL    HW246835   6.686   3.183   4.038
11629SOL    HW346836   6.670   3.199   3.888
11629SOL    MW446837   6.722   3.183   3.958
11630SOL     OW46838   5.740   2.261   4.758
11630SOL    HW246839   5.712   2.352   4.767
11630SOL    HW346840   5.677   2.222   4.697
11630SOL    MW446841   5.727   2.267   4.752
11631SOL     OW46842   6.199   3.599   4.064
11631SOL    HW246843   6.120   3.557   4.097
11631SOL    HW346844   6.265   3.582   4.131
11631SOL    MW446845   6.198   3.591   4.077
11632SOL     OW46846   7.327   3.119   5.461
11632SOL    HW246847   7.377   3.045   5.493
11632SOL    HW346848   7.273   3.146   5.536
11632SOL    MW446849   7.327   3.113   5.474
11633SOL     OW46850   6.335   3.014   3.771
11633SOL    HW246851   6.257   2.960   3.758
11633SOL    HW346852   6.306   3.087   3.824
11633SOL    MW446853   6.321   3.016   3.776
11634SOL     OW46854   7.461   2.754   4.963
11634SOL    HW246855   7.477   2.792   4.876
11634SOL    HW346856   7.495   2.820   5.024
11634SOL    MW446857   7.468   2.767   4.959
11635SOL     OW46858   7.253   3.463   4.632
11635SOL    HW246859   7.282   3.530   4.693
11635SOL    HW346860   7.234   3.387   4.687
11635SOL    MW446861   7.255   3.463   4.647
11636SOL     OW46862   6.916   3.530   3.839
11636SOL    HW246863   6.842   3.493   3.889
11636SOL    HW346864   6.924   3.620   3.872
11636SOL    MW446865   6.907   3.537   3.851
11637SOL     OW46866   5.724   2.536   4.928
11637SOL    HW246867   5.786   2.566   4.994
11637SOL    HW346868   5.658   2.605   4.922
11637SOL    MW446869   5.723   2.549   4.935
11638SOL     OW46870   7.140   3.204   3.781
11638SOL    HW246871   7.087   3.253   3.717
11638SOL    HW346872   7.171   3.270   3.842
11638SOL    MW446873   7.138   3.218   3.779
11639SOL     OW46874   6.365   2.093   3.836
11639SOL    HW246875   6.313   2.013   3.824
11639SOL    HW346876   6.452   2.070   3.804
11639SOL    MW446877   6.368   2.079   3.830
11640SOL     OW46878   5.819   3.645   5.380
11640SOL    HW246879   5.793   3.713   5.318
11640SOL    HW346880   5.867   3.582   5.328
11640SOL    MW446881   5.821   3.645   5.366
11641SOL     OW46882   5.871   2.964   4.887
11641SOL    HW246883   5.924   3.039   4.912
11641SOL    HW346884   5.790   3.002   4.853
11641SOL    MW446885   5.867   2.979   4.887
11642SOL     OW46886   6.411   2.868   4.875
11642SOL    HW246887   6.439   2.777   4.887
11642SOL    HW346888   6.340   2.862   4.811
11642SOL    MW446889   6.404   2.856   4.870
11643SOL     OW46890   5.726   2.733   4.293
11643SOL    HW246891   5.817   2.748   4.320
11643SOL    HW346892   5.729   2.654   4.239
11643SOL    MW446893   5.738   2.725   4.291
11644SOL     OW46894   5.962   2.441   5.547
11644SOL    HW246895   5.909   2.521   5.554
11644SOL    HW346896   6.032   2.453   5.612
11644SOL    MW446897   5.964   2.454   5.555
11645SOL     OW46898   6.348   1.991   5.254
11645SOL    HW246899   6.325   1.899   5.256
11645SOL    HW346900   6.434   1.993   5.211
11645SOL    MW446901   6.355   1.981   5.250
11646SOL     OW46902   6.032   2.515   5.293
11646SOL    HW246903   6.112   2.565   5.279
11646SOL    HW346904   6.023   2.509   5.388
11646SOL    MW446905   6.041   2.521   5.303
11647SOL     OW46906   6.353   3.665   4.667
11647SOL    HW246907   6.442   3.680   4.697
11647SOL    HW346908   6.348   3.712   4.583
11647SOL    MW446909   6.363   3.673   4.660
11648SOL     OW46910   7.009   2.040   5.564
11648SOL    HW246911   7.065   1.967   5.590
11648SOL    HW346912   6.979   2.078   5.646
11648SOL    MW446913   7.013   2.035   5.577
11649SOL     OW46914   5.734   3.345   4.332
11649SOL    HW246915   5.706   3.384   4.414
11649SOL    HW346916   5.754   3.254   4.354
11649SOL    MW446917   5.732   3.337   4.345
11650SOL     OW46918   6.567   3.388   4.367
11650SOL    HW246919   6.650   3.342   4.351
11650SOL    HW346920   6.557   3.387   4.463
11650SOL    MW446921   6.577   3.381   4.377
11651SOL     OW46922   7.399   2.533   4.681
11651SOL    HW246923   7.488   2.563   4.663
11651SOL    HW346924   7.379   2.473   4.610
11651SOL    MW446925   7.408   2.530   4.670
11652SOL     OW46926   7.250   2.712   5.561
11652SOL    HW246927   7.305   2.636   5.542
11652SOL    HW346928   7.252   2.720   5.656
11652SOL    MW446929   7.258   2.703   5.569
11653SOL     OW46930   6.300   3.445   3.772
11653SOL    HW246931   6.240   3.514   3.742
11653SOL    HW346932   6.245   3.387   3.825
11653SOL    MW446933   6.284   3.447   3.774
11654SOL     OW46934   6.738   2.090   3.995
11654SOL    HW246935   6.671   2.066   3.932
11654SOL    HW346936   6.803   2.139   3.944
11654SOL    MW446937   6.738   2.092   3.980
11655SOL     OW46938   6.545   2.274   5.080
11655SOL    HW246939   6.464   2.315   5.108
11655SOL    HW346940   6.592   2.342   5.032
11655SOL    MW446941   6.540   2.289   5.078
11656SOL     OW46942   6.805   2.612   4.703
11656SOL    HW246943   6.818   2.706   4.713
11656SOL    HW346944   6.766   2.602   4.617
11656SOL    MW446945   6.801   2.623   4.693
11657SOL     OW46946   6.257   2.807   4.507
11657SOL    HW246947   6.168   2.798   4.540
11657SOL    HW346948   6.261   2.897   4.475
11657SOL    MW446949   6.246   2.818   4.507
11658SOL     OW46950   7.056   2.390   4.502
11658SOL    HW246951   7.001   2.311   4.501
11658SOL    HW346952   7.038   2.431   4.586
11658SOL    MW446953   7.046   2.385   4.511
11659SOL     OW46954   6.027   2.077   5.319
11659SOL    HW246955   5.948   2.095   5.371
11659SOL    HW346956   6.022   2.139   5.246
11659SOL    MW446957   6.017   2.087   5.316
11660SOL     OW46958   6.675   2.594   4.459
11660SOL    HW246959   6.612   2.526   4.483
11660SOL    HW346960   6.695   2.575   4.367
11660SOL    MW446961   6.669   2.581   4.451
11661SOL     OW46962   5.931   3.489   4.161
11661SOL    HW246963   5.892   3.536   4.087
11661SOL    HW346964   5.865   3.424   4.186
11661SOL    MW446965   5.918   3.487   4.155
11662SOL     OW46966   6.423   2.898   4.185
11662SOL    HW246967   6.425   2.872   4.092
11662SOL    HW346968   6.481   2.835   4.228
11662SOL    MW446969   6.431   2.887   4.179
11663SOL     OW46970   6.976   3.458   4.957
11663SOL    HW246971   6.901   3.504   4.995
11663SOL    HW346972   6.958   3.365   4.974
11663SOL    MW446973   6.965   3.452   4.965
11664SOL     OW46974   6.980   3.666   4.387
11664SOL    HW246975   6.923   3.619   4.326
11664SOL    HW346976   7.066   3.627   4.374
11664SOL    MW446977   6.983   3.657   4.377
11665SOL     OW46978   6.933   2.142   4.518
11665SOL    HW246979   6.961   2.074   4.579
11665SOL    HW346980   6.847   2.113   4.488
11665SOL    MW446981   6.926   2.129   4.522
11666SOL     OW46982   5.738   3.076   4.452
11666SOL    HW246983   5.802   3.108   4.515
11666SOL    HW346984   5.787   3.012   4.400
11666SOL    MW446985   5.753   3.072   4.453
11667SOL     OW46986   6.238   3.152   5.434
11667SOL    HW246987   6.286   3.235   5.421
11667SOL    HW346988   6.295   3.100   5.490
11667SOL    MW446989   6.252   3.156   5.440
11668SOL     OW46990   5.814   3.394   5.574
11668SOL    HW246991   5.870   3.318   5.589
11668SOL    HW346992   5.763   3.372   5.496
11668SOL    MW446993   5.814   3.381   5.565
11669SOL     OW46994   6.913   2.246   3.853
11669SOL    HW246995   6.886   2.312   3.789
11669SOL    HW346996   6.983   2.289   3.903
11669SOL    MW446997   6.918   2.259   3.850
11670SOL     OW46998   6.581   1.951   3.790
11670SOL    HW246999   6.637   1.943   3.712
11670SOL    HW347000   6.558   1.861   3.812
11670SOL    MW447001   6.586   1.938   3.783
11671SOL     OW47002   7.086   2.802   3.995
11671SOL    HW247003   7.053   2.891   3.985
11671SOL    HW347004   7.051   2.773   4.080
11671SOL    MW447005   7.076   2.811   4.006
11672SOL     OW47006   6.699   3.231   5.183
11672SOL    HW247007   6.610   3.237   5.151
11672SOL    HW347008   6.743   3.310   5.151
11672SOL    MW447009   6.694   3.241   5.175
11673SOL     OW47010   5.992   1.899   5.525
11673SOL    HW247011   5.920   1.864   5.473
11673SOL    HW347012   6.050   1.940   5.460
11673SOL    MW447013   5.990   1.900   5.510
11674SOL     OW47014   6.016   3.389   4.824
11674SOL    HW247015   6.061   3.451   4.881
11674SOL    HW347016   5.923   3.408   4.837
11674SOL    MW447017   6.009   3.399   4.831
11675SOL     OW47018   7.456   2.918   5.178
11675SOL    HW247019   7.371   2.931   5.137
11675SOL    HW347020   7.436   2.882   5.265
11675SOL    MW447021   7.443   2.914   5.183
11676SOL     OW47022   6.438   3.457   4.932
11676SOL    HW247023   6.462   3.446   4.841
11676SOL    HW347024   6.361   3.514   4.930
11676SOL    MW447025   6.430   3.462   4.921
11677SOL     OW47026   6.080   2.840   3.787
11677SOL    HW247027   6.003   2.853   3.843
11677SOL    HW347028   6.044   2.804   3.706
11677SOL    MW447029   6.066   2.836   3.784
11678SOL     OW47030   6.733   2.813   4.030
11678SOL    HW247031   6.643   2.834   4.005
11678SOL    HW347032   6.760   2.886   4.086
11678SOL    MW447033   6.725   2.825   4.033
11679SOL     OW47034   6.233   3.162   4.722
11679SOL    HW247035   6.226   3.141   4.816
11679SOL    HW347036   6.151   3.130   4.685
11679SOL    MW447037   6.221   3.156   4.729
11680SOL     OW47038   7.097   2.172   5.124
11680SOL    HW247039   7.044   2.174   5.204
11680SOL    HW347040   7.082   2.085   5.087
11680SOL    MW447041   7.089   2.162   5.129
11681SOL     OW47042   7.433   2.096   4.997
11681SOL    HW247043   7.414   2.163   4.932
11681SOL    HW347044   7.490   2.034   4.952
11681SOL    MW447045   7.437   2.097   4.983
11682SOL     OW47046   5.679   3.254   5.385
11682SOL    HW247047   5.723   3.187   5.331
11682SOL    HW347048   5.594   3.216   5.405
11682SOL    MW447049   5.674   3.240   5.381
11683SOL     OW47050   6.362   1.929   4.437
11683SOL    HW247051   6.291   1.990   4.419
11683SOL    HW347052   6.413   1.926   4.356
11683SOL    MW447053   6.358   1.935   4.424
11684SOL     OW47054   6.120   3.169   4.186
11684SOL    HW247055   6.113   3.201   4.276
11684SOL    HW347056   6.030   3.153   4.158
11684SOL    MW447057   6.108   3.171   4.193
11685SOL     OW47058   6.715   3.562   5.095
11685SOL    HW247059   6.635   3.547   5.045
11685SOL    HW347060   6.722   3.657   5.102
11685SOL    MW447061   6.706   3.573   5.089
11686SOL     OW47062   6.829   3.527   4.585
11686SOL    HW247063   6.876   3.600   4.544
11686SOL    HW347064   6.750   3.566   4.621
11686SOL    MW447065   6.824   3.542   4.584
11687SOL     OW47066   7.237   3.622   4.860
11687SOL    HW247067   7.280   3.592   4.940
11687SOL    HW347068   7.156   3.570   4.857
11687SOL    MW447069   7.232   3.611   4.870
11688SOL     OW47070   6.322   2.586   5.567
11688SOL    HW247071   6.392   2.528   5.539
11688SOL    HW347072   6.265   2.531   5.622
11688SOL    MW447073   6.324   2.573   5.571
11689SOL     OW47074   7.109   2.798   5.200
11689SOL    HW247075   7.114   2.851   5.280
11689SOL    HW347076   7.071   2.715   5.228
11689SOL    MW447077   7.105   2.793   5.215
11690SOL     OW47078   6.749   1.933   5.446
11690SOL    HW247079   6.744   1.840   5.427
11690SOL    HW347080   6.832   1.944   5.492
11690SOL    MW447081   6.757   1.922   5.450
11691SOL     OW47082   6.123   2.453   3.900
11691SOL    HW247083   6.089   2.509   3.970
11691SOL    HW347084   6.194   2.403   3.940
11691SOL    MW447085   6.129   2.454   3.914
11692SOL     OW47086   7.219   3.204   4.722
11692SOL    HW247087   7.254   3.186   4.635
11692SOL    HW347088   7.124   3.205   4.709
11692SOL    MW447089   7.211   3.201   4.709
11693SOL     OW47090   6.648   2.852   5.091
11693SOL    HW247091   6.691   2.887   5.169
11693SOL    HW347092   6.631   2.929   5.037
11693SOL    MW447093   6.651   2.867   5.094
11694SOL     OW47094   7.179   2.339   3.964
11694SOL    HW247095   7.171   2.410   3.901
11694SOL    HW347096   7.197   2.383   4.047
11694SOL    MW447097   7.180   2.353   3.966
11695SOL     OW47098   6.039   1.994   4.393
11695SOL    HW247099   6.089   2.037   4.324
11695SOL    HW347100   5.954   2.038   4.393
11695SOL    MW447101   6.036   2.007   4.384
11696SOL     OW47102   5.798   3.056   5.253
11696SOL    HW247103   5.826   3.009   5.331
11696SOL    HW347104   5.719   3.011   5.224
11696SOL    MW447105   5.791   3.045   5.259
11697SOL     OW47106   6.306   2.383   5.220
11697SOL    HW247107   6.278   2.471   5.244
11697SOL    HW347108   6.275   2.327   5.291
11697SOL    MW447109   6.298   2.386   5.232
11698SOL     OW47110   6.848   2.601   3.939
11698SOL    HW247111   6.895   2.619   3.858
11698SOL    HW347112   6.814   2.685   3.967
11698SOL    MW447113   6.850   2.615   3.932
11699SOL     OW47114   5.961   2.779   4.433
11699SOL    HW247115   6.019   2.835   4.381
11699SOL    HW347116   6.005   2.694   4.435
11699SOL    MW447117   5.974   2.776   4.426
11700SOL     OW47118   7.101   2.131   4.270
11700SOL    HW247119   7.023   2.081   4.295
11700SOL    HW347120   7.072   2.222   4.270
11700SOL    MW447121   7.087   2.135   4.273
11701SOL     OW47122   6.687   2.093   4.429
11701SOL    HW247123   6.707   2.168   4.373
11701SOL    HW347124   6.667   2.132   4.514
11701SOL    MW447125   6.688   2.109   4.433
11702SOL     OW47126   6.583   3.343   3.761
11702SOL    HW247127   6.610   3.421   3.713
11702SOL    HW347128   6.490   3.358   3.780
11702SOL    MW447129   6.574   3.356   3.757
11703SOL     OW47130   7.447   2.866   5.448
11703SOL    HW247131   7.360   2.846   5.484
11703SOL    HW347132   7.501   2.792   5.473
11703SOL    MW447133   7.442   2.855   5.456
11704SOL     OW47134   5.668   3.379   4.605
11704SOL    HW247135   5.700   3.383   4.696
11704SOL    HW347136   5.573   3.387   4.613
11704SOL    MW447137   5.660   3.382   4.618
11705SOL     OW47138   5.623   2.505   4.152
11705SOL    HW247139   5.563   2.477   4.222
11705SOL    HW347140   5.697   2.445   4.158
11705SOL    MW447141   5.625   2.494   4.161
11706SOL     OW47142   7.191   3.717   5.586
11706SOL    HW247143   7.236   3.641   5.551
11706SOL    HW347144   7.229   3.730   5.673
11706SOL    MW447145   7.201   3.710   5.592
11707SOL     OW47146   6.791   3.236   4.312
11707SOL    HW247147   6.814   3.187   4.390
11707SOL    HW347148   6.872   3.278   4.284
11707SOL    MW447149   6.804   3.236   4.319
11708SOL     OW47150   6.049   2.244   5.041
11708SOL    HW247151   6.082   2.325   5.081
11708SOL    HW347152   6.022   2.270   4.953
11708SOL    MW447153   6.048   2.258   5.035
11709SOL     OW47154   6.003   2.211   4.777
11709SOL    HW247155   6.033   2.125   4.748
11709SOL    HW347156   5.908   2.204   4.780
11709SOL    MW447157   5.995   2.200   4.775
11710SOL     OW47158   6.832   2.420   5.468
11710SOL    HW247159   6.884   2.355   5.421
11710SOL    HW347160   6.790   2.471   5.398
11710SOL    MW447161   6.833   2.417   5.451
11711SOL     OW47162   6.931   2.215   5.329
11711SOL    HW247163   6.838   2.199   5.316
11711SOL    HW347164   6.957   2.153   5.397
11711SOL    MW447165   6.921   2.205   5.336
11712SOL     OW47166   6.146   1.989   4.668
11712SOL    HW247167   6.156   1.898   4.694
11712SOL    HW347168   6.102   1.985   4.583
11712SOL    MW447169   6.142   1.977   4.660
11713SOL     OW47170   6.240   3.604   5.214
11713SOL    HW247171   6.157   3.589   5.259
11713SOL    HW347172   6.299   3.537   5.249
11713SOL    MW447173   6.238   3.594   5.224
11714SOL     OW47174   7.297   2.311   4.839
11714SOL    HW247175   7.230   2.344   4.899
11714SOL    HW347176   7.340   2.389   4.805
11714SOL    MW447177   7.295   2.326   4.843
11715SOL     OW47178   7.475   3.031   4.809
11715SOL    HW247179   7.468   2.971   4.734
11715SOL    HW347180   7.401   3.091   4.798
11715SOL    MW447181   7.465   3.031   4.798
11716SOL     OW47182   6.857   2.893   4.727
11716SOL    HW247183   6.871   2.865   4.818
11716SOL    HW347184   6.943   2.924   4.699
11716SOL    MW447185   6.870   2.894   4.736
11717SOL     OW47186   6.940   2.388   5.006
11717SOL    HW247187   6.961   2.389   4.913
11717SOL    HW347188   6.985   2.310   5.039
11717SOL    MW447189   6.947   2.378   4.998
11718SOL     OW47190   7.433   2.519   5.548
11718SOL    HW247191   7.470   2.464   5.617
11718SOL    HW347192   7.458   2.476   5.466
11718SOL    MW447193   7.440   2.507   5.547
11719SOL     OW47194   6.980   2.817   5.600
11719SOL    HW247195   7.046   2.765   5.554
11719SOL    HW347196   7.000   2.804   5.693
11719SOL    MW447197   6.991   2.808   5.607
11720SOL     OW47198   6.931   1.903   3.948
11720SOL    HW247199   7.005   1.947   3.991
11720SOL    HW347200   6.855   1.957   3.970
11720SOL    MW447201   6.931   1.915   3.956
11721SOL     OW47202   6.991   2.678   4.226
11721SOL    HW247203   6.906   2.648   4.196
11721SOL    HW347204   6.983   2.685   4.321
11721SOL    MW447205   6.979   2.676   4.235
11722SOL     OW47206   6.067   3.141   4.957
11722SOL    HW247207   6.079   3.168   5.048
11722SOL    HW347208   6.048   3.222   4.910
11722SOL    MW447209   6.066   3.156   4.962
11723SOL     OW47210   6.351   2.121   4.780
11723SOL    HW247211   6.324   2.123   4.871
11723SOL    HW347212   6.281   2.073   4.735
11723SOL    MW447213   6.339   2.117   4.787
11724SOL     OW47214   6.205   3.613   4.942
11724SOL    HW247215   6.257   3.690   4.919
11724SOL    HW347216   6.214   3.605   5.037
11724SOL    MW447217   6.214   3.620   4.953
11725SOL     OW47218   7.107   3.198   5.174
11725SOL    HW247219   7.092   3.127   5.237
11725SOL    HW347220   7.153   3.156   5.102
11725SOL    MW447221   7.113   3.182   5.174
11726SOL     OW47222   6.181   2.929   5.291
11726SOL    HW247223   6.218   2.934   5.203
11726SOL    HW347224   6.220   3.002   5.338
11726SOL    MW447225   6.191   2.939   5.286
11727SOL     OW47226   6.361   2.972   5.103
11727SOL    HW247227   6.420   2.918   5.156
11727SOL    HW347228   6.376   2.944   5.013
11727SOL    MW447229   6.371   2.961   5.099
11728SOL     OW47230   6.364   2.344   3.952
11728SOL    HW247231   6.437   2.393   3.915
11728SOL    HW347232   6.380   2.253   3.926
11728SOL    MW447233   6.376   2.339   3.945
11729SOL     OW47234   7.172   3.461   5.275
11729SOL    HW247235   7.214   3.446   5.360
11729SOL    HW347236   7.163   3.374   5.237
11729SOL    MW447237   7.176   3.449   5.282
11730SOL     OW47238   6.832   1.940   4.866
11730SOL    HW247239   6.887   1.949   4.788
11730SOL    HW347240   6.887   1.974   4.937
11730SOL    MW447241   6.846   1.945   4.865
11731SOL     OW47242   5.839   2.853   4.050
11731SOL    HW247243   5.776   2.869   3.979
11731SOL    HW347244   5.786   2.816   4.121
11731SOL    MW447245   5.824   2.850   4.050
11732SOL     OW47246   6.195   3.207   3.909
11732SOL    HW247247   6.210   3.183   4.001
11732SOL    HW347248   6.103   3.185   3.893
11732SOL    MW447249   6.185   3.200   3.919
11733SOL     OW47250   6.734   3.438   4.061
11733SOL    HW247251   6.742   3.356   4.012
11733SOL    HW347252   6.653   3.477   4.028
11733SOL    MW447253   6.724   3.433   4.051
11734SOL     OW47254   5.993   3.596   4.630
11734SOL    HW247255   5.997   3.507   4.665
11734SOL    HW347256   6.019   3.587   4.539
11734SOL    MW447257   5.996   3.584   4.622
11735SOL     OW47258   6.610   3.074   4.873
11735SOL    HW247259   6.542   3.008   4.889
11735SOL    HW347260   6.628   3.068   4.780
11735SOL    MW447261   6.603   3.065   4.864
11736SOL     OW47262   5.699   3.349   5.124
11736SOL    HW247263   5.689   3.307   5.210
11736SOL    HW347264   5.620   3.402   5.114
11736SOL    MW447265   5.688   3.350   5.135
11737SOL     OW47266   6.603   2.213   4.694
11737SOL    HW247267   6.533   2.165   4.739
11737SOL    HW347268   6.635   2.276   4.758
11737SOL    MW447269   6.598   2.215   4.708
11738SOL     OW47270   6.254   2.649   5.314
11738SOL    HW247271   6.247   2.744   5.302
11738SOL    HW347272   6.263   2.638   5.409
11738SOL    MW447273   6.255   2.661   5.324
11739SOL     OW47274   5.975   3.164   5.572
11739SOL    HW247275   6.047   3.166   5.509
11739SOL    HW347276   5.945   3.073   5.571
11739SOL    MW447277   5.980   3.153   5.564
11740SOL     OW47278   7.059   1.927   5.039
11740SOL    HW247279   7.130   1.873   5.003
11740SOL    HW347280   7.058   1.906   5.132
11740SOL    MW447281   7.068   1.918   5.047
11741SOL     OW47282   7.259   3.457   5.523
11741SOL    HW247283   7.232   3.454   5.614
11741SOL    HW347284   7.355   3.461   5.526
11741SOL    MW447285   7.269   3.457   5.535
11742SOL     OW47286   6.070   2.319   4.507
11742SOL    HW247287   6.141   2.267   4.470
11742SOL    HW347288   6.056   2.284   4.594
11742SOL    MW447289   6.078   2.308   4.514
11743SOL     OW47290   5.625   3.654   5.579
11743SOL    HW247291   5.675   3.632   5.501
11743SOL    HW347292   5.633   3.749   5.587
11743SOL    MW447293   5.633   3.663   5.570
11744SOL     OW47294   6.386   3.412   4.583
11744SOL    HW247295   6.314   3.349   4.596
11744SOL    HW347296   6.347   3.497   4.601
11744SOL    MW447297   6.370   3.415   4.586
11745SOL     OW47298   6.706   2.260   4.231
11745SOL    HW247299   6.728   2.197   4.163
11745SOL    HW347300   6.611   2.252   4.242
11745SOL    MW447301   6.696   2.251   4.223
11746SOL     OW47302   5.791   1.950   4.163
11746SOL    HW247303   5.862   1.971   4.102
11746SOL    HW347304   5.745   1.878   4.121
11746SOL    MW447305   5.795   1.944   4.149
11747SOL     OW47306   5.622   2.417   5.306
11747SOL    HW247307   5.686   2.483   5.281
11747SOL    HW347308   5.541   2.444   5.263
11747SOL    MW447309   5.620   2.429   5.298
11748SOL     OW47310   7.360   3.324   4.263
11748SOL    HW247311   7.330   3.257   4.324
11748SOL    HW347312   7.454   3.330   4.277
11748SOL    MW447313   7.368   3.316   4.273
11749SOL     OW47314   6.916   3.001   4.193
11749SOL    HW247315   6.888   3.087   4.226
11749SOL    HW347316   6.944   3.017   4.103
11749SOL    MW447317   6.916   3.015   4.185
11750SOL     OW47318   6.578   1.921   4.246
11750SOL    HW247319   6.615   1.980   4.311
11750SOL    HW347320   6.555   1.977   4.172
11750SOL    MW447321   6.579   1.936   4.245
11751SOL     OW47322   7.431   2.803   4.668
11751SOL    HW247323   7.422   2.835   4.579
11751SOL    HW347324   7.384   2.719   4.668
11751SOL    MW447325   7.424   2.796   4.658
11752SOL     OW47326   5.807   2.643   5.247
11752SOL    HW247327   5.828   2.712   5.185
11752SOL    HW347328   5.887   2.590   5.252
11752SOL    MW447329   5.820   2.644   5.241
11753SOL     OW47330   7.343   2.734   4.369
11753SOL    HW247331   7.437   2.723   4.357
11753SOL    HW347332   7.319   2.806   4.310
11753SOL    MW447333   7.353   2.742   4.360
11754SOL     OW47334   5.792   2.658   5.514
11754SOL    HW247335   5.718   2.602   5.540
11754SOL    HW347336   5.787   2.661   5.419
11754SOL    MW447337   5.781   2.651   5.504
11755SOL     OW47338   5.958   1.945   4.964
11755SOL    HW247339   6.001   2.029   4.984
11755SOL    HW347340   6.031   1.883   4.957
11755SOL    MW447341   5.973   1.948   4.965
11756SOL     OW47342   5.999   2.612   4.142
11756SOL    HW247343   5.999   2.707   4.127
11756SOL    HW347344   6.076   2.596   4.196
11756SOL    MW447345   6.009   2.623   4.147
11757SOL     OW47346   6.775   2.471   5.206
11757SOL    HW247347   6.811   2.444   5.122
11757SOL    HW347348   6.688   2.505   5.185
11757SOL    MW447349   6.769   2.472   5.193
11758SOL     OW47350   5.758   2.343   4.431
11758SOL    HW247351   5.820   2.350   4.504
11758SOL    HW347352   5.758   2.250   4.408
11758SOL    MW447353   5.766   2.332   4.438
11759SOL     OW47354   7.305   3.683   3.963
11759SOL    HW247355   7.372   3.716   3.903
11759SOL    HW347356   7.262   3.762   3.997
11759SOL    MW447357   7.307   3.698   3.959
11760SOL     OW47358   6.440   2.604   4.915
11760SOL    HW247359   6.398   2.522   4.891
11760SOL    HW347360   6.441   2.603   5.011
11760SOL    MW447361   6.433   2.593   4.924
11761SOL     OW47362   7.111   3.737   5.314
11761SOL    HW247363   7.114   3.643   5.297
11761SOL    HW347364   7.134   3.745   5.406
11761SOL    MW447365   7.114   3.725   5.324
11762SOL     OW47366   6.244   2.074   5.020
11762SOL    HW247367   6.175   2.137   5.041
11762SOL    HW347368   6.271   2.038   5.105
11762SOL    MW447369   6.238   2.077   5.033
11763SOL     OW47370   5.627   2.915   3.889
11763SOL    HW247371   5.596   2.980   3.952
11763SOL    HW347372   5.576   2.837   3.908
11763SOL    MW447373   5.617   2.912   3.899
11764SOL     OW47374   7.039   1.927   4.637
11764SOL    HW247375   7.127   1.936   4.674
11764SOL    HW347376   7.049   1.868   4.563
11764SOL    MW447377   7.053   1.921   4.631
11765SOL     OW47378   7.071   2.666   4.481
11765SOL    HW247379   7.151   2.681   4.430
11765SOL    HW347380   7.064   2.571   4.487
11765SOL    MW447381   7.080   2.655   4.476
11766SOL     OW47382   6.211   3.715   3.831
11766SOL    HW247383   6.116   3.715   3.823
11766SOL    HW347384   6.227   3.661   3.909
11766SOL    MW447385   6.201   3.709   3.840
11767SOL     OW47386   6.521   2.592   5.178
11767SOL    HW247387   6.590   2.659   5.175
11767SOL    HW347388   6.454   2.630   5.234
11767SOL    MW447389   6.522   2.605   5.185
11768SOL     OW47390   5.939   2.892   5.426
11768SOL    HW247391   5.893   2.808   5.428
11768SOL    HW347392   5.996   2.886   5.350
11768SOL    MW447393   5.941   2.880   5.418
11769SOL     OW47394   7.056   2.535   3.747
11769SOL    HW247395   6.984   2.511   3.689
11769SOL    HW347396   7.122   2.572   3.689
11769SOL    MW447397   7.055   2.537   3.732
11770SOL     OW47398   6.190   3.267   4.427
11770SOL    HW247399   6.255   3.200   4.448
11770SOL    HW347400   6.242   3.344   4.404
11770SOL    MW447401   6.205   3.269   4.426
11771SOL     OW47402   6.451   2.432   4.557
11771SOL    HW247403   6.391   2.450   4.629
11771SOL    HW347404   6.485   2.344   4.576
11771SOL    MW447405   6.447   2.422   4.570
11772SOL     OW47406   7.392   1.931   5.226
11772SOL    HW247407   7.313   1.977   5.254
11772SOL    HW347408   7.427   1.985   5.155
11772SOL    MW447409   7.386   1.944   5.220
11773SOL     OW47410   6.676   3.015   4.576
11773SOL    HW247411   6.768   2.996   4.594
11773SOL    HW347412   6.649   2.945   4.516
11773SOL    MW447413   6.684   3.003   4.570
11774SOL     OW47414   6.469   2.835   3.931
11774SOL    HW247415   6.455   2.747   3.896
11774SOL    HW347416   6.420   2.892   3.872
11774SOL    MW447417   6.461   2.830   3.919
11775SOL     OW47418   6.950   3.253   4.672
11775SOL    HW247419   6.923   3.337   4.637
11775SOL    HW347420   6.910   3.248   4.759
11775SOL    MW447421   6.943   3.262   4.678
11776SOL     OW47422   6.869   3.201   4.940
11776SOL    HW247423   6.880   3.168   5.029
11776SOL    HW347424   6.788   3.160   4.909
11776SOL    MW447425   6.859   3.193   4.946
11777SOL     OW47426   5.882   2.559   4.710
11777SOL    HW247427   5.832   2.558   4.791
11777SOL    HW347428   5.902   2.651   4.694
11777SOL    MW447429   5.878   2.571   4.718
11778SOL     OW47430   6.949   3.323   5.472
11778SOL    HW247431   6.949   3.417   5.488
11778SOL    HW347432   6.994   3.313   5.388
11778SOL    MW447433   6.955   3.333   5.463
11779SOL     OW47434   7.188   2.041   4.033
11779SOL    HW247435   7.181   2.045   4.128
11779SOL    HW347436   7.200   2.132   4.006
11779SOL    MW447437   7.189   2.054   4.041
11780SOL     OW47438   6.477   2.604   4.147
11780SOL    HW247439   6.457   2.590   4.054
11780SOL    HW347440   6.570   2.583   4.154
11780SOL    MW447441   6.487   2.599   4.136
11781SOL     OW47442   5.804   2.227   5.451
11781SOL    HW247443   5.761   2.286   5.388
11781SOL    HW347444   5.872   2.282   5.491
11781SOL    MW447445   5.808   2.242   5.448
11782SOL     OW47446   6.916   2.847   4.996
11782SOL    HW247447   6.979   2.844   5.069
11782SOL    HW347448   6.832   2.865   5.038
11782SOL    MW447449   6.912   2.849   5.011
11783SOL     OW47450   6.460   3.562   4.185
11783SOL    HW247451   6.518   3.633   4.212
11783SOL    HW347452   6.483   3.490   4.243
11783SOL    MW447453   6.471   3.562   4.196
11784SOL     OW47454   7.255   2.024   4.775
11784SOL    HW247455   7.300   1.942   4.794
11784SOL    HW347456   7.275   2.080   4.851
11784SOL    MW447457   7.265   2.020   4.787
11785SOL     OW47458   5.703   1.867   4.874
11785SOL    HW247459   5.694   1.868   4.779
11785SOL    HW347460   5.797   1.879   4.889
11785SOL    MW447461   5.715   1.870   4.865
11786SOL     OW47462   7.340   3.060   4.494
11786SOL    HW247463   7.319   3.006   4.417
11786SOL    HW347464   7.436   3.058   4.498
11786SOL    MW447465   7.349   3.053   4.483
11787SOL     OW47466   6.032   3.205   5.237
11787SOL    HW247467   5.953   3.155   5.260
11787SOL    HW347468   6.102   3.164   5.287
11787SOL    MW447469   6.030   3.193   5.247
11788SOL     OW47470   5.916   1.994   3.920
11788SOL    HW247471   5.845   2.049   3.888
11788SOL    HW347472   5.958   1.960   3.841
11788SOL    MW447473   5.912   1.996   3.906
11789SOL     OW47474   7.040   2.491   4.756
11789SOL    HW247475   6.963   2.537   4.722
11789SOL    HW347476   7.097   2.560   4.790
11789SOL    MW447477   7.037   2.506   4.756
11790SOL     OW47478   5.672   2.093   3.769
11790SOL    HW247479   5.639   2.172   3.813
11790SOL    HW347480   5.727   2.126   3.698
11790SOL    MW447481   5.675   2.107   3.766
11791SOL     OW47482   5.706   3.350   3.958
11791SOL    HW247483   5.723   3.434   4.000
11791SOL    HW347484   5.741   3.359   3.870
11791SOL    MW447485   5.711   3.363   3.952
11792SOL     OW47486   6.978   3.439   4.175
11792SOL    HW247487   7.041   3.429   4.104
11792SOL    HW347488   6.895   3.459   4.130
11792SOL    MW447489   6.975   3.440   4.160
11793SOL     OW47490   7.341   2.707   5.862
11793SOL    HW247491   7.382   2.649   5.927
11793SOL    HW347492   7.248   2.699   5.879
11793SOL    MW447493   7.335   2.699   5.872
11794SOL     OW47494   7.207   2.639   6.857
11794SOL    HW247495   7.162   2.706   6.908
11794SOL    HW347496   7.295   2.675   6.843
11794SOL    MW447497   7.213   2.652   6.861
11795SOL     OW47498   6.135   2.890   6.091
11795SOL    HW247499   6.225   2.865   6.075
11795SOL    HW347500   6.131   2.983   6.068
11795SOL    MW447501   6.147   2.899   6.086
11796SOL     OW47502   7.251   3.593   6.233
11796SOL    HW247503   7.263   3.539   6.311
11796SOL    HW347504   7.288   3.541   6.162
11796SOL    MW447505   7.257   3.578   6.234
11797SOL     OW47506   6.630   3.478   7.234
11797SOL    HW247507   6.671   3.514   7.155
11797SOL    HW347508   6.665   3.389   7.241
11797SOL    MW447509   6.641   3.471   7.225
11798SOL     OW47510   7.187   3.033   6.838
11798SOL    HW247511   7.108   2.998   6.796
11798SOL    HW347512   7.214   3.105   6.782
11798SOL    MW447513   7.180   3.038   6.825
11799SOL     OW47514   6.419   2.346   6.104
11799SOL    HW247515   6.394   2.434   6.132
11799SOL    HW347516   6.416   2.349   6.008
11799SOL    MW447517   6.415   2.358   6.096
11800SOL     OW47518   5.861   2.374   6.032
11800SOL    HW247519   5.893   2.462   6.014
11800SOL    HW347520   5.849   2.372   6.127
11800SOL    MW447521   5.864   2.386   6.044
11801SOL     OW47522   5.939   2.787   6.933
11801SOL    HW247523   6.002   2.734   6.884
11801SOL    HW347524   5.920   2.861   6.876
11801SOL    MW447525   5.945   2.789   6.920
11802SOL     OW47526   6.260   2.129   6.119
11802SOL    HW247527   6.318   2.205   6.121
11802SOL    HW347528   6.195   2.150   6.052
11802SOL    MW447529   6.259   2.141   6.110
11803SOL     OW47530   6.347   3.056   6.294
11803SOL    HW247531   6.427   3.059   6.346
11803SOL    HW347532   6.375   3.023   6.208
11803SOL    MW447533   6.361   3.052   6.289
11804SOL     OW47534   6.372   3.397   7.197
11804SOL    HW247535   6.456   3.423   7.236
11804SOL    HW347536   6.396   3.341   7.123
11804SOL    MW447537   6.386   3.393   7.192
11805SOL     OW47538   6.124   2.560   6.285
11805SOL    HW247539   6.109   2.480   6.336
11805SOL    HW347540   6.206   2.595   6.319
11805SOL    MW447541   6.132   2.552   6.297
11806SOL     OW47542   6.461   3.246   6.970
11806SOL    HW247543   6.425   3.312   6.910
11806SOL    HW347544   6.389   3.184   6.983
11806SOL    MW447545   6.447   3.246   6.964
11807SOL     OW47546   6.266   2.386   6.662
11807SOL    HW247547   6.172   2.382   6.680
11807SOL    HW347548   6.296   2.295   6.671
11807SOL    MW447549   6.257   2.374   6.665
11808SOL     OW47550   6.012   2.800   6.566
11808SOL    HW247551   5.967   2.807   6.482
11808SOL    HW347552   5.992   2.883   6.610
11808SOL    MW447553   6.004   2.812   6.560
11809SOL     OW47554   5.709   3.646   6.441
11809SOL    HW247555   5.798   3.638   6.476
11809SOL    HW347556   5.673   3.558   6.446
11809SOL    MW447557   5.716   3.633   6.446
11810SOL     OW47558   6.974   3.038   5.810
11810SOL    HW247559   6.892   3.074   5.776
11810SOL    HW347560   7.042   3.081   5.759
11810SOL    MW447561   6.972   3.048   5.798
11811SOL     OW47562   5.973   3.173   6.476
11811SOL    HW247563   5.949   3.226   6.552
11811SOL    HW347564   6.029   3.231   6.424
11811SOL    MW447565   5.977   3.188   6.479
11812SOL     OW47566   6.535   2.817   6.286
11812SOL    HW247567   6.449   2.804   6.326
11812SOL    HW347568   6.588   2.744   6.318
11812SOL    MW447569   6.531   2.806   6.295
11813SOL     OW47570   5.943   3.469   7.071
11813SOL    HW247571   5.851   3.445   7.056
11813SOL    HW347572   5.987   3.386   7.088
11813SOL    MW447573   5.937   3.454   7.070
11814SOL     OW47574   6.526   3.179   6.003
11814SOL    HW247575   6.503   3.241   6.071
11814SOL    HW347576   6.483   3.097   6.029
11814SOL    MW447577   6.518   3.175   6.014
11815SOL     OW47578   7.399   2.180   6.459
11815SOL    HW247579   7.336   2.160   6.528
11815SOL    HW347580   7.389   2.109   6.396
11815SOL    MW447581   7.389   2.167   6.460
11816SOL     OW47582   6.023   2.152   5.971
11816SOL    HW247583   5.997   2.114   5.887
11816SOL    HW347584   5.960   2.222   5.987
11816SOL    MW447585   6.012   2.155   5.962
11817SOL     OW47586   5.858   3.113   6.008
11817SOL    HW247587   5.806   3.181   5.964
11817SOL    HW347588   5.855   3.039   5.948
11817SOL    MW447589   5.850   3.112   5.995
11818SOL     OW47590   6.520   3.576   5.786
11818SOL    HW247591   6.475   3.592   5.869
11818SOL    HW347592   6.451   3.541   5.728
11818SOL    MW447593   6.506   3.573   5.788
11819SOL     OW47594   7.455   2.349   5.761
11819SOL    HW247595   7.364   2.351   5.789
11819SOL    HW347596   7.500   2.411   5.819
11819SOL    MW447597   7.448   2.357   5.771
11820SOL     OW47598   7.200   2.952   6.111
11820SOL    HW247599   7.110   2.952   6.146
11820SOL    HW347600   7.193   2.998   6.028
11820SOL    MW447601   7.187   2.958   6.105
11821SOL     OW47602   7.000   2.587   7.183
11821SOL    HW247603   7.069   2.525   7.160
11821SOL    HW347604   6.925   2.561   7.130
11821SOL    MW447605   7.000   2.574   7.174
11822SOL     OW47606   5.741   3.467   6.735
11822SOL    HW247607   5.724   3.413   6.812
11822SOL    HW347608   5.729   3.557   6.765
11822SOL    MW447609   5.738   3.471   6.749
11823SOL     OW47610   6.736   2.974   7.175
11823SOL    HW247611   6.721   3.067   7.160
11823SOL    HW347612   6.831   2.964   7.175
11823SOL    MW447613   6.745   2.984   7.172
11824SOL     OW47614   6.532   2.398   7.376
11824SOL    HW247615   6.622   2.399   7.343
11824SOL    HW347616   6.491   2.323   7.334
11824SOL    MW447617   6.538   2.388   7.367
11825SOL     OW47618   7.107   2.930   6.503
11825SOL    HW247619   7.110   2.864   6.434
11825SOL    HW347620   7.192   2.973   6.499
11825SOL    MW447621   7.119   2.926   6.494
11826SOL     OW47622   6.727   2.533   6.072
11826SOL    HW247623   6.753   2.557   5.983
11826SOL    HW347624   6.709   2.440   6.068
11826SOL    MW447625   6.729   2.525   6.059
11827SOL     OW47626   7.392   3.153   5.923
11827SOL    HW247627   7.348   3.194   5.998
11827SOL    HW347628   7.449   3.221   5.888
11827SOL    MW447629   7.394   3.167   5.928
11828SOL     OW47630   6.312   2.202   7.326
11828SOL    HW247631   6.322   2.128   7.266
11828SOL    HW347632   6.348   2.171   7.409
11828SOL    MW447633   6.318   2.188   7.328
11829SOL     OW47634   6.048   3.569   6.241
11829SOL    HW247635   6.080   3.657   6.219
11829SOL    HW347636   6.001   3.541   6.163
11829SOL    MW447637   6.047   3.577   6.228
11830SOL     OW47638   7.432   1.931   6.290
11830SOL    HW247639   7.486   1.882   6.352
11830SOL    HW347640   7.375   1.865   6.251
11830SOL    MW447641   7.432   1.915   6.292
11831SOL     OW47642   5.764   3.629   5.818
11831SOL    HW247643   5.793   3.719   5.810
11831SOL    HW347644   5.714   3.612   5.739
11831SOL    MW447645   5.762   3.637   5.807
11832SOL     OW47646   6.551   1.884   6.703
11832SOL    HW247647   6.510   1.962   6.665
11832SOL    HW347648   6.645   1.902   6.698
11832SOL    MW447649   6.557   1.896   6.698
11833SOL     OW47650   7.168   3.437   5.789
11833SOL    HW247651   7.216   3.506   5.835
11833SOL    HW347652   7.089   3.481   5.758
11833SOL    MW447653   7.163   3.451   5.792
11834SOL     OW47654   6.566   2.562   5.733
11834SOL    HW247655   6.568   2.509   5.654
11834SOL    HW347656   6.654   2.599   5.739
11834SOL    MW447657   6.578   2.561   5.722
11835SOL     OW47658   7.180   2.488   6.069
11835SOL    HW247659   7.219   2.488   6.156
11835SOL    HW347660   7.121   2.564   6.069
11835SOL    MW447661   7.177   2.499   6.080
11836SOL     OW47662   6.497   2.855   7.198
11836SOL    HW247663   6.474   2.835   7.288
11836SOL    HW347664   6.582   2.899   7.203
11836SOL    MW447665   6.504   2.858   7.210
11837SOL     OW47666   6.577   1.992   6.958
11837SOL    HW247667   6.583   1.954   6.871
11837SOL    HW347668   6.566   2.086   6.943
11837SOL    MW447669   6.578   2.000   6.946
11838SOL     OW47670   6.666   2.481   6.792
11838SOL    HW247671   6.741   2.510   6.739
11838SOL    HW347672   6.598   2.546   6.776
11838SOL    MW447673   6.667   2.493   6.782
11839SOL     OW47674   7.216   2.449   7.069
11839SOL    HW247675   7.197   2.358   7.048
11839SOL    HW347676   7.194   2.498   6.990
11839SOL    MW447677   7.211   2.442   7.056
11840SOL     OW47678   7.358   3.543   6.973
11840SOL    HW247679   7.286   3.505   7.024
11840SOL    HW347680   7.375   3.628   7.014
11840SOL    MW447681   7.352   3.548   6.985
11841SOL     OW47682   6.663   2.187   7.175
11841SOL    HW247683   6.629   2.226   7.094
11841SOL    HW347684   6.641   2.095   7.168
11841SOL    MW447685   6.656   2.180   7.165
11842SOL     OW47686   7.072   3.001   7.251
11842SOL    HW247687   7.154   3.042   7.281
11842SOL    HW347688   7.035   2.963   7.331
11842SOL    MW447689   7.078   3.002   7.266
11843SOL     OW47690   7.367   2.374   6.235
11843SOL    HW247691   7.456   2.343   6.252
11843SOL    HW347692   7.310   2.314   6.283
11843SOL    MW447693   7.370   2.362   6.244
11844SOL     OW47694   5.793   2.088   6.264
11844SOL    HW247695   5.784   2.028   6.190
11844SOL    HW347696   5.726   2.059   6.327
11844SOL    MW447697   5.783   2.075   6.262
11845SOL     OW47698   6.736   3.181   5.825
11845SOL    HW247699   6.686   3.183   5.907
11845SOL    HW347700   6.670   3.199   5.757
11845SOL    MW447701   6.722   3.183   5.827
11846SOL     OW47702   5.740   2.261   6.627
11846SOL    HW247703   5.712   2.352   6.636
11846SOL    HW347704   5.677   2.222   6.566
11846SOL    MW447705   5.727   2.267   6.621
11847SOL     OW47706   6.199   3.599   5.933
11847SOL    HW247707   6.120   3.557   5.966
11847SOL    HW347708   6.265   3.582   6.000
11847SOL    MW447709   6.198   3.591   5.946
11848SOL     OW47710   7.327   3.119   7.330
11848SOL    HW247711   7.377   3.045   7.362
11848SOL    HW347712   7.273   3.146   7.405
11848SOL    MW447713   7.327   3.113   7.343
11849SOL     OW47714   6.335   3.014   5.640
11849SOL    HW247715   6.257   2.960   5.627
11849SOL    HW347716   6.306   3.087   5.693
11849SOL    MW447717   6.321   3.016   5.645
11850SOL     OW47718   7.461   2.754   6.832
11850SOL    HW247719   7.477   2.792   6.745
11850SOL    HW347720   7.495   2.820   6.893
11850SOL    MW447721   7.468   2.767   6.828
11851SOL     OW47722   7.253   3.463   6.501
11851SOL    HW247723   7.282   3.530   6.562
11851SOL    HW347724   7.234   3.387   6.556
11851SOL    MW447725   7.255   3.463   6.516
11852SOL     OW47726   6.916   3.530   5.708
11852SOL    HW247727   6.842   3.493   5.758
11852SOL    HW347728   6.924   3.620   5.741
11852SOL    MW447729   6.907   3.537   5.720
11853SOL     OW47730   5.724   2.536   6.797
11853SOL    HW247731   5.786   2.566   6.863
11853SOL    HW347732   5.658   2.605   6.791
11853SOL    MW447733   5.723   2.549   6.804
11854SOL     OW47734   7.140   3.204   5.650
11854SOL    HW247735   7.087   3.253   5.586
11854SOL    HW347736   7.171   3.270   5.711
11854SOL    MW447737   7.138   3.218   5.648
11855SOL     OW47738   6.365   2.093   5.705
11855SOL    HW247739   6.313   2.013   5.693
11855SOL    HW347740   6.452   2.070   5.673
11855SOL    MW447741   6.368   2.079   5.699
11856SOL     OW47742   5.819   3.645   7.249
11856SOL    HW247743   5.793   3.713   7.187
11856SOL    HW347744   5.867   3.582   7.197
11856SOL    MW447745   5.821   3.645   7.235
11857SOL     OW47746   5.871   2.964   6.756
11857SOL    HW247747   5.924   3.039   6.781
11857SOL    HW347748   5.790   3.002   6.722
11857SOL    MW447749   5.867   2.979   6.756
11858SOL     OW47750   6.411   2.868   6.744
11858SOL    HW247751   6.439   2.777   6.756
11858SOL    HW347752   6.340   2.862   6.680
11858SOL    MW447753   6.404   2.856   6.739
11859SOL     OW47754   5.726   2.733   6.162
11859SOL    HW247755   5.817   2.748   6.189
11859SOL    HW347756   5.729   2.654   6.108
11859SOL    MW447757   5.738   2.725   6.160
11860SOL     OW47758   5.962   2.441   7.416
11860SOL    HW247759   5.909   2.521   7.423
11860SOL    HW347760   6.032   2.453   7.481
11860SOL    MW447761   5.964   2.454   7.424
11861SOL     OW47762   6.348   1.991   7.123
11861SOL    HW247763   6.325   1.899   7.125
11861SOL    HW347764   6.434   1.993   7.080
11861SOL    MW447765   6.355   1.981   7.119
11862SOL     OW47766   6.032   2.515   7.162
11862SOL    HW247767   6.112   2.565   7.148
11862SOL    HW347768   6.023   2.509   7.257
11862SOL    MW447769   6.041   2.521   7.172
11863SOL     OW47770   6.353   3.665   6.536
11863SOL    HW247771   6.442   3.680   6.566
11863SOL    HW347772   6.348   3.712   6.452
11863SOL    MW447773   6.363   3.673   6.529
11864SOL     OW47774   7.009   2.040   7.433
11864SOL    HW247775   7.065   1.967   7.459
11864SOL    HW347776   6.979   2.078   7.515
11864SOL    MW447777   7.013   2.035   7.446
11865SOL     OW47778   5.734   3.345   6.201
11865SOL    HW247779   5.706   3.384   6.283
11865SOL    HW347780   5.754   3.254   6.223
11865SOL    MW447781   5.732   3.337   6.214
11866SOL     OW47782   6.567   3.388   6.236
11866SOL    HW247783   6.650   3.342   6.220
11866SOL    HW347784   6.557   3.387   6.332
11866SOL    MW447785   6.577   3.381   6.246
11867SOL     OW47786   7.399   2.533   6.550
11867SOL    HW247787   7.488   2.563   6.532
11867SOL    HW347788   7.379   2.473   6.479
11867SOL    MW447789   7.408   2.530   6.539
11868SOL     OW47790   7.250   2.712   7.430
11868SOL    HW247791   7.305   2.636   7.411
11868SOL    HW347792   7.252   2.720   7.525
11868SOL    MW447793   7.258   2.703   7.438
11869SOL     OW47794   6.300   3.445   5.641
11869SOL    HW247795   6.240   3.514   5.611
11869SOL    HW347796   6.245   3.387   5.694
11869SOL    MW447797   6.284   3.447   5.643
11870SOL     OW47798   6.738   2.090   5.864
11870SOL    HW247799   6.671   2.066   5.801
11870SOL    HW347800   6.803   2.139   5.813
11870SOL    MW447801   6.738   2.092   5.849
11871SOL     OW47802   6.545   2.274   6.949
11871SOL    HW247803   6.464   2.315   6.977
11871SOL    HW347804   6.592   2.342   6.901
11871SOL    MW447805   6.540   2.289   6.947
11872SOL     OW47806   6.805   2.612   6.572
11872SOL    HW247807   6.818   2.706   6.582
11872SOL    HW347808   6.766   2.602   6.486
11872SOL    MW447809   6.801   2.623   6.562
11873SOL     OW47810   6.257   2.807   6.376
11873SOL    HW247811   6.168   2.798   6.409
11873SOL    HW347812   6.261   2.897   6.344
11873SOL    MW447813   6.246   2.818   6.376
11874SOL     OW47814   7.056   2.390   6.371
11874SOL    HW247815   7.001   2.311   6.370
11874SOL    HW347816   7.038   2.431   6.455
11874SOL    MW447817   7.046   2.385   6.380
11875SOL     OW47818   6.027   2.077   7.188
11875SOL    HW247819   5.948   2.095   7.240
11875SOL    HW347820   6.022   2.139   7.115
11875SOL    MW447821   6.017   2.087   7.185
11876SOL     OW47822   6.675   2.594   6.328
11876SOL    HW247823   6.612   2.526   6.352
11876SOL    HW347824   6.695   2.575   6.236
11876SOL    MW447825   6.669   2.581   6.320
11877SOL     OW47826   5.931   3.489   6.030
11877SOL    HW247827   5.892   3.536   5.956
11877SOL    HW347828   5.865   3.424   6.055
11877SOL    MW447829   5.918   3.487   6.024
11878SOL     OW47830   6.423   2.898   6.054
11878SOL    HW247831   6.425   2.872   5.961
11878SOL    HW347832   6.481   2.835   6.097
11878SOL    MW447833   6.431   2.887   6.048
11879SOL     OW47834   6.976   3.458   6.826
11879SOL    HW247835   6.901   3.504   6.864
11879SOL    HW347836   6.958   3.365   6.843
11879SOL    MW447837   6.965   3.452   6.834
11880SOL     OW47838   6.980   3.666   6.256
11880SOL    HW247839   6.923   3.619   6.195
11880SOL    HW347840   7.066   3.627   6.243
11880SOL    MW447841   6.983   3.657   6.246
11881SOL     OW47842   6.933   2.142   6.387
11881SOL    HW247843   6.961   2.074   6.448
11881SOL    HW347844   6.847   2.113   6.357
11881SOL    MW447845   6.926   2.129   6.391
11882SOL     OW47846   5.738   3.076   6.321
11882SOL    HW247847   5.802   3.108   6.384
11882SOL    HW347848   5.787   3.012   6.269
11882SOL    MW447849   5.753   3.072   6.322
11883SOL     OW47850   6.238   3.152   7.303
11883SOL    HW247851   6.286   3.235   7.290
11883SOL    HW347852   6.295   3.100   7.359
11883SOL    MW447853   6.252   3.156   7.309
11884SOL     OW47854   5.814   3.394   7.443
11884SOL    HW247855   5.870   3.318   7.458
11884SOL    HW347856   5.763   3.372   7.365
11884SOL    MW447857   5.814   3.381   7.434
11885SOL     OW47858   6.913   2.246   5.722
11885SOL    HW247859   6.886   2.312   5.658
11885SOL    HW347860   6.983   2.289   5.772
11885SOL    MW447861   6.918   2.259   5.719
11886SOL     OW47862   6.581   1.951   5.659
11886SOL    HW247863   6.637   1.943   5.581
11886SOL    HW347864   6.558   1.861   5.681
11886SOL    MW447865   6.586   1.938   5.652
11887SOL     OW47866   7.086   2.802   5.864
11887SOL    HW247867   7.053   2.891   5.854
11887SOL    HW347868   7.051   2.773   5.949
11887SOL    MW447869   7.076   2.811   5.875
11888SOL     OW47870   6.699   3.231   7.052
11888SOL    HW247871   6.610   3.237   7.020
11888SOL    HW347872   6.743   3.310   7.020
11888SOL    MW447873   6.694   3.241   7.044
11889SOL     OW47874   5.992   1.899   7.394
11889SOL    HW247875   5.920   1.864   7.342
11889SOL    HW347876   6.050   1.940   7.329
11889SOL    MW447877   5.990   1.900   7.379
11890SOL     OW47878   6.016   3.389   6.693
11890SOL    HW247879   6.061   3.451   6.750
11890SOL    HW347880   5.923   3.408   6.706
11890SOL    MW447881   6.009   3.399   6.700
11891SOL     OW47882   7.456   2.918   7.047
11891SOL    HW247883   7.371   2.931   7.006
11891SOL    HW347884   7.436   2.882   7.134
11891SOL    MW447885   7.443   2.914   7.052
11892SOL     OW47886   6.438   3.457   6.801
11892SOL    HW247887   6.462   3.446   6.710
11892SOL    HW347888   6.361   3.514   6.799
11892SOL    MW447889   6.430   3.462   6.790
11893SOL     OW47890   6.080   2.840   5.656
11893SOL    HW247891   6.003   2.853   5.712
11893SOL    HW347892   6.044   2.804   5.575
11893SOL    MW447893   6.066   2.836   5.653
11894SOL     OW47894   6.733   2.813   5.899
11894SOL    HW247895   6.643   2.834   5.874
11894SOL    HW347896   6.760   2.886   5.955
11894SOL    MW447897   6.725   2.825   5.902
11895SOL     OW47898   6.233   3.162   6.591
11895SOL    HW247899   6.226   3.141   6.685
11895SOL    HW347900   6.151   3.130   6.554
11895SOL    MW447901   6.221   3.156   6.598
11896SOL     OW47902   7.097   2.172   6.993
11896SOL    HW247903   7.044   2.174   7.073
11896SOL    HW347904   7.082   2.085   6.956
11896SOL    MW447905   7.089   2.162   6.998
11897SOL     OW47906   7.433   2.096   6.866
11897SOL    HW247907   7.414   2.163   6.801
11897SOL    HW347908   7.490   2.034   6.821
11897SOL    MW447909   7.437   2.097   6.852
11898SOL     OW47910   5.679   3.254   7.254
11898SOL    HW247911   5.723   3.187   7.200
11898SOL    HW347912   5.594   3.216   7.274
11898SOL    MW447913   5.674   3.240   7.250
11899SOL     OW47914   6.362   1.929   6.306
11899SOL    HW247915   6.291   1.990   6.288
11899SOL    HW347916   6.413   1.926   6.225
11899SOL    MW447917   6.358   1.935   6.293
11900SOL     OW47918   6.120   3.169   6.055
11900SOL    HW247919   6.113   3.201   6.145
11900SOL    HW347920   6.030   3.153   6.027
11900SOL    MW447921   6.108   3.171   6.062
11901SOL     OW47922   6.715   3.562   6.964
11901SOL    HW247923   6.635   3.547   6.914
11901SOL    HW347924   6.722   3.657   6.971
11901SOL    MW447925   6.706   3.573   6.958
11902SOL     OW47926   6.829   3.527   6.454
11902SOL    HW247927   6.876   3.600   6.413
11902SOL    HW347928   6.750   3.566   6.490
11902SOL    MW447929   6.824   3.542   6.453
11903SOL     OW47930   7.237   3.622   6.729
11903SOL    HW247931   7.280   3.592   6.809
11903SOL    HW347932   7.156   3.570   6.726
11903SOL    MW447933   7.232   3.611   6.739
11904SOL     OW47934   6.322   2.586   7.436
11904SOL    HW247935   6.392   2.528   7.408
11904SOL    HW347936   6.265   2.531   7.491
11904SOL    MW447937   6.324   2.573   7.440
11905SOL     OW47938   7.109   2.798   7.069
11905SOL    HW247939   7.114   2.851   7.149
11905SOL    HW347940   7.071   2.715   7.097
11905SOL    MW447941   7.105   2.793   7.084
11906SOL     OW47942   6.749   1.933   7.315
11906SOL    HW247943   6.744   1.840   7.296
11906SOL    HW347944   6.832   1.944   7.361
11906SOL    MW447945   6.757   1.922   7.319
11907SOL     OW47946   6.123   2.453   5.769
11907SOL    HW247947   6.089   2.509   5.839
11907SOL    HW347948   6.194   2.403   5.809
11907SOL    MW447949   6.129   2.454   5.783
11908SOL     OW47950   7.219   3.204   6.591
11908SOL    HW247951   7.254   3.186   6.504
11908SOL    HW347952   7.124   3.205   6.578
11908SOL    MW447953   7.211   3.201   6.578
11909SOL     OW47954   6.648   2.852   6.960
11909SOL    HW247955   6.691   2.887   7.038
11909SOL    HW347956   6.631   2.929   6.906
11909SOL    MW447957   6.651   2.867   6.963
11910SOL     OW47958   7.179   2.339   5.833
11910SOL    HW247959   7.171   2.410   5.770
11910SOL    HW347960   7.197   2.383   5.916
11910SOL    MW447961   7.180   2.353   5.835
11911SOL     OW47962   6.039   1.994   6.262
11911SOL    HW247963   6.089   2.037   6.193
11911SOL    HW347964   5.954   2.038   6.262
11911SOL    MW447965   6.036   2.007   6.253
11912SOL     OW47966   5.798   3.056   7.122
11912SOL    HW247967   5.826   3.009   7.200
11912SOL    HW347968   5.719   3.011   7.093
11912SOL    MW447969   5.791   3.045   7.128
11913SOL     OW47970   6.306   2.383   7.089
11913SOL    HW247971   6.278   2.471   7.113
11913SOL    HW347972   6.275   2.327   7.160
11913SOL    MW447973   6.298   2.386   7.101
11914SOL     OW47974   6.848   2.601   5.808
11914SOL    HW247975   6.895   2.619   5.727
11914SOL    HW347976   6.814   2.685   5.836
11914SOL    MW447977   6.850   2.615   5.801
11915SOL     OW47978   5.961   2.779   6.302
11915SOL    HW247979   6.019   2.835   6.250
11915SOL    HW347980   6.005   2.694   6.304
11915SOL    MW447981   5.974   2.776   6.295
11916SOL     OW47982   7.101   2.131   6.139
11916SOL    HW247983   7.023   2.081   6.164
11916SOL    HW347984   7.072   2.222   6.139
11916SOL    MW447985   7.087   2.135   6.142
11917SOL     OW47986   6.687   2.093   6.298
11917SOL    HW247987   6.707   2.168   6.242
11917SOL    HW347988   6.667   2.132   6.383
11917SOL    MW447989   6.688   2.109   6.302
11918SOL     OW47990   6.583   3.343   5.630
11918SOL    HW247991   6.610   3.421   5.582
11918SOL    HW347992   6.490   3.358   5.649
11918SOL    MW447993   6.574   3.356   5.626
11919SOL     OW47994   7.447   2.866   7.317
11919SOL    HW247995   7.360   2.846   7.353
11919SOL    HW347996   7.501   2.792   7.342
11919SOL    MW447997   7.442   2.855   7.325
11920SOL     OW47998   5.668   3.379   6.474
11920SOL    HW247999   5.700   3.383   6.565
11920SOL    HW348000   5.573   3.387   6.482
11920SOL    MW448001   5.660   3.382   6.487
11921SOL     OW48002   5.623   2.505   6.021
11921SOL    HW248003   5.563   2.477   6.091
11921SOL    HW348004   5.697   2.445   6.027
11921SOL    MW448005   5.625   2.494   6.030
11922SOL     OW48006   7.191   3.717   7.455
11922SOL    HW248007   7.236   3.641   7.420
11922SOL    HW348008   7.229   3.730   7.542
11922SOL    MW448009   7.201   3.710   7.461
11923SOL     OW48010   6.791   3.236   6.181
11923SOL    HW248011   6.814   3.187   6.259
11923SOL    HW348012   6.872   3.278   6.153
11923SOL    MW448013   6.804   3.236   6.188
11924SOL     OW48014   6.049   2.244   6.910
11924SOL    HW248015   6.082   2.325   6.950
11924SOL    HW348016   6.022   2.270   6.822
11924SOL    MW448017   6.048   2.258   6.904
11925SOL     OW48018   6.003   2.211   6.646
11925SOL    HW248019   6.033   2.125   6.617
11925SOL    HW348020   5.908   2.204   6.649
11925SOL    MW448021   5.995   2.200   6.644
11926SOL     OW48022   6.832   2.420   7.337
11926SOL    HW248023   6.884   2.355   7.290
11926SOL    HW348024   6.790   2.471   7.267
11926SOL    MW448025   6.833   2.417   7.320
11927SOL     OW48026   6.931   2.215   7.198
11927SOL    HW248027   6.838   2.199   7.185
11927SOL    HW348028   6.957   2.153   7.266
11927SOL    MW448029   6.921   2.205   7.205
11928SOL     OW48030   6.146   1.989   6.537
11928SOL    HW248031   6.156   1.898   6.563
11928SOL    HW348032   6.102   1.985   6.452
11928SOL    MW448033   6.142   1.977   6.529
11929SOL     OW48034   6.240   3.604   7.083
11929SOL    HW248035   6.157   3.589   7.128
11929SOL    HW348036   6.299   3.537   7.118
11929SOL    MW448037   6.238   3.594   7.093
11930SOL     OW48038   7.297   2.311   6.708
11930SOL    HW248039   7.230   2.344   6.768
11930SOL    HW348040   7.340   2.389   6.674
11930SOL    MW448041   7.295   2.326   6.712
11931SOL     OW48042   7.475   3.031   6.678
11931SOL    HW248043   7.468   2.971   6.603
11931SOL    HW348044   7.401   3.091   6.667
11931SOL    MW448045   7.465   3.031   6.667
11932SOL     OW48046   6.857   2.893   6.596
11932SOL    HW248047   6.871   2.865   6.687
11932SOL    HW348048   6.943   2.924   6.568
11932SOL    MW448049   6.870   2.894   6.605
11933SOL     OW48050   6.940   2.388   6.875
11933SOL    HW248051   6.961   2.389   6.782
11933SOL    HW348052   6.985   2.310   6.908
11933SOL    MW448053   6.947   2.378   6.867
11934SOL     OW48054   7.433   2.519   7.417
11934SOL    HW248055   7.470   2.464   7.486
11934SOL    HW348056   7.458   2.476   7.335
11934SOL    MW448057   7.440   2.507   7.416
11935SOL     OW48058   6.980   2.817   7.468
11935SOL    HW248059   7.046   2.765   7.422
11935SOL    HW348060   7.000   2.804   7.561
11935SOL    MW448061   6.991   2.808   7.475
11936SOL     OW48062   6.931   1.903   5.817
11936SOL    HW248063   7.005   1.947   5.860
11936SOL    HW348064   6.855   1.957   5.839
11936SOL    MW448065   6.931   1.915   5.825
11937SOL     OW48066   6.991   2.678   6.095
11937SOL    HW248067   6.906   2.648   6.065
11937SOL    HW348068   6.983   2.685   6.190
11937SOL    MW448069   6.979   2.676   6.104
11938SOL     OW48070   6.067   3.141   6.826
11938SOL    HW248071   6.079   3.168   6.917
11938SOL    HW348072   6.048   3.222   6.779
11938SOL    MW448073   6.066   3.156   6.831
11939SOL     OW48074   6.351   2.121   6.649
11939SOL    HW248075   6.324   2.123   6.740
11939SOL    HW348076   6.281   2.073   6.604
11939SOL    MW448077   6.339   2.117   6.656
11940SOL     OW48078   6.205   3.613   6.811
11940SOL    HW248079   6.257   3.690   6.788
11940SOL    HW348080   6.214   3.605   6.906
11940SOL    MW448081   6.214   3.620   6.822
11941SOL     OW48082   7.107   3.198   7.043
11941SOL    HW248083   7.092   3.127   7.106
11941SOL    HW348084   7.153   3.156   6.971
11941SOL    MW448085   7.113   3.182   7.043
11942SOL     OW48086   6.181   2.929   7.160
11942SOL    HW248087   6.218   2.934   7.072
11942SOL    HW348088   6.220   3.002   7.207
11942SOL    MW448089   6.191   2.939   7.155
11943SOL     OW48090   6.361   2.972   6.972
11943SOL    HW248091   6.420   2.918   7.025
11943SOL    HW348092   6.376   2.944   6.882
11943SOL    MW448093   6.371   2.961   6.968
11944SOL     OW48094   6.364   2.344   5.821
11944SOL    HW248095   6.437   2.393   5.784
11944SOL    HW348096   6.380   2.253   5.795
11944SOL    MW448097   6.376   2.339   5.814
11945SOL     OW48098   7.172   3.461   7.144
11945SOL    HW248099   7.214   3.446   7.229
11945SOL    HW348100   7.163   3.374   7.106
11945SOL    MW448101   7.176   3.449   7.151
11946SOL     OW48102   6.832   1.940   6.735
11946SOL    HW248103   6.887   1.949   6.657
11946SOL    HW348104   6.887   1.974   6.806
11946SOL    MW448105   6.846   1.945   6.734
11947SOL     OW48106   5.839   2.853   5.919
11947SOL    HW248107   5.776   2.869   5.848
11947SOL    HW348108   5.786   2.816   5.990
11947SOL    MW448109   5.824   2.850   5.919
11948SOL     OW48110   6.195   3.207   5.778
11948SOL    HW248111   6.210   3.183   5.870
11948SOL    HW348112   6.103   3.185   5.762
11948SOL    MW448113   6.185   3.200   5.788
11949SOL     OW48114   6.734   3.438   5.930
11949SOL    HW248115   6.742   3.356   5.881
11949SOL    HW348116   6.653   3.477   5.897
11949SOL    MW448117   6.724   3.433   5.920
11950SOL     OW48118   5.993   3.596   6.499
11950SOL    HW248119   5.997   3.507   6.534
11950SOL    HW348120   6.019   3.587   6.408
11950SOL    MW448121   5.996   3.584   6.491
11951SOL     OW48122   6.610   3.074   6.742
11951SOL    HW248123   6.542   3.008   6.758
11951SOL    HW348124   6.628   3.068   6.649
11951SOL    MW448125   6.603   3.065   6.733
11952SOL     OW48126   5.699   3.349   6.993
11952SOL    HW248127   5.689   3.307   7.079
11952SOL    HW348128   5.620   3.402   6.983
11952SOL    MW448129   5.688   3.350   7.004
11953SOL     OW48130   6.603   2.213   6.563
11953SOL    HW248131   6.533   2.165   6.608
11953SOL    HW348132   6.635   2.276   6.627
11953SOL    MW448133   6.598   2.215   6.577
11954SOL     OW48134   6.254   2.649   7.183
11954SOL    HW248135   6.247   2.744   7.171
11954SOL    HW348136   6.263   2.638   7.278
11954SOL    MW448137   6.255   2.661   7.193
11955SOL     OW48138   5.975   3.164   7.441
11955SOL    HW248139   6.047   3.166   7.378
11955SOL    HW348140   5.945   3.073   7.440
11955SOL    MW448141   5.980   3.153   7.433
11956SOL     OW48142   7.059   1.927   6.908
11956SOL    HW248143   7.130   1.873   6.872
11956SOL    HW348144   7.058   1.906   7.001
11956SOL    MW448145   7.068   1.918   6.916
11957SOL     OW48146   7.259   3.457   7.392
11957SOL    HW248147   7.232   3.454   7.483
11957SOL    HW348148   7.355   3.461   7.395
11957SOL    MW448149   7.269   3.457   7.404
11958SOL     OW48150   6.070   2.319   6.376
11958SOL    HW248151   6.141   2.267   6.339
11958SOL    HW348152   6.056   2.284   6.463
11958SOL    MW448153   6.078   2.308   6.383
11959SOL     OW48154   5.625   3.654   7.448
11959SOL    HW248155   5.675   3.632   7.370
11959SOL    HW348156   5.633   3.749   7.456
11959SOL    MW448157   5.633   3.663   7.439
11960SOL     OW48158   6.386   3.412   6.452
11960SOL    HW248159   6.314   3.349   6.465
11960SOL    HW348160   6.347   3.497   6.470
11960SOL    MW448161   6.370   3.415   6.455
11961SOL     OW48162   6.706   2.260   6.100
11961SOL    HW248163   6.728   2.197   6.032
11961SOL    HW348164   6.611   2.252   6.111
11961SOL    MW448165   6.696   2.251   6.092
11962SOL     OW48166   5.791   1.950   6.032
11962SOL    HW248167   5.862   1.971   5.971
11962SOL    HW348168   5.745   1.878   5.990
11962SOL    MW448169   5.795   1.944   6.018
11963SOL     OW48170   5.622   2.417   7.175
11963SOL    HW248171   5.686   2.483   7.150
11963SOL    HW348172   5.541   2.444   7.132
11963SOL    MW448173   5.620   2.429   7.167
11964SOL     OW48174   7.360   3.324   6.132
11964SOL    HW248175   7.330   3.257   6.193
11964SOL    HW348176   7.454   3.330   6.146
11964SOL    MW448177   7.368   3.316   6.142
11965SOL     OW48178   6.916   3.001   6.062
11965SOL    HW248179   6.888   3.087   6.095
11965SOL    HW348180   6.944   3.017   5.972
11965SOL    MW448181   6.916   3.015   6.054
11966SOL     OW48182   6.578   1.921   6.115
11966SOL    HW248183   6.615   1.980   6.180
11966SOL    HW348184   6.555   1.977   6.041
11966SOL    MW448185   6.579   1.936   6.114
11967SOL     OW48186   7.431   2.803   6.537
11967SOL    HW248187   7.422   2.835   6.448
11967SOL    HW348188   7.384   2.719   6.537
11967SOL    MW448189   7.424   2.796   6.527
11968SOL     OW48190   5.807   2.643   7.116
11968SOL    HW248191   5.828   2.712   7.054
11968SOL    HW348192   5.887   2.590   7.121
11968SOL    MW448193   5.820   2.644   7.110
11969SOL     OW48194   7.343   2.734   6.238
11969SOL    HW248195   7.437   2.723   6.226
11969SOL    HW348196   7.319   2.806   6.179
11969SOL    MW448197   7.353   2.742   6.229
11970SOL     OW48198   5.792   2.658   7.383
11970SOL    HW248199   5.718   2.602   7.409
11970SOL    HW348200   5.787   2.661   7.288
11970SOL    MW448201   5.781   2.651   7.373
11971SOL     OW48202   5.958   1.945   6.833
11971SOL    HW248203   6.001   2.029   6.853
11971SOL    HW348204   6.031   1.883   6.826
11971SOL    MW448205   5.973   1.948   6.834
11972SOL     OW48206   5.999   2.612   6.011
11972SOL    HW248207   5.999   2.707   5.996
11972SOL    HW348208   6.076   2.596   6.065
11972SOL    MW448209   6.009   2.623   6.016
11973SOL     OW48210   6.775   2.471   7.075
11973SOL    HW248211   6.811   2.444   6.991
11973SOL    HW348212   6.688   2.505   7.054
11973SOL    MW448213   6.769   2.472   7.062
11974SOL     OW48214   5.758   2.343   6.300
11974SOL    HW248215   5.820   2.350   6.373
11974SOL    HW348216   5.758   2.250   6.277
11974SOL    MW448217   5.766   2.332   6.307
11975SOL     OW48218   7.305   3.683   5.832
11975SOL    HW248219   7.372   3.716   5.772
11975SOL    HW348220   7.262   3.762   5.866
11975SOL    MW448221   7.307   3.698   5.828
11976SOL     OW48222   6.440   2.604   6.784
11976SOL    HW248223   6.398   2.522   6.760
11976SOL    HW348224   6.441   2.603   6.880
11976SOL    MW448225   6.433   2.593   6.793
11977SOL     OW48226   7.111   3.737   7.183
11977SOL    HW248227   7.114   3.643   7.166
11977SOL    HW348228   7.134   3.745   7.275
11977SOL    MW448229   7.114   3.725   7.193
11978SOL     OW48230   6.244   2.074   6.889
11978SOL    HW248231   6.175   2.137   6.910
11978SOL    HW348232   6.271   2.038   6.974
11978SOL    MW448233   6.238   2.077   6.902
11979SOL     OW48234   5.627   2.915   5.758
11979SOL    HW248235   5.596   2.980   5.821
11979SOL    HW348236   5.576   2.837   5.777
11979SOL    MW448237   5.617   2.912   5.768
11980SOL     OW48238   7.039   1.927   6.506
11980SOL    HW248239   7.127   1.936   6.543
11980SOL    HW348240   7.049   1.868   6.432
11980SOL    MW448241   7.053   1.921   6.500
11981SOL     OW48242   7.071   2.666   6.350
11981SOL    HW248243   7.151   2.681   6.299
11981SOL    HW348244   7.064   2.571   6.356
11981SOL    MW448245   7.080   2.655   6.345
11982SOL     OW48246   6.211   3.715   5.700
11982SOL    HW248247   6.116   3.715   5.692
11982SOL    HW348248   6.227   3.661   5.778
11982SOL    MW448249   6.201   3.709   5.709
11983SOL     OW48250   6.521   2.592   7.047
11983SOL    HW248251   6.590   2.659   7.044
11983SOL    HW348252   6.454   2.630   7.103
11983SOL    MW448253   6.522   2.605   7.054
11984SOL     OW48254   5.939   2.892   7.295
11984SOL    HW248255   5.893   2.808   7.297
11984SOL    HW348256   5.996   2.886   7.219
11984SOL    MW448257   5.941   2.880   7.287
11985SOL     OW48258   7.056   2.535   5.615
11985SOL    HW248259   6.984   2.511   5.557
11985SOL    HW348260   7.122   2.572   5.557
11985SOL    MW448261   7.055   2.537   5.600
11986SOL     OW48262   6.190   3.267   6.296
11986SOL    HW248263   6.255   3.200   6.317
11986SOL    HW348264   6.242   3.344   6.273
11986SOL    MW448265   6.205   3.269   6.295
11987SOL     OW48266   6.451   2.432   6.426
11987SOL    HW248267   6.391   2.450   6.498
11987SOL    HW348268   6.485   2.344   6.445
11987SOL    MW448269   6.447   2.422   6.439
11988SOL     OW48270   7.392   1.931   7.095
11988SOL    HW248271   7.313   1.977   7.123
11988SOL    HW348272   7.427   1.985   7.024
11988SOL    MW448273   7.386   1.944   7.089
11989SOL     OW48274   6.676   3.015   6.445
11989SOL    HW248275   6.768   2.996   6.463
11989SOL    HW348276   6.649   2.945   6.385
11989SOL    MW448277   6.684   3.003   6.439
11990SOL     OW48278   6.469   2.835   5.800
11990SOL    HW248279   6.455   2.747   5.765
11990SOL    HW348280   6.420   2.892   5.741
11990SOL    MW448281   6.461   2.830   5.788
11991SOL     OW48282   6.950   3.253   6.541
11991SOL    HW248283   6.923   3.337   6.506
11991SOL    HW348284   6.910   3.248   6.628
11991SOL    MW448285   6.943   3.262   6.547
11992SOL     OW48286   6.869   3.201   6.809
11992SOL    HW248287   6.880   3.168   6.898
11992SOL    HW348288   6.788   3.160   6.778
11992SOL    MW448289   6.859   3.193   6.815
11993SOL     OW48290   5.882   2.559   6.579
11993SOL    HW248291   5.832   2.558   6.660
11993SOL    HW348292   5.902   2.651   6.563
11993SOL    MW448293   5.878   2.571   6.587
11994SOL     OW48294   6.949   3.323   7.341
11994SOL    HW248295   6.949   3.417   7.357
11994SOL    HW348296   6.994   3.313   7.257
11994SOL    MW448297   6.955   3.333   7.332
11995SOL     OW48298   7.188   2.041   5.902
11995SOL    HW248299   7.181   2.045   5.997
11995SOL    HW348300   7.200   2.132   5.875
11995SOL    MW448301   7.189   2.054   5.910
11996SOL     OW48302   6.477   2.604   6.016
11996SOL    HW248303   6.457   2.590   5.923
11996SOL    HW348304   6.570   2.583   6.023
11996SOL    MW448305   6.487   2.599   6.005
11997SOL     OW48306   5.804   2.227   7.320
11997SOL    HW248307   5.761   2.286   7.257
11997SOL    HW348308   5.872   2.282   7.360
11997SOL    MW448309   5.808   2.242   7.317
11998SOL     OW48310   6.916   2.847   6.865
11998SOL    HW248311   6.979   2.844   6.938
11998SOL    HW348312   6.832   2.865   6.907
11998SOL    MW448313   6.912   2.849   6.880
11999SOL     OW48314   6.460   3.562   6.054
11999SOL    HW248315   6.518   3.633   6.081
11999SOL    HW348316   6.483   3.490   6.112
11999SOL    MW448317   6.471   3.562   6.065
12000SOL     OW48318   7.255   2.024   6.644
12000SOL    HW248319   7.300   1.942   6.663
12000SOL    HW348320   7.275   2.080   6.720
12000SOL    MW448321   7.265   2.020   6.656
12001SOL     OW48322   5.703   1.867   6.743
12001SOL    HW248323   5.694   1.868   6.648
12001SOL    HW348324   5.797   1.879   6.758
12001SOL    MW448325   5.715   1.870   6.734
12002SOL     OW48326   7.340   3.060   6.363
12002SOL    HW248327   7.319   3.006   6.286
12002SOL    HW348328   7.436   3.058   6.367
12002SOL    MW448329   7.349   3.053   6.352
12003SOL     OW48330   6.032   3.205   7.106
12003SOL    HW248331   5.953   3.155   7.129
12003SOL    HW348332   6.102   3.164   7.156
12003SOL    MW448333   6.030   3.193   7.116
12004SOL     OW48334   5.916   1.994   5.789
12004SOL    HW248335   5.845   2.049   5.757
12004SOL    HW348336   5.958   1.960   5.710
12004SOL    MW448337   5.912   1.996   5.775
12005SOL     OW48338   7.040   2.491   6.625
12005SOL    HW248339   6.963   2.537   6.591
12005SOL    HW348340   7.097   2.560   6.659
12005SOL    MW448341   7.037   2.506   6.625
12006SOL     OW48342   5.672   2.093   5.638
12006SOL    HW248343   5.639   2.172   5.682
12006SOL    HW348344   5.727   2.126   5.567
12006SOL    MW448345   5.675   2.107   5.635
12007SOL     OW48346   5.706   3.350   5.827
12007SOL    HW248347   5.723   3.434   5.869
12007SOL    HW348348   5.741   3.359   5.739
12007SOL    MW448349   5.711   3.363   5.821
12008SOL     OW48350   6.978   3.439   6.044
12008SOL    HW248351   7.041   3.429   5.973
12008SOL    HW348352   6.895   3.459   5.999
12008SOL    MW448353   6.975   3.440   6.029
12009SOL     OW48354   7.341   4.575   0.257
12009SOL    HW248355   7.382   4.517   0.322
12009SOL    HW348356   7.248   4.567   0.274
12009SOL    MW448357   7.335   4.567   0.267
12010SOL     OW48358   7.207   4.507   1.252
12010SOL    HW248359   7.162   4.574   1.303
12010SOL    HW348360   7.295   4.543   1.238
12010SOL    MW448361   7.213   4.520   1.256
12011SOL     OW48362   6.135   4.758   0.486
12011SOL    HW248363   6.225   4.733   0.470
12011SOL    HW348364   6.131   4.851   0.463
12011SOL    MW448365   6.147   4.767   0.481
12012SOL     OW48366   7.251   5.461   0.628
12012SOL    HW248367   7.263   5.407   0.706
12012SOL    HW348368   7.288   5.409   0.557
12012SOL    MW448369   7.257   5.446   0.629
12013SOL     OW48370   6.630   5.346   1.629
12013SOL    HW248371   6.671   5.382   1.550
12013SOL    HW348372   6.665   5.257   1.636
12013SOL    MW448373   6.641   5.339   1.620
12014SOL     OW48374   7.187   4.901   1.233
12014SOL    HW248375   7.108   4.866   1.191
12014SOL    HW348376   7.214   4.973   1.177
12014SOL    MW448377   7.180   4.906   1.220
12015SOL     OW48378   6.419   4.214   0.499
12015SOL    HW248379   6.394   4.302   0.527
12015SOL    HW348380   6.416   4.217   0.403
12015SOL    MW448381   6.415   4.226   0.491
12016SOL     OW48382   5.861   4.242   0.427
12016SOL    HW248383   5.893   4.330   0.409
12016SOL    HW348384   5.849   4.240   0.522
12016SOL    MW448385   5.864   4.254   0.439
12017SOL     OW48386   5.939   4.655   1.328
12017SOL    HW248387   6.002   4.602   1.279
12017SOL    HW348388   5.920   4.729   1.271
12017SOL    MW448389   5.945   4.657   1.315
12018SOL     OW48390   6.260   3.997   0.514
12018SOL    HW248391   6.318   4.073   0.516
12018SOL    HW348392   6.195   4.018   0.447
12018SOL    MW448393   6.259   4.009   0.505
12019SOL     OW48394   6.347   4.924   0.689
12019SOL    HW248395   6.427   4.927   0.741
12019SOL    HW348396   6.375   4.891   0.603
12019SOL    MW448397   6.361   4.920   0.684
12020SOL     OW48398   6.372   5.265   1.592
12020SOL    HW248399   6.456   5.291   1.631
12020SOL    HW348400   6.396   5.209   1.518
12020SOL    MW448401   6.386   5.261   1.587
12021SOL     OW48402   6.124   4.428   0.680
12021SOL    HW248403   6.109   4.348   0.731
12021SOL    HW348404   6.206   4.463   0.714
12021SOL    MW448405   6.132   4.420   0.692
12022SOL     OW48406   6.461   5.114   1.365
12022SOL    HW248407   6.425   5.180   1.305
12022SOL    HW348408   6.389   5.052   1.378
12022SOL    MW448409   6.447   5.114   1.359
12023SOL     OW48410   6.266   4.254   1.057
12023SOL    HW248411   6.172   4.250   1.075
12023SOL    HW348412   6.296   4.163   1.066
12023SOL    MW448413   6.257   4.242   1.060
12024SOL     OW48414   6.012   4.668   0.961
12024SOL    HW248415   5.967   4.675   0.877
12024SOL    HW348416   5.992   4.751   1.005
12024SOL    MW448417   6.004   4.680   0.955
12025SOL     OW48418   5.709   5.514   0.836
12025SOL    HW248419   5.798   5.506   0.871
12025SOL    HW348420   5.673   5.426   0.841
12025SOL    MW448421   5.716   5.501   0.841
12026SOL     OW48422   6.974   4.906   0.205
12026SOL    HW248423   6.892   4.942   0.171
12026SOL    HW348424   7.042   4.949   0.154
12026SOL    MW448425   6.972   4.916   0.193
12027SOL     OW48426   5.973   5.041   0.871
12027SOL    HW248427   5.949   5.094   0.947
12027SOL    HW348428   6.029   5.099   0.819
12027SOL    MW448429   5.977   5.056   0.874
12028SOL     OW48430   6.535   4.685   0.681
12028SOL    HW248431   6.449   4.672   0.721
12028SOL    HW348432   6.588   4.612   0.713
12028SOL    MW448433   6.531   4.674   0.690
12029SOL     OW48434   5.943   5.337   1.466
12029SOL    HW248435   5.851   5.313   1.451
12029SOL    HW348436   5.987   5.254   1.483
12029SOL    MW448437   5.937   5.322   1.465
12030SOL     OW48438   6.526   5.047   0.398
12030SOL    HW248439   6.503   5.109   0.466
12030SOL    HW348440   6.483   4.965   0.424
12030SOL    MW448441   6.518   5.043   0.409
12031SOL     OW48442   7.399   4.048   0.854
12031SOL    HW248443   7.336   4.028   0.923
12031SOL    HW348444   7.389   3.977   0.791
12031SOL    MW448445   7.389   4.035   0.855
12032SOL     OW48446   6.023   4.020   0.366
12032SOL    HW248447   5.997   3.982   0.282
12032SOL    HW348448   5.960   4.090   0.382
12032SOL    MW448449   6.012   4.023   0.357
12033SOL     OW48450   5.858   4.981   0.403
12033SOL    HW248451   5.806   5.049   0.359
12033SOL    HW348452   5.855   4.907   0.343
12033SOL    MW448453   5.850   4.980   0.390
12034SOL     OW48454   6.520   5.444   0.181
12034SOL    HW248455   6.475   5.460   0.264
12034SOL    HW348456   6.451   5.409   0.123
12034SOL    MW448457   6.506   5.441   0.183
12035SOL     OW48458   7.455   4.217   0.156
12035SOL    HW248459   7.364   4.219   0.184
12035SOL    HW348460   7.500   4.279   0.214
12035SOL    MW448461   7.448   4.225   0.166
12036SOL     OW48462   7.200   4.820   0.506
12036SOL    HW248463   7.110   4.820   0.541
12036SOL    HW348464   7.193   4.866   0.423
12036SOL    MW448465   7.187   4.826   0.500
12037SOL     OW48466   7.000   4.455   1.578
12037SOL    HW248467   7.069   4.393   1.555
12037SOL    HW348468   6.925   4.429   1.525
12037SOL    MW448469   7.000   4.442   1.569
12038SOL     OW48470   5.741   5.335   1.130
12038SOL    HW248471   5.724   5.281   1.207
12038SOL    HW348472   5.729   5.425   1.160
12038SOL    MW448473   5.738   5.339   1.144
12039SOL     OW48474   6.736   4.842   1.570
12039SOL    HW248475   6.721   4.935   1.555
12039SOL    HW348476   6.831   4.832   1.570
12039SOL    MW448477   6.745   4.852   1.567
12040SOL     OW48478   6.532   4.266   1.771
12040SOL    HW248479   6.622   4.267   1.738
12040SOL    HW348480   6.491   4.191   1.729
12040SOL    MW448481   6.538   4.256   1.762
12041SOL     OW48482   7.107   4.798   0.898
12041SOL    HW248483   7.110   4.732   0.829
12041SOL    HW348484   7.192   4.841   0.894
12041SOL    MW448485   7.119   4.794   0.889
12042SOL     OW48486   6.727   4.401   0.467
12042SOL    HW248487   6.753   4.425   0.378
12042SOL    HW348488   6.709   4.308   0.463
12042SOL    MW448489   6.729   4.393   0.454
12043SOL     OW48490   7.392   5.021   0.318
12043SOL    HW248491   7.348   5.062   0.393
12043SOL    HW348492   7.449   5.089   0.283
12043SOL    MW448493   7.394   5.035   0.323
12044SOL     OW48494   6.312   4.070   1.721
12044SOL    HW248495   6.322   3.996   1.661
12044SOL    HW348496   6.348   4.039   1.804
12044SOL    MW448497   6.318   4.056   1.723
12045SOL     OW48498   6.048   5.437   0.636
12045SOL    HW248499   6.080   5.525   0.614
12045SOL    HW348500   6.001   5.409   0.558
12045SOL    MW448501   6.047   5.445   0.623
12046SOL     OW48502   7.432   3.799   0.685
12046SOL    HW248503   7.486   3.750   0.747
12046SOL    HW348504   7.375   3.733   0.646
12046SOL    MW448505   7.432   3.783   0.687
12047SOL     OW48506   5.764   5.497   0.213
12047SOL    HW248507   5.793   5.587   0.205
12047SOL    HW348508   5.714   5.480   0.134
12047SOL    MW448509   5.762   5.505   0.202
12048SOL     OW48510   6.551   3.752   1.098
12048SOL    HW248511   6.510   3.830   1.060
12048SOL    HW348512   6.645   3.770   1.093
12048SOL    MW448513   6.557   3.764   1.093
12049SOL     OW48514   7.168   5.305   0.184
12049SOL    HW248515   7.216   5.374   0.230
12049SOL    HW348516   7.089   5.349   0.153
12049SOL    MW448517   7.163   5.319   0.187
12050SOL     OW48518   6.566   4.430   0.128
12050SOL    HW248519   6.568   4.377   0.049
12050SOL    HW348520   6.654   4.467   0.134
12050SOL    MW448521   6.578   4.429   0.117
12051SOL     OW48522   7.180   4.356   0.464
12051SOL    HW248523   7.219   4.356   0.551
12051SOL    HW348524   7.121   4.432   0.464
12051SOL    MW448525   7.177   4.367   0.475
12052SOL     OW48526   6.497   4.723   1.593
12052SOL    HW248527   6.474   4.703   1.683
12052SOL    HW348528   6.582   4.767   1.598
12052SOL    MW448529   6.504   4.726   1.605
12053SOL     OW48530   6.577   3.860   1.353
12053SOL    HW248531   6.583   3.822   1.266
12053SOL    HW348532   6.566   3.954   1.338
12053SOL    MW448533   6.578   3.868   1.341
12054SOL     OW48534   6.666   4.349   1.187
12054SOL    HW248535   6.741   4.378   1.134
12054SOL    HW348536   6.598   4.414   1.171
12054SOL    MW448537   6.667   4.361   1.177
12055SOL     OW48538   7.216   4.317   1.464
12055SOL    HW248539   7.197   4.226   1.443
12055SOL    HW348540   7.194   4.366   1.385
12055SOL    MW448541   7.211   4.310   1.451
12056SOL     OW48542   7.358   5.411   1.368
12056SOL    HW248543   7.286   5.373   1.419
12056SOL    HW348544   7.375   5.496   1.409
12056SOL    MW448545   7.352   5.416   1.380
12057SOL     OW48546   6.663   4.055   1.570
12057SOL    HW248547   6.629   4.094   1.489
12057SOL    HW348548   6.641   3.963   1.563
12057SOL    MW448549   6.656   4.048   1.560
12058SOL     OW48550   7.072   4.869   1.646
12058SOL    HW248551   7.154   4.910   1.676
12058SOL    HW348552   7.035   4.831   1.726
12058SOL    MW448553   7.078   4.870   1.661
12059SOL     OW48554   7.367   4.242   0.630
12059SOL    HW248555   7.456   4.211   0.647
12059SOL    HW348556   7.310   4.182   0.678
12059SOL    MW448557   7.370   4.230   0.639
12060SOL     OW48558   5.793   3.956   0.659
12060SOL    HW248559   5.784   3.896   0.585
12060SOL    HW348560   5.726   3.927   0.722
12060SOL    MW448561   5.783   3.943   0.657
12061SOL     OW48562   6.736   5.049   0.220
12061SOL    HW248563   6.686   5.051   0.302
12061SOL    HW348564   6.670   5.067   0.152
12061SOL    MW448565   6.722   5.051   0.222
12062SOL     OW48566   5.740   4.129   1.022
12062SOL    HW248567   5.712   4.220   1.031
12062SOL    HW348568   5.677   4.090   0.961
12062SOL    MW448569   5.727   4.135   1.016
12063SOL     OW48570   6.199   5.467   0.328
12063SOL    HW248571   6.120   5.425   0.361
12063SOL    HW348572   6.265   5.450   0.395
12063SOL    MW448573   6.198   5.459   0.341
12064SOL     OW48574   7.327   4.987   1.725
12064SOL    HW248575   7.377   4.913   1.757
12064SOL    HW348576   7.273   5.014   1.800
12064SOL    MW448577   7.327   4.981   1.738
12065SOL     OW48578   6.335   4.882   0.035
12065SOL    HW248579   6.257   4.828   0.022
12065SOL    HW348580   6.306   4.955   0.088
12065SOL    MW448581   6.321   4.884   0.040
12066SOL     OW48582   7.461   4.622   1.227
12066SOL    HW248583   7.477   4.660   1.140
12066SOL    HW348584   7.495   4.688   1.288
12066SOL    MW448585   7.468   4.635   1.223
12067SOL     OW48586   7.253   5.331   0.896
12067SOL    HW248587   7.282   5.398   0.957
12067SOL    HW348588   7.234   5.255   0.951
12067SOL    MW448589   7.255   5.331   0.911
12068SOL     OW48590   6.916   5.398   0.103
12068SOL    HW248591   6.842   5.361   0.153
12068SOL    HW348592   6.924   5.488   0.136
12068SOL    MW448593   6.907   5.405   0.115
12069SOL     OW48594   5.724   4.404   1.192
12069SOL    HW248595   5.786   4.434   1.258
12069SOL    HW348596   5.658   4.473   1.186
12069SOL    MW448597   5.723   4.417   1.199
12070SOL     OW48598   7.140   5.072   0.045
12070SOL    HW248599   7.087   5.121  -0.019
12070SOL    HW348600   7.171   5.138   0.106
12070SOL    MW448601   7.138   5.086   0.043
12071SOL     OW48602   6.365   3.961   0.100
12071SOL    HW248603   6.313   3.881   0.088
12071SOL    HW348604   6.452   3.938   0.068
12071SOL    MW448605   6.368   3.947   0.094
12072SOL     OW48606   5.819   5.513   1.644
12072SOL    HW248607   5.793   5.581   1.582
12072SOL    HW348608   5.867   5.450   1.592
12072SOL    MW448609   5.821   5.513   1.630
12073SOL     OW48610   5.871   4.832   1.151
12073SOL    HW248611   5.924   4.907   1.176
12073SOL    HW348612   5.790   4.870   1.117
12073SOL    MW448613   5.867   4.847   1.151
12074SOL     OW48614   6.411   4.736   1.139
12074SOL    HW248615   6.439   4.645   1.151
12074SOL    HW348616   6.340   4.730   1.075
12074SOL    MW448617   6.404   4.724   1.134
12075SOL     OW48618   5.726   4.601   0.557
12075SOL    HW248619   5.817   4.616   0.584
12075SOL    HW348620   5.729   4.522   0.503
12075SOL    MW448621   5.738   4.593   0.555
12076SOL     OW48622   5.962   4.309   1.811
12076SOL    HW248623   5.909   4.389   1.818
12076SOL    HW348624   6.032   4.321   1.876
12076SOL    MW448625   5.964   4.322   1.819
12077SOL     OW48626   6.348   3.859   1.518
12077SOL    HW248627   6.325   3.767   1.520
12077SOL    HW348628   6.434   3.861   1.475
12077SOL    MW448629   6.355   3.849   1.514
12078SOL     OW48630   6.032   4.383   1.557
12078SOL    HW248631   6.112   4.433   1.543
12078SOL    HW348632   6.023   4.377   1.652
12078SOL    MW448633   6.041   4.389   1.567
12079SOL     OW48634   6.353   5.533   0.931
12079SOL    HW248635   6.442   5.548   0.961
12079SOL    HW348636   6.348   5.580   0.847
12079SOL    MW448637   6.363   5.541   0.924
12080SOL     OW48638   7.009   3.908   1.828
12080SOL    HW248639   7.065   3.835   1.854
12080SOL    HW348640   6.979   3.946   1.910
12080SOL    MW448641   7.013   3.903   1.841
12081SOL     OW48642   5.734   5.213   0.596
12081SOL    HW248643   5.706   5.252   0.678
12081SOL    HW348644   5.754   5.122   0.618
12081SOL    MW448645   5.732   5.205   0.609
12082SOL     OW48646   6.567   5.256   0.631
12082SOL    HW248647   6.650   5.210   0.615
12082SOL    HW348648   6.557   5.255   0.727
12082SOL    MW448649   6.577   5.249   0.641
12083SOL     OW48650   7.399   4.401   0.945
12083SOL    HW248651   7.488   4.431   0.927
12083SOL    HW348652   7.379   4.341   0.874
12083SOL    MW448653   7.408   4.398   0.934
12084SOL     OW48654   7.250   4.580   1.825
12084SOL    HW248655   7.305   4.504   1.806
12084SOL    HW348656   7.252   4.588   1.920
12084SOL    MW448657   7.258   4.571   1.833
12085SOL     OW48658   6.300   5.313   0.036
12085SOL    HW248659   6.240   5.382   0.006
12085SOL    HW348660   6.245   5.255   0.089
12085SOL    MW448661   6.284   5.315   0.038
12086SOL     OW48662   6.738   3.958   0.259
12086SOL    HW248663   6.671   3.934   0.196
12086SOL    HW348664   6.803   4.007   0.208
12086SOL    MW448665   6.738   3.960   0.244
12087SOL     OW48666   6.545   4.142   1.344
12087SOL    HW248667   6.464   4.183   1.372
12087SOL    HW348668   6.592   4.210   1.296
12087SOL    MW448669   6.540   4.157   1.342
12088SOL     OW48670   6.805   4.480   0.967
12088SOL    HW248671   6.818   4.574   0.977
12088SOL    HW348672   6.766   4.470   0.881
12088SOL    MW448673   6.801   4.491   0.957
12089SOL     OW48674   6.257   4.675   0.771
12089SOL    HW248675   6.168   4.666   0.804
12089SOL    HW348676   6.261   4.765   0.739
12089SOL    MW448677   6.246   4.686   0.771
12090SOL     OW48678   7.056   4.258   0.766
12090SOL    HW248679   7.001   4.179   0.765
12090SOL    HW348680   7.038   4.299   0.850
12090SOL    MW448681   7.046   4.253   0.775
12091SOL     OW48682   6.027   3.945   1.583
12091SOL    HW248683   5.948   3.963   1.635
12091SOL    HW348684   6.022   4.007   1.510
12091SOL    MW448685   6.017   3.955   1.580
12092SOL     OW48686   6.675   4.462   0.723
12092SOL    HW248687   6.612   4.394   0.747
12092SOL    HW348688   6.695   4.443   0.631
12092SOL    MW448689   6.669   4.449   0.715
12093SOL     OW48690   5.931   5.357   0.425
12093SOL    HW248691   5.892   5.404   0.351
12093SOL    HW348692   5.865   5.292   0.450
12093SOL    MW448693   5.918   5.355   0.419
12094SOL     OW48694   6.423   4.766   0.449
12094SOL    HW248695   6.425   4.740   0.356
12094SOL    HW348696   6.481   4.703   0.492
12094SOL    MW448697   6.431   4.755   0.443
12095SOL     OW48698   6.976   5.326   1.221
12095SOL    HW248699   6.901   5.372   1.259
12095SOL    HW348700   6.958   5.233   1.238
12095SOL    MW448701   6.965   5.320   1.229
12096SOL     OW48702   6.980   5.534   0.651
12096SOL    HW248703   6.923   5.487   0.590
12096SOL    HW348704   7.066   5.495   0.638
12096SOL    MW448705   6.983   5.525   0.641
12097SOL     OW48706   6.933   4.010   0.782
12097SOL    HW248707   6.961   3.942   0.843
12097SOL    HW348708   6.847   3.981   0.752
12097SOL    MW448709   6.926   3.997   0.786
12098SOL     OW48710   5.738   4.944   0.716
12098SOL    HW248711   5.802   4.976   0.779
12098SOL    HW348712   5.787   4.880   0.664
12098SOL    MW448713   5.753   4.940   0.717
12099SOL     OW48714   6.238   5.020   1.698
12099SOL    HW248715   6.286   5.103   1.685
12099SOL    HW348716   6.295   4.968   1.754
12099SOL    MW448717   6.252   5.024   1.704
12100SOL     OW48718   5.814   5.262   1.838
12100SOL    HW248719   5.870   5.186   1.853
12100SOL    HW348720   5.763   5.240   1.760
12100SOL    MW448721   5.814   5.249   1.829
12101SOL     OW48722   6.913   4.114   0.117
12101SOL    HW248723   6.886   4.180   0.053
12101SOL    HW348724   6.983   4.157   0.167
12101SOL    MW448725   6.918   4.127   0.114
12102SOL     OW48726   6.581   3.819   0.054
12102SOL    HW248727   6.637   3.811  -0.024
12102SOL    HW348728   6.558   3.729   0.076
12102SOL    MW448729   6.586   3.806   0.047
12103SOL     OW48730   7.086   4.670   0.259
12103SOL    HW248731   7.053   4.759   0.249
12103SOL    HW348732   7.051   4.641   0.344
12103SOL    MW448733   7.076   4.679   0.270
12104SOL     OW48734   6.699   5.099   1.447
12104SOL    HW248735   6.610   5.105   1.415
12104SOL    HW348736   6.743   5.178   1.415
12104SOL    MW448737   6.694   5.109   1.439
12105SOL     OW48738   5.992   3.767   1.789
12105SOL    HW248739   5.920   3.732   1.737
12105SOL    HW348740   6.050   3.808   1.724
12105SOL    MW448741   5.990   3.768   1.774
12106SOL     OW48742   6.016   5.257   1.088
12106SOL    HW248743   6.061   5.319   1.145
12106SOL    HW348744   5.923   5.276   1.101
12106SOL    MW448745   6.009   5.267   1.095
12107SOL     OW48746   7.456   4.786   1.442
12107SOL    HW248747   7.371   4.799   1.401
12107SOL    HW348748   7.436   4.750   1.529
12107SOL    MW448749   7.443   4.782   1.447
12108SOL     OW48750   6.438   5.325   1.196
12108SOL    HW248751   6.462   5.314   1.105
12108SOL    HW348752   6.361   5.382   1.194
12108SOL    MW448753   6.430   5.330   1.185
12109SOL     OW48754   6.080   4.708   0.051
12109SOL    HW248755   6.003   4.721   0.107
12109SOL    HW348756   6.044   4.672  -0.030
12109SOL    MW448757   6.066   4.704   0.048
12110SOL     OW48758   6.733   4.681   0.294
12110SOL    HW248759   6.643   4.702   0.269
12110SOL    HW348760   6.760   4.754   0.350
12110SOL    MW448761   6.725   4.693   0.297
12111SOL     OW48762   6.233   5.030   0.986
12111SOL    HW248763   6.226   5.009   1.080
12111SOL    HW348764   6.151   4.998   0.949
12111SOL    MW448765   6.221   5.024   0.993
12112SOL     OW48766   7.097   4.040   1.388
12112SOL    HW248767   7.044   4.042   1.468
12112SOL    HW348768   7.082   3.953   1.351
12112SOL    MW448769   7.089   4.030   1.393
12113SOL     OW48770   7.433   3.964   1.261
12113SOL    HW248771   7.414   4.031   1.196
12113SOL    HW348772   7.490   3.902   1.216
12113SOL    MW448773   7.437   3.965   1.247
12114SOL     OW48774   5.679   5.122   1.649
12114SOL    HW248775   5.723   5.055   1.595
12114SOL    HW348776   5.594   5.084   1.669
12114SOL    MW448777   5.674   5.108   1.645
12115SOL     OW48778   6.362   3.797   0.701
12115SOL    HW248779   6.291   3.858   0.683
12115SOL    HW348780   6.413   3.794   0.620
12115SOL    MW448781   6.358   3.803   0.688
12116SOL     OW48782   6.120   5.037   0.450
12116SOL    HW248783   6.113   5.069   0.540
12116SOL    HW348784   6.030   5.021   0.422
12116SOL    MW448785   6.108   5.039   0.457
12117SOL     OW48786   6.715   5.430   1.359
12117SOL    HW248787   6.635   5.415   1.309
12117SOL    HW348788   6.722   5.525   1.366
12117SOL    MW448789   6.706   5.441   1.353
12118SOL     OW48790   6.829   5.395   0.849
12118SOL    HW248791   6.876   5.468   0.808
12118SOL    HW348792   6.750   5.434   0.885
12118SOL    MW448793   6.824   5.410   0.848
12119SOL     OW48794   7.237   5.490   1.124
12119SOL    HW248795   7.280   5.460   1.204
12119SOL    HW348796   7.156   5.438   1.121
12119SOL    MW448797   7.232   5.479   1.134
12120SOL     OW48798   6.322   4.454   1.831
12120SOL    HW248799   6.392   4.396   1.803
12120SOL    HW348800   6.265   4.399   1.886
12120SOL    MW448801   6.324   4.441   1.835
12121SOL     OW48802   7.109   4.666   1.464
12121SOL    HW248803   7.114   4.719   1.544
12121SOL    HW348804   7.071   4.583   1.492
12121SOL    MW448805   7.105   4.661   1.479
12122SOL     OW48806   6.749   3.801   1.710
12122SOL    HW248807   6.744   3.708   1.691
12122SOL    HW348808   6.832   3.812   1.756
12122SOL    MW448809   6.757   3.790   1.714
12123SOL     OW48810   6.123   4.321   0.164
12123SOL    HW248811   6.089   4.377   0.234
12123SOL    HW348812   6.194   4.271   0.204
12123SOL    MW448813   6.129   4.322   0.178
12124SOL     OW48814   7.219   5.072   0.986
12124SOL    HW248815   7.254   5.054   0.899
12124SOL    HW348816   7.124   5.073   0.973
12124SOL    MW448817   7.211   5.069   0.973
12125SOL     OW48818   6.648   4.720   1.355
12125SOL    HW248819   6.691   4.755   1.433
12125SOL    HW348820   6.631   4.797   1.301
12125SOL    MW448821   6.651   4.735   1.358
12126SOL     OW48822   7.179   4.207   0.228
12126SOL    HW248823   7.171   4.278   0.165
12126SOL    HW348824   7.197   4.251   0.311
12126SOL    MW448825   7.180   4.221   0.230
12127SOL     OW48826   6.039   3.862   0.657
12127SOL    HW248827   6.089   3.905   0.588
12127SOL    HW348828   5.954   3.906   0.657
12127SOL    MW448829   6.036   3.875   0.648
12128SOL     OW48830   5.798   4.924   1.517
12128SOL    HW248831   5.826   4.877   1.595
12128SOL    HW348832   5.719   4.879   1.488
12128SOL    MW448833   5.791   4.913   1.523
12129SOL     OW48834   6.306   4.251   1.484
12129SOL    HW248835   6.278   4.339   1.508
12129SOL    HW348836   6.275   4.195   1.555
12129SOL    MW448837   6.298   4.254   1.496
12130SOL     OW48838   6.848   4.469   0.203
12130SOL    HW248839   6.895   4.487   0.122
12130SOL    HW348840   6.814   4.553   0.231
12130SOL    MW448841   6.850   4.483   0.196
12131SOL     OW48842   5.961   4.647   0.697
12131SOL    HW248843   6.019   4.703   0.645
12131SOL    HW348844   6.005   4.562   0.699
12131SOL    MW448845   5.974   4.644   0.690
12132SOL     OW48846   7.101   3.999   0.534
12132SOL    HW248847   7.023   3.949   0.559
12132SOL    HW348848   7.072   4.090   0.534
12132SOL    MW448849   7.087   4.003   0.537
12133SOL     OW48850   6.687   3.961   0.693
12133SOL    HW248851   6.707   4.036   0.637
12133SOL    HW348852   6.667   4.000   0.778
12133SOL    MW448853   6.688   3.977   0.697
12134SOL     OW48854   6.583   5.211   0.025
12134SOL    HW248855   6.610   5.289  -0.023
12134SOL    HW348856   6.490   5.226   0.044
12134SOL    MW448857   6.574   5.224   0.021
12135SOL     OW48858   7.447   4.734   1.712
12135SOL    HW248859   7.360   4.714   1.748
12135SOL    HW348860   7.501   4.660   1.737
12135SOL    MW448861   7.442   4.723   1.720
12136SOL     OW48862   5.668   5.247   0.869
12136SOL    HW248863   5.700   5.251   0.960
12136SOL    HW348864   5.573   5.255   0.877
12136SOL    MW448865   5.660   5.250   0.882
12137SOL     OW48866   5.623   4.373   0.416
12137SOL    HW248867   5.563   4.345   0.486
12137SOL    HW348868   5.697   4.313   0.422
12137SOL    MW448869   5.625   4.362   0.425
12138SOL     OW48870   7.191   5.585   1.850
12138SOL    HW248871   7.236   5.509   1.815
12138SOL    HW348872   7.229   5.598   1.937
12138SOL    MW448873   7.201   5.578   1.856
12139SOL     OW48874   6.791   5.104   0.576
12139SOL    HW248875   6.814   5.055   0.654
12139SOL    HW348876   6.872   5.146   0.548
12139SOL    MW448877   6.804   5.104   0.583
12140SOL     OW48878   6.049   4.112   1.305
12140SOL    HW248879   6.082   4.193   1.345
12140SOL    HW348880   6.022   4.138   1.217
12140SOL    MW448881   6.048   4.126   1.299
12141SOL     OW48882   6.003   4.079   1.041
12141SOL    HW248883   6.033   3.993   1.012
12141SOL    HW348884   5.908   4.072   1.044
12141SOL    MW448885   5.995   4.068   1.039
12142SOL     OW48886   6.832   4.288   1.732
12142SOL    HW248887   6.884   4.223   1.685
12142SOL    HW348888   6.790   4.339   1.662
12142SOL    MW448889   6.833   4.285   1.715
12143SOL     OW48890   6.931   4.083   1.593
12143SOL    HW248891   6.838   4.067   1.580
12143SOL    HW348892   6.957   4.021   1.661
12143SOL    MW448893   6.921   4.073   1.600
12144SOL     OW48894   6.146   3.857   0.932
12144SOL    HW248895   6.156   3.766   0.958
12144SOL    HW348896   6.102   3.853   0.847
12144SOL    MW448897   6.142   3.845   0.924
12145SOL     OW48898   6.240   5.472   1.478
12145SOL    HW248899   6.157   5.457   1.523
12145SOL    HW348900   6.299   5.405   1.513
12145SOL    MW448901   6.238   5.462   1.488
12146SOL     OW48902   7.297   4.179   1.103
12146SOL    HW248903   7.230   4.212   1.163
12146SOL    HW348904   7.340   4.257   1.069
12146SOL    MW448905   7.295   4.194   1.107
12147SOL     OW48906   7.475   4.899   1.073
12147SOL    HW248907   7.468   4.839   0.998
12147SOL    HW348908   7.401   4.959   1.062
12147SOL    MW448909   7.465   4.899   1.062
12148SOL     OW48910   6.857   4.761   0.991
12148SOL    HW248911   6.871   4.733   1.082
12148SOL    HW348912   6.943   4.792   0.963
12148SOL    MW448913   6.870   4.762   1.000
12149SOL     OW48914   6.940   4.256   1.270
12149SOL    HW248915   6.961   4.257   1.177
12149SOL    HW348916   6.985   4.178   1.303
12149SOL    MW448917   6.947   4.246   1.262
12150SOL     OW48918   7.433   4.387   1.812
12150SOL    HW248919   7.470   4.332   1.881
12150SOL    HW348920   7.458   4.344   1.730
12150SOL    MW448921   7.440   4.375   1.811
12151SOL     OW48922   6.980   4.685   1.863
12151SOL    HW248923   7.046   4.633   1.817
12151SOL    HW348924   7.000   4.672   1.956
12151SOL    MW448925   6.991   4.676   1.870
12152SOL     OW48926   6.931   3.771   0.212
12152SOL    HW248927   7.005   3.815   0.255
12152SOL    HW348928   6.855   3.825   0.234
12152SOL    MW448929   6.931   3.783   0.220
12153SOL     OW48930   6.991   4.546   0.490
12153SOL    HW248931   6.906   4.516   0.460
12153SOL    HW348932   6.983   4.553   0.585
12153SOL    MW448933   6.979   4.544   0.499
12154SOL     OW48934   6.067   5.009   1.221
12154SOL    HW248935   6.079   5.036   1.312
12154SOL    HW348936   6.048   5.090   1.174
12154SOL    MW448937   6.066   5.024   1.226
12155SOL     OW48938   6.351   3.989   1.044
12155SOL    HW248939   6.324   3.991   1.135
12155SOL    HW348940   6.281   3.941   0.999
12155SOL    MW448941   6.339   3.985   1.051
12156SOL     OW48942   6.205   5.481   1.206
12156SOL    HW248943   6.257   5.558   1.183
12156SOL    HW348944   6.214   5.473   1.301
12156SOL    MW448945   6.214   5.488   1.217
12157SOL     OW48946   7.107   5.066   1.438
12157SOL    HW248947   7.092   4.995   1.501
12157SOL    HW348948   7.153   5.024   1.366
12157SOL    MW448949   7.113   5.050   1.438
12158SOL     OW48950   6.181   4.797   1.555
12158SOL    HW248951   6.218   4.802   1.467
12158SOL    HW348952   6.220   4.870   1.602
12158SOL    MW448953   6.191   4.807   1.550
12159SOL     OW48954   6.361   4.840   1.367
12159SOL    HW248955   6.420   4.786   1.420
12159SOL    HW348956   6.376   4.812   1.277
12159SOL    MW448957   6.371   4.829   1.363
12160SOL     OW48958   6.364   4.212   0.216
12160SOL    HW248959   6.437   4.261   0.179
12160SOL    HW348960   6.380   4.121   0.190
12160SOL    MW448961   6.376   4.207   0.209
12161SOL     OW48962   7.172   5.329   1.539
12161SOL    HW248963   7.214   5.314   1.624
12161SOL    HW348964   7.163   5.242   1.501
12161SOL    MW448965   7.176   5.317   1.546
12162SOL     OW48966   6.832   3.808   1.130
12162SOL    HW248967   6.887   3.817   1.052
12162SOL    HW348968   6.887   3.842   1.201
12162SOL    MW448969   6.846   3.813   1.129
12163SOL     OW48970   5.839   4.721   0.314
12163SOL    HW248971   5.776   4.737   0.243
12163SOL    HW348972   5.786   4.684   0.385
12163SOL    MW448973   5.824   4.718   0.314
12164SOL     OW48974   6.195   5.075   0.173
12164SOL    HW248975   6.210   5.051   0.265
12164SOL    HW348976   6.103   5.053   0.157
12164SOL    MW448977   6.185   5.068   0.183
12165SOL     OW48978   6.734   5.306   0.325
12165SOL    HW248979   6.742   5.224   0.276
12165SOL    HW348980   6.653   5.345   0.292
12165SOL    MW448981   6.724   5.301   0.315
12166SOL     OW48982   5.993   5.464   0.894
12166SOL    HW248983   5.997   5.375   0.929
12166SOL    HW348984   6.019   5.455   0.803
12166SOL    MW448985   5.996   5.452   0.886
12167SOL     OW48986   6.610   4.942   1.137
12167SOL    HW248987   6.542   4.876   1.153
12167SOL    HW348988   6.628   4.936   1.044
12167SOL    MW448989   6.603   4.933   1.128
12168SOL     OW48990   5.699   5.217   1.388
12168SOL    HW248991   5.689   5.175   1.474
12168SOL    HW348992   5.620   5.270   1.378
12168SOL    MW448993   5.688   5.218   1.399
12169SOL     OW48994   6.603   4.081   0.958
12169SOL    HW248995   6.533   4.033   1.003
12169SOL    HW348996   6.635   4.144   1.022
12169SOL    MW448997   6.598   4.083   0.972
12170SOL     OW48998   6.254   4.517   1.578
12170SOL    HW248999   6.247   4.612   1.566
12170SOL    HW349000   6.263   4.506   1.673
12170SOL    MW449001   6.255   4.529   1.588
12171SOL     OW49002   5.975   5.032   1.836
12171SOL    HW249003   6.047   5.034   1.773
12171SOL    HW349004   5.945   4.941   1.835
12171SOL    MW449005   5.980   5.021   1.828
12172SOL     OW49006   7.059   3.795   1.303
12172SOL    HW249007   7.130   3.741   1.267
12172SOL    HW349008   7.058   3.774   1.396
12172SOL    MW449009   7.068   3.786   1.311
12173SOL     OW49010   7.259   5.325   1.787
12173SOL    HW249011   7.232   5.322   1.878
12173SOL    HW349012   7.355   5.329   1.790
12173SOL    MW449013   7.269   5.325   1.799
12174SOL     OW49014   6.070   4.187   0.771
12174SOL    HW249015   6.141   4.135   0.734
12174SOL    HW349016   6.056   4.152   0.858
12174SOL    MW449017   6.078   4.176   0.778
12175SOL     OW49018   5.625   5.522   1.843
12175SOL    HW249019   5.675   5.500   1.765
12175SOL    HW349020   5.633   5.617   1.851
12175SOL    MW449021   5.633   5.531   1.834
12176SOL     OW49022   6.386   5.280   0.847
12176SOL    HW249023   6.314   5.217   0.860
12176SOL    HW349024   6.347   5.365   0.865
12176SOL    MW449025   6.370   5.283   0.850
12177SOL     OW49026   6.706   4.128   0.495
12177SOL    HW249027   6.728   4.065   0.427
12177SOL    HW349028   6.611   4.120   0.506
12177SOL    MW449029   6.696   4.119   0.487
12178SOL     OW49030   5.791   3.818   0.427
12178SOL    HW249031   5.862   3.839   0.366
12178SOL    HW349032   5.745   3.746   0.385
12178SOL    MW449033   5.795   3.812   0.413
12179SOL     OW49034   5.622   4.285   1.570
12179SOL    HW249035   5.686   4.351   1.545
12179SOL    HW349036   5.541   4.312   1.527
12179SOL    MW449037   5.620   4.297   1.562
12180SOL     OW49038   7.360   5.192   0.527
12180SOL    HW249039   7.330   5.125   0.588
12180SOL    HW349040   7.454   5.198   0.541
12180SOL    MW449041   7.368   5.184   0.537
12181SOL     OW49042   6.916   4.869   0.457
12181SOL    HW249043   6.888   4.955   0.490
12181SOL    HW349044   6.944   4.885   0.367
12181SOL    MW449045   6.916   4.883   0.449
12182SOL     OW49046   6.578   3.789   0.510
12182SOL    HW249047   6.615   3.848   0.575
12182SOL    HW349048   6.555   3.845   0.436
12182SOL    MW449049   6.579   3.804   0.509
12183SOL     OW49050   7.431   4.671   0.932
12183SOL    HW249051   7.422   4.703   0.843
12183SOL    HW349052   7.384   4.587   0.932
12183SOL    MW449053   7.424   4.664   0.922
12184SOL     OW49054   5.807   4.511   1.511
12184SOL    HW249055   5.828   4.580   1.449
12184SOL    HW349056   5.887   4.458   1.516
12184SOL    MW449057   5.820   4.512   1.505
12185SOL     OW49058   7.343   4.602   0.633
12185SOL    HW249059   7.437   4.591   0.621
12185SOL    HW349060   7.319   4.674   0.574
12185SOL    MW449061   7.353   4.610   0.624
12186SOL     OW49062   5.792   4.526   1.778
12186SOL    HW249063   5.718   4.470   1.804
12186SOL    HW349064   5.787   4.529   1.683
12186SOL    MW449065   5.781   4.519   1.768
12187SOL     OW49066   5.958   3.813   1.228
12187SOL    HW249067   6.001   3.897   1.248
12187SOL    HW349068   6.031   3.751   1.221
12187SOL    MW449069   5.973   3.816   1.229
12188SOL     OW49070   5.999   4.480   0.406
12188SOL    HW249071   5.999   4.575   0.391
12188SOL    HW349072   6.076   4.464   0.460
12188SOL    MW449073   6.009   4.491   0.411
12189SOL     OW49074   6.775   4.339   1.470
12189SOL    HW249075   6.811   4.312   1.386
12189SOL    HW349076   6.688   4.373   1.449
12189SOL    MW449077   6.769   4.340   1.457
12190SOL     OW49078   5.758   4.211   0.695
12190SOL    HW249079   5.820   4.218   0.768
12190SOL    HW349080   5.758   4.118   0.672
12190SOL    MW449081   5.766   4.200   0.702
12191SOL     OW49082   7.305   5.551   0.227
12191SOL    HW249083   7.372   5.584   0.167
12191SOL    HW349084   7.262   5.630   0.261
12191SOL    MW449085   7.307   5.566   0.223
12192SOL     OW49086   6.440   4.472   1.179
12192SOL    HW249087   6.398   4.390   1.155
12192SOL    HW349088   6.441   4.471   1.275
12192SOL    MW449089   6.433   4.461   1.188
12193SOL     OW49090   7.111   5.605   1.578
12193SOL    HW249091   7.114   5.511   1.561
12193SOL    HW349092   7.134   5.613   1.670
12193SOL    MW449093   7.114   5.593   1.588
12194SOL     OW49094   6.244   3.942   1.284
12194SOL    HW249095   6.175   4.005   1.305
12194SOL    HW349096   6.271   3.906   1.369
12194SOL    MW449097   6.238   3.945   1.297
12195SOL     OW49098   5.627   4.783   0.153
12195SOL    HW249099   5.596   4.848   0.216
12195SOL    HW349100   5.576   4.705   0.172
12195SOL    MW449101   5.617   4.780   0.163
12196SOL     OW49102   7.039   3.795   0.901
12196SOL    HW249103   7.127   3.804   0.938
12196SOL    HW349104   7.049   3.736   0.827
12196SOL    MW449105   7.053   3.789   0.895
12197SOL     OW49106   7.071   4.534   0.745
12197SOL    HW249107   7.151   4.549   0.694
12197SOL    HW349108   7.064   4.439   0.751
12197SOL    MW449109   7.080   4.523   0.740
12198SOL     OW49110   6.211   5.583   0.095
12198SOL    HW249111   6.116   5.583   0.087
12198SOL    HW349112   6.227   5.529   0.173
12198SOL    MW449113   6.201   5.577   0.104
12199SOL     OW49114   6.521   4.460   1.442
12199SOL    HW249115   6.590   4.527   1.439
12199SOL    HW349116   6.454   4.498   1.498
12199SOL    MW449117   6.522   4.473   1.449
12200SOL     OW49118   5.939   4.760   1.690
12200SOL    HW249119   5.893   4.676   1.692
12200SOL    HW349120   5.996   4.754   1.614
12200SOL    MW449121   5.941   4.748   1.682
12201SOL     OW49122   7.056   4.403   0.011
12201SOL    HW249123   6.984   4.379  -0.047
12201SOL    HW349124   7.122   4.440  -0.047
12201SOL    MW449125   7.055   4.405  -0.004
12202SOL     OW49126   6.190   5.135   0.691
12202SOL    HW249127   6.255   5.068   0.712
12202SOL    HW349128   6.242   5.212   0.668
12202SOL    MW449129   6.205   5.137   0.690
12203SOL     OW49130   6.451   4.300   0.821
12203SOL    HW249131   6.391   4.318   0.893
12203SOL    HW349132   6.485   4.212   0.840
12203SOL    MW449133   6.447   4.290   0.834
12204SOL     OW49134   7.392   3.799   1.490
12204SOL    HW249135   7.313   3.845   1.518
12204SOL    HW349136   7.427   3.853   1.419
12204SOL    MW449137   7.386   3.812   1.484
12205SOL     OW49138   6.676   4.883   0.840
12205SOL    HW249139   6.768   4.864   0.858
12205SOL    HW349140   6.649   4.813   0.780
12205SOL    MW449141   6.684   4.871   0.834
12206SOL     OW49142   6.469   4.703   0.195
12206SOL    HW249143   6.455   4.615   0.160
12206SOL    HW349144   6.420   4.760   0.136
12206SOL    MW449145   6.461   4.698   0.183
12207SOL     OW49146   6.950   5.121   0.936
12207SOL    HW249147   6.923   5.205   0.901
12207SOL    HW349148   6.910   5.116   1.023
12207SOL    MW449149   6.943   5.130   0.942
12208SOL     OW49150   6.869   5.069   1.204
12208SOL    HW249151   6.880   5.036   1.293
12208SOL    HW349152   6.788   5.028   1.173
12208SOL    MW449153   6.859   5.061   1.210
12209SOL     OW49154   5.882   4.427   0.974
12209SOL    HW249155   5.832   4.426   1.055
12209SOL    HW349156   5.902   4.519   0.958
12209SOL    MW449157   5.878   4.439   0.982
12210SOL     OW49158   6.949   5.191   1.736
12210SOL    HW249159   6.949   5.285   1.752
12210SOL    HW349160   6.994   5.181   1.652
12210SOL    MW449161   6.955   5.201   1.727
12211SOL     OW49162   7.188   3.909   0.297
12211SOL    HW249163   7.181   3.913   0.392
12211SOL    HW349164   7.200   4.000   0.270
12211SOL    MW449165   7.189   3.922   0.305
12212SOL     OW49166   6.477   4.472   0.411
12212SOL    HW249167   6.457   4.458   0.318
12212SOL    HW349168   6.570   4.451   0.418
12212SOL    MW449169   6.487   4.467   0.400
12213SOL     OW49170   5.804   4.095   1.715
12213SOL    HW249171   5.761   4.154   1.652
12213SOL    HW349172   5.872   4.150   1.755
12213SOL    MW449173   5.808   4.110   1.712
12214SOL     OW49174   6.916   4.715   1.260
12214SOL    HW249175   6.979   4.712   1.333
12214SOL    HW349176   6.832   4.733   1.302
12214SOL    MW449177   6.912   4.717   1.275
12215SOL     OW49178   6.460   5.430   0.449
12215SOL    HW249179   6.518   5.501   0.476
12215SOL    HW349180   6.483   5.358   0.507
12215SOL    MW449181   6.471   5.430   0.460
12216SOL     OW49182   7.255   3.892   1.039
12216SOL    HW249183   7.300   3.810   1.058
12216SOL    HW349184   7.275   3.948   1.115
12216SOL    MW449185   7.265   3.888   1.051
12217SOL     OW49186   5.703   3.735   1.138
12217SOL    HW249187   5.694   3.736   1.043
12217SOL    HW349188   5.797   3.747   1.153
12217SOL    MW449189   5.715   3.738   1.129
12218SOL     OW49190   7.340   4.928   0.758
12218SOL    HW249191   7.319   4.874   0.681
12218SOL    HW349192   7.436   4.926   0.762
12218SOL    MW449193   7.349   4.921   0.747
12219SOL     OW49194   6.032   5.073   1.501
12219SOL    HW249195   5.953   5.023   1.524
12219SOL    HW349196   6.102   5.032   1.551
12219SOL    MW449197   6.030   5.061   1.511
12220SOL     OW49198   5.916   3.862   0.184
12220SOL    HW249199   5.845   3.917   0.152
12220SOL    HW349200   5.958   3.828   0.105
12220SOL    MW449201   5.912   3.864   0.170
12221SOL     OW49202   7.040   4.359   1.020
12221SOL    HW249203   6.963   4.405   0.986
12221SOL    HW349204   7.097   4.428   1.054
12221SOL    MW449205   7.037   4.374   1.020
12222SOL     OW49206   5.672   3.961   0.033
12222SOL    HW249207   5.639   4.040   0.077
12222SOL    HW349208   5.727   3.994  -0.038
12222SOL    MW449209   5.675   3.975   0.030
12223SOL     OW49210   5.706   5.218   0.222
12223SOL    HW249211   5.723   5.302   0.264
12223SOL    HW349212   5.741   5.227   0.134
12223SOL    MW449213   5.711   5.231   0.216
12224SOL     OW49214   6.978   5.307   0.439
12224SOL    HW249215   7.041   5.297   0.368
12224SOL    HW349216   6.895   5.327   0.394
12224SOL    MW449217   6.975   5.308   0.424
12225SOL     OW49218   7.341   4.575   2.125
12225SOL    HW249219   7.382   4.517   2.190
12225SOL    HW349220   7.248   4.567   2.142
12225SOL    MW449221   7.335   4.567   2.135
12226SOL     OW49222   7.207   4.507   3.120
12226SOL    HW249223   7.162   4.574   3.171
12226SOL    HW349224   7.295   4.543   3.106
12226SOL    MW449225   7.213   4.520   3.124
12227SOL     OW49226   6.135   4.758   2.354
12227SOL    HW249227   6.225   4.733   2.338
12227SOL    HW349228   6.131   4.851   2.331
12227SOL    MW449229   6.147   4.767   2.349
12228SOL     OW49230   7.251   5.461   2.496
12228SOL    HW249231   7.263   5.407   2.574
12228SOL    HW349232   7.288   5.409   2.425
12228SOL    MW449233   7.257   5.446   2.497
12229SOL     OW49234   6.630   5.346   3.497
12229SOL    HW249235   6.671   5.382   3.418
12229SOL    HW349236   6.665   5.257   3.504
12229SOL    MW449237   6.641   5.339   3.488
12230SOL     OW49238   7.187   4.901   3.101
12230SOL    HW249239   7.108   4.866   3.059
12230SOL    HW349240   7.214   4.973   3.045
12230SOL    MW449241   7.180   4.906   3.088
12231SOL     OW49242   6.419   4.214   2.367
12231SOL    HW249243   6.394   4.302   2.395
12231SOL    HW349244   6.416   4.217   2.271
12231SOL    MW449245   6.415   4.226   2.359
12232SOL     OW49246   5.861   4.242   2.295
12232SOL    HW249247   5.893   4.330   2.277
12232SOL    HW349248   5.849   4.240   2.390
12232SOL    MW449249   5.864   4.254   2.307
12233SOL     OW49250   5.939   4.655   3.196
12233SOL    HW249251   6.002   4.602   3.147
12233SOL    HW349252   5.920   4.729   3.139
12233SOL    MW449253   5.945   4.657   3.183
12234SOL     OW49254   6.260   3.997   2.382
12234SOL    HW249255   6.318   4.073   2.384
12234SOL    HW349256   6.195   4.018   2.315
12234SOL    MW449257   6.259   4.009   2.373
12235SOL     OW49258   6.347   4.924   2.557
12235SOL    HW249259   6.427   4.927   2.609
12235SOL    HW349260   6.375   4.891   2.471
12235SOL    MW449261   6.361   4.920   2.552
12236SOL     OW49262   6.372   5.265   3.460
12236SOL    HW249263   6.456   5.291   3.499
12236SOL    HW349264   6.396   5.209   3.386
12236SOL    MW449265   6.386   5.261   3.455
12237SOL     OW49266   6.124   4.428   2.548
12237SOL    HW249267   6.109   4.348   2.599
12237SOL    HW349268   6.206   4.463   2.582
12237SOL    MW449269   6.132   4.420   2.560
12238SOL     OW49270   6.461   5.114   3.233
12238SOL    HW249271   6.425   5.180   3.173
12238SOL    HW349272   6.389   5.052   3.246
12238SOL    MW449273   6.447   5.114   3.227
12239SOL     OW49274   6.266   4.254   2.925
12239SOL    HW249275   6.172   4.250   2.943
12239SOL    HW349276   6.296   4.163   2.934
12239SOL    MW449277   6.257   4.242   2.928
12240SOL     OW49278   6.012   4.668   2.829
12240SOL    HW249279   5.967   4.675   2.745
12240SOL    HW349280   5.992   4.751   2.873
12240SOL    MW449281   6.004   4.680   2.823
12241SOL     OW49282   5.709   5.514   2.704
12241SOL    HW249283   5.798   5.506   2.739
12241SOL    HW349284   5.673   5.426   2.709
12241SOL    MW449285   5.716   5.501   2.709
12242SOL     OW49286   6.974   4.906   2.073
12242SOL    HW249287   6.892   4.942   2.039
12242SOL    HW349288   7.042   4.949   2.022
12242SOL    MW449289   6.972   4.916   2.061
12243SOL     OW49290   5.973   5.041   2.739
12243SOL    HW249291   5.949   5.094   2.815
12243SOL    HW349292   6.029   5.099   2.687
12243SOL    MW449293   5.977   5.056   2.742
12244SOL     OW49294   6.535   4.685   2.549
12244SOL    HW249295   6.449   4.672   2.589
12244SOL    HW349296   6.588   4.612   2.581
12244SOL    MW449297   6.531   4.674   2.558
12245SOL     OW49298   5.943   5.337   3.334
12245SOL    HW249299   5.851   5.313   3.319
12245SOL    HW349300   5.987   5.254   3.351
12245SOL    MW449301   5.937   5.322   3.333
12246SOL     OW49302   6.526   5.047   2.266
12246SOL    HW249303   6.503   5.109   2.334
12246SOL    HW349304   6.483   4.965   2.292
12246SOL    MW449305   6.518   5.043   2.277
12247SOL     OW49306   7.399   4.048   2.722
12247SOL    HW249307   7.336   4.028   2.791
12247SOL    HW349308   7.389   3.977   2.659
12247SOL    MW449309   7.389   4.035   2.723
12248SOL     OW49310   6.023   4.020   2.234
12248SOL    HW249311   5.997   3.982   2.150
12248SOL    HW349312   5.960   4.090   2.250
12248SOL    MW449313   6.012   4.023   2.225
12249SOL     OW49314   5.858   4.981   2.271
12249SOL    HW249315   5.806   5.049   2.227
12249SOL    HW349316   5.855   4.907   2.211
12249SOL    MW449317   5.850   4.980   2.258
12250SOL     OW49318   6.520   5.444   2.049
12250SOL    HW249319   6.475   5.460   2.132
12250SOL    HW349320   6.451   5.409   1.991
12250SOL    MW449321   6.506   5.441   2.051
12251SOL     OW49322   7.455   4.217   2.024
12251SOL    HW249323   7.364   4.219   2.052
12251SOL    HW349324   7.500   4.279   2.082
12251SOL    MW449325   7.448   4.225   2.034
12252SOL     OW49326   7.200   4.820   2.374
12252SOL    HW249327   7.110   4.820   2.409
12252SOL    HW349328   7.193   4.866   2.291
12252SOL    MW449329   7.187   4.826   2.368
12253SOL     OW49330   7.000   4.455   3.446
12253SOL    HW249331   7.069   4.393   3.423
12253SOL    HW349332   6.925   4.429   3.393
12253SOL    MW449333   7.000   4.442   3.437
12254SOL     OW49334   5.741   5.335   2.998
12254SOL    HW249335   5.724   5.281   3.075
12254SOL    HW349336   5.729   5.425   3.028
12254SOL    MW449337   5.738   5.339   3.012
12255SOL     OW49338   6.736   4.842   3.438
12255SOL    HW249339   6.721   4.935   3.423
12255SOL    HW349340   6.831   4.832   3.438
12255SOL    MW449341   6.745   4.852   3.435
12256SOL     OW49342   6.532   4.266   3.639
12256SOL    HW249343   6.622   4.267   3.606
12256SOL    HW349344   6.491   4.191   3.597
12256SOL    MW449345   6.538   4.256   3.630
12257SOL     OW49346   7.107   4.798   2.766
12257SOL    HW249347   7.110   4.732   2.697
12257SOL    HW349348   7.192   4.841   2.762
12257SOL    MW449349   7.119   4.794   2.757
12258SOL     OW49350   6.727   4.401   2.335
12258SOL    HW249351   6.753   4.425   2.246
12258SOL    HW349352   6.709   4.308   2.331
12258SOL    MW449353   6.729   4.393   2.322
12259SOL     OW49354   7.392   5.021   2.186
12259SOL    HW249355   7.348   5.062   2.261
12259SOL    HW349356   7.449   5.089   2.151
12259SOL    MW449357   7.394   5.035   2.191
12260SOL     OW49358   6.312   4.070   3.589
12260SOL    HW249359   6.322   3.996   3.529
12260SOL    HW349360   6.348   4.039   3.672
12260SOL    MW449361   6.318   4.056   3.591
12261SOL     OW49362   6.048   5.437   2.504
12261SOL    HW249363   6.080   5.525   2.482
12261SOL    HW349364   6.001   5.409   2.426
12261SOL    MW449365   6.047   5.445   2.491
12262SOL     OW49366   7.432   3.799   2.553
12262SOL    HW249367   7.486   3.750   2.615
12262SOL    HW349368   7.375   3.733   2.514
12262SOL    MW449369   7.432   3.783   2.555
12263SOL     OW49370   5.764   5.497   2.081
12263SOL    HW249371   5.793   5.587   2.073
12263SOL    HW349372   5.714   5.480   2.002
12263SOL    MW449373   5.762   5.505   2.070
12264SOL     OW49374   6.551   3.752   2.966
12264SOL    HW249375   6.510   3.830   2.928
12264SOL    HW349376   6.645   3.770   2.961
12264SOL    MW449377   6.557   3.764   2.961
12265SOL     OW49378   7.168   5.305   2.052
12265SOL    HW249379   7.216   5.374   2.098
12265SOL    HW349380   7.089   5.349   2.021
12265SOL    MW449381   7.163   5.319   2.055
12266SOL     OW49382   6.566   4.430   1.996
12266SOL    HW249383   6.568   4.377   1.917
12266SOL    HW349384   6.654   4.467   2.002
12266SOL    MW449385   6.578   4.429   1.985
12267SOL     OW49386   7.180   4.356   2.332
12267SOL    HW249387   7.219   4.356   2.419
12267SOL    HW349388   7.121   4.432   2.332
12267SOL    MW449389   7.177   4.367   2.343
12268SOL     OW49390   6.497   4.723   3.461
12268SOL    HW249391   6.474   4.703   3.551
12268SOL    HW349392   6.582   4.767   3.466
12268SOL    MW449393   6.504   4.726   3.473
12269SOL     OW49394   6.577   3.860   3.221
12269SOL    HW249395   6.583   3.822   3.134
12269SOL    HW349396   6.566   3.954   3.206
12269SOL    MW449397   6.578   3.868   3.209
12270SOL     OW49398   6.666   4.349   3.055
12270SOL    HW249399   6.741   4.378   3.002
12270SOL    HW349400   6.598   4.414   3.039
12270SOL    MW449401   6.667   4.361   3.045
12271SOL     OW49402   7.216   4.317   3.332
12271SOL    HW249403   7.197   4.226   3.311
12271SOL    HW349404   7.194   4.366   3.253
12271SOL    MW449405   7.211   4.310   3.319
12272SOL     OW49406   7.358   5.411   3.236
12272SOL    HW249407   7.286   5.373   3.287
12272SOL    HW349408   7.375   5.496   3.277
12272SOL    MW449409   7.352   5.416   3.248
12273SOL     OW49410   6.663   4.055   3.438
12273SOL    HW249411   6.629   4.094   3.357
12273SOL    HW349412   6.641   3.963   3.431
12273SOL    MW449413   6.656   4.048   3.428
12274SOL     OW49414   7.072   4.869   3.514
12274SOL    HW249415   7.154   4.910   3.544
12274SOL    HW349416   7.035   4.831   3.594
12274SOL    MW449417   7.078   4.870   3.529
12275SOL     OW49418   7.367   4.242   2.498
12275SOL    HW249419   7.456   4.211   2.515
12275SOL    HW349420   7.310   4.182   2.546
12275SOL    MW449421   7.370   4.230   2.507
12276SOL     OW49422   5.793   3.956   2.527
12276SOL    HW249423   5.784   3.896   2.453
12276SOL    HW349424   5.726   3.927   2.590
12276SOL    MW449425   5.783   3.943   2.525
12277SOL     OW49426   6.736   5.049   2.088
12277SOL    HW249427   6.686   5.051   2.170
12277SOL    HW349428   6.670   5.067   2.020
12277SOL    MW449429   6.722   5.051   2.090
12278SOL     OW49430   5.740   4.129   2.890
12278SOL    HW249431   5.712   4.220   2.899
12278SOL    HW349432   5.677   4.090   2.829
12278SOL    MW449433   5.727   4.135   2.884
12279SOL     OW49434   6.199   5.467   2.196
12279SOL    HW249435   6.120   5.425   2.229
12279SOL    HW349436   6.265   5.450   2.263
12279SOL    MW449437   6.198   5.459   2.209
12280SOL     OW49438   7.327   4.987   3.593
12280SOL    HW249439   7.377   4.913   3.625
12280SOL    HW349440   7.273   5.014   3.668
12280SOL    MW449441   7.327   4.981   3.606
12281SOL     OW49442   6.335   4.882   1.903
12281SOL    HW249443   6.257   4.828   1.890
12281SOL    HW349444   6.306   4.955   1.956
12281SOL    MW449445   6.321   4.884   1.908
12282SOL     OW49446   7.461   4.622   3.095
12282SOL    HW249447   7.477   4.660   3.008
12282SOL    HW349448   7.495   4.688   3.156
12282SOL    MW449449   7.468   4.635   3.091
12283SOL     OW49450   7.253   5.331   2.764
12283SOL    HW249451   7.282   5.398   2.825
12283SOL    HW349452   7.234   5.255   2.819
12283SOL    MW449453   7.255   5.331   2.779
12284SOL     OW49454   6.916   5.398   1.971
12284SOL    HW249455   6.842   5.361   2.021
12284SOL    HW349456   6.924   5.488   2.004
12284SOL    MW449457   6.907   5.405   1.983
12285SOL     OW49458   5.724   4.404   3.060
12285SOL    HW249459   5.786   4.434   3.126
12285SOL    HW349460   5.658   4.473   3.054
12285SOL    MW449461   5.723   4.417   3.067
12286SOL     OW49462   7.140   5.072   1.913
12286SOL    HW249463   7.087   5.121   1.849
12286SOL    HW349464   7.171   5.138   1.974
12286SOL    MW449465   7.138   5.086   1.911
12287SOL     OW49466   6.365   3.961   1.968
12287SOL    HW249467   6.313   3.881   1.956
12287SOL    HW349468   6.452   3.938   1.936
12287SOL    MW449469   6.368   3.947   1.962
12288SOL     OW49470   5.819   5.513   3.512
12288SOL    HW249471   5.793   5.581   3.450
12288SOL    HW349472   5.867   5.450   3.460
12288SOL    MW449473   5.821   5.513   3.498
12289SOL     OW49474   5.871   4.832   3.019
12289SOL    HW249475   5.924   4.907   3.044
12289SOL    HW349476   5.790   4.870   2.985
12289SOL    MW449477   5.867   4.847   3.019
12290SOL     OW49478   6.411   4.736   3.007
12290SOL    HW249479   6.439   4.645   3.019
12290SOL    HW349480   6.340   4.730   2.943
12290SOL    MW449481   6.404   4.724   3.002
12291SOL     OW49482   5.726   4.601   2.425
12291SOL    HW249483   5.817   4.616   2.452
12291SOL    HW349484   5.729   4.522   2.371
12291SOL    MW449485   5.738   4.593   2.423
12292SOL     OW49486   5.962   4.309   3.679
12292SOL    HW249487   5.909   4.389   3.686
12292SOL    HW349488   6.032   4.321   3.744
12292SOL    MW449489   5.964   4.322   3.687
12293SOL     OW49490   6.348   3.859   3.386
12293SOL    HW249491   6.325   3.767   3.388
12293SOL    HW349492   6.434   3.861   3.343
12293SOL    MW449493   6.355   3.849   3.382
12294SOL     OW49494   6.032   4.383   3.425
12294SOL    HW249495   6.112   4.433   3.411
12294SOL    HW349496   6.023   4.377   3.520
12294SOL    MW449497   6.041   4.389   3.435
12295SOL     OW49498   6.353   5.533   2.799
12295SOL    HW249499   6.442   5.548   2.829
12295SOL    HW349500   6.348   5.580   2.715
12295SOL    MW449501   6.363   5.541   2.792
12296SOL     OW49502   7.009   3.908   3.696
12296SOL    HW249503   7.065   3.835   3.722
12296SOL    HW349504   6.979   3.946   3.778
12296SOL    MW449505   7.013   3.903   3.709
12297SOL     OW49506   5.734   5.213   2.464
12297SOL    HW249507   5.706   5.252   2.546
12297SOL    HW349508   5.754   5.122   2.486
12297SOL    MW449509   5.732   5.205   2.477
12298SOL     OW49510   6.567   5.256   2.499
12298SOL    HW249511   6.650   5.210   2.483
12298SOL    HW349512   6.557   5.255   2.595
12298SOL    MW449513   6.577   5.249   2.509
12299SOL     OW49514   7.399   4.401   2.813
12299SOL    HW249515   7.488   4.431   2.795
12299SOL    HW349516   7.379   4.341   2.742
12299SOL    MW449517   7.408   4.398   2.802
12300SOL     OW49518   7.250   4.580   3.693
12300SOL    HW249519   7.305   4.504   3.674
12300SOL    HW349520   7.252   4.588   3.788
12300SOL    MW449521   7.258   4.571   3.701
12301SOL     OW49522   6.300   5.313   1.904
12301SOL    HW249523   6.240   5.382   1.874
12301SOL    HW349524   6.245   5.255   1.957
12301SOL    MW449525   6.284   5.315   1.906
12302SOL     OW49526   6.738   3.958   2.127
12302SOL    HW249527   6.671   3.934   2.064
12302SOL    HW349528   6.803   4.007   2.076
12302SOL    MW449529   6.738   3.960   2.112
12303SOL     OW49530   6.545   4.142   3.212
12303SOL    HW249531   6.464   4.183   3.240
12303SOL    HW349532   6.592   4.210   3.164
12303SOL    MW449533   6.540   4.157   3.210
12304SOL     OW49534   6.805   4.480   2.835
12304SOL    HW249535   6.818   4.574   2.845
12304SOL    HW349536   6.766   4.470   2.749
12304SOL    MW449537   6.801   4.491   2.825
12305SOL     OW49538   6.257   4.675   2.639
12305SOL    HW249539   6.168   4.666   2.672
12305SOL    HW349540   6.261   4.765   2.607
12305SOL    MW449541   6.246   4.686   2.639
12306SOL     OW49542   7.056   4.258   2.634
12306SOL    HW249543   7.001   4.179   2.633
12306SOL    HW349544   7.038   4.299   2.718
12306SOL    MW449545   7.046   4.253   2.643
12307SOL     OW49546   6.027   3.945   3.451
12307SOL    HW249547   5.948   3.963   3.503
12307SOL    HW349548   6.022   4.007   3.378
12307SOL    MW449549   6.017   3.955   3.448
12308SOL     OW49550   6.675   4.462   2.591
12308SOL    HW249551   6.612   4.394   2.615
12308SOL    HW349552   6.695   4.443   2.499
12308SOL    MW449553   6.669   4.449   2.583
12309SOL     OW49554   5.931   5.357   2.293
12309SOL    HW249555   5.892   5.404   2.219
12309SOL    HW349556   5.865   5.292   2.318
12309SOL    MW449557   5.918   5.355   2.287
12310SOL     OW49558   6.423   4.766   2.317
12310SOL    HW249559   6.425   4.740   2.224
12310SOL    HW349560   6.481   4.703   2.360
12310SOL    MW449561   6.431   4.755   2.311
12311SOL     OW49562   6.976   5.326   3.089
12311SOL    HW249563   6.901   5.372   3.127
12311SOL    HW349564   6.958   5.233   3.106
12311SOL    MW449565   6.965   5.320   3.097
12312SOL     OW49566   6.980   5.534   2.519
12312SOL    HW249567   6.923   5.487   2.458
12312SOL    HW349568   7.066   5.495   2.506
12312SOL    MW449569   6.983   5.525   2.509
12313SOL     OW49570   6.933   4.010   2.650
12313SOL    HW249571   6.961   3.942   2.711
12313SOL    HW349572   6.847   3.981   2.620
12313SOL    MW449573   6.926   3.997   2.654
12314SOL     OW49574   5.738   4.944   2.584
12314SOL    HW249575   5.802   4.976   2.647
12314SOL    HW349576   5.787   4.880   2.532
12314SOL    MW449577   5.753   4.940   2.585
12315SOL     OW49578   6.238   5.020   3.566
12315SOL    HW249579   6.286   5.103   3.553
12315SOL    HW349580   6.295   4.968   3.622
12315SOL    MW449581   6.252   5.024   3.572
12316SOL     OW49582   5.814   5.262   3.706
12316SOL    HW249583   5.870   5.186   3.721
12316SOL    HW349584   5.763   5.240   3.628
12316SOL    MW449585   5.814   5.249   3.697
12317SOL     OW49586   6.913   4.114   1.985
12317SOL    HW249587   6.886   4.180   1.921
12317SOL    HW349588   6.983   4.157   2.035
12317SOL    MW449589   6.918   4.127   1.982
12318SOL     OW49590   6.581   3.819   1.922
12318SOL    HW249591   6.637   3.811   1.844
12318SOL    HW349592   6.558   3.729   1.944
12318SOL    MW449593   6.586   3.806   1.915
12319SOL     OW49594   7.086   4.670   2.127
12319SOL    HW249595   7.053   4.759   2.117
12319SOL    HW349596   7.051   4.641   2.212
12319SOL    MW449597   7.076   4.679   2.138
12320SOL     OW49598   6.699   5.099   3.315
12320SOL    HW249599   6.610   5.105   3.283
12320SOL    HW349600   6.743   5.178   3.283
12320SOL    MW449601   6.694   5.109   3.307
12321SOL     OW49602   5.992   3.767   3.657
12321SOL    HW249603   5.920   3.732   3.605
12321SOL    HW349604   6.050   3.808   3.592
12321SOL    MW449605   5.990   3.768   3.642
12322SOL     OW49606   6.016   5.257   2.956
12322SOL    HW249607   6.061   5.319   3.013
12322SOL    HW349608   5.923   5.276   2.969
12322SOL    MW449609   6.009   5.267   2.963
12323SOL     OW49610   7.456   4.786   3.310
12323SOL    HW249611   7.371   4.799   3.269
12323SOL    HW349612   7.436   4.750   3.397
12323SOL    MW449613   7.443   4.782   3.315
12324SOL     OW49614   6.438   5.325   3.064
12324SOL    HW249615   6.462   5.314   2.973
12324SOL    HW349616   6.361   5.382   3.062
12324SOL    MW449617   6.430   5.330   3.053
12325SOL     OW49618   6.080   4.708   1.919
12325SOL    HW249619   6.003   4.721   1.975
12325SOL    HW349620   6.044   4.672   1.838
12325SOL    MW449621   6.066   4.704   1.916
12326SOL     OW49622   6.733   4.681   2.162
12326SOL    HW249623   6.643   4.702   2.137
12326SOL    HW349624   6.760   4.754   2.218
12326SOL    MW449625   6.725   4.693   2.165
12327SOL     OW49626   6.233   5.030   2.854
12327SOL    HW249627   6.226   5.009   2.948
12327SOL    HW349628   6.151   4.998   2.817
12327SOL    MW449629   6.221   5.024   2.861
12328SOL     OW49630   7.097   4.040   3.256
12328SOL    HW249631   7.044   4.042   3.336
12328SOL    HW349632   7.082   3.953   3.219
12328SOL    MW449633   7.089   4.030   3.261
12329SOL     OW49634   7.433   3.964   3.129
12329SOL    HW249635   7.414   4.031   3.064
12329SOL    HW349636   7.490   3.902   3.084
12329SOL    MW449637   7.437   3.965   3.115
12330SOL     OW49638   5.679   5.122   3.517
12330SOL    HW249639   5.723   5.055   3.463
12330SOL    HW349640   5.594   5.084   3.537
12330SOL    MW449641   5.674   5.108   3.513
12331SOL     OW49642   6.362   3.797   2.569
12331SOL    HW249643   6.291   3.858   2.551
12331SOL    HW349644   6.413   3.794   2.488
12331SOL    MW449645   6.358   3.803   2.556
12332SOL     OW49646   6.120   5.037   2.318
12332SOL    HW249647   6.113   5.069   2.408
12332SOL    HW349648   6.030   5.021   2.290
12332SOL    MW449649   6.108   5.039   2.325
12333SOL     OW49650   6.715   5.430   3.227
12333SOL    HW249651   6.635   5.415   3.177
12333SOL    HW349652   6.722   5.525   3.234
12333SOL    MW449653   6.706   5.441   3.221
12334SOL     OW49654   6.829   5.395   2.717
12334SOL    HW249655   6.876   5.468   2.676
12334SOL    HW349656   6.750   5.434   2.753
12334SOL    MW449657   6.824   5.410   2.716
12335SOL     OW49658   7.237   5.490   2.992
12335SOL    HW249659   7.280   5.460   3.072
12335SOL    HW349660   7.156   5.438   2.989
12335SOL    MW449661   7.232   5.479   3.002
12336SOL     OW49662   6.322   4.454   3.699
12336SOL    HW249663   6.392   4.396   3.671
12336SOL    HW349664   6.265   4.399   3.754
12336SOL    MW449665   6.324   4.441   3.703
12337SOL     OW49666   7.109   4.666   3.332
12337SOL    HW249667   7.114   4.719   3.412
12337SOL    HW349668   7.071   4.583   3.360
12337SOL    MW449669   7.105   4.661   3.347
12338SOL     OW49670   6.749   3.801   3.578
12338SOL    HW249671   6.744   3.708   3.559
12338SOL    HW349672   6.832   3.812   3.624
12338SOL    MW449673   6.757   3.790   3.582
12339SOL     OW49674   6.123   4.321   2.032
12339SOL    HW249675   6.089   4.377   2.102
12339SOL    HW349676   6.194   4.271   2.072
12339SOL    MW449677   6.129   4.322   2.046
12340SOL     OW49678   7.219   5.072   2.854
12340SOL    HW249679   7.254   5.054   2.767
12340SOL    HW349680   7.124   5.073   2.841
12340SOL    MW449681   7.211   5.069   2.841
12341SOL     OW49682   6.648   4.720   3.223
12341SOL    HW249683   6.691   4.755   3.301
12341SOL    HW349684   6.631   4.797   3.169
12341SOL    MW449685   6.651   4.735   3.226
12342SOL     OW49686   7.179   4.207   2.096
12342SOL    HW249687   7.171   4.278   2.033
12342SOL    HW349688   7.197   4.251   2.179
12342SOL    MW449689   7.180   4.221   2.098
12343SOL     OW49690   6.039   3.862   2.525
12343SOL    HW249691   6.089   3.905   2.456
12343SOL    HW349692   5.954   3.906   2.525
12343SOL    MW449693   6.036   3.875   2.516
12344SOL     OW49694   5.798   4.924   3.385
12344SOL    HW249695   5.826   4.877   3.463
12344SOL    HW349696   5.719   4.879   3.356
12344SOL    MW449697   5.791   4.913   3.391
12345SOL     OW49698   6.306   4.251   3.352
12345SOL    HW249699   6.278   4.339   3.376
12345SOL    HW349700   6.275   4.195   3.423
12345SOL    MW449701   6.298   4.254   3.364
12346SOL     OW49702   6.848   4.469   2.071
12346SOL    HW249703   6.895   4.487   1.990
12346SOL    HW349704   6.814   4.553   2.099
12346SOL    MW449705   6.850   4.483   2.064
12347SOL     OW49706   5.961   4.647   2.565
12347SOL    HW249707   6.019   4.703   2.513
12347SOL    HW349708   6.005   4.562   2.567
12347SOL    MW449709   5.974   4.644   2.558
12348SOL     OW49710   7.101   3.999   2.402
12348SOL    HW249711   7.023   3.949   2.427
12348SOL    HW349712   7.072   4.090   2.402
12348SOL    MW449713   7.087   4.003   2.405
12349SOL     OW49714   6.687   3.961   2.561
12349SOL    HW249715   6.707   4.036   2.505
12349SOL    HW349716   6.667   4.000   2.646
12349SOL    MW449717   6.688   3.977   2.565
12350SOL     OW49718   6.583   5.211   1.893
12350SOL    HW249719   6.610   5.289   1.845
12350SOL    HW349720   6.490   5.226   1.912
12350SOL    MW449721   6.574   5.224   1.889
12351SOL     OW49722   7.447   4.734   3.580
12351SOL    HW249723   7.360   4.714   3.616
12351SOL    HW349724   7.501   4.660   3.605
12351SOL    MW449725   7.442   4.723   3.588
12352SOL     OW49726   5.668   5.247   2.737
12352SOL    HW249727   5.700   5.251   2.828
12352SOL    HW349728   5.573   5.255   2.745
12352SOL    MW449729   5.660   5.250   2.750
12353SOL     OW49730   5.623   4.373   2.284
12353SOL    HW249731   5.563   4.345   2.354
12353SOL    HW349732   5.697   4.313   2.290
12353SOL    MW449733   5.625   4.362   2.293
12354SOL     OW49734   7.191   5.585   3.718
12354SOL    HW249735   7.236   5.509   3.683
12354SOL    HW349736   7.229   5.598   3.805
12354SOL    MW449737   7.201   5.578   3.724
12355SOL     OW49738   6.791   5.104   2.444
12355SOL    HW249739   6.814   5.055   2.522
12355SOL    HW349740   6.872   5.146   2.416
12355SOL    MW449741   6.804   5.104   2.451
12356SOL     OW49742   6.049   4.112   3.173
12356SOL    HW249743   6.082   4.193   3.213
12356SOL    HW349744   6.022   4.138   3.085
12356SOL    MW449745   6.048   4.126   3.167
12357SOL     OW49746   6.003   4.079   2.909
12357SOL    HW249747   6.033   3.993   2.880
12357SOL    HW349748   5.908   4.072   2.912
12357SOL    MW449749   5.995   4.068   2.907
12358SOL     OW49750   6.832   4.288   3.600
12358SOL    HW249751   6.884   4.223   3.553
12358SOL    HW349752   6.790   4.339   3.530
12358SOL    MW449753   6.833   4.285   3.583
12359SOL     OW49754   6.931   4.083   3.461
12359SOL    HW249755   6.838   4.067   3.448
12359SOL    HW349756   6.957   4.021   3.529
12359SOL    MW449757   6.921   4.073   3.468
12360SOL     OW49758   6.146   3.857   2.800
12360SOL    HW249759   6.156   3.766   2.826
12360SOL    HW349760   6.102   3.853   2.715
12360SOL    MW449761   6.142   3.845   2.792
12361SOL     OW49762   6.240   5.472   3.346
12361SOL    HW249763   6.157   5.457   3.391
12361SOL    HW349764   6.299   5.405   3.381
12361SOL    MW449765   6.238   5.462   3.356
12362SOL     OW49766   7.297   4.179   2.971
12362SOL    HW249767   7.230   4.212   3.031
12362SOL    HW349768   7.340   4.257   2.937
12362SOL    MW449769   7.295   4.194   2.975
12363SOL     OW49770   7.475   4.899   2.941
12363SOL    HW249771   7.468   4.839   2.866
12363SOL    HW349772   7.401   4.959   2.930
12363SOL    MW449773   7.465   4.899   2.930
12364SOL     OW49774   6.857   4.761   2.859
12364SOL    HW249775   6.871   4.733   2.950
12364SOL    HW349776   6.943   4.792   2.831
12364SOL    MW449777   6.870   4.762   2.868
12365SOL     OW49778   6.940   4.256   3.138
12365SOL    HW249779   6.961   4.257   3.045
12365SOL    HW349780   6.985   4.178   3.171
12365SOL    MW449781   6.947   4.246   3.130
12366SOL     OW49782   7.433   4.387   3.680
12366SOL    HW249783   7.470   4.332   3.749
12366SOL    HW349784   7.458   4.344   3.598
12366SOL    MW449785   7.440   4.375   3.679
12367SOL     OW49786   6.980   4.685   3.731
12367SOL    HW249787   7.046   4.633   3.685
12367SOL    HW349788   7.000   4.672   3.824
12367SOL    MW449789   6.991   4.676   3.738
12368SOL     OW49790   6.931   3.771   2.080
12368SOL    HW249791   7.005   3.815   2.123
12368SOL    HW349792   6.855   3.825   2.102
12368SOL    MW449793   6.931   3.783   2.088
12369SOL     OW49794   6.991   4.546   2.358
12369SOL    HW249795   6.906   4.516   2.328
12369SOL    HW349796   6.983   4.553   2.453
12369SOL    MW449797   6.979   4.544   2.367
12370SOL     OW49798   6.067   5.009   3.089
12370SOL    HW249799   6.079   5.036   3.180
12370SOL    HW349800   6.048   5.090   3.042
12370SOL    MW449801   6.066   5.024   3.094
12371SOL     OW49802   6.351   3.989   2.912
12371SOL    HW249803   6.324   3.991   3.003
12371SOL    HW349804   6.281   3.941   2.867
12371SOL    MW449805   6.339   3.985   2.919
12372SOL     OW49806   6.205   5.481   3.074
12372SOL    HW249807   6.257   5.558   3.051
12372SOL    HW349808   6.214   5.473   3.169
12372SOL    MW449809   6.214   5.488   3.085
12373SOL     OW49810   7.107   5.066   3.306
12373SOL    HW249811   7.092   4.995   3.369
12373SOL    HW349812   7.153   5.024   3.234
12373SOL    MW449813   7.113   5.050   3.306
12374SOL     OW49814   6.181   4.797   3.423
12374SOL    HW249815   6.218   4.802   3.335
12374SOL    HW349816   6.220   4.870   3.470
12374SOL    MW449817   6.191   4.807   3.418
12375SOL     OW49818   6.361   4.840   3.235
12375SOL    HW249819   6.420   4.786   3.288
12375SOL    HW349820   6.376   4.812   3.145
12375SOL    MW449821   6.371   4.829   3.231
12376SOL     OW49822   6.364   4.212   2.084
12376SOL    HW249823   6.437   4.261   2.047
12376SOL    HW349824   6.380   4.121   2.058
12376SOL    MW449825   6.376   4.207   2.077
12377SOL     OW49826   7.172   5.329   3.407
12377SOL    HW249827   7.214   5.314   3.492
12377SOL    HW349828   7.163   5.242   3.369
12377SOL    MW449829   7.176   5.317   3.414
12378SOL     OW49830   6.832   3.808   2.998
12378SOL    HW249831   6.887   3.817   2.920
12378SOL    HW349832   6.887   3.842   3.069
12378SOL    MW449833   6.846   3.813   2.997
12379SOL     OW49834   5.839   4.721   2.182
12379SOL    HW249835   5.776   4.737   2.111
12379SOL    HW349836   5.786   4.684   2.253
12379SOL    MW449837   5.824   4.718   2.182
12380SOL     OW49838   6.195   5.075   2.041
12380SOL    HW249839   6.210   5.051   2.133
12380SOL    HW349840   6.103   5.053   2.025
12380SOL    MW449841   6.185   5.068   2.051
12381SOL     OW49842   6.734   5.306   2.193
12381SOL    HW249843   6.742   5.224   2.144
12381SOL    HW349844   6.653   5.345   2.160
12381SOL    MW449845   6.724   5.301   2.183
12382SOL     OW49846   5.993   5.464   2.762
12382SOL    HW249847   5.997   5.375   2.797
12382SOL    HW349848   6.019   5.455   2.671
12382SOL    MW449849   5.996   5.452   2.754
12383SOL     OW49850   6.610   4.942   3.005
12383SOL    HW249851   6.542   4.876   3.021
12383SOL    HW349852   6.628   4.936   2.912
12383SOL    MW449853   6.603   4.933   2.996
12384SOL     OW49854   5.699   5.217   3.256
12384SOL    HW249855   5.689   5.175   3.342
12384SOL    HW349856   5.620   5.270   3.246
12384SOL    MW449857   5.688   5.218   3.267
12385SOL     OW49858   6.603   4.081   2.826
12385SOL    HW249859   6.533   4.033   2.871
12385SOL    HW349860   6.635   4.144   2.890
12385SOL    MW449861   6.598   4.083   2.840
12386SOL     OW49862   6.254   4.517   3.446
12386SOL    HW249863   6.247   4.612   3.434
12386SOL    HW349864   6.263   4.506   3.541
12386SOL    MW449865   6.255   4.529   3.456
12387SOL     OW49866   5.975   5.032   3.704
12387SOL    HW249867   6.047   5.034   3.641
12387SOL    HW349868   5.945   4.941   3.703
12387SOL    MW449869   5.980   5.021   3.696
12388SOL     OW49870   7.059   3.795   3.171
12388SOL    HW249871   7.130   3.741   3.135
12388SOL    HW349872   7.058   3.774   3.264
12388SOL    MW449873   7.068   3.786   3.179
12389SOL     OW49874   7.259   5.325   3.655
12389SOL    HW249875   7.232   5.322   3.746
12389SOL    HW349876   7.355   5.329   3.658
12389SOL    MW449877   7.269   5.325   3.667
12390SOL     OW49878   6.070   4.187   2.639
12390SOL    HW249879   6.141   4.135   2.602
12390SOL    HW349880   6.056   4.152   2.726
12390SOL    MW449881   6.078   4.176   2.646
12391SOL     OW49882   5.625   5.522   3.711
12391SOL    HW249883   5.675   5.500   3.633
12391SOL    HW349884   5.633   5.617   3.719
12391SOL    MW449885   5.633   5.531   3.702
12392SOL     OW49886   6.386   5.280   2.715
12392SOL    HW249887   6.314   5.217   2.728
12392SOL    HW349888   6.347   5.365   2.733
12392SOL    MW449889   6.370   5.283   2.718
12393SOL     OW49890   6.706   4.128   2.363
12393SOL    HW249891   6.728   4.065   2.295
12393SOL    HW349892   6.611   4.120   2.374
12393SOL    MW449893   6.696   4.119   2.355
12394SOL     OW49894   5.791   3.818   2.295
12394SOL    HW249895   5.862   3.839   2.234
12394SOL    HW349896   5.745   3.746   2.253
12394SOL    MW449897   5.795   3.812   2.281
12395SOL     OW49898   5.622   4.285   3.438
12395SOL    HW249899   5.686   4.351   3.413
12395SOL    HW349900   5.541   4.312   3.395
12395SOL    MW449901   5.620   4.297   3.430
12396SOL     OW49902   7.360   5.192   2.395
12396SOL    HW249903   7.330   5.125   2.456
12396SOL    HW349904   7.454   5.198   2.409
12396SOL    MW449905   7.368   5.184   2.405
12397SOL     OW49906   6.916   4.869   2.325
12397SOL    HW249907   6.888   4.955   2.358
12397SOL    HW349908   6.944   4.885   2.235
12397SOL    MW449909   6.916   4.883   2.317
12398SOL     OW49910   6.578   3.789   2.378
12398SOL    HW249911   6.615   3.848   2.443
12398SOL    HW349912   6.555   3.845   2.304
12398SOL    MW449913   6.579   3.804   2.377
12399SOL     OW49914   7.431   4.671   2.800
12399SOL    HW249915   7.422   4.703   2.711
12399SOL    HW349916   7.384   4.587   2.800
12399SOL    MW449917   7.424   4.664   2.790
12400SOL     OW49918   5.807   4.511   3.379
12400SOL    HW249919   5.828   4.580   3.317
12400SOL    HW349920   5.887   4.458   3.384
12400SOL    MW449921   5.820   4.512   3.373
12401SOL     OW49922   7.343   4.602   2.501
12401SOL    HW249923   7.437   4.591   2.489
12401SOL    HW349924   7.319   4.674   2.442
12401SOL    MW449925   7.353   4.610   2.492
12402SOL     OW49926   5.792   4.526   3.646
12402SOL    HW249927   5.718   4.470   3.672
12402SOL    HW349928   5.787   4.529   3.551
12402SOL    MW449929   5.781   4.519   3.636
12403SOL     OW49930   5.958   3.813   3.096
12403SOL    HW249931   6.001   3.897   3.116
12403SOL    HW349932   6.031   3.751   3.089
12403SOL    MW449933   5.973   3.816   3.097
12404SOL     OW49934   5.999   4.480   2.274
12404SOL    HW249935   5.999   4.575   2.259
12404SOL    HW349936   6.076   4.464   2.328
12404SOL    MW449937   6.009   4.491   2.279
12405SOL     OW49938   6.775   4.339   3.338
12405SOL    HW249939   6.811   4.312   3.254
12405SOL    HW349940   6.688   4.373   3.317
12405SOL    MW449941   6.769   4.340   3.325
12406SOL     OW49942   5.758   4.211   2.563
12406SOL    HW249943   5.820   4.218   2.636
12406SOL    HW349944   5.758   4.118   2.540
12406SOL    MW449945   5.766   4.200   2.570
12407SOL     OW49946   7.305   5.551   2.095
12407SOL    HW249947   7.372   5.584   2.035
12407SOL    HW349948   7.262   5.630   2.129
12407SOL    MW449949   7.307   5.566   2.091
12408SOL     OW49950   6.440   4.472   3.047
12408SOL    HW249951   6.398   4.390   3.023
12408SOL    HW349952   6.441   4.471   3.143
12408SOL    MW449953   6.433   4.461   3.056
12409SOL     OW49954   7.111   5.605   3.446
12409SOL    HW249955   7.114   5.511   3.429
12409SOL    HW349956   7.134   5.613   3.538
12409SOL    MW449957   7.114   5.593   3.456
12410SOL     OW49958   6.244   3.942   3.152
12410SOL    HW249959   6.175   4.005   3.173
12410SOL    HW349960   6.271   3.906   3.237
12410SOL    MW449961   6.238   3.945   3.165
12411SOL     OW49962   5.627   4.783   2.021
12411SOL    HW249963   5.596   4.848   2.084
12411SOL    HW349964   5.576   4.705   2.040
12411SOL    MW449965   5.617   4.780   2.031
12412SOL     OW49966   7.039   3.795   2.769
12412SOL    HW249967   7.127   3.804   2.806
12412SOL    HW349968   7.049   3.736   2.695
12412SOL    MW449969   7.053   3.789   2.763
12413SOL     OW49970   7.071   4.534   2.613
12413SOL    HW249971   7.151   4.549   2.562
12413SOL    HW349972   7.064   4.439   2.619
12413SOL    MW449973   7.080   4.523   2.608
12414SOL     OW49974   6.211   5.583   1.963
12414SOL    HW249975   6.116   5.583   1.955
12414SOL    HW349976   6.227   5.529   2.041
12414SOL    MW449977   6.201   5.577   1.972
12415SOL     OW49978   6.521   4.460   3.310
12415SOL    HW249979   6.590   4.527   3.307
12415SOL    HW349980   6.454   4.498   3.366
12415SOL    MW449981   6.522   4.473   3.317
12416SOL     OW49982   5.939   4.760   3.558
12416SOL    HW249983   5.893   4.676   3.560
12416SOL    HW349984   5.996   4.754   3.482
12416SOL    MW449985   5.941   4.748   3.550
12417SOL     OW49986   7.056   4.403   1.879
12417SOL    HW249987   6.984   4.379   1.821
12417SOL    HW349988   7.122   4.440   1.821
12417SOL    MW449989   7.055   4.405   1.864
12418SOL     OW49990   6.190   5.135   2.559
12418SOL    HW249991   6.255   5.068   2.580
12418SOL    HW349992   6.242   5.212   2.536
12418SOL    MW449993   6.205   5.137   2.558
12419SOL     OW49994   6.451   4.300   2.689
12419SOL    HW249995   6.391   4.318   2.761
12419SOL    HW349996   6.485   4.212   2.708
12419SOL    MW449997   6.447   4.290   2.702
12420SOL     OW49998   7.392   3.799   3.358
12420SOL    HW249999   7.313   3.845   3.386
12420SOL    HW350000   7.427   3.853   3.287
12420SOL    MW450001   7.386   3.812   3.352
12421SOL     OW50002   6.676   4.883   2.708
12421SOL    HW250003   6.768   4.864   2.726
12421SOL    HW350004   6.649   4.813   2.648
12421SOL    MW450005   6.684   4.871   2.702
12422SOL     OW50006   6.469   4.703   2.063
12422SOL    HW250007   6.455   4.615   2.028
12422SOL    HW350008   6.420   4.760   2.004
12422SOL    MW450009   6.461   4.698   2.051
12423SOL     OW50010   6.950   5.121   2.804
12423SOL    HW250011   6.923   5.205   2.769
12423SOL    HW350012   6.910   5.116   2.891
12423SOL    MW450013   6.943   5.130   2.810
12424SOL     OW50014   6.869   5.069   3.072
12424SOL    HW250015   6.880   5.036   3.161
12424SOL    HW350016   6.788   5.028   3.041
12424SOL    MW450017   6.859   5.061   3.078
12425SOL     OW50018   5.882   4.427   2.842
12425SOL    HW250019   5.832   4.426   2.923
12425SOL    HW350020   5.902   4.519   2.826
12425SOL    MW450021   5.878   4.439   2.850
12426SOL     OW50022   6.949   5.191   3.604
12426SOL    HW250023   6.949   5.285   3.620
12426SOL    HW350024   6.994   5.181   3.520
12426SOL    MW450025   6.955   5.201   3.595
12427SOL     OW50026   7.188   3.909   2.165
12427SOL    HW250027   7.181   3.913   2.260
12427SOL    HW350028   7.200   4.000   2.138
12427SOL    MW450029   7.189   3.922   2.173
12428SOL     OW50030   6.477   4.472   2.279
12428SOL    HW250031   6.457   4.458   2.186
12428SOL    HW350032   6.570   4.451   2.286
12428SOL    MW450033   6.487   4.467   2.268
12429SOL     OW50034   5.804   4.095   3.583
12429SOL    HW250035   5.761   4.154   3.520
12429SOL    HW350036   5.872   4.150   3.623
12429SOL    MW450037   5.808   4.110   3.580
12430SOL     OW50038   6.916   4.715   3.128
12430SOL    HW250039   6.979   4.712   3.201
12430SOL    HW350040   6.832   4.733   3.170
12430SOL    MW450041   6.912   4.717   3.143
12431SOL     OW50042   6.460   5.430   2.317
12431SOL    HW250043   6.518   5.501   2.344
12431SOL    HW350044   6.483   5.358   2.375
12431SOL    MW450045   6.471   5.430   2.328
12432SOL     OW50046   7.255   3.892   2.907
12432SOL    HW250047   7.300   3.810   2.926
12432SOL    HW350048   7.275   3.948   2.983
12432SOL    MW450049   7.265   3.888   2.919
12433SOL     OW50050   5.703   3.735   3.006
12433SOL    HW250051   5.694   3.736   2.911
12433SOL    HW350052   5.797   3.747   3.021
12433SOL    MW450053   5.715   3.738   2.997
12434SOL     OW50054   7.340   4.928   2.626
12434SOL    HW250055   7.319   4.874   2.549
12434SOL    HW350056   7.436   4.926   2.630
12434SOL    MW450057   7.349   4.921   2.615
12435SOL     OW50058   6.032   5.073   3.369
12435SOL    HW250059   5.953   5.023   3.392
12435SOL    HW350060   6.102   5.032   3.419
12435SOL    MW450061   6.030   5.061   3.379
12436SOL     OW50062   5.916   3.862   2.052
12436SOL    HW250063   5.845   3.917   2.020
12436SOL    HW350064   5.958   3.828   1.973
12436SOL    MW450065   5.912   3.864   2.038
12437SOL     OW50066   7.040   4.359   2.888
12437SOL    HW250067   6.963   4.405   2.854
12437SOL    HW350068   7.097   4.428   2.922
12437SOL    MW450069   7.037   4.374   2.888
12438SOL     OW50070   5.672   3.961   1.901
12438SOL    HW250071   5.639   4.040   1.945
12438SOL    HW350072   5.727   3.994   1.830
12438SOL    MW450073   5.675   3.975   1.898
12439SOL     OW50074   5.706   5.218   2.090
12439SOL    HW250075   5.723   5.302   2.132
12439SOL    HW350076   5.741   5.227   2.002
12439SOL    MW450077   5.711   5.231   2.084
12440SOL     OW50078   6.978   5.307   2.307
12440SOL    HW250079   7.041   5.297   2.236
12440SOL    HW350080   6.895   5.327   2.262
12440SOL    MW450081   6.975   5.308   2.292
12441SOL     OW50082   7.341   4.575   3.993
12441SOL    HW250083   7.382   4.517   4.058
12441SOL    HW350084   7.248   4.567   4.010
12441SOL    MW450085   7.335   4.567   4.003
12442SOL     OW50086   7.207   4.507   4.988
12442SOL    HW250087   7.162   4.574   5.039
12442SOL    HW350088   7.295   4.543   4.974
12442SOL    MW450089   7.213   4.520   4.992
12443SOL     OW50090   6.135   4.758   4.222
12443SOL    HW250091   6.225   4.733   4.206
12443SOL    HW350092   6.131   4.851   4.199
12443SOL    MW450093   6.147   4.767   4.217
12444SOL     OW50094   7.251   5.461   4.364
12444SOL    HW250095   7.263   5.407   4.442
12444SOL    HW350096   7.288   5.409   4.293
12444SOL    MW450097   7.257   5.446   4.365
12445SOL     OW50098   6.630   5.346   5.365
12445SOL    HW250099   6.671   5.382   5.286
12445SOL    HW350100   6.665   5.257   5.372
12445SOL    MW450101   6.641   5.339   5.356
12446SOL     OW50102   7.187   4.901   4.969
12446SOL    HW250103   7.108   4.866   4.927
12446SOL    HW350104   7.214   4.973   4.913
12446SOL    MW450105   7.180   4.906   4.956
12447SOL     OW50106   6.419   4.214   4.235
12447SOL    HW250107   6.394   4.302   4.263
12447SOL    HW350108   6.416   4.217   4.139
12447SOL    MW450109   6.415   4.226   4.227
12448SOL     OW50110   5.861   4.242   4.163
12448SOL    HW250111   5.893   4.330   4.145
12448SOL    HW350112   5.849   4.240   4.258
12448SOL    MW450113   5.864   4.254   4.175
12449SOL     OW50114   5.939   4.655   5.064
12449SOL    HW250115   6.002   4.602   5.015
12449SOL    HW350116   5.920   4.729   5.007
12449SOL    MW450117   5.945   4.657   5.051
12450SOL     OW50118   6.260   3.997   4.250
12450SOL    HW250119   6.318   4.073   4.252
12450SOL    HW350120   6.195   4.018   4.183
12450SOL    MW450121   6.259   4.009   4.241
12451SOL     OW50122   6.347   4.924   4.425
12451SOL    HW250123   6.427   4.927   4.477
12451SOL    HW350124   6.375   4.891   4.339
12451SOL    MW450125   6.361   4.920   4.420
12452SOL     OW50126   6.372   5.265   5.328
12452SOL    HW250127   6.456   5.291   5.367
12452SOL    HW350128   6.396   5.209   5.254
12452SOL    MW450129   6.386   5.261   5.323
12453SOL     OW50130   6.124   4.428   4.416
12453SOL    HW250131   6.109   4.348   4.467
12453SOL    HW350132   6.206   4.463   4.450
12453SOL    MW450133   6.132   4.420   4.428
12454SOL     OW50134   6.461   5.114   5.101
12454SOL    HW250135   6.425   5.180   5.041
12454SOL    HW350136   6.389   5.052   5.114
12454SOL    MW450137   6.447   5.114   5.095
12455SOL     OW50138   6.266   4.254   4.793
12455SOL    HW250139   6.172   4.250   4.811
12455SOL    HW350140   6.296   4.163   4.802
12455SOL    MW450141   6.257   4.242   4.796
12456SOL     OW50142   6.012   4.668   4.697
12456SOL    HW250143   5.967   4.675   4.613
12456SOL    HW350144   5.992   4.751   4.741
12456SOL    MW450145   6.004   4.680   4.691
12457SOL     OW50146   5.709   5.514   4.572
12457SOL    HW250147   5.798   5.506   4.607
12457SOL    HW350148   5.673   5.426   4.577
12457SOL    MW450149   5.716   5.501   4.577
12458SOL     OW50150   6.974   4.906   3.941
12458SOL    HW250151   6.892   4.942   3.907
12458SOL    HW350152   7.042   4.949   3.890
12458SOL    MW450153   6.972   4.916   3.929
12459SOL     OW50154   5.973   5.041   4.607
12459SOL    HW250155   5.949   5.094   4.683
12459SOL    HW350156   6.029   5.099   4.555
12459SOL    MW450157   5.977   5.056   4.610
12460SOL     OW50158   6.535   4.685   4.417
12460SOL    HW250159   6.449   4.672   4.457
12460SOL    HW350160   6.588   4.612   4.449
12460SOL    MW450161   6.531   4.674   4.426
12461SOL     OW50162   5.943   5.337   5.202
12461SOL    HW250163   5.851   5.313   5.187
12461SOL    HW350164   5.987   5.254   5.219
12461SOL    MW450165   5.937   5.322   5.201
12462SOL     OW50166   6.526   5.047   4.134
12462SOL    HW250167   6.503   5.109   4.202
12462SOL    HW350168   6.483   4.965   4.160
12462SOL    MW450169   6.518   5.043   4.145
12463SOL     OW50170   7.399   4.048   4.590
12463SOL    HW250171   7.336   4.028   4.659
12463SOL    HW350172   7.389   3.977   4.527
12463SOL    MW450173   7.389   4.035   4.591
12464SOL     OW50174   6.023   4.020   4.102
12464SOL    HW250175   5.997   3.982   4.018
12464SOL    HW350176   5.960   4.090   4.118
12464SOL    MW450177   6.012   4.023   4.093
12465SOL     OW50178   5.858   4.981   4.139
12465SOL    HW250179   5.806   5.049   4.095
12465SOL    HW350180   5.855   4.907   4.079
12465SOL    MW450181   5.850   4.980   4.126
12466SOL     OW50182   6.520   5.444   3.917
12466SOL    HW250183   6.475   5.460   4.000
12466SOL    HW350184   6.451   5.409   3.859
12466SOL    MW450185   6.506   5.441   3.919
12467SOL     OW50186   7.455   4.217   3.892
12467SOL    HW250187   7.364   4.219   3.920
12467SOL    HW350188   7.500   4.279   3.950
12467SOL    MW450189   7.448   4.225   3.902
12468SOL     OW50190   7.200   4.820   4.242
12468SOL    HW250191   7.110   4.820   4.277
12468SOL    HW350192   7.193   4.866   4.159
12468SOL    MW450193   7.187   4.826   4.236
12469SOL     OW50194   7.000   4.455   5.314
12469SOL    HW250195   7.069   4.393   5.291
12469SOL    HW350196   6.925   4.429   5.261
12469SOL    MW450197   7.000   4.442   5.305
12470SOL     OW50198   5.741   5.335   4.866
12470SOL    HW250199   5.724   5.281   4.943
12470SOL    HW350200   5.729   5.425   4.896
12470SOL    MW450201   5.738   5.339   4.880
12471SOL     OW50202   6.736   4.842   5.306
12471SOL    HW250203   6.721   4.935   5.291
12471SOL    HW350204   6.831   4.832   5.306
12471SOL    MW450205   6.745   4.852   5.303
12472SOL     OW50206   6.532   4.266   5.507
12472SOL    HW250207   6.622   4.267   5.474
12472SOL    HW350208   6.491   4.191   5.465
12472SOL    MW450209   6.538   4.256   5.498
12473SOL     OW50210   7.107   4.798   4.634
12473SOL    HW250211   7.110   4.732   4.565
12473SOL    HW350212   7.192   4.841   4.630
12473SOL    MW450213   7.119   4.794   4.625
12474SOL     OW50214   6.727   4.401   4.203
12474SOL    HW250215   6.753   4.425   4.114
12474SOL    HW350216   6.709   4.308   4.199
12474SOL    MW450217   6.729   4.393   4.190
12475SOL     OW50218   7.392   5.021   4.054
12475SOL    HW250219   7.348   5.062   4.129
12475SOL    HW350220   7.449   5.089   4.019
12475SOL    MW450221   7.394   5.035   4.059
12476SOL     OW50222   6.312   4.070   5.457
12476SOL    HW250223   6.322   3.996   5.397
12476SOL    HW350224   6.348   4.039   5.540
12476SOL    MW450225   6.318   4.056   5.459
12477SOL     OW50226   6.048   5.437   4.372
12477SOL    HW250227   6.080   5.525   4.350
12477SOL    HW350228   6.001   5.409   4.294
12477SOL    MW450229   6.047   5.445   4.359
12478SOL     OW50230   7.432   3.799   4.421
12478SOL    HW250231   7.486   3.750   4.483
12478SOL    HW350232   7.375   3.733   4.382
12478SOL    MW450233   7.432   3.783   4.423
12479SOL     OW50234   5.764   5.497   3.949
12479SOL    HW250235   5.793   5.587   3.941
12479SOL    HW350236   5.714   5.480   3.870
12479SOL    MW450237   5.762   5.505   3.938
12480SOL     OW50238   6.551   3.752   4.834
12480SOL    HW250239   6.510   3.830   4.796
12480SOL    HW350240   6.645   3.770   4.829
12480SOL    MW450241   6.557   3.764   4.829
12481SOL     OW50242   7.168   5.305   3.920
12481SOL    HW250243   7.216   5.374   3.966
12481SOL    HW350244   7.089   5.349   3.889
12481SOL    MW450245   7.163   5.319   3.923
12482SOL     OW50246   6.566   4.430   3.864
12482SOL    HW250247   6.568   4.377   3.785
12482SOL    HW350248   6.654   4.467   3.870
12482SOL    MW450249   6.578   4.429   3.853
12483SOL     OW50250   7.180   4.356   4.200
12483SOL    HW250251   7.219   4.356   4.287
12483SOL    HW350252   7.121   4.432   4.200
12483SOL    MW450253   7.177   4.367   4.211
12484SOL     OW50254   6.497   4.723   5.329
12484SOL    HW250255   6.474   4.703   5.419
12484SOL    HW350256   6.582   4.767   5.334
12484SOL    MW450257   6.504   4.726   5.341
12485SOL     OW50258   6.577   3.860   5.089
12485SOL    HW250259   6.583   3.822   5.002
12485SOL    HW350260   6.566   3.954   5.074
12485SOL    MW450261   6.578   3.868   5.077
12486SOL     OW50262   6.666   4.349   4.923
12486SOL    HW250263   6.741   4.378   4.870
12486SOL    HW350264   6.598   4.414   4.907
12486SOL    MW450265   6.667   4.361   4.913
12487SOL     OW50266   7.216   4.317   5.200
12487SOL    HW250267   7.197   4.226   5.179
12487SOL    HW350268   7.194   4.366   5.121
12487SOL    MW450269   7.211   4.310   5.187
12488SOL     OW50270   7.358   5.411   5.104
12488SOL    HW250271   7.286   5.373   5.155
12488SOL    HW350272   7.375   5.496   5.145
12488SOL    MW450273   7.352   5.416   5.116
12489SOL     OW50274   6.663   4.055   5.306
12489SOL    HW250275   6.629   4.094   5.225
12489SOL    HW350276   6.641   3.963   5.299
12489SOL    MW450277   6.656   4.048   5.296
12490SOL     OW50278   7.072   4.869   5.382
12490SOL    HW250279   7.154   4.910   5.412
12490SOL    HW350280   7.035   4.831   5.462
12490SOL    MW450281   7.078   4.870   5.397
12491SOL     OW50282   7.367   4.242   4.366
12491SOL    HW250283   7.456   4.211   4.383
12491SOL    HW350284   7.310   4.182   4.414
12491SOL    MW450285   7.370   4.230   4.375
12492SOL     OW50286   5.793   3.956   4.395
12492SOL    HW250287   5.784   3.896   4.321
12492SOL    HW350288   5.726   3.927   4.458
12492SOL    MW450289   5.783   3.943   4.393
12493SOL     OW50290   6.736   5.049   3.956
12493SOL    HW250291   6.686   5.051   4.038
12493SOL    HW350292   6.670   5.067   3.888
12493SOL    MW450293   6.722   5.051   3.958
12494SOL     OW50294   5.740   4.129   4.758
12494SOL    HW250295   5.712   4.220   4.767
12494SOL    HW350296   5.677   4.090   4.697
12494SOL    MW450297   5.727   4.135   4.752
12495SOL     OW50298   6.199   5.467   4.064
12495SOL    HW250299   6.120   5.425   4.097
12495SOL    HW350300   6.265   5.450   4.131
12495SOL    MW450301   6.198   5.459   4.077
12496SOL     OW50302   7.327   4.987   5.461
12496SOL    HW250303   7.377   4.913   5.493
12496SOL    HW350304   7.273   5.014   5.536
12496SOL    MW450305   7.327   4.981   5.474
12497SOL     OW50306   6.335   4.882   3.771
12497SOL    HW250307   6.257   4.828   3.758
12497SOL    HW350308   6.306   4.955   3.824
12497SOL    MW450309   6.321   4.884   3.776
12498SOL     OW50310   7.461   4.622   4.963
12498SOL    HW250311   7.477   4.660   4.876
12498SOL    HW350312   7.495   4.688   5.024
12498SOL    MW450313   7.468   4.635   4.959
12499SOL     OW50314   7.253   5.331   4.632
12499SOL    HW250315   7.282   5.398   4.693
12499SOL    HW350316   7.234   5.255   4.687
12499SOL    MW450317   7.255   5.331   4.647
12500SOL     OW50318   6.916   5.398   3.839
12500SOL    HW250319   6.842   5.361   3.889
12500SOL    HW350320   6.924   5.488   3.872
12500SOL    MW450321   6.907   5.405   3.851
12501SOL     OW50322   5.724   4.404   4.928
12501SOL    HW250323   5.786   4.434   4.994
12501SOL    HW350324   5.658   4.473   4.922
12501SOL    MW450325   5.723   4.417   4.935
12502SOL     OW50326   7.140   5.072   3.781
12502SOL    HW250327   7.087   5.121   3.717
12502SOL    HW350328   7.171   5.138   3.842
12502SOL    MW450329   7.138   5.086   3.779
12503SOL     OW50330   6.365   3.961   3.836
12503SOL    HW250331   6.313   3.881   3.824
12503SOL    HW350332   6.452   3.938   3.804
12503SOL    MW450333   6.368   3.947   3.830
12504SOL     OW50334   5.819   5.513   5.380
12504SOL    HW250335   5.793   5.581   5.318
12504SOL    HW350336   5.867   5.450   5.328
12504SOL    MW450337   5.821   5.513   5.366
12505SOL     OW50338   5.871   4.832   4.887
12505SOL    HW250339   5.924   4.907   4.912
12505SOL    HW350340   5.790   4.870   4.853
12505SOL    MW450341   5.867   4.847   4.887
12506SOL     OW50342   6.411   4.736   4.875
12506SOL    HW250343   6.439   4.645   4.887
12506SOL    HW350344   6.340   4.730   4.811
12506SOL    MW450345   6.404   4.724   4.870
12507SOL     OW50346   5.726   4.601   4.293
12507SOL    HW250347   5.817   4.616   4.320
12507SOL    HW350348   5.729   4.522   4.239
12507SOL    MW450349   5.738   4.593   4.291
12508SOL     OW50350   5.962   4.309   5.547
12508SOL    HW250351   5.909   4.389   5.554
12508SOL    HW350352   6.032   4.321   5.612
12508SOL    MW450353   5.964   4.322   5.555
12509SOL     OW50354   6.348   3.859   5.254
12509SOL    HW250355   6.325   3.767   5.256
12509SOL    HW350356   6.434   3.861   5.211
12509SOL    MW450357   6.355   3.849   5.250
12510SOL     OW50358   6.032   4.383   5.293
12510SOL    HW250359   6.112   4.433   5.279
12510SOL    HW350360   6.023   4.377   5.388
12510SOL    MW450361   6.041   4.389   5.303
12511SOL     OW50362   6.353   5.533   4.667
12511SOL    HW250363   6.442   5.548   4.697
12511SOL    HW350364   6.348   5.580   4.583
12511SOL    MW450365   6.363   5.541   4.660
12512SOL     OW50366   7.009   3.908   5.564
12512SOL    HW250367   7.065   3.835   5.590
12512SOL    HW350368   6.979   3.946   5.646
12512SOL    MW450369   7.013   3.903   5.577
12513SOL     OW50370   5.734   5.213   4.332
12513SOL    HW250371   5.706   5.252   4.414
12513SOL    HW350372   5.754   5.122   4.354
12513SOL    MW450373   5.732   5.205   4.345
12514SOL     OW50374   6.567   5.256   4.367
12514SOL    HW250375   6.650   5.210   4.351
12514SOL    HW350376   6.557   5.255   4.463
12514SOL    MW450377   6.577   5.249   4.377
12515SOL     OW50378   7.399   4.401   4.681
12515SOL    HW250379   7.488   4.431   4.663
12515SOL    HW350380   7.379   4.341   4.610
12515SOL    MW450381   7.408   4.398   4.670
12516SOL     OW50382   7.250   4.580   5.561
12516SOL    HW250383   7.305   4.504   5.542
12516SOL    HW350384   7.252   4.588   5.656
12516SOL    MW450385   7.258   4.571   5.569
12517SOL     OW50386   6.300   5.313   3.772
12517SOL    HW250387   6.240   5.382   3.742
12517SOL    HW350388   6.245   5.255   3.825
12517SOL    MW450389   6.284   5.315   3.774
12518SOL     OW50390   6.738   3.958   3.995
12518SOL    HW250391   6.671   3.934   3.932
12518SOL    HW350392   6.803   4.007   3.944
12518SOL    MW450393   6.738   3.960   3.980
12519SOL     OW50394   6.545   4.142   5.080
12519SOL    HW250395   6.464   4.183   5.108
12519SOL    HW350396   6.592   4.210   5.032
12519SOL    MW450397   6.540   4.157   5.078
12520SOL     OW50398   6.805   4.480   4.703
12520SOL    HW250399   6.818   4.574   4.713
12520SOL    HW350400   6.766   4.470   4.617
12520SOL    MW450401   6.801   4.491   4.693
12521SOL     OW50402   6.257   4.675   4.507
12521SOL    HW250403   6.168   4.666   4.540
12521SOL    HW350404   6.261   4.765   4.475
12521SOL    MW450405   6.246   4.686   4.507
12522SOL     OW50406   7.056   4.258   4.502
12522SOL    HW250407   7.001   4.179   4.501
12522SOL    HW350408   7.038   4.299   4.586
12522SOL    MW450409   7.046   4.253   4.511
12523SOL     OW50410   6.027   3.945   5.319
12523SOL    HW250411   5.948   3.963   5.371
12523SOL    HW350412   6.022   4.007   5.246
12523SOL    MW450413   6.017   3.955   5.316
12524SOL     OW50414   6.675   4.462   4.459
12524SOL    HW250415   6.612   4.394   4.483
12524SOL    HW350416   6.695   4.443   4.367
12524SOL    MW450417   6.669   4.449   4.451
12525SOL     OW50418   5.931   5.357   4.161
12525SOL    HW250419   5.892   5.404   4.087
12525SOL    HW350420   5.865   5.292   4.186
12525SOL    MW450421   5.918   5.355   4.155
12526SOL     OW50422   6.423   4.766   4.185
12526SOL    HW250423   6.425   4.740   4.092
12526SOL    HW350424   6.481   4.703   4.228
12526SOL    MW450425   6.431   4.755   4.179
12527SOL     OW50426   6.976   5.326   4.957
12527SOL    HW250427   6.901   5.372   4.995
12527SOL    HW350428   6.958   5.233   4.974
12527SOL    MW450429   6.965   5.320   4.965
12528SOL     OW50430   6.980   5.534   4.387
12528SOL    HW250431   6.923   5.487   4.326
12528SOL    HW350432   7.066   5.495   4.374
12528SOL    MW450433   6.983   5.525   4.377
12529SOL     OW50434   6.933   4.010   4.518
12529SOL    HW250435   6.961   3.942   4.579
12529SOL    HW350436   6.847   3.981   4.488
12529SOL    MW450437   6.926   3.997   4.522
12530SOL     OW50438   5.738   4.944   4.452
12530SOL    HW250439   5.802   4.976   4.515
12530SOL    HW350440   5.787   4.880   4.400
12530SOL    MW450441   5.753   4.940   4.453
12531SOL     OW50442   6.238   5.020   5.434
12531SOL    HW250443   6.286   5.103   5.421
12531SOL    HW350444   6.295   4.968   5.490
12531SOL    MW450445   6.252   5.024   5.440
12532SOL     OW50446   5.814   5.262   5.574
12532SOL    HW250447   5.870   5.186   5.589
12532SOL    HW350448   5.763   5.240   5.496
12532SOL    MW450449   5.814   5.249   5.565
12533SOL     OW50450   6.913   4.114   3.853
12533SOL    HW250451   6.886   4.180   3.789
12533SOL    HW350452   6.983   4.157   3.903
12533SOL    MW450453   6.918   4.127   3.850
12534SOL     OW50454   6.581   3.819   3.790
12534SOL    HW250455   6.637   3.811   3.712
12534SOL    HW350456   6.558   3.729   3.812
12534SOL    MW450457   6.586   3.806   3.783
12535SOL     OW50458   7.086   4.670   3.995
12535SOL    HW250459   7.053   4.759   3.985
12535SOL    HW350460   7.051   4.641   4.080
12535SOL    MW450461   7.076   4.679   4.006
12536SOL     OW50462   6.699   5.099   5.183
12536SOL    HW250463   6.610   5.105   5.151
12536SOL    HW350464   6.743   5.178   5.151
12536SOL    MW450465   6.694   5.109   5.175
12537SOL     OW50466   5.992   3.767   5.525
12537SOL    HW250467   5.920   3.732   5.473
12537SOL    HW350468   6.050   3.808   5.460
12537SOL    MW450469   5.990   3.768   5.510
12538SOL     OW50470   6.016   5.257   4.824
12538SOL    HW250471   6.061   5.319   4.881
12538SOL    HW350472   5.923   5.276   4.837
12538SOL    MW450473   6.009   5.267   4.831
12539SOL     OW50474   7.456   4.786   5.178
12539SOL    HW250475   7.371   4.799   5.137
12539SOL    HW350476   7.436   4.750   5.265
12539SOL    MW450477   7.443   4.782   5.183
12540SOL     OW50478   6.438   5.325   4.932
12540SOL    HW250479   6.462   5.314   4.841
12540SOL    HW350480   6.361   5.382   4.930
12540SOL    MW450481   6.430   5.330   4.921
12541SOL     OW50482   6.080   4.708   3.787
12541SOL    HW250483   6.003   4.721   3.843
12541SOL    HW350484   6.044   4.672   3.706
12541SOL    MW450485   6.066   4.704   3.784
12542SOL     OW50486   6.733   4.681   4.030
12542SOL    HW250487   6.643   4.702   4.005
12542SOL    HW350488   6.760   4.754   4.086
12542SOL    MW450489   6.725   4.693   4.033
12543SOL     OW50490   6.233   5.030   4.722
12543SOL    HW250491   6.226   5.009   4.816
12543SOL    HW350492   6.151   4.998   4.685
12543SOL    MW450493   6.221   5.024   4.729
12544SOL     OW50494   7.097   4.040   5.124
12544SOL    HW250495   7.044   4.042   5.204
12544SOL    HW350496   7.082   3.953   5.087
12544SOL    MW450497   7.089   4.030   5.129
12545SOL     OW50498   7.433   3.964   4.997
12545SOL    HW250499   7.414   4.031   4.932
12545SOL    HW350500   7.490   3.902   4.952
12545SOL    MW450501   7.437   3.965   4.983
12546SOL     OW50502   5.679   5.122   5.385
12546SOL    HW250503   5.723   5.055   5.331
12546SOL    HW350504   5.594   5.084   5.405
12546SOL    MW450505   5.674   5.108   5.381
12547SOL     OW50506   6.362   3.797   4.437
12547SOL    HW250507   6.291   3.858   4.419
12547SOL    HW350508   6.413   3.794   4.356
12547SOL    MW450509   6.358   3.803   4.424
12548SOL     OW50510   6.120   5.037   4.186
12548SOL    HW250511   6.113   5.069   4.276
12548SOL    HW350512   6.030   5.021   4.158
12548SOL    MW450513   6.108   5.039   4.193
12549SOL     OW50514   6.715   5.430   5.095
12549SOL    HW250515   6.635   5.415   5.045
12549SOL    HW350516   6.722   5.525   5.102
12549SOL    MW450517   6.706   5.441   5.089
12550SOL     OW50518   6.829   5.395   4.585
12550SOL    HW250519   6.876   5.468   4.544
12550SOL    HW350520   6.750   5.434   4.621
12550SOL    MW450521   6.824   5.410   4.584
12551SOL     OW50522   7.237   5.490   4.860
12551SOL    HW250523   7.280   5.460   4.940
12551SOL    HW350524   7.156   5.438   4.857
12551SOL    MW450525   7.232   5.479   4.870
12552SOL     OW50526   6.322   4.454   5.567
12552SOL    HW250527   6.392   4.396   5.539
12552SOL    HW350528   6.265   4.399   5.622
12552SOL    MW450529   6.324   4.441   5.571
12553SOL     OW50530   7.109   4.666   5.200
12553SOL    HW250531   7.114   4.719   5.280
12553SOL    HW350532   7.071   4.583   5.228
12553SOL    MW450533   7.105   4.661   5.215
12554SOL     OW50534   6.749   3.801   5.446
12554SOL    HW250535   6.744   3.708   5.427
12554SOL    HW350536   6.832   3.812   5.492
12554SOL    MW450537   6.757   3.790   5.450
12555SOL     OW50538   6.123   4.321   3.900
12555SOL    HW250539   6.089   4.377   3.970
12555SOL    HW350540   6.194   4.271   3.940
12555SOL    MW450541   6.129   4.322   3.914
12556SOL     OW50542   7.219   5.072   4.722
12556SOL    HW250543   7.254   5.054   4.635
12556SOL    HW350544   7.124   5.073   4.709
12556SOL    MW450545   7.211   5.069   4.709
12557SOL     OW50546   6.648   4.720   5.091
12557SOL    HW250547   6.691   4.755   5.169
12557SOL    HW350548   6.631   4.797   5.037
12557SOL    MW450549   6.651   4.735   5.094
12558SOL     OW50550   7.179   4.207   3.964
12558SOL    HW250551   7.171   4.278   3.901
12558SOL    HW350552   7.197   4.251   4.047
12558SOL    MW450553   7.180   4.221   3.966
12559SOL     OW50554   6.039   3.862   4.393
12559SOL    HW250555   6.089   3.905   4.324
12559SOL    HW350556   5.954   3.906   4.393
12559SOL    MW450557   6.036   3.875   4.384
12560SOL     OW50558   5.798   4.924   5.253
12560SOL    HW250559   5.826   4.877   5.331
12560SOL    HW350560   5.719   4.879   5.224
12560SOL    MW450561   5.791   4.913   5.259
12561SOL     OW50562   6.306   4.251   5.220
12561SOL    HW250563   6.278   4.339   5.244
12561SOL    HW350564   6.275   4.195   5.291
12561SOL    MW450565   6.298   4.254   5.232
12562SOL     OW50566   6.848   4.469   3.939
12562SOL    HW250567   6.895   4.487   3.858
12562SOL    HW350568   6.814   4.553   3.967
12562SOL    MW450569   6.850   4.483   3.932
12563SOL     OW50570   5.961   4.647   4.433
12563SOL    HW250571   6.019   4.703   4.381
12563SOL    HW350572   6.005   4.562   4.435
12563SOL    MW450573   5.974   4.644   4.426
12564SOL     OW50574   7.101   3.999   4.270
12564SOL    HW250575   7.023   3.949   4.295
12564SOL    HW350576   7.072   4.090   4.270
12564SOL    MW450577   7.087   4.003   4.273
12565SOL     OW50578   6.687   3.961   4.429
12565SOL    HW250579   6.707   4.036   4.373
12565SOL    HW350580   6.667   4.000   4.514
12565SOL    MW450581   6.688   3.977   4.433
12566SOL     OW50582   6.583   5.211   3.761
12566SOL    HW250583   6.610   5.289   3.713
12566SOL    HW350584   6.490   5.226   3.780
12566SOL    MW450585   6.574   5.224   3.757
12567SOL     OW50586   7.447   4.734   5.448
12567SOL    HW250587   7.360   4.714   5.484
12567SOL    HW350588   7.501   4.660   5.473
12567SOL    MW450589   7.442   4.723   5.456
12568SOL     OW50590   5.668   5.247   4.605
12568SOL    HW250591   5.700   5.251   4.696
12568SOL    HW350592   5.573   5.255   4.613
12568SOL    MW450593   5.660   5.250   4.618
12569SOL     OW50594   5.623   4.373   4.152
12569SOL    HW250595   5.563   4.345   4.222
12569SOL    HW350596   5.697   4.313   4.158
12569SOL    MW450597   5.625   4.362   4.161
12570SOL     OW50598   7.191   5.585   5.586
12570SOL    HW250599   7.236   5.509   5.551
12570SOL    HW350600   7.229   5.598   5.673
12570SOL    MW450601   7.201   5.578   5.592
12571SOL     OW50602   6.791   5.104   4.312
12571SOL    HW250603   6.814   5.055   4.390
12571SOL    HW350604   6.872   5.146   4.284
12571SOL    MW450605   6.804   5.104   4.319
12572SOL     OW50606   6.049   4.112   5.041
12572SOL    HW250607   6.082   4.193   5.081
12572SOL    HW350608   6.022   4.138   4.953
12572SOL    MW450609   6.048   4.126   5.035
12573SOL     OW50610   6.003   4.079   4.777
12573SOL    HW250611   6.033   3.993   4.748
12573SOL    HW350612   5.908   4.072   4.780
12573SOL    MW450613   5.995   4.068   4.775
12574SOL     OW50614   6.832   4.288   5.468
12574SOL    HW250615   6.884   4.223   5.421
12574SOL    HW350616   6.790   4.339   5.398
12574SOL    MW450617   6.833   4.285   5.451
12575SOL     OW50618   6.931   4.083   5.329
12575SOL    HW250619   6.838   4.067   5.316
12575SOL    HW350620   6.957   4.021   5.397
12575SOL    MW450621   6.921   4.073   5.336
12576SOL     OW50622   6.146   3.857   4.668
12576SOL    HW250623   6.156   3.766   4.694
12576SOL    HW350624   6.102   3.853   4.583
12576SOL    MW450625   6.142   3.845   4.660
12577SOL     OW50626   6.240   5.472   5.214
12577SOL    HW250627   6.157   5.457   5.259
12577SOL    HW350628   6.299   5.405   5.249
12577SOL    MW450629   6.238   5.462   5.224
12578SOL     OW50630   7.297   4.179   4.839
12578SOL    HW250631   7.230   4.212   4.899
12578SOL    HW350632   7.340   4.257   4.805
12578SOL    MW450633   7.295   4.194   4.843
12579SOL     OW50634   7.475   4.899   4.809
12579SOL    HW250635   7.468   4.839   4.734
12579SOL    HW350636   7.401   4.959   4.798
12579SOL    MW450637   7.465   4.899   4.798
12580SOL     OW50638   6.857   4.761   4.727
12580SOL    HW250639   6.871   4.733   4.818
12580SOL    HW350640   6.943   4.792   4.699
12580SOL    MW450641   6.870   4.762   4.736
12581SOL     OW50642   6.940   4.256   5.006
12581SOL    HW250643   6.961   4.257   4.913
12581SOL    HW350644   6.985   4.178   5.039
12581SOL    MW450645   6.947   4.246   4.998
12582SOL     OW50646   7.433   4.387   5.548
12582SOL    HW250647   7.470   4.332   5.617
12582SOL    HW350648   7.458   4.344   5.466
12582SOL    MW450649   7.440   4.375   5.547
12583SOL     OW50650   6.980   4.685   5.600
12583SOL    HW250651   7.046   4.633   5.554
12583SOL    HW350652   7.000   4.672   5.693
12583SOL    MW450653   6.991   4.676   5.607
12584SOL     OW50654   6.931   3.771   3.948
12584SOL    HW250655   7.005   3.815   3.991
12584SOL    HW350656   6.855   3.825   3.970
12584SOL    MW450657   6.931   3.783   3.956
12585SOL     OW50658   6.991   4.546   4.226
12585SOL    HW250659   6.906   4.516   4.196
12585SOL    HW350660   6.983   4.553   4.321
12585SOL    MW450661   6.979   4.544   4.235
12586SOL     OW50662   6.067   5.009   4.957
12586SOL    HW250663   6.079   5.036   5.048
12586SOL    HW350664   6.048   5.090   4.910
12586SOL    MW450665   6.066   5.024   4.962
12587SOL     OW50666   6.351   3.989   4.780
12587SOL    HW250667   6.324   3.991   4.871
12587SOL    HW350668   6.281   3.941   4.735
12587SOL    MW450669   6.339   3.985   4.787
12588SOL     OW50670   6.205   5.481   4.942
12588SOL    HW250671   6.257   5.558   4.919
12588SOL    HW350672   6.214   5.473   5.037
12588SOL    MW450673   6.214   5.488   4.953
12589SOL     OW50674   7.107   5.066   5.174
12589SOL    HW250675   7.092   4.995   5.237
12589SOL    HW350676   7.153   5.024   5.102
12589SOL    MW450677   7.113   5.050   5.174
12590SOL     OW50678   6.181   4.797   5.291
12590SOL    HW250679   6.218   4.802   5.203
12590SOL    HW350680   6.220   4.870   5.338
12590SOL    MW450681   6.191   4.807   5.286
12591SOL     OW50682   6.361   4.840   5.103
12591SOL    HW250683   6.420   4.786   5.156
12591SOL    HW350684   6.376   4.812   5.013
12591SOL    MW450685   6.371   4.829   5.099
12592SOL     OW50686   6.364   4.212   3.952
12592SOL    HW250687   6.437   4.261   3.915
12592SOL    HW350688   6.380   4.121   3.926
12592SOL    MW450689   6.376   4.207   3.945
12593SOL     OW50690   7.172   5.329   5.275
12593SOL    HW250691   7.214   5.314   5.360
12593SOL    HW350692   7.163   5.242   5.237
12593SOL    MW450693   7.176   5.317   5.282
12594SOL     OW50694   6.832   3.808   4.866
12594SOL    HW250695   6.887   3.817   4.788
12594SOL    HW350696   6.887   3.842   4.937
12594SOL    MW450697   6.846   3.813   4.865
12595SOL     OW50698   5.839   4.721   4.050
12595SOL    HW250699   5.776   4.737   3.979
12595SOL    HW350700   5.786   4.684   4.121
12595SOL    MW450701   5.824   4.718   4.050
12596SOL     OW50702   6.195   5.075   3.909
12596SOL    HW250703   6.210   5.051   4.001
12596SOL    HW350704   6.103   5.053   3.893
12596SOL    MW450705   6.185   5.068   3.919
12597SOL     OW50706   6.734   5.306   4.061
12597SOL    HW250707   6.742   5.224   4.012
12597SOL    HW350708   6.653   5.345   4.028
12597SOL    MW450709   6.724   5.301   4.051
12598SOL     OW50710   5.993   5.464   4.630
12598SOL    HW250711   5.997   5.375   4.665
12598SOL    HW350712   6.019   5.455   4.539
12598SOL    MW450713   5.996   5.452   4.622
12599SOL     OW50714   6.610   4.942   4.873
12599SOL    HW250715   6.542   4.876   4.889
12599SOL    HW350716   6.628   4.936   4.780
12599SOL    MW450717   6.603   4.933   4.864
12600SOL     OW50718   5.699   5.217   5.124
12600SOL    HW250719   5.689   5.175   5.210
12600SOL    HW350720   5.620   5.270   5.114
12600SOL    MW450721   5.688   5.218   5.135
12601SOL     OW50722   6.603   4.081   4.694
12601SOL    HW250723   6.533   4.033   4.739
12601SOL    HW350724   6.635   4.144   4.758
12601SOL    MW450725   6.598   4.083   4.708
12602SOL     OW50726   6.254   4.517   5.314
12602SOL    HW250727   6.247   4.612   5.302
12602SOL    HW350728   6.263   4.506   5.409
12602SOL    MW450729   6.255   4.529   5.324
12603SOL     OW50730   5.975   5.032   5.572
12603SOL    HW250731   6.047   5.034   5.509
12603SOL    HW350732   5.945   4.941   5.571
12603SOL    MW450733   5.980   5.021   5.564
12604SOL     OW50734   7.059   3.795   5.039
12604SOL    HW250735   7.130   3.741   5.003
12604SOL    HW350736   7.058   3.774   5.132
12604SOL    MW450737   7.068   3.786   5.047
12605SOL     OW50738   7.259   5.325   5.523
12605SOL    HW250739   7.232   5.322   5.614
12605SOL    HW350740   7.355   5.329   5.526
12605SOL    MW450741   7.269   5.325   5.535
12606SOL     OW50742   6.070   4.187   4.507
12606SOL    HW250743   6.141   4.135   4.470
12606SOL    HW350744   6.056   4.152   4.594
12606SOL    MW450745   6.078   4.176   4.514
12607SOL     OW50746   5.625   5.522   5.579
12607SOL    HW250747   5.675   5.500   5.501
12607SOL    HW350748   5.633   5.617   5.587
12607SOL    MW450749   5.633   5.531   5.570
12608SOL     OW50750   6.386   5.280   4.583
12608SOL    HW250751   6.314   5.217   4.596
12608SOL    HW350752   6.347   5.365   4.601
12608SOL    MW450753   6.370   5.283   4.586
12609SOL     OW50754   6.706   4.128   4.231
12609SOL    HW250755   6.728   4.065   4.163
12609SOL    HW350756   6.611   4.120   4.242
12609SOL    MW450757   6.696   4.119   4.223
12610SOL     OW50758   5.791   3.818   4.163
12610SOL    HW250759   5.862   3.839   4.102
12610SOL    HW350760   5.745   3.746   4.121
12610SOL    MW450761   5.795   3.812   4.149
12611SOL     OW50762   5.622   4.285   5.306
12611SOL    HW250763   5.686   4.351   5.281
12611SOL    HW350764   5.541   4.312   5.263
12611SOL    MW450765   5.620   4.297   5.298
12612SOL     OW50766   7.360   5.192   4.263
12612SOL    HW250767   7.330   5.125   4.324
12612SOL    HW350768   7.454   5.198   4.277
12612SOL    MW450769   7.368   5.184   4.273
12613SOL     OW50770   6.916   4.869   4.193
12613SOL    HW250771   6.888   4.955   4.226
12613SOL    HW350772   6.944   4.885   4.103
12613SOL    MW450773   6.916   4.883   4.185
12614SOL     OW50774   6.578   3.789   4.246
12614SOL    HW250775   6.615   3.848   4.311
12614SOL    HW350776   6.555   3.845   4.172
12614SOL    MW450777   6.579   3.804   4.245
12615SOL     OW50778   7.431   4.671   4.668
12615SOL    HW250779   7.422   4.703   4.579
12615SOL    HW350780   7.384   4.587   4.668
12615SOL    MW450781   7.424   4.664   4.658
12616SOL     OW50782   5.807   4.511   5.247
12616SOL    HW250783   5.828   4.580   5.185
12616SOL    HW350784   5.887   4.458   5.252
12616SOL    MW450785   5.820   4.512   5.241
12617SOL     OW50786   7.343   4.602   4.369
12617SOL    HW250787   7.437   4.591   4.357
12617SOL    HW350788   7.319   4.674   4.310
12617SOL    MW450789   7.353   4.610   4.360
12618SOL     OW50790   5.792   4.526   5.514
12618SOL    HW250791   5.718   4.470   5.540
12618SOL    HW350792   5.787   4.529   5.419
12618SOL    MW450793   5.781   4.519   5.504
12619SOL     OW50794   5.958   3.813   4.964
12619SOL    HW250795   6.001   3.897   4.984
12619SOL    HW350796   6.031   3.751   4.957
12619SOL    MW450797   5.973   3.816   4.965
12620SOL     OW50798   5.999   4.480   4.142
12620SOL    HW250799   5.999   4.575   4.127
12620SOL    HW350800   6.076   4.464   4.196
12620SOL    MW450801   6.009   4.491   4.147
12621SOL     OW50802   6.775   4.339   5.206
12621SOL    HW250803   6.811   4.312   5.122
12621SOL    HW350804   6.688   4.373   5.185
12621SOL    MW450805   6.769   4.340   5.193
12622SOL     OW50806   5.758   4.211   4.431
12622SOL    HW250807   5.820   4.218   4.504
12622SOL    HW350808   5.758   4.118   4.408
12622SOL    MW450809   5.766   4.200   4.438
12623SOL     OW50810   7.305   5.551   3.963
12623SOL    HW250811   7.372   5.584   3.903
12623SOL    HW350812   7.262   5.630   3.997
12623SOL    MW450813   7.307   5.566   3.959
12624SOL     OW50814   6.440   4.472   4.915
12624SOL    HW250815   6.398   4.390   4.891
12624SOL    HW350816   6.441   4.471   5.011
12624SOL    MW450817   6.433   4.461   4.924
12625SOL     OW50818   7.111   5.605   5.314
12625SOL    HW250819   7.114   5.511   5.297
12625SOL    HW350820   7.134   5.613   5.406
12625SOL    MW450821   7.114   5.593   5.324
12626SOL     OW50822   6.244   3.942   5.020
12626SOL    HW250823   6.175   4.005   5.041
12626SOL    HW350824   6.271   3.906   5.105
12626SOL    MW450825   6.238   3.945   5.033
12627SOL     OW50826   5.627   4.783   3.889
12627SOL    HW250827   5.596   4.848   3.952
12627SOL    HW350828   5.576   4.705   3.908
12627SOL    MW450829   5.617   4.780   3.899
12628SOL     OW50830   7.039   3.795   4.637
12628SOL    HW250831   7.127   3.804   4.674
12628SOL    HW350832   7.049   3.736   4.563
12628SOL    MW450833   7.053   3.789   4.631
12629SOL     OW50834   7.071   4.534   4.481
12629SOL    HW250835   7.151   4.549   4.430
12629SOL    HW350836   7.064   4.439   4.487
12629SOL    MW450837   7.080   4.523   4.476
12630SOL     OW50838   6.211   5.583   3.831
12630SOL    HW250839   6.116   5.583   3.823
12630SOL    HW350840   6.227   5.529   3.909
12630SOL    MW450841   6.201   5.577   3.840
12631SOL     OW50842   6.521   4.460   5.178
12631SOL    HW250843   6.590   4.527   5.175
12631SOL    HW350844   6.454   4.498   5.234
12631SOL    MW450845   6.522   4.473   5.185
12632SOL     OW50846   5.939   4.760   5.426
12632SOL    HW250847   5.893   4.676   5.428
12632SOL    HW350848   5.996   4.754   5.350
12632SOL    MW450849   5.941   4.748   5.418
12633SOL     OW50850   7.056   4.403   3.747
12633SOL    HW250851   6.984   4.379   3.689
12633SOL    HW350852   7.122   4.440   3.689
12633SOL    MW450853   7.055   4.405   3.732
12634SOL     OW50854   6.190   5.135   4.427
12634SOL    HW250855   6.255   5.068   4.448
12634SOL    HW350856   6.242   5.212   4.404
12634SOL    MW450857   6.205   5.137   4.426
12635SOL     OW50858   6.451   4.300   4.557
12635SOL    HW250859   6.391   4.318   4.629
12635SOL    HW350860   6.485   4.212   4.576
12635SOL    MW450861   6.447   4.290   4.570
12636SOL     OW50862   7.392   3.799   5.226
12636SOL    HW250863   7.313   3.845   5.254
12636SOL    HW350864   7.427   3.853   5.155
12636SOL    MW450865   7.386   3.812   5.220
12637SOL     OW50866   6.676   4.883   4.576
12637SOL    HW250867   6.768   4.864   4.594
12637SOL    HW350868   6.649   4.813   4.516
12637SOL    MW450869   6.684   4.871   4.570
12638SOL     OW50870   6.469   4.703   3.931
12638SOL    HW250871   6.455   4.615   3.896
12638SOL    HW350872   6.420   4.760   3.872
12638SOL    MW450873   6.461   4.698   3.919
12639SOL     OW50874   6.950   5.121   4.672
12639SOL    HW250875   6.923   5.205   4.637
12639SOL    HW350876   6.910   5.116   4.759
12639SOL    MW450877   6.943   5.130   4.678
12640SOL     OW50878   6.869   5.069   4.940
12640SOL    HW250879   6.880   5.036   5.029
12640SOL    HW350880   6.788   5.028   4.909
12640SOL    MW450881   6.859   5.061   4.946
12641SOL     OW50882   5.882   4.427   4.710
12641SOL    HW250883   5.832   4.426   4.791
12641SOL    HW350884   5.902   4.519   4.694
12641SOL    MW450885   5.878   4.439   4.718
12642SOL     OW50886   6.949   5.191   5.472
12642SOL    HW250887   6.949   5.285   5.488
12642SOL    HW350888   6.994   5.181   5.388
12642SOL    MW450889   6.955   5.201   5.463
12643SOL     OW50890   7.188   3.909   4.033
12643SOL    HW250891   7.181   3.913   4.128
12643SOL    HW350892   7.200   4.000   4.006
12643SOL    MW450893   7.189   3.922   4.041
12644SOL     OW50894   6.477   4.472   4.147
12644SOL    HW250895   6.457   4.458   4.054
12644SOL    HW350896   6.570   4.451   4.154
12644SOL    MW450897   6.487   4.467   4.136
12645SOL     OW50898   5.804   4.095   5.451
12645SOL    HW250899   5.761   4.154   5.388
12645SOL    HW350900   5.872   4.150   5.491
12645SOL    MW450901   5.808   4.110   5.448
12646SOL     OW50902   6.916   4.715   4.996
12646SOL    HW250903   6.979   4.712   5.069
12646SOL    HW350904   6.832   4.733   5.038
12646SOL    MW450905   6.912   4.717   5.011
12647SOL     OW50906   6.460   5.430   4.185
12647SOL    HW250907   6.518   5.501   4.212
12647SOL    HW350908   6.483   5.358   4.243
12647SOL    MW450909   6.471   5.430   4.196
12648SOL     OW50910   7.255   3.892   4.775
12648SOL    HW250911   7.300   3.810   4.794
12648SOL    HW350912   7.275   3.948   4.851
12648SOL    MW450913   7.265   3.888   4.787
12649SOL     OW50914   5.703   3.735   4.874
12649SOL    HW250915   5.694   3.736   4.779
12649SOL    HW350916   5.797   3.747   4.889
12649SOL    MW450917   5.715   3.738   4.865
12650SOL     OW50918   7.340   4.928   4.494
12650SOL    HW250919   7.319   4.874   4.417
12650SOL    HW350920   7.436   4.926   4.498
12650SOL    MW450921   7.349   4.921   4.483
12651SOL     OW50922   6.032   5.073   5.237
12651SOL    HW250923   5.953   5.023   5.260
12651SOL    HW350924   6.102   5.032   5.287
12651SOL    MW450925   6.030   5.061   5.247
12652SOL     OW50926   5.916   3.862   3.920
12652SOL    HW250927   5.845   3.917   3.888
12652SOL    HW350928   5.958   3.828   3.841
12652SOL    MW450929   5.912   3.864   3.906
12653SOL     OW50930   7.040   4.359   4.756
12653SOL    HW250931   6.963   4.405   4.722
12653SOL    HW350932   7.097   4.428   4.790
12653SOL    MW450933   7.037   4.374   4.756
12654SOL     OW50934   5.672   3.961   3.769
12654SOL    HW250935   5.639   4.040   3.813
12654SOL    HW350936   5.727   3.994   3.698
12654SOL    MW450937   5.675   3.975   3.766
12655SOL     OW50938   5.706   5.218   3.958
12655SOL    HW250939   5.723   5.302   4.000
12655SOL    HW350940   5.741   5.227   3.870
12655SOL    MW450941   5.711   5.231   3.952
12656SOL     OW50942   6.978   5.307   4.175
12656SOL    HW250943   7.041   5.297   4.104
12656SOL    HW350944   6.895   5.327   4.130
12656SOL    MW450945   6.975   5.308   4.160
12657SOL     OW50946   7.341   4.575   5.862
12657SOL    HW250947   7.382   4.517   5.927
12657SOL    HW350948   7.248   4.567   5.879
12657SOL    MW450949   7.335   4.567   5.872
12658SOL     OW50950   7.207   4.507   6.857
12658SOL    HW250951   7.162   4.574   6.908
12658SOL    HW350952   7.295   4.543   6.843
12658SOL    MW450953   7.213   4.520   6.861
12659SOL     OW50954   6.135   4.758   6.091
12659SOL    HW250955   6.225   4.733   6.075
12659SOL    HW350956   6.131   4.851   6.068
12659SOL    MW450957   6.147   4.767   6.086
12660SOL     OW50958   7.251   5.461   6.233
12660SOL    HW250959   7.263   5.407   6.311
12660SOL    HW350960   7.288   5.409   6.162
12660SOL    MW450961   7.257   5.446   6.234
12661SOL     OW50962   6.630   5.346   7.234
12661SOL    HW250963   6.671   5.382   7.155
12661SOL    HW350964   6.665   5.257   7.241
12661SOL    MW450965   6.641   5.339   7.225
12662SOL     OW50966   7.187   4.901   6.838
12662SOL    HW250967   7.108   4.866   6.796
12662SOL    HW350968   7.214   4.973   6.782
12662SOL    MW450969   7.180   4.906   6.825
12663SOL     OW50970   6.419   4.214   6.104
12663SOL    HW250971   6.394   4.302   6.132
12663SOL    HW350972   6.416   4.217   6.008
12663SOL    MW450973   6.415   4.226   6.096
12664SOL     OW50974   5.861   4.242   6.032
12664SOL    HW250975   5.893   4.330   6.014
12664SOL    HW350976   5.849   4.240   6.127
12664SOL    MW450977   5.864   4.254   6.044
12665SOL     OW50978   5.939   4.655   6.933
12665SOL    HW250979   6.002   4.602   6.884
12665SOL    HW350980   5.920   4.729   6.876
12665SOL    MW450981   5.945   4.657   6.920
12666SOL     OW50982   6.260   3.997   6.119
12666SOL    HW250983   6.318   4.073   6.121
12666SOL    HW350984   6.195   4.018   6.052
12666SOL    MW450985   6.259   4.009   6.110
12667SOL     OW50986   6.347   4.924   6.294
12667SOL    HW250987   6.427   4.927   6.346
12667SOL    HW350988   6.375   4.891   6.208
12667SOL    MW450989   6.361   4.920   6.289
12668SOL     OW50990   6.372   5.265   7.197
12668SOL    HW250991   6.456   5.291   7.236
12668SOL    HW350992   6.396   5.209   7.123
12668SOL    MW450993   6.386   5.261   7.192
12669SOL     OW50994   6.124   4.428   6.285
12669SOL    HW250995   6.109   4.348   6.336
12669SOL    HW350996   6.206   4.463   6.319
12669SOL    MW450997   6.132   4.420   6.297
12670SOL     OW50998   6.461   5.114   6.970
12670SOL    HW250999   6.425   5.180   6.910
12670SOL    HW351000   6.389   5.052   6.983
12670SOL    MW451001   6.447   5.114   6.964
12671SOL     OW51002   6.266   4.254   6.662
12671SOL    HW251003   6.172   4.250   6.680
12671SOL    HW351004   6.296   4.163   6.671
12671SOL    MW451005   6.257   4.242   6.665
12672SOL     OW51006   6.012   4.668   6.566
12672SOL    HW251007   5.967   4.675   6.482
12672SOL    HW351008   5.992   4.751   6.610
12672SOL    MW451009   6.004   4.680   6.560
12673SOL     OW51010   5.709   5.514   6.441
12673SOL    HW251011   5.798   5.506   6.476
12673SOL    HW351012   5.673   5.426   6.446
12673SOL    MW451013   5.716   5.501   6.446
12674SOL     OW51014   6.974   4.906   5.810
12674SOL    HW251015   6.892   4.942   5.776
12674SOL    HW351016   7.042   4.949   5.759
12674SOL    MW451017   6.972   4.916   5.798
12675SOL     OW51018   5.973   5.041   6.476
12675SOL    HW251019   5.949   5.094   6.552
12675SOL    HW351020   6.029   5.099   6.424
12675SOL    MW451021   5.977   5.056   6.479
12676SOL     OW51022   6.535   4.685   6.286
12676SOL    HW251023   6.449   4.672   6.326
12676SOL    HW351024   6.588   4.612   6.318
12676SOL    MW451025   6.531   4.674   6.295
12677SOL     OW51026   5.943   5.337   7.071
12677SOL    HW251027   5.851   5.313   7.056
12677SOL    HW351028   5.987   5.254   7.088
12677SOL    MW451029   5.937   5.322   7.070
12678SOL     OW51030   6.526   5.047   6.003
12678SOL    HW251031   6.503   5.109   6.071
12678SOL    HW351032   6.483   4.965   6.029
12678SOL    MW451033   6.518   5.043   6.014
12679SOL     OW51034   7.399   4.048   6.459
12679SOL    HW251035   7.336   4.028   6.528
12679SOL    HW351036   7.389   3.977   6.396
12679SOL    MW451037   7.389   4.035   6.460
12680SOL     OW51038   6.023   4.020   5.971
12680SOL    HW251039   5.997   3.982   5.887
12680SOL    HW351040   5.960   4.090   5.987
12680SOL    MW451041   6.012   4.023   5.962
12681SOL     OW51042   5.858   4.981   6.008
12681SOL    HW251043   5.806   5.049   5.964
12681SOL    HW351044   5.855   4.907   5.948
12681SOL    MW451045   5.850   4.980   5.995
12682SOL     OW51046   6.520   5.444   5.786
12682SOL    HW251047   6.475   5.460   5.869
12682SOL    HW351048   6.451   5.409   5.728
12682SOL    MW451049   6.506   5.441   5.788
12683SOL     OW51050   7.455   4.217   5.761
12683SOL    HW251051   7.364   4.219   5.789
12683SOL    HW351052   7.500   4.279   5.819
12683SOL    MW451053   7.448   4.225   5.771
12684SOL     OW51054   7.200   4.820   6.111
12684SOL    HW251055   7.110   4.820   6.146
12684SOL    HW351056   7.193   4.866   6.028
12684SOL    MW451057   7.187   4.826   6.105
12685SOL     OW51058   7.000   4.455   7.183
12685SOL    HW251059   7.069   4.393   7.160
12685SOL    HW351060   6.925   4.429   7.130
12685SOL    MW451061   7.000   4.442   7.174
12686SOL     OW51062   5.741   5.335   6.735
12686SOL    HW251063   5.724   5.281   6.812
12686SOL    HW351064   5.729   5.425   6.765
12686SOL    MW451065   5.738   5.339   6.749
12687SOL     OW51066   6.736   4.842   7.175
12687SOL    HW251067   6.721   4.935   7.160
12687SOL    HW351068   6.831   4.832   7.175
12687SOL    MW451069   6.745   4.852   7.172
12688SOL     OW51070   6.532   4.266   7.376
12688SOL    HW251071   6.622   4.267   7.343
12688SOL    HW351072   6.491   4.191   7.334
12688SOL    MW451073   6.538   4.256   7.367
12689SOL     OW51074   7.107   4.798   6.503
12689SOL    HW251075   7.110   4.732   6.434
12689SOL    HW351076   7.192   4.841   6.499
12689SOL    MW451077   7.119   4.794   6.494
12690SOL     OW51078   6.727   4.401   6.072
12690SOL    HW251079   6.753   4.425   5.983
12690SOL    HW351080   6.709   4.308   6.068
12690SOL    MW451081   6.729   4.393   6.059
12691SOL     OW51082   7.392   5.021   5.923
12691SOL    HW251083   7.348   5.062   5.998
12691SOL    HW351084   7.449   5.089   5.888
12691SOL    MW451085   7.394   5.035   5.928
12692SOL     OW51086   6.312   4.070   7.326
12692SOL    HW251087   6.322   3.996   7.266
12692SOL    HW351088   6.348   4.039   7.409
12692SOL    MW451089   6.318   4.056   7.328
12693SOL     OW51090   6.048   5.437   6.241
12693SOL    HW251091   6.080   5.525   6.219
12693SOL    HW351092   6.001   5.409   6.163
12693SOL    MW451093   6.047   5.445   6.228
12694SOL     OW51094   7.432   3.799   6.290
12694SOL    HW251095   7.486   3.750   6.352
12694SOL    HW351096   7.375   3.733   6.251
12694SOL    MW451097   7.432   3.783   6.292
12695SOL     OW51098   5.764   5.497   5.818
12695SOL    HW251099   5.793   5.587   5.810
12695SOL    HW351100   5.714   5.480   5.739
12695SOL    MW451101   5.762   5.505   5.807
12696SOL     OW51102   6.551   3.752   6.703
12696SOL    HW251103   6.510   3.830   6.665
12696SOL    HW351104   6.645   3.770   6.698
12696SOL    MW451105   6.557   3.764   6.698
12697SOL     OW51106   7.168   5.305   5.789
12697SOL    HW251107   7.216   5.374   5.835
12697SOL    HW351108   7.089   5.349   5.758
12697SOL    MW451109   7.163   5.319   5.792
12698SOL     OW51110   6.566   4.430   5.733
12698SOL    HW251111   6.568   4.377   5.654
12698SOL    HW351112   6.654   4.467   5.739
12698SOL    MW451113   6.578   4.429   5.722
12699SOL     OW51114   7.180   4.356   6.069
12699SOL    HW251115   7.219   4.356   6.156
12699SOL    HW351116   7.121   4.432   6.069
12699SOL    MW451117   7.177   4.367   6.080
12700SOL     OW51118   6.497   4.723   7.198
12700SOL    HW251119   6.474   4.703   7.288
12700SOL    HW351120   6.582   4.767   7.203
12700SOL    MW451121   6.504   4.726   7.210
12701SOL     OW51122   6.577   3.860   6.958
12701SOL    HW251123   6.583   3.822   6.871
12701SOL    HW351124   6.566   3.954   6.943
12701SOL    MW451125   6.578   3.868   6.946
12702SOL     OW51126   6.666   4.349   6.792
12702SOL    HW251127   6.741   4.378   6.739
12702SOL    HW351128   6.598   4.414   6.776
12702SOL    MW451129   6.667   4.361   6.782
12703SOL     OW51130   7.216   4.317   7.069
12703SOL    HW251131   7.197   4.226   7.048
12703SOL    HW351132   7.194   4.366   6.990
12703SOL    MW451133   7.211   4.310   7.056
12704SOL     OW51134   7.358   5.411   6.973
12704SOL    HW251135   7.286   5.373   7.024
12704SOL    HW351136   7.375   5.496   7.014
12704SOL    MW451137   7.352   5.416   6.985
12705SOL     OW51138   6.663   4.055   7.175
12705SOL    HW251139   6.629   4.094   7.094
12705SOL    HW351140   6.641   3.963   7.168
12705SOL    MW451141   6.656   4.048   7.165
12706SOL     OW51142   7.072   4.869   7.251
12706SOL    HW251143   7.154   4.910   7.281
12706SOL    HW351144   7.035   4.831   7.331
12706SOL    MW451145   7.078   4.870   7.266
12707SOL     OW51146   7.367   4.242   6.235
12707SOL    HW251147   7.456   4.211   6.252
12707SOL    HW351148   7.310   4.182   6.283
12707SOL    MW451149   7.370   4.230   6.244
12708SOL     OW51150   5.793   3.956   6.264
12708SOL    HW251151   5.784   3.896   6.190
12708SOL    HW351152   5.726   3.927   6.327
12708SOL    MW451153   5.783   3.943   6.262
12709SOL     OW51154   6.736   5.049   5.825
12709SOL    HW251155   6.686   5.051   5.907
12709SOL    HW351156   6.670   5.067   5.757
12709SOL    MW451157   6.722   5.051   5.827
12710SOL     OW51158   5.740   4.129   6.627
12710SOL    HW251159   5.712   4.220   6.636
12710SOL    HW351160   5.677   4.090   6.566
12710SOL    MW451161   5.727   4.135   6.621
12711SOL     OW51162   6.199   5.467   5.933
12711SOL    HW251163   6.120   5.425   5.966
12711SOL    HW351164   6.265   5.450   6.000
12711SOL    MW451165   6.198   5.459   5.946
12712SOL     OW51166   7.327   4.987   7.330
12712SOL    HW251167   7.377   4.913   7.362
12712SOL    HW351168   7.273   5.014   7.405
12712SOL    MW451169   7.327   4.981   7.343
12713SOL     OW51170   6.335   4.882   5.640
12713SOL    HW251171   6.257   4.828   5.627
12713SOL    HW351172   6.306   4.955   5.693
12713SOL    MW451173   6.321   4.884   5.645
12714SOL     OW51174   7.461   4.622   6.832
12714SOL    HW251175   7.477   4.660   6.745
12714SOL    HW351176   7.495   4.688   6.893
12714SOL    MW451177   7.468   4.635   6.828
12715SOL     OW51178   7.253   5.331   6.501
12715SOL    HW251179   7.282   5.398   6.562
12715SOL    HW351180   7.234   5.255   6.556
12715SOL    MW451181   7.255   5.331   6.516
12716SOL     OW51182   6.916   5.398   5.708
12716SOL    HW251183   6.842   5.361   5.758
12716SOL    HW351184   6.924   5.488   5.741
12716SOL    MW451185   6.907   5.405   5.720
12717SOL     OW51186   5.724   4.404   6.797
12717SOL    HW251187   5.786   4.434   6.863
12717SOL    HW351188   5.658   4.473   6.791
12717SOL    MW451189   5.723   4.417   6.804
12718SOL     OW51190   7.140   5.072   5.650
12718SOL    HW251191   7.087   5.121   5.586
12718SOL    HW351192   7.171   5.138   5.711
12718SOL    MW451193   7.138   5.086   5.648
12719SOL     OW51194   6.365   3.961   5.705
12719SOL    HW251195   6.313   3.881   5.693
12719SOL    HW351196   6.452   3.938   5.673
12719SOL    MW451197   6.368   3.947   5.699
12720SOL     OW51198   5.819   5.513   7.249
12720SOL    HW251199   5.793   5.581   7.187
12720SOL    HW351200   5.867   5.450   7.197
12720SOL    MW451201   5.821   5.513   7.235
12721SOL     OW51202   5.871   4.832   6.756
12721SOL    HW251203   5.924   4.907   6.781
12721SOL    HW351204   5.790   4.870   6.722
12721SOL    MW451205   5.867   4.847   6.756
12722SOL     OW51206   6.411   4.736   6.744
12722SOL    HW251207   6.439   4.645   6.756
12722SOL    HW351208   6.340   4.730   6.680
12722SOL    MW451209   6.404   4.724   6.739
12723SOL     OW51210   5.726   4.601   6.162
12723SOL    HW251211   5.817   4.616   6.189
12723SOL    HW351212   5.729   4.522   6.108
12723SOL    MW451213   5.738   4.593   6.160
12724SOL     OW51214   5.962   4.309   7.416
12724SOL    HW251215   5.909   4.389   7.423
12724SOL    HW351216   6.032   4.321   7.481
12724SOL    MW451217   5.964   4.322   7.424
12725SOL     OW51218   6.348   3.859   7.123
12725SOL    HW251219   6.325   3.767   7.125
12725SOL    HW351220   6.434   3.861   7.080
12725SOL    MW451221   6.355   3.849   7.119
12726SOL     OW51222   6.032   4.383   7.162
12726SOL    HW251223   6.112   4.433   7.148
12726SOL    HW351224   6.023   4.377   7.257
12726SOL    MW451225   6.041   4.389   7.172
12727SOL     OW51226   6.353   5.533   6.536
12727SOL    HW251227   6.442   5.548   6.566
12727SOL    HW351228   6.348   5.580   6.452
12727SOL    MW451229   6.363   5.541   6.529
12728SOL     OW51230   7.009   3.908   7.433
12728SOL    HW251231   7.065   3.835   7.459
12728SOL    HW351232   6.979   3.946   7.515
12728SOL    MW451233   7.013   3.903   7.446
12729SOL     OW51234   5.734   5.213   6.201
12729SOL    HW251235   5.706   5.252   6.283
12729SOL    HW351236   5.754   5.122   6.223
12729SOL    MW451237   5.732   5.205   6.214
12730SOL     OW51238   6.567   5.256   6.236
12730SOL    HW251239   6.650   5.210   6.220
12730SOL    HW351240   6.557   5.255   6.332
12730SOL    MW451241   6.577   5.249   6.246
12731SOL     OW51242   7.399   4.401   6.550
12731SOL    HW251243   7.488   4.431   6.532
12731SOL    HW351244   7.379   4.341   6.479
12731SOL    MW451245   7.408   4.398   6.539
12732SOL     OW51246   7.250   4.580   7.430
12732SOL    HW251247   7.305   4.504   7.411
12732SOL    HW351248   7.252   4.588   7.525
12732SOL    MW451249   7.258   4.571   7.438
12733SOL     OW51250   6.300   5.313   5.641
12733SOL    HW251251   6.240   5.382   5.611
12733SOL    HW351252   6.245   5.255   5.694
12733SOL    MW451253   6.284   5.315   5.643
12734SOL     OW51254   6.738   3.958   5.864
12734SOL    HW251255   6.671   3.934   5.801
12734SOL    HW351256   6.803   4.007   5.813
12734SOL    MW451257   6.738   3.960   5.849
12735SOL     OW51258   6.545   4.142   6.949
12735SOL    HW251259   6.464   4.183   6.977
12735SOL    HW351260   6.592   4.210   6.901
12735SOL    MW451261   6.540   4.157   6.947
12736SOL     OW51262   6.805   4.480   6.572
12736SOL    HW251263   6.818   4.574   6.582
12736SOL    HW351264   6.766   4.470   6.486
12736SOL    MW451265   6.801   4.491   6.562
12737SOL     OW51266   6.257   4.675   6.376
12737SOL    HW251267   6.168   4.666   6.409
12737SOL    HW351268   6.261   4.765   6.344
12737SOL    MW451269   6.246   4.686   6.376
12738SOL     OW51270   7.056   4.258   6.371
12738SOL    HW251271   7.001   4.179   6.370
12738SOL    HW351272   7.038   4.299   6.455
12738SOL    MW451273   7.046   4.253   6.380
12739SOL     OW51274   6.027   3.945   7.188
12739SOL    HW251275   5.948   3.963   7.240
12739SOL    HW351276   6.022   4.007   7.115
12739SOL    MW451277   6.017   3.955   7.185
12740SOL     OW51278   6.675   4.462   6.328
12740SOL    HW251279   6.612   4.394   6.352
12740SOL    HW351280   6.695   4.443   6.236
12740SOL    MW451281   6.669   4.449   6.320
12741SOL     OW51282   5.931   5.357   6.030
12741SOL    HW251283   5.892   5.404   5.956
12741SOL    HW351284   5.865   5.292   6.055
12741SOL    MW451285   5.918   5.355   6.024
12742SOL     OW51286   6.423   4.766   6.054
12742SOL    HW251287   6.425   4.740   5.961
12742SOL    HW351288   6.481   4.703   6.097
12742SOL    MW451289   6.431   4.755   6.048
12743SOL     OW51290   6.976   5.326   6.826
12743SOL    HW251291   6.901   5.372   6.864
12743SOL    HW351292   6.958   5.233   6.843
12743SOL    MW451293   6.965   5.320   6.834
12744SOL     OW51294   6.980   5.534   6.256
12744SOL    HW251295   6.923   5.487   6.195
12744SOL    HW351296   7.066   5.495   6.243
12744SOL    MW451297   6.983   5.525   6.246
12745SOL     OW51298   6.933   4.010   6.387
12745SOL    HW251299   6.961   3.942   6.448
12745SOL    HW351300   6.847   3.981   6.357
12745SOL    MW451301   6.926   3.997   6.391
12746SOL     OW51302   5.738   4.944   6.321
12746SOL    HW251303   5.802   4.976   6.384
12746SOL    HW351304   5.787   4.880   6.269
12746SOL    MW451305   5.753   4.940   6.322
12747SOL     OW51306   6.238   5.020   7.303
12747SOL    HW251307   6.286   5.103   7.290
12747SOL    HW351308   6.295   4.968   7.359
12747SOL    MW451309   6.252   5.024   7.309
12748SOL     OW51310   5.814   5.262   7.443
12748SOL    HW251311   5.870   5.186   7.458
12748SOL    HW351312   5.763   5.240   7.365
12748SOL    MW451313   5.814   5.249   7.434
12749SOL     OW51314   6.913   4.114   5.722
12749SOL    HW251315   6.886   4.180   5.658
12749SOL    HW351316   6.983   4.157   5.772
12749SOL    MW451317   6.918   4.127   5.719
12750SOL     OW51318   6.581   3.819   5.659
12750SOL    HW251319   6.637   3.811   5.581
12750SOL    HW351320   6.558   3.729   5.681
12750SOL    MW451321   6.586   3.806   5.652
12751SOL     OW51322   7.086   4.670   5.864
12751SOL    HW251323   7.053   4.759   5.854
12751SOL    HW351324   7.051   4.641   5.949
12751SOL    MW451325   7.076   4.679   5.875
12752SOL     OW51326   6.699   5.099   7.052
12752SOL    HW251327   6.610   5.105   7.020
12752SOL    HW351328   6.743   5.178   7.020
12752SOL    MW451329   6.694   5.109   7.044
12753SOL     OW51330   5.992   3.767   7.394
12753SOL    HW251331   5.920   3.732   7.342
12753SOL    HW351332   6.050   3.808   7.329
12753SOL    MW451333   5.990   3.768   7.379
12754SOL     OW51334   6.016   5.257   6.693
12754SOL    HW251335   6.061   5.319   6.750
12754SOL    HW351336   5.923   5.276   6.706
12754SOL    MW451337   6.009   5.267   6.700
12755SOL     OW51338   7.456   4.786   7.047
12755SOL    HW251339   7.371   4.799   7.006
12755SOL    HW351340   7.436   4.750   7.134
12755SOL    MW451341   7.443   4.782   7.052
12756SOL     OW51342   6.438   5.325   6.801
12756SOL    HW251343   6.462   5.314   6.710
12756SOL    HW351344   6.361   5.382   6.799
12756SOL    MW451345   6.430   5.330   6.790
12757SOL     OW51346   6.080   4.708   5.656
12757SOL    HW251347   6.003   4.721   5.712
12757SOL    HW351348   6.044   4.672   5.575
12757SOL    MW451349   6.066   4.704   5.653
12758SOL     OW51350   6.733   4.681   5.899
12758SOL    HW251351   6.643   4.702   5.874
12758SOL    HW351352   6.760   4.754   5.955
12758SOL    MW451353   6.725   4.693   5.902
12759SOL     OW51354   6.233   5.030   6.591
12759SOL    HW251355   6.226   5.009   6.685
12759SOL    HW351356   6.151   4.998   6.554
12759SOL    MW451357   6.221   5.024   6.598
12760SOL     OW51358   7.097   4.040   6.993
12760SOL    HW251359   7.044   4.042   7.073
12760SOL    HW351360   7.082   3.953   6.956
12760SOL    MW451361   7.089   4.030   6.998
12761SOL     OW51362   7.433   3.964   6.866
12761SOL    HW251363   7.414   4.031   6.801
12761SOL    HW351364   7.490   3.902   6.821
12761SOL    MW451365   7.437   3.965   6.852
12762SOL     OW51366   5.679   5.122   7.254
12762SOL    HW251367   5.723   5.055   7.200
12762SOL    HW351368   5.594   5.084   7.274
12762SOL    MW451369   5.674   5.108   7.250
12763SOL     OW51370   6.362   3.797   6.306
12763SOL    HW251371   6.291   3.858   6.288
12763SOL    HW351372   6.413   3.794   6.225
12763SOL    MW451373   6.358   3.803   6.293
12764SOL     OW51374   6.120   5.037   6.055
12764SOL    HW251375   6.113   5.069   6.145
12764SOL    HW351376   6.030   5.021   6.027
12764SOL    MW451377   6.108   5.039   6.062
12765SOL     OW51378   6.715   5.430   6.964
12765SOL    HW251379   6.635   5.415   6.914
12765SOL    HW351380   6.722   5.525   6.971
12765SOL    MW451381   6.706   5.441   6.958
12766SOL     OW51382   6.829   5.395   6.454
12766SOL    HW251383   6.876   5.468   6.413
12766SOL    HW351384   6.750   5.434   6.490
12766SOL    MW451385   6.824   5.410   6.453
12767SOL     OW51386   7.237   5.490   6.729
12767SOL    HW251387   7.280   5.460   6.809
12767SOL    HW351388   7.156   5.438   6.726
12767SOL    MW451389   7.232   5.479   6.739
12768SOL     OW51390   6.322   4.454   7.436
12768SOL    HW251391   6.392   4.396   7.408
12768SOL    HW351392   6.265   4.399   7.491
12768SOL    MW451393   6.324   4.441   7.440
12769SOL     OW51394   7.109   4.666   7.069
12769SOL    HW251395   7.114   4.719   7.149
12769SOL    HW351396   7.071   4.583   7.097
12769SOL    MW451397   7.105   4.661   7.084
12770SOL     OW51398   6.749   3.801   7.315
12770SOL    HW251399   6.744   3.708   7.296
12770SOL    HW351400   6.832   3.812   7.361
12770SOL    MW451401   6.757   3.790   7.319
12771SOL     OW51402   6.123   4.321   5.769
12771SOL    HW251403   6.089   4.377   5.839
12771SOL    HW351404   6.194   4.271   5.809
12771SOL    MW451405   6.129   4.322   5.783
12772SOL     OW51406   7.219   5.072   6.591
12772SOL    HW251407   7.254   5.054   6.504
12772SOL    HW351408   7.124   5.073   6.578
12772SOL    MW451409   7.211   5.069   6.578
12773SOL     OW51410   6.648   4.720   6.960
12773SOL    HW251411   6.691   4.755   7.038
12773SOL    HW351412   6.631   4.797   6.906
12773SOL    MW451413   6.651   4.735   6.963
12774SOL     OW51414   7.179   4.207   5.833
12774SOL    HW251415   7.171   4.278   5.770
12774SOL    HW351416   7.197   4.251   5.916
12774SOL    MW451417   7.180   4.221   5.835
12775SOL     OW51418   6.039   3.862   6.262
12775SOL    HW251419   6.089   3.905   6.193
12775SOL    HW351420   5.954   3.906   6.262
12775SOL    MW451421   6.036   3.875   6.253
12776SOL     OW51422   5.798   4.924   7.122
12776SOL    HW251423   5.826   4.877   7.200
12776SOL    HW351424   5.719   4.879   7.093
12776SOL    MW451425   5.791   4.913   7.128
12777SOL     OW51426   6.306   4.251   7.089
12777SOL    HW251427   6.278   4.339   7.113
12777SOL    HW351428   6.275   4.195   7.160
12777SOL    MW451429   6.298   4.254   7.101
12778SOL     OW51430   6.848   4.469   5.808
12778SOL    HW251431   6.895   4.487   5.727
12778SOL    HW351432   6.814   4.553   5.836
12778SOL    MW451433   6.850   4.483   5.801
12779SOL     OW51434   5.961   4.647   6.302
12779SOL    HW251435   6.019   4.703   6.250
12779SOL    HW351436   6.005   4.562   6.304
12779SOL    MW451437   5.974   4.644   6.295
12780SOL     OW51438   7.101   3.999   6.139
12780SOL    HW251439   7.023   3.949   6.164
12780SOL    HW351440   7.072   4.090   6.139
12780SOL    MW451441   7.087   4.003   6.142
12781SOL     OW51442   6.687   3.961   6.298
12781SOL    HW251443   6.707   4.036   6.242
12781SOL    HW351444   6.667   4.000   6.383
12781SOL    MW451445   6.688   3.977   6.302
12782SOL     OW51446   6.583   5.211   5.630
12782SOL    HW251447   6.610   5.289   5.582
12782SOL    HW351448   6.490   5.226   5.649
12782SOL    MW451449   6.574   5.224   5.626
12783SOL     OW51450   7.447   4.734   7.317
12783SOL    HW251451   7.360   4.714   7.353
12783SOL    HW351452   7.501   4.660   7.342
12783SOL    MW451453   7.442   4.723   7.325
12784SOL     OW51454   5.668   5.247   6.474
12784SOL    HW251455   5.700   5.251   6.565
12784SOL    HW351456   5.573   5.255   6.482
12784SOL    MW451457   5.660   5.250   6.487
12785SOL     OW51458   5.623   4.373   6.021
12785SOL    HW251459   5.563   4.345   6.091
12785SOL    HW351460   5.697   4.313   6.027
12785SOL    MW451461   5.625   4.362   6.030
12786SOL     OW51462   7.191   5.585   7.455
12786SOL    HW251463   7.236   5.509   7.420
12786SOL    HW351464   7.229   5.598   7.542
12786SOL    MW451465   7.201   5.578   7.461
12787SOL     OW51466   6.791   5.104   6.181
12787SOL    HW251467   6.814   5.055   6.259
12787SOL    HW351468   6.872   5.146   6.153
12787SOL    MW451469   6.804   5.104   6.188
12788SOL     OW51470   6.049   4.112   6.910
12788SOL    HW251471   6.082   4.193   6.950
12788SOL    HW351472   6.022   4.138   6.822
12788SOL    MW451473   6.048   4.126   6.904
12789SOL     OW51474   6.003   4.079   6.646
12789SOL    HW251475   6.033   3.993   6.617
12789SOL    HW351476   5.908   4.072   6.649
12789SOL    MW451477   5.995   4.068   6.644
12790SOL     OW51478   6.832   4.288   7.337
12790SOL    HW251479   6.884   4.223   7.290
12790SOL    HW351480   6.790   4.339   7.267
12790SOL    MW451481   6.833   4.285   7.320
12791SOL     OW51482   6.931   4.083   7.198
12791SOL    HW251483   6.838   4.067   7.185
12791SOL    HW351484   6.957   4.021   7.266
12791SOL    MW451485   6.921   4.073   7.205
12792SOL     OW51486   6.146   3.857   6.537
12792SOL    HW251487   6.156   3.766   6.563
12792SOL    HW351488   6.102   3.853   6.452
12792SOL    MW451489   6.142   3.845   6.529
12793SOL     OW51490   6.240   5.472   7.083
12793SOL    HW251491   6.157   5.457   7.128
12793SOL    HW351492   6.299   5.405   7.118
12793SOL    MW451493   6.238   5.462   7.093
12794SOL     OW51494   7.297   4.179   6.708
12794SOL    HW251495   7.230   4.212   6.768
12794SOL    HW351496   7.340   4.257   6.674
12794SOL    MW451497   7.295   4.194   6.712
12795SOL     OW51498   7.475   4.899   6.678
12795SOL    HW251499   7.468   4.839   6.603
12795SOL    HW351500   7.401   4.959   6.667
12795SOL    MW451501   7.465   4.899   6.667
12796SOL     OW51502   6.857   4.761   6.596
12796SOL    HW251503   6.871   4.733   6.687
12796SOL    HW351504   6.943   4.792   6.568
12796SOL    MW451505   6.870   4.762   6.605
12797SOL     OW51506   6.940   4.256   6.875
12797SOL    HW251507   6.961   4.257   6.782
12797SOL    HW351508   6.985   4.178   6.908
12797SOL    MW451509   6.947   4.246   6.867
12798SOL     OW51510   7.433   4.387   7.417
12798SOL    HW251511   7.470   4.332   7.486
12798SOL    HW351512   7.458   4.344   7.335
12798SOL    MW451513   7.440   4.375   7.416
12799SOL     OW51514   6.980   4.685   7.468
12799SOL    HW251515   7.046   4.633   7.422
12799SOL    HW351516   7.000   4.672   7.561
12799SOL    MW451517   6.991   4.676   7.475
12800SOL     OW51518   6.931   3.771   5.817
12800SOL    HW251519   7.005   3.815   5.860
12800SOL    HW351520   6.855   3.825   5.839
12800SOL    MW451521   6.931   3.783   5.825
12801SOL     OW51522   6.991   4.546   6.095
12801SOL    HW251523   6.906   4.516   6.065
12801SOL    HW351524   6.983   4.553   6.190
12801SOL    MW451525   6.979   4.544   6.104
12802SOL     OW51526   6.067   5.009   6.826
12802SOL    HW251527   6.079   5.036   6.917
12802SOL    HW351528   6.048   5.090   6.779
12802SOL    MW451529   6.066   5.024   6.831
12803SOL     OW51530   6.351   3.989   6.649
12803SOL    HW251531   6.324   3.991   6.740
12803SOL    HW351532   6.281   3.941   6.604
12803SOL    MW451533   6.339   3.985   6.656
12804SOL     OW51534   6.205   5.481   6.811
12804SOL    HW251535   6.257   5.558   6.788
12804SOL    HW351536   6.214   5.473   6.906
12804SOL    MW451537   6.214   5.488   6.822
12805SOL     OW51538   7.107   5.066   7.043
12805SOL    HW251539   7.092   4.995   7.106
12805SOL    HW351540   7.153   5.024   6.971
12805SOL    MW451541   7.113   5.050   7.043
12806SOL     OW51542   6.181   4.797   7.160
12806SOL    HW251543   6.218   4.802   7.072
12806SOL    HW351544   6.220   4.870   7.207
12806SOL    MW451545   6.191   4.807   7.155
12807SOL     OW51546   6.361   4.840   6.972
12807SOL    HW251547   6.420   4.786   7.025
12807SOL    HW351548   6.376   4.812   6.882
12807SOL    MW451549   6.371   4.829   6.968
12808SOL     OW51550   6.364   4.212   5.821
12808SOL    HW251551   6.437   4.261   5.784
12808SOL    HW351552   6.380   4.121   5.795
12808SOL    MW451553   6.376   4.207   5.814
12809SOL     OW51554   7.172   5.329   7.144
12809SOL    HW251555   7.214   5.314   7.229
12809SOL    HW351556   7.163   5.242   7.106
12809SOL    MW451557   7.176   5.317   7.151
12810SOL     OW51558   6.832   3.808   6.735
12810SOL    HW251559   6.887   3.817   6.657
12810SOL    HW351560   6.887   3.842   6.806
12810SOL    MW451561   6.846   3.813   6.734
12811SOL     OW51562   5.839   4.721   5.919
12811SOL    HW251563   5.776   4.737   5.848
12811SOL    HW351564   5.786   4.684   5.990
12811SOL    MW451565   5.824   4.718   5.919
12812SOL     OW51566   6.195   5.075   5.778
12812SOL    HW251567   6.210   5.051   5.870
12812SOL    HW351568   6.103   5.053   5.762
12812SOL    MW451569   6.185   5.068   5.788
12813SOL     OW51570   6.734   5.306   5.930
12813SOL    HW251571   6.742   5.224   5.881
12813SOL    HW351572   6.653   5.345   5.897
12813SOL    MW451573   6.724   5.301   5.920
12814SOL     OW51574   5.993   5.464   6.499
12814SOL    HW251575   5.997   5.375   6.534
12814SOL    HW351576   6.019   5.455   6.408
12814SOL    MW451577   5.996   5.452   6.491
12815SOL     OW51578   6.610   4.942   6.742
12815SOL    HW251579   6.542   4.876   6.758
12815SOL    HW351580   6.628   4.936   6.649
12815SOL    MW451581   6.603   4.933   6.733
12816SOL     OW51582   5.699   5.217   6.993
12816SOL    HW251583   5.689   5.175   7.079
12816SOL    HW351584   5.620   5.270   6.983
12816SOL    MW451585   5.688   5.218   7.004
12817SOL     OW51586   6.603   4.081   6.563
12817SOL    HW251587   6.533   4.033   6.608
12817SOL    HW351588   6.635   4.144   6.627
12817SOL    MW451589   6.598   4.083   6.577
12818SOL     OW51590   6.254   4.517   7.183
12818SOL    HW251591   6.247   4.612   7.171
12818SOL    HW351592   6.263   4.506   7.278
12818SOL    MW451593   6.255   4.529   7.193
12819SOL     OW51594   5.975   5.032   7.441
12819SOL    HW251595   6.047   5.034   7.378
12819SOL    HW351596   5.945   4.941   7.440
12819SOL    MW451597   5.980   5.021   7.433
12820SOL     OW51598   7.059   3.795   6.908
12820SOL    HW251599   7.130   3.741   6.872
12820SOL    HW351600   7.058   3.774   7.001
12820SOL    MW451601   7.068   3.786   6.916
12821SOL     OW51602   7.259   5.325   7.392
12821SOL    HW251603   7.232   5.322   7.483
12821SOL    HW351604   7.355   5.329   7.395
12821SOL    MW451605   7.269   5.325   7.404
12822SOL     OW51606   6.070   4.187   6.376
12822SOL    HW251607   6.141   4.135   6.339
12822SOL    HW351608   6.056   4.152   6.463
12822SOL    MW451609   6.078   4.176   6.383
12823SOL     OW51610   5.625   5.522   7.448
12823SOL    HW251611   5.675   5.500   7.370
12823SOL    HW351612   5.633   5.617   7.456
12823SOL    MW451613   5.633   5.531   7.439
12824SOL     OW51614   6.386   5.280   6.452
12824SOL    HW251615   6.314   5.217   6.465
12824SOL    HW351616   6.347   5.365   6.470
12824SOL    MW451617   6.370   5.283   6.455
12825SOL     OW51618   6.706   4.128   6.100
12825SOL    HW251619   6.728   4.065   6.032
12825SOL    HW351620   6.611   4.120   6.111
12825SOL    MW451621   6.696   4.119   6.092
12826SOL     OW51622   5.791   3.818   6.032
12826SOL    HW251623   5.862   3.839   5.971
12826SOL    HW351624   5.745   3.746   5.990
12826SOL    MW451625   5.795   3.812   6.018
12827SOL     OW51626   5.622   4.285   7.175
12827SOL    HW251627   5.686   4.351   7.150
12827SOL    HW351628   5.541   4.312   7.132
12827SOL    MW451629   5.620   4.297   7.167
12828SOL     OW51630   7.360   5.192   6.132
12828SOL    HW251631   7.330   5.125   6.193
12828SOL    HW351632   7.454   5.198   6.146
12828SOL    MW451633   7.368   5.184   6.142
12829SOL     OW51634   6.916   4.869   6.062
12829SOL    HW251635   6.888   4.955   6.095
12829SOL    HW351636   6.944   4.885   5.972
12829SOL    MW451637   6.916   4.883   6.054
12830SOL     OW51638   6.578   3.789   6.115
12830SOL    HW251639   6.615   3.848   6.180
12830SOL    HW351640   6.555   3.845   6.041
12830SOL    MW451641   6.579   3.804   6.114
12831SOL     OW51642   7.431   4.671   6.537
12831SOL    HW251643   7.422   4.703   6.448
12831SOL    HW351644   7.384   4.587   6.537
12831SOL    MW451645   7.424   4.664   6.527
12832SOL     OW51646   5.807   4.511   7.116
12832SOL    HW251647   5.828   4.580   7.054
12832SOL    HW351648   5.887   4.458   7.121
12832SOL    MW451649   5.820   4.512   7.110
12833SOL     OW51650   7.343   4.602   6.238
12833SOL    HW251651   7.437   4.591   6.226
12833SOL    HW351652   7.319   4.674   6.179
12833SOL    MW451653   7.353   4.610   6.229
12834SOL     OW51654   5.792   4.526   7.383
12834SOL    HW251655   5.718   4.470   7.409
12834SOL    HW351656   5.787   4.529   7.288
12834SOL    MW451657   5.781   4.519   7.373
12835SOL     OW51658   5.958   3.813   6.833
12835SOL    HW251659   6.001   3.897   6.853
12835SOL    HW351660   6.031   3.751   6.826
12835SOL    MW451661   5.973   3.816   6.834
12836SOL     OW51662   5.999   4.480   6.011
12836SOL    HW251663   5.999   4.575   5.996
12836SOL    HW351664   6.076   4.464   6.065
12836SOL    MW451665   6.009   4.491   6.016
12837SOL     OW51666   6.775   4.339   7.075
12837SOL    HW251667   6.811   4.312   6.991
12837SOL    HW351668   6.688   4.373   7.054
12837SOL    MW451669   6.769   4.340   7.062
12838SOL     OW51670   5.758   4.211   6.300
12838SOL    HW251671   5.820   4.218   6.373
12838SOL    HW351672   5.758   4.118   6.277
12838SOL    MW451673   5.766   4.200   6.307
12839SOL     OW51674   7.305   5.551   5.832
12839SOL    HW251675   7.372   5.584   5.772
12839SOL    HW351676   7.262   5.630   5.866
12839SOL    MW451677   7.307   5.566   5.828
12840SOL     OW51678   6.440   4.472   6.784
12840SOL    HW251679   6.398   4.390   6.760
12840SOL    HW351680   6.441   4.471   6.880
12840SOL    MW451681   6.433   4.461   6.793
12841SOL     OW51682   7.111   5.605   7.183
12841SOL    HW251683   7.114   5.511   7.166
12841SOL    HW351684   7.134   5.613   7.275
12841SOL    MW451685   7.114   5.593   7.193
12842SOL     OW51686   6.244   3.942   6.889
12842SOL    HW251687   6.175   4.005   6.910
12842SOL    HW351688   6.271   3.906   6.974
12842SOL    MW451689   6.238   3.945   6.902
12843SOL     OW51690   5.627   4.783   5.758
12843SOL    HW251691   5.596   4.848   5.821
12843SOL    HW351692   5.576   4.705   5.777
12843SOL    MW451693   5.617   4.780   5.768
12844SOL     OW51694   7.039   3.795   6.506
12844SOL    HW251695   7.127   3.804   6.543
12844SOL    HW351696   7.049   3.736   6.432
12844SOL    MW451697   7.053   3.789   6.500
12845SOL     OW51698   7.071   4.534   6.350
12845SOL    HW251699   7.151   4.549   6.299
12845SOL    HW351700   7.064   4.439   6.356
12845SOL    MW451701   7.080   4.523   6.345
12846SOL     OW51702   6.211   5.583   5.700
12846SOL    HW251703   6.116   5.583   5.692
12846SOL    HW351704   6.227   5.529   5.778
12846SOL    MW451705   6.201   5.577   5.709
12847SOL     OW51706   6.521   4.460   7.047
12847SOL    HW251707   6.590   4.527   7.044
12847SOL    HW351708   6.454   4.498   7.103
12847SOL    MW451709   6.522   4.473   7.054
12848SOL     OW51710   5.939   4.760   7.295
12848SOL    HW251711   5.893   4.676   7.297
12848SOL    HW351712   5.996   4.754   7.219
12848SOL    MW451713   5.941   4.748   7.287
12849SOL     OW51714   7.056   4.403   5.615
12849SOL    HW251715   6.984   4.379   5.557
12849SOL    HW351716   7.122   4.440   5.557
12849SOL    MW451717   7.055   4.405   5.600
12850SOL     OW51718   6.190   5.135   6.296
12850SOL    HW251719   6.255   5.068   6.317
12850SOL    HW351720   6.242   5.212   6.273
12850SOL    MW451721   6.205   5.137   6.295
12851SOL     OW51722   6.451   4.300   6.426
12851SOL    HW251723   6.391   4.318   6.498
12851SOL    HW351724   6.485   4.212   6.445
12851SOL    MW451725   6.447   4.290   6.439
12852SOL     OW51726   7.392   3.799   7.095
12852SOL    HW251727   7.313   3.845   7.123
12852SOL    HW351728   7.427   3.853   7.024
12852SOL    MW451729   7.386   3.812   7.089
12853SOL     OW51730   6.676   4.883   6.445
12853SOL    HW251731   6.768   4.864   6.463
12853SOL    HW351732   6.649   4.813   6.385
12853SOL    MW451733   6.684   4.871   6.439
12854SOL     OW51734   6.469   4.703   5.800
12854SOL    HW251735   6.455   4.615   5.765
12854SOL    HW351736   6.420   4.760   5.741
12854SOL    MW451737   6.461   4.698   5.788
12855SOL     OW51738   6.950   5.121   6.541
12855SOL    HW251739   6.923   5.205   6.506
12855SOL    HW351740   6.910   5.116   6.628
12855SOL    MW451741   6.943   5.130   6.547
12856SOL     OW51742   6.869   5.069   6.809
12856SOL    HW251743   6.880   5.036   6.898
12856SOL    HW351744   6.788   5.028   6.778
12856SOL    MW451745   6.859   5.061   6.815
12857SOL     OW51746   5.882   4.427   6.579
12857SOL    HW251747   5.832   4.426   6.660
12857SOL    HW351748   5.902   4.519   6.563
12857SOL    MW451749   5.878   4.439   6.587
12858SOL     OW51750   6.949   5.191   7.341
12858SOL    HW251751   6.949   5.285   7.357
12858SOL    HW351752   6.994   5.181   7.257
12858SOL    MW451753   6.955   5.201   7.332
12859SOL     OW51754   7.188   3.909   5.902
12859SOL    HW251755   7.181   3.913   5.997
12859SOL    HW351756   7.200   4.000   5.875
12859SOL    MW451757   7.189   3.922   5.910
12860SOL     OW51758   6.477   4.472   6.016
12860SOL    HW251759   6.457   4.458   5.923
12860SOL    HW351760   6.570   4.451   6.023
12860SOL    MW451761   6.487   4.467   6.005
12861SOL     OW51762   5.804   4.095   7.320
12861SOL    HW251763   5.761   4.154   7.257
12861SOL    HW351764   5.872   4.150   7.360
12861SOL    MW451765   5.808   4.110   7.317
12862SOL     OW51766   6.916   4.715   6.865
12862SOL    HW251767   6.979   4.712   6.938
12862SOL    HW351768   6.832   4.733   6.907
12862SOL    MW451769   6.912   4.717   6.880
12863SOL     OW51770   6.460   5.430   6.054
12863SOL    HW251771   6.518   5.501   6.081
12863SOL    HW351772   6.483   5.358   6.112
12863SOL    MW451773   6.471   5.430   6.065
12864SOL     OW51774   7.255   3.892   6.644
12864SOL    HW251775   7.300   3.810   6.663
12864SOL    HW351776   7.275   3.948   6.720
12864SOL    MW451777   7.265   3.888   6.656
12865SOL     OW51778   5.703   3.735   6.743
12865SOL    HW251779   5.694   3.736   6.648
12865SOL    HW351780   5.797   3.747   6.758
12865SOL    MW451781   5.715   3.738   6.734
12866SOL     OW51782   7.340   4.928   6.363
12866SOL    HW251783   7.319   4.874   6.286
12866SOL    HW351784   7.436   4.926   6.367
12866SOL    MW451785   7.349   4.921   6.352
12867SOL     OW51786   6.032   5.073   7.106
12867SOL    HW251787   5.953   5.023   7.129
12867SOL    HW351788   6.102   5.032   7.156
12867SOL    MW451789   6.030   5.061   7.116
12868SOL     OW51790   5.916   3.862   5.789
12868SOL    HW251791   5.845   3.917   5.757
12868SOL    HW351792   5.958   3.828   5.710
12868SOL    MW451793   5.912   3.864   5.775
12869SOL     OW51794   7.040   4.359   6.625
12869SOL    HW251795   6.963   4.405   6.591
12869SOL    HW351796   7.097   4.428   6.659
12869SOL    MW451797   7.037   4.374   6.625
12870SOL     OW51798   5.672   3.961   5.638
12870SOL    HW251799   5.639   4.040   5.682
12870SOL    HW351800   5.727   3.994   5.567
12870SOL    MW451801   5.675   3.975   5.635
12871SOL     OW51802   5.706   5.218   5.827
12871SOL    HW251803   5.723   5.302   5.869
12871SOL    HW351804   5.741   5.227   5.739
12871SOL    MW451805   5.711   5.231   5.821
12872SOL     OW51806   6.978   5.307   6.044
12872SOL    HW251807   7.041   5.297   5.973
12872SOL    HW351808   6.895   5.327   5.999
12872SOL    MW451809   6.975   5.308   6.029
12873SOL     OW51810   7.341   6.444   0.257
12873SOL    HW251811   7.382   6.386   0.322
12873SOL    HW351812   7.248   6.436   0.274
12873SOL    MW451813   7.335   6.436   0.267
12874SOL     OW51814   7.207   6.376   1.252
12874SOL    HW251815   7.162   6.443   1.303
12874SOL    HW351816   7.295   6.412   1.238
12874SOL    MW451817   7.213   6.389   1.256
12875SOL     OW51818   6.135   6.627   0.486
12875SOL    HW251819   6.225   6.602   0.470
12875SOL    HW351820   6.131   6.720   0.463
12875SOL    MW451821   6.147   6.636   0.481
12876SOL     OW51822   7.251   7.330   0.628
12876SOL    HW251823   7.263   7.276   0.706
12876SOL    HW351824   7.288   7.278   0.557
12876SOL    MW451825   7.257   7.315   0.629
12877SOL     OW51826   6.630   7.215   1.629
12877SOL    HW251827   6.671   7.251   1.550
12877SOL    HW351828   6.665   7.126   1.636
12877SOL    MW451829   6.641   7.208   1.620
12878SOL     OW51830   7.187   6.770   1.233
12878SOL    HW251831   7.108   6.735   1.191
12878SOL    HW351832   7.214   6.842   1.177
12878SOL    MW451833   7.180   6.775   1.220
12879SOL     OW51834   6.419   6.083   0.499
12879SOL    HW251835   6.394   6.171   0.527
12879SOL    HW351836   6.416   6.086   0.403
12879SOL    MW451837   6.415   6.095   0.491
12880SOL     OW51838   5.861   6.111   0.427
12880SOL    HW251839   5.893   6.199   0.409
12880SOL    HW351840   5.849   6.109   0.522
12880SOL    MW451841   5.864   6.123   0.439
12881SOL     OW51842   5.939   6.524   1.328
12881SOL    HW251843   6.002   6.471   1.279
12881SOL    HW351844   5.920   6.598   1.271
12881SOL    MW451845   5.945   6.526   1.315
12882SOL     OW51846   6.260   5.866   0.514
12882SOL    HW251847   6.318   5.942   0.516
12882SOL    HW351848   6.195   5.887   0.447
12882SOL    MW451849   6.259   5.878   0.505
12883SOL     OW51850   6.347   6.793   0.689
12883SOL    HW251851   6.427   6.796   0.741
12883SOL    HW351852   6.375   6.760   0.603
12883SOL    MW451853   6.361   6.789   0.684
12884SOL     OW51854   6.372   7.134   1.592
12884SOL    HW251855   6.456   7.160   1.631
12884SOL    HW351856   6.396   7.078   1.518
12884SOL    MW451857   6.386   7.130   1.587
12885SOL     OW51858   6.124   6.297   0.680
12885SOL    HW251859   6.109   6.217   0.731
12885SOL    HW351860   6.206   6.332   0.714
12885SOL    MW451861   6.132   6.289   0.692
12886SOL     OW51862   6.461   6.983   1.365
12886SOL    HW251863   6.425   7.049   1.305
12886SOL    HW351864   6.389   6.921   1.378
12886SOL    MW451865   6.447   6.983   1.359
12887SOL     OW51866   6.266   6.123   1.057
12887SOL    HW251867   6.172   6.119   1.075
12887SOL    HW351868   6.296   6.032   1.066
12887SOL    MW451869   6.257   6.111   1.060
12888SOL     OW51870   6.012   6.537   0.961
12888SOL    HW251871   5.967   6.544   0.877
12888SOL    HW351872   5.992   6.620   1.005
12888SOL    MW451873   6.004   6.549   0.955
12889SOL     OW51874   5.709   7.383   0.836
12889SOL    HW251875   5.798   7.375   0.871
12889SOL    HW351876   5.673   7.295   0.841
12889SOL    MW451877   5.716   7.370   0.841
12890SOL     OW51878   6.974   6.775   0.205
12890SOL    HW251879   6.892   6.811   0.171
12890SOL    HW351880   7.042   6.818   0.154
12890SOL    MW451881   6.972   6.785   0.193
12891SOL     OW51882   5.973   6.910   0.871
12891SOL    HW251883   5.949   6.963   0.947
12891SOL    HW351884   6.029   6.968   0.819
12891SOL    MW451885   5.977   6.925   0.874
12892SOL     OW51886   6.535   6.554   0.681
12892SOL    HW251887   6.449   6.541   0.721
12892SOL    HW351888   6.588   6.481   0.713
12892SOL    MW451889   6.531   6.543   0.690
12893SOL     OW51890   5.943   7.206   1.466
12893SOL    HW251891   5.851   7.182   1.451
12893SOL    HW351892   5.987   7.123   1.483
12893SOL    MW451893   5.937   7.191   1.465
12894SOL     OW51894   6.526   6.916   0.398
12894SOL    HW251895   6.503   6.978   0.466
12894SOL    HW351896   6.483   6.834   0.424
12894SOL    MW451897   6.518   6.912   0.409
12895SOL     OW51898   7.399   5.917   0.854
12895SOL    HW251899   7.336   5.897   0.923
12895SOL    HW351900   7.389   5.846   0.791
12895SOL    MW451901   7.389   5.904   0.855
12896SOL     OW51902   6.023   5.889   0.366
12896SOL    HW251903   5.997   5.851   0.282
12896SOL    HW351904   5.960   5.959   0.382
12896SOL    MW451905   6.012   5.892   0.357
12897SOL     OW51906   5.858   6.850   0.403
12897SOL    HW251907   5.806   6.918   0.359
12897SOL    HW351908   5.855   6.776   0.343
12897SOL    MW451909   5.850   6.849   0.390
12898SOL     OW51910   6.520   7.313   0.181
12898SOL    HW251911   6.475   7.329   0.264
12898SOL    HW351912   6.451   7.278   0.123
12898SOL    MW451913   6.506   7.310   0.183
12899SOL     OW51914   7.455   6.086   0.156
12899SOL    HW251915   7.364   6.088   0.184
12899SOL    HW351916   7.500   6.148   0.214
12899SOL    MW451917   7.448   6.094   0.166
12900SOL     OW51918   7.200   6.689   0.506
12900SOL    HW251919   7.110   6.689   0.541
12900SOL    HW351920   7.193   6.735   0.423
12900SOL    MW451921   7.187   6.695   0.500
12901SOL     OW51922   7.000   6.324   1.578
12901SOL    HW251923   7.069   6.262   1.555
12901SOL    HW351924   6.925   6.298   1.525
12901SOL    MW451925   7.000   6.311   1.569
12902SOL     OW51926   5.741   7.204   1.130
12902SOL    HW251927   5.724   7.150   1.207
12902SOL    HW351928   5.729   7.294   1.160
12902SOL    MW451929   5.738   7.208   1.144
12903SOL     OW51930   6.736   6.711   1.570
12903SOL    HW251931   6.721   6.804   1.555
12903SOL    HW351932   6.831   6.701   1.570
12903SOL    MW451933   6.745   6.721   1.567
12904SOL     OW51934   6.532   6.135   1.771
12904SOL    HW251935   6.622   6.136   1.738
12904SOL    HW351936   6.491   6.060   1.729
12904SOL    MW451937   6.538   6.125   1.762
12905SOL     OW51938   7.107   6.667   0.898
12905SOL    HW251939   7.110   6.601   0.829
12905SOL    HW351940   7.192   6.710   0.894
12905SOL    MW451941   7.119   6.663   0.889
12906SOL     OW51942   6.727   6.270   0.467
12906SOL    HW251943   6.753   6.294   0.378
12906SOL    HW351944   6.709   6.177   0.463
12906SOL    MW451945   6.729   6.262   0.454
12907SOL     OW51946   7.392   6.890   0.318
12907SOL    HW251947   7.348   6.931   0.393
12907SOL    HW351948   7.449   6.958   0.283
12907SOL    MW451949   7.394   6.904   0.323
12908SOL     OW51950   6.312   5.939   1.721
12908SOL    HW251951   6.322   5.865   1.661
12908SOL    HW351952   6.348   5.908   1.804
12908SOL    MW451953   6.318   5.925   1.723
12909SOL     OW51954   6.048   7.306   0.636
12909SOL    HW251955   6.080   7.394   0.614
12909SOL    HW351956   6.001   7.278   0.558
12909SOL    MW451957   6.047   7.314   0.623
12910SOL     OW51958   7.432   5.668   0.685
12910SOL    HW251959   7.486   5.619   0.747
12910SOL    HW351960   7.375   5.602   0.646
12910SOL    MW451961   7.432   5.652   0.687
12911SOL     OW51962   5.764   7.366   0.213
12911SOL    HW251963   5.793   7.456   0.205
12911SOL    HW351964   5.714   7.349   0.134
12911SOL    MW451965   5.762   7.374   0.202
12912SOL     OW51966   6.551   5.621   1.098
12912SOL    HW251967   6.510   5.699   1.060
12912SOL    HW351968   6.645   5.639   1.093
12912SOL    MW451969   6.557   5.633   1.093
12913SOL     OW51970   7.168   7.174   0.184
12913SOL    HW251971   7.216   7.243   0.230
12913SOL    HW351972   7.089   7.218   0.153
12913SOL    MW451973   7.163   7.188   0.187
12914SOL     OW51974   6.566   6.299   0.128
12914SOL    HW251975   6.568   6.246   0.049
12914SOL    HW351976   6.654   6.336   0.134
12914SOL    MW451977   6.578   6.298   0.117
12915SOL     OW51978   7.180   6.225   0.464
12915SOL    HW251979   7.219   6.225   0.551
12915SOL    HW351980   7.121   6.301   0.464
12915SOL    MW451981   7.177   6.236   0.475
12916SOL     OW51982   6.497   6.592   1.593
12916SOL    HW251983   6.474   6.572   1.683
12916SOL    HW351984   6.582   6.636   1.598
12916SOL    MW451985   6.504   6.595   1.605
12917SOL     OW51986   6.577   5.729   1.353
12917SOL    HW251987   6.583   5.691   1.266
12917SOL    HW351988   6.566   5.823   1.338
12917SOL    MW451989   6.578   5.737   1.341
12918SOL     OW51990   6.666   6.218   1.187
12918SOL    HW251991   6.741   6.247   1.134
12918SOL    HW351992   6.598   6.283   1.171
12918SOL    MW451993   6.667   6.230   1.177
12919SOL     OW51994   7.216   6.186   1.464
12919SOL    HW251995   7.197   6.095   1.443
12919SOL    HW351996   7.194   6.235   1.385
12919SOL    MW451997   7.211   6.179   1.451
12920SOL     OW51998   7.358   7.280   1.368
12920SOL    HW251999   7.286   7.242   1.419
12920SOL    HW352000   7.375   7.365   1.409
12920SOL    MW452001   7.352   7.285   1.380
12921SOL     OW52002   6.663   5.924   1.570
12921SOL    HW252003   6.629   5.963   1.489
12921SOL    HW352004   6.641   5.832   1.563
12921SOL    MW452005   6.656   5.917   1.560
12922SOL     OW52006   7.072   6.738   1.646
12922SOL    HW252007   7.154   6.779   1.676
12922SOL    HW352008   7.035   6.700   1.726
12922SOL    MW452009   7.078   6.739   1.661
12923SOL     OW52010   7.367   6.111   0.630
12923SOL    HW252011   7.456   6.080   0.647
12923SOL    HW352012   7.310   6.051   0.678
12923SOL    MW452013   7.370   6.099   0.639
12924SOL     OW52014   5.793   5.825   0.659
12924SOL    HW252015   5.784   5.765   0.585
12924SOL    HW352016   5.726   5.796   0.722
12924SOL    MW452017   5.783   5.812   0.657
12925SOL     OW52018   6.736   6.918   0.220
12925SOL    HW252019   6.686   6.920   0.302
12925SOL    HW352020   6.670   6.936   0.152
12925SOL    MW452021   6.722   6.920   0.222
12926SOL     OW52022   5.740   5.998   1.022
12926SOL    HW252023   5.712   6.089   1.031
12926SOL    HW352024   5.677   5.959   0.961
12926SOL    MW452025   5.727   6.004   1.016
12927SOL     OW52026   6.199   7.336   0.328
12927SOL    HW252027   6.120   7.294   0.361
12927SOL    HW352028   6.265   7.319   0.395
12927SOL    MW452029   6.198   7.328   0.341
12928SOL     OW52030   7.327   6.856   1.725
12928SOL    HW252031   7.377   6.782   1.757
12928SOL    HW352032   7.273   6.883   1.800
12928SOL    MW452033   7.327   6.850   1.738
12929SOL     OW52034   6.335   6.751   0.035
12929SOL    HW252035   6.257   6.697   0.022
12929SOL    HW352036   6.306   6.824   0.088
12929SOL    MW452037   6.321   6.753   0.040
12930SOL     OW52038   7.461   6.491   1.227
12930SOL    HW252039   7.477   6.529   1.140
12930SOL    HW352040   7.495   6.557   1.288
12930SOL    MW452041   7.468   6.504   1.223
12931SOL     OW52042   7.253   7.200   0.896
12931SOL    HW252043   7.282   7.267   0.957
12931SOL    HW352044   7.234   7.124   0.951
12931SOL    MW452045   7.255   7.200   0.911
12932SOL     OW52046   6.916   7.267   0.103
12932SOL    HW252047   6.842   7.230   0.153
12932SOL    HW352048   6.924   7.357   0.136
12932SOL    MW452049   6.907   7.274   0.115
12933SOL     OW52050   5.724   6.273   1.192
12933SOL    HW252051   5.786   6.303   1.258
12933SOL    HW352052   5.658   6.342   1.186
12933SOL    MW452053   5.723   6.286   1.199
12934SOL     OW52054   7.140   6.941   0.045
12934SOL    HW252055   7.087   6.990  -0.019
12934SOL    HW352056   7.171   7.007   0.106
12934SOL    MW452057   7.138   6.955   0.043
12935SOL     OW52058   6.365   5.830   0.100
12935SOL    HW252059   6.313   5.750   0.088
12935SOL    HW352060   6.452   5.807   0.068
12935SOL    MW452061   6.368   5.816   0.094
12936SOL     OW52062   5.819   7.382   1.644
12936SOL    HW252063   5.793   7.450   1.582
12936SOL    HW352064   5.867   7.319   1.592
12936SOL    MW452065   5.821   7.382   1.630
12937SOL     OW52066   5.871   6.701   1.151
12937SOL    HW252067   5.924   6.776   1.176
12937SOL    HW352068   5.790   6.739   1.117
12937SOL    MW452069   5.867   6.716   1.151
12938SOL     OW52070   6.411   6.605   1.139
12938SOL    HW252071   6.439   6.514   1.151
12938SOL    HW352072   6.340   6.599   1.075
12938SOL    MW452073   6.404   6.593   1.134
12939SOL     OW52074   5.726   6.470   0.557
12939SOL    HW252075   5.817   6.485   0.584
12939SOL    HW352076   5.729   6.391   0.503
12939SOL    MW452077   5.738   6.462   0.555
12940SOL     OW52078   5.962   6.178   1.811
12940SOL    HW252079   5.909   6.258   1.818
12940SOL    HW352080   6.032   6.190   1.876
12940SOL    MW452081   5.964   6.191   1.819
12941SOL     OW52082   6.348   5.728   1.518
12941SOL    HW252083   6.325   5.636   1.520
12941SOL    HW352084   6.434   5.730   1.475
12941SOL    MW452085   6.355   5.718   1.514
12942SOL     OW52086   6.032   6.252   1.557
12942SOL    HW252087   6.112   6.302   1.543
12942SOL    HW352088   6.023   6.246   1.652
12942SOL    MW452089   6.041   6.258   1.567
12943SOL     OW52090   6.353   7.402   0.931
12943SOL    HW252091   6.442   7.417   0.961
12943SOL    HW352092   6.348   7.449   0.847
12943SOL    MW452093   6.363   7.410   0.924
12944SOL     OW52094   7.009   5.777   1.828
12944SOL    HW252095   7.065   5.704   1.854
12944SOL    HW352096   6.979   5.815   1.910
12944SOL    MW452097   7.013   5.772   1.841
12945SOL     OW52098   5.734   7.082   0.596
12945SOL    HW252099   5.706   7.121   0.678
12945SOL    HW352100   5.754   6.991   0.618
12945SOL    MW452101   5.732   7.074   0.609
12946SOL     OW52102   6.567   7.125   0.631
12946SOL    HW252103   6.650   7.079   0.615
12946SOL    HW352104   6.557   7.124   0.727
12946SOL    MW452105   6.577   7.118   0.641
12947SOL     OW52106   7.399   6.270   0.945
12947SOL    HW252107   7.488   6.300   0.927
12947SOL    HW352108   7.379   6.210   0.874
12947SOL    MW452109   7.408   6.267   0.934
12948SOL     OW52110   7.250   6.449   1.825
12948SOL    HW252111   7.305   6.373   1.806
12948SOL    HW352112   7.252   6.457   1.920
12948SOL    MW452113   7.258   6.440   1.833
12949SOL     OW52114   6.300   7.182   0.036
12949SOL    HW252115   6.240   7.251   0.006
12949SOL    HW352116   6.245   7.124   0.089
12949SOL    MW452117   6.284   7.184   0.038
12950SOL     OW52118   6.738   5.827   0.259
12950SOL    HW252119   6.671   5.803   0.196
12950SOL    HW352120   6.803   5.876   0.208
12950SOL    MW452121   6.738   5.829   0.244
12951SOL     OW52122   6.545   6.011   1.344
12951SOL    HW252123   6.464   6.052   1.372
12951SOL    HW352124   6.592   6.079   1.296
12951SOL    MW452125   6.540   6.026   1.342
12952SOL     OW52126   6.805   6.349   0.967
12952SOL    HW252127   6.818   6.443   0.977
12952SOL    HW352128   6.766   6.339   0.881
12952SOL    MW452129   6.801   6.360   0.957
12953SOL     OW52130   6.257   6.544   0.771
12953SOL    HW252131   6.168   6.535   0.804
12953SOL    HW352132   6.261   6.634   0.739
12953SOL    MW452133   6.246   6.555   0.771
12954SOL     OW52134   7.056   6.127   0.766
12954SOL    HW252135   7.001   6.048   0.765
12954SOL    HW352136   7.038   6.168   0.850
12954SOL    MW452137   7.046   6.122   0.775
12955SOL     OW52138   6.027   5.814   1.583
12955SOL    HW252139   5.948   5.832   1.635
12955SOL    HW352140   6.022   5.876   1.510
12955SOL    MW452141   6.017   5.824   1.580
12956SOL     OW52142   6.675   6.331   0.723
12956SOL    HW252143   6.612   6.263   0.747
12956SOL    HW352144   6.695   6.312   0.631
12956SOL    MW452145   6.669   6.318   0.715
12957SOL     OW52146   5.931   7.226   0.425
12957SOL    HW252147   5.892   7.273   0.351
12957SOL    HW352148   5.865   7.161   0.450
12957SOL    MW452149   5.918   7.224   0.419
12958SOL     OW52150   6.423   6.635   0.449
12958SOL    HW252151   6.425   6.609   0.356
12958SOL    HW352152   6.481   6.572   0.492
12958SOL    MW452153   6.431   6.624   0.443
12959SOL     OW52154   6.976   7.195   1.221
12959SOL    HW252155   6.901   7.241   1.259
12959SOL    HW352156   6.958   7.102   1.238
12959SOL    MW452157   6.965   7.189   1.229
12960SOL     OW52158   6.980   7.403   0.651
12960SOL    HW252159   6.923   7.356   0.590
12960SOL    HW352160   7.066   7.364   0.638
12960SOL    MW452161   6.983   7.394   0.641
12961SOL     OW52162   6.933   5.879   0.782
12961SOL    HW252163   6.961   5.811   0.843
12961SOL    HW352164   6.847   5.850   0.752
12961SOL    MW452165   6.926   5.866   0.786
12962SOL     OW52166   5.738   6.813   0.716
12962SOL    HW252167   5.802   6.845   0.779
12962SOL    HW352168   5.787   6.749   0.664
12962SOL    MW452169   5.753   6.809   0.717
12963SOL     OW52170   5.814   7.131   1.838
12963SOL    HW252171   5.870   7.055   1.853
12963SOL    HW352172   5.763   7.109   1.760
12963SOL    MW452173   5.814   7.118   1.829
12964SOL     OW52174   6.913   5.983   0.117
12964SOL    HW252175   6.886   6.049   0.053
12964SOL    HW352176   6.983   6.026   0.167
12964SOL    MW452177   6.918   5.996   0.114
12965SOL     OW52178   6.581   5.688   0.054
12965SOL    HW252179   6.637   5.680  -0.024
12965SOL    HW352180   6.558   5.598   0.076
12965SOL    MW452181   6.586   5.675   0.047
12966SOL     OW52182   7.086   6.539   0.259
12966SOL    HW252183   7.053   6.628   0.249
12966SOL    HW352184   7.051   6.510   0.344
12966SOL    MW452185   7.076   6.548   0.270
12967SOL     OW52186   5.992   5.636   1.789
12967SOL    HW252187   5.920   5.601   1.737
12967SOL    HW352188   6.050   5.677   1.724
12967SOL    MW452189   5.990   5.637   1.774
12968SOL     OW52190   6.016   7.126   1.088
12968SOL    HW252191   6.061   7.188   1.145
12968SOL    HW352192   5.923   7.145   1.101
12968SOL    MW452193   6.009   7.136   1.095
12969SOL     OW52194   7.456   6.655   1.442
12969SOL    HW252195   7.371   6.668   1.401
12969SOL    HW352196   7.436   6.619   1.529
12969SOL    MW452197   7.443   6.651   1.447
12970SOL     OW52198   6.438   7.194   1.196
12970SOL    HW252199   6.462   7.183   1.105
12970SOL    HW352200   6.361   7.251   1.194
12970SOL    MW452201   6.430   7.199   1.185
12971SOL     OW52202   6.080   6.577   0.051
12971SOL    HW252203   6.003   6.590   0.107
12971SOL    HW352204   6.044   6.541  -0.030
12971SOL    MW452205   6.066   6.573   0.048
12972SOL     OW52206   6.733   6.550   0.294
12972SOL    HW252207   6.643   6.571   0.269
12972SOL    HW352208   6.760   6.623   0.350
12972SOL    MW452209   6.725   6.562   0.297
12973SOL     OW52210   6.233   6.899   0.986
12973SOL    HW252211   6.226   6.878   1.080
12973SOL    HW352212   6.151   6.867   0.949
12973SOL    MW452213   6.221   6.893   0.993
12974SOL     OW52214   7.097   5.909   1.388
12974SOL    HW252215   7.044   5.911   1.468
12974SOL    HW352216   7.082   5.822   1.351
12974SOL    MW452217   7.089   5.899   1.393
12975SOL     OW52218   7.433   5.833   1.261
12975SOL    HW252219   7.414   5.900   1.196
12975SOL    HW352220   7.490   5.771   1.216
12975SOL    MW452221   7.437   5.834   1.247
12976SOL     OW52222   5.679   6.991   1.649
12976SOL    HW252223   5.723   6.924   1.595
12976SOL    HW352224   5.594   6.953   1.669
12976SOL    MW452225   5.674   6.977   1.645
12977SOL     OW52226   6.362   5.666   0.701
12977SOL    HW252227   6.291   5.727   0.683
12977SOL    HW352228   6.413   5.663   0.620
12977SOL    MW452229   6.358   5.672   0.688
12978SOL     OW52230   6.120   6.906   0.450
12978SOL    HW252231   6.113   6.938   0.540
12978SOL    HW352232   6.030   6.890   0.422
12978SOL    MW452233   6.108   6.908   0.457
12979SOL     OW52234   6.715   7.299   1.359
12979SOL    HW252235   6.635   7.284   1.309
12979SOL    HW352236   6.722   7.394   1.366
12979SOL    MW452237   6.706   7.310   1.353
12980SOL     OW52238   6.829   7.264   0.849
12980SOL    HW252239   6.876   7.337   0.808
12980SOL    HW352240   6.750   7.303   0.885
12980SOL    MW452241   6.824   7.279   0.848
12981SOL     OW52242   7.237   7.359   1.124
12981SOL    HW252243   7.280   7.329   1.204
12981SOL    HW352244   7.156   7.307   1.121
12981SOL    MW452245   7.232   7.348   1.134
12982SOL     OW52246   6.322   6.323   1.831
12982SOL    HW252247   6.392   6.265   1.803
12982SOL    HW352248   6.265   6.268   1.886
12982SOL    MW452249   6.324   6.310   1.835
12983SOL     OW52250   7.109   6.535   1.464
12983SOL    HW252251   7.114   6.588   1.544
12983SOL    HW352252   7.071   6.452   1.492
12983SOL    MW452253   7.105   6.530   1.479
12984SOL     OW52254   6.749   5.670   1.710
12984SOL    HW252255   6.744   5.577   1.691
12984SOL    HW352256   6.832   5.681   1.756
12984SOL    MW452257   6.757   5.659   1.714
12985SOL     OW52258   6.123   6.190   0.164
12985SOL    HW252259   6.089   6.246   0.234
12985SOL    HW352260   6.194   6.140   0.204
12985SOL    MW452261   6.129   6.191   0.178
12986SOL     OW52262   7.219   6.941   0.986
12986SOL    HW252263   7.254   6.923   0.899
12986SOL    HW352264   7.124   6.942   0.973
12986SOL    MW452265   7.211   6.938   0.973
12987SOL     OW52266   6.648   6.589   1.355
12987SOL    HW252267   6.691   6.624   1.433
12987SOL    HW352268   6.631   6.666   1.301
12987SOL    MW452269   6.651   6.604   1.358
12988SOL     OW52270   7.179   6.076   0.228
12988SOL    HW252271   7.171   6.147   0.165
12988SOL    HW352272   7.197   6.120   0.311
12988SOL    MW452273   7.180   6.090   0.230
12989SOL     OW52274   6.039   5.731   0.657
12989SOL    HW252275   6.089   5.774   0.588
12989SOL    HW352276   5.954   5.775   0.657
12989SOL    MW452277   6.036   5.744   0.648
12990SOL     OW52278   5.798   6.793   1.517
12990SOL    HW252279   5.826   6.746   1.595
12990SOL    HW352280   5.719   6.748   1.488
12990SOL    MW452281   5.791   6.782   1.523
12991SOL     OW52282   6.306   6.120   1.484
12991SOL    HW252283   6.278   6.208   1.508
12991SOL    HW352284   6.275   6.064   1.555
12991SOL    MW452285   6.298   6.123   1.496
12992SOL     OW52286   6.848   6.338   0.203
12992SOL    HW252287   6.895   6.356   0.122
12992SOL    HW352288   6.814   6.422   0.231
12992SOL    MW452289   6.850   6.352   0.196
12993SOL     OW52290   5.961   6.516   0.697
12993SOL    HW252291   6.019   6.572   0.645
12993SOL    HW352292   6.005   6.431   0.699
12993SOL    MW452293   5.974   6.513   0.690
12994SOL     OW52294   7.101   5.868   0.534
12994SOL    HW252295   7.023   5.818   0.559
12994SOL    HW352296   7.072   5.959   0.534
12994SOL    MW452297   7.087   5.872   0.537
12995SOL     OW52298   6.687   5.830   0.693
12995SOL    HW252299   6.707   5.905   0.637
12995SOL    HW352300   6.667   5.869   0.778
12995SOL    MW452301   6.688   5.846   0.697
12996SOL     OW52302   6.583   7.080   0.025
12996SOL    HW252303   6.610   7.158  -0.023
12996SOL    HW352304   6.490   7.095   0.044
12996SOL    MW452305   6.574   7.093   0.021
12997SOL     OW52306   7.447   6.603   1.712
12997SOL    HW252307   7.360   6.583   1.748
12997SOL    HW352308   7.501   6.529   1.737
12997SOL    MW452309   7.442   6.592   1.720
12998SOL     OW52310   5.668   7.116   0.869
12998SOL    HW252311   5.700   7.120   0.960
12998SOL    HW352312   5.573   7.124   0.877
12998SOL    MW452313   5.660   7.119   0.882
12999SOL     OW52314   5.623   6.242   0.416
12999SOL    HW252315   5.563   6.214   0.486
12999SOL    HW352316   5.697   6.182   0.422
12999SOL    MW452317   5.625   6.231   0.425
13000SOL     OW52318   7.191   7.454   1.850
13000SOL    HW252319   7.236   7.378   1.815
13000SOL    HW352320   7.229   7.467   1.937
13000SOL    MW452321   7.201   7.447   1.856
13001SOL     OW52322   6.791   6.973   0.576
13001SOL    HW252323   6.814   6.924   0.654
13001SOL    HW352324   6.872   7.015   0.548
13001SOL    MW452325   6.804   6.973   0.583
13002SOL     OW52326   6.049   5.981   1.305
13002SOL    HW252327   6.082   6.062   1.345
13002SOL    HW352328   6.022   6.007   1.217
13002SOL    MW452329   6.048   5.995   1.299
13003SOL     OW52330   6.003   5.948   1.041
13003SOL    HW252331   6.033   5.862   1.012
13003SOL    HW352332   5.908   5.941   1.044
13003SOL    MW452333   5.995   5.937   1.039
13004SOL     OW52334   6.832   6.157   1.732
13004SOL    HW252335   6.884   6.092   1.685
13004SOL    HW352336   6.790   6.208   1.662
13004SOL    MW452337   6.833   6.154   1.715
13005SOL     OW52338   6.931   5.952   1.593
13005SOL    HW252339   6.838   5.936   1.580
13005SOL    HW352340   6.957   5.890   1.661
13005SOL    MW452341   6.921   5.942   1.600
13006SOL     OW52342   6.146   5.726   0.932
13006SOL    HW252343   6.156   5.635   0.958
13006SOL    HW352344   6.102   5.722   0.847
13006SOL    MW452345   6.142   5.714   0.924
13007SOL     OW52346   6.240   7.341   1.478
13007SOL    HW252347   6.157   7.326   1.523
13007SOL    HW352348   6.299   7.274   1.513
13007SOL    MW452349   6.238   7.331   1.488
13008SOL     OW52350   7.297   6.048   1.103
13008SOL    HW252351   7.230   6.081   1.163
13008SOL    HW352352   7.340   6.126   1.069
13008SOL    MW452353   7.295   6.063   1.107
13009SOL     OW52354   7.475   6.768   1.073
13009SOL    HW252355   7.468   6.708   0.998
13009SOL    HW352356   7.401   6.828   1.062
13009SOL    MW452357   7.465   6.768   1.062
13010SOL     OW52358   6.857   6.630   0.991
13010SOL    HW252359   6.871   6.602   1.082
13010SOL    HW352360   6.943   6.661   0.963
13010SOL    MW452361   6.870   6.631   1.000
13011SOL     OW52362   6.940   6.125   1.270
13011SOL    HW252363   6.961   6.126   1.177
13011SOL    HW352364   6.985   6.047   1.303
13011SOL    MW452365   6.947   6.115   1.262
13012SOL     OW52366   7.433   6.256   1.812
13012SOL    HW252367   7.470   6.201   1.881
13012SOL    HW352368   7.458   6.213   1.730
13012SOL    MW452369   7.440   6.244   1.811
13013SOL     OW52370   6.980   6.554   1.863
13013SOL    HW252371   7.046   6.502   1.817
13013SOL    HW352372   7.000   6.541   1.956
13013SOL    MW452373   6.991   6.545   1.870
13014SOL     OW52374   6.931   5.640   0.212
13014SOL    HW252375   7.005   5.684   0.255
13014SOL    HW352376   6.855   5.694   0.234
13014SOL    MW452377   6.931   5.652   0.220
13015SOL     OW52378   6.991   6.415   0.490
13015SOL    HW252379   6.906   6.385   0.460
13015SOL    HW352380   6.983   6.422   0.585
13015SOL    MW452381   6.979   6.413   0.499
13016SOL     OW52382   6.067   6.878   1.221
13016SOL    HW252383   6.079   6.905   1.312
13016SOL    HW352384   6.048   6.959   1.174
13016SOL    MW452385   6.066   6.893   1.226
13017SOL     OW52386   6.351   5.858   1.044
13017SOL    HW252387   6.324   5.860   1.135
13017SOL    HW352388   6.281   5.810   0.999
13017SOL    MW452389   6.339   5.854   1.051
13018SOL     OW52390   6.205   7.350   1.206
13018SOL    HW252391   6.257   7.427   1.183
13018SOL    HW352392   6.214   7.342   1.301
13018SOL    MW452393   6.214   7.357   1.217
13019SOL     OW52394   7.107   6.935   1.438
13019SOL    HW252395   7.092   6.864   1.501
13019SOL    HW352396   7.153   6.893   1.366
13019SOL    MW452397   7.113   6.919   1.438
13020SOL     OW52398   6.364   6.081   0.216
13020SOL    HW252399   6.437   6.130   0.179
13020SOL    HW352400   6.380   5.990   0.190
13020SOL    MW452401   6.376   6.076   0.209
13021SOL     OW52402   7.172   7.198   1.539
13021SOL    HW252403   7.214   7.183   1.624
13021SOL    HW352404   7.163   7.111   1.501
13021SOL    MW452405   7.176   7.186   1.546
13022SOL     OW52406   6.832   5.677   1.130
13022SOL    HW252407   6.887   5.686   1.052
13022SOL    HW352408   6.887   5.711   1.201
13022SOL    MW452409   6.846   5.682   1.129
13023SOL     OW52410   5.839   6.590   0.314
13023SOL    HW252411   5.776   6.606   0.243
13023SOL    HW352412   5.786   6.553   0.385
13023SOL    MW452413   5.824   6.587   0.314
13024SOL     OW52414   6.195   6.944   0.173
13024SOL    HW252415   6.210   6.920   0.265
13024SOL    HW352416   6.103   6.922   0.157
13024SOL    MW452417   6.185   6.937   0.183
13025SOL     OW52418   6.734   7.175   0.325
13025SOL    HW252419   6.742   7.093   0.276
13025SOL    HW352420   6.653   7.214   0.292
13025SOL    MW452421   6.724   7.170   0.315
13026SOL     OW52422   5.993   7.333   0.894
13026SOL    HW252423   5.997   7.244   0.929
13026SOL    HW352424   6.019   7.324   0.803
13026SOL    MW452425   5.996   7.321   0.886
13027SOL     OW52426   6.610   6.811   1.137
13027SOL    HW252427   6.542   6.745   1.153
13027SOL    HW352428   6.628   6.805   1.044
13027SOL    MW452429   6.603   6.802   1.128
13028SOL     OW52430   5.699   7.086   1.388
13028SOL    HW252431   5.689   7.044   1.474
13028SOL    HW352432   5.620   7.139   1.378
13028SOL    MW452433   5.688   7.087   1.399
13029SOL     OW52434   6.603   5.950   0.958
13029SOL    HW252435   6.533   5.902   1.003
13029SOL    HW352436   6.635   6.013   1.022
13029SOL    MW452437   6.598   5.952   0.972
13030SOL     OW52438   6.254   6.386   1.578
13030SOL    HW252439   6.247   6.481   1.566
13030SOL    HW352440   6.263   6.375   1.673
13030SOL    MW452441   6.255   6.398   1.588
13031SOL     OW52442   7.059   5.664   1.303
13031SOL    HW252443   7.130   5.610   1.267
13031SOL    HW352444   7.058   5.643   1.396
13031SOL    MW452445   7.068   5.655   1.311
13032SOL     OW52446   7.259   7.194   1.787
13032SOL    HW252447   7.232   7.191   1.878
13032SOL    HW352448   7.355   7.198   1.790
13032SOL    MW452449   7.269   7.194   1.799
13033SOL     OW52450   6.070   6.056   0.771
13033SOL    HW252451   6.141   6.004   0.734
13033SOL    HW352452   6.056   6.021   0.858
13033SOL    MW452453   6.078   6.045   0.778
13034SOL     OW52454   5.625   7.391   1.843
13034SOL    HW252455   5.675   7.369   1.765
13034SOL    HW352456   5.633   7.486   1.851
13034SOL    MW452457   5.633   7.400   1.834
13035SOL     OW52458   6.386   7.149   0.847
13035SOL    HW252459   6.314   7.086   0.860
13035SOL    HW352460   6.347   7.234   0.865
13035SOL    MW452461   6.370   7.152   0.850
13036SOL     OW52462   6.706   5.997   0.495
13036SOL    HW252463   6.728   5.934   0.427
13036SOL    HW352464   6.611   5.989   0.506
13036SOL    MW452465   6.696   5.988   0.487
13037SOL     OW52466   5.791   5.687   0.427
13037SOL    HW252467   5.862   5.708   0.366
13037SOL    HW352468   5.745   5.615   0.385
13037SOL    MW452469   5.795   5.681   0.413
13038SOL     OW52470   5.622   6.154   1.570
13038SOL    HW252471   5.686   6.220   1.545
13038SOL    HW352472   5.541   6.181   1.527
13038SOL    MW452473   5.620   6.166   1.562
13039SOL     OW52474   7.360   7.061   0.527
13039SOL    HW252475   7.330   6.994   0.588
13039SOL    HW352476   7.454   7.067   0.541
13039SOL    MW452477   7.368   7.053   0.537
13040SOL     OW52478   6.916   6.738   0.457
13040SOL    HW252479   6.888   6.824   0.490
13040SOL    HW352480   6.944   6.754   0.367
13040SOL    MW452481   6.916   6.752   0.449
13041SOL     OW52482   6.578   5.658   0.510
13041SOL    HW252483   6.615   5.717   0.575
13041SOL    HW352484   6.555   5.714   0.436
13041SOL    MW452485   6.579   5.673   0.509
13042SOL     OW52486   7.431   6.540   0.932
13042SOL    HW252487   7.422   6.572   0.843
13042SOL    HW352488   7.384   6.456   0.932
13042SOL    MW452489   7.424   6.533   0.922
13043SOL     OW52490   7.343   6.471   0.633
13043SOL    HW252491   7.437   6.460   0.621
13043SOL    HW352492   7.319   6.543   0.574
13043SOL    MW452493   7.353   6.479   0.624
13044SOL     OW52494   5.958   5.682   1.228
13044SOL    HW252495   6.001   5.766   1.248
13044SOL    HW352496   6.031   5.620   1.221
13044SOL    MW452497   5.973   5.685   1.229
13045SOL     OW52498   5.999   6.349   0.406
13045SOL    HW252499   5.999   6.444   0.391
13045SOL    HW352500   6.076   6.333   0.460
13045SOL    MW452501   6.009   6.360   0.411
13046SOL     OW52502   6.775   6.208   1.470
13046SOL    HW252503   6.811   6.181   1.386
13046SOL    HW352504   6.688   6.242   1.449
13046SOL    MW452505   6.769   6.209   1.457
13047SOL     OW52506   5.758   6.080   0.695
13047SOL    HW252507   5.820   6.087   0.768
13047SOL    HW352508   5.758   5.987   0.672
13047SOL    MW452509   5.766   6.069   0.702
13048SOL     OW52510   7.305   7.420   0.227
13048SOL    HW252511   7.372   7.453   0.167
13048SOL    HW352512   7.262   7.499   0.261
13048SOL    MW452513   7.307   7.435   0.223
13049SOL     OW52514   6.440   6.341   1.179
13049SOL    HW252515   6.398   6.259   1.155
13049SOL    HW352516   6.441   6.340   1.275
13049SOL    MW452517   6.433   6.330   1.188
13050SOL     OW52518   7.111   7.474   1.578
13050SOL    HW252519   7.114   7.380   1.561
13050SOL    HW352520   7.134   7.482   1.670
13050SOL    MW452521   7.114   7.462   1.588
13051SOL     OW52522   6.244   5.811   1.284
13051SOL    HW252523   6.175   5.874   1.305
13051SOL    HW352524   6.271   5.775   1.369
13051SOL    MW452525   6.238   5.814   1.297
13052SOL     OW52526   5.627   6.652   0.153
13052SOL    HW252527   5.596   6.717   0.216
13052SOL    HW352528   5.576   6.574   0.172
13052SOL    MW452529   5.617   6.649   0.163
13053SOL     OW52530   7.039   5.664   0.901
13053SOL    HW252531   7.127   5.673   0.938
13053SOL    HW352532   7.049   5.605   0.827
13053SOL    MW452533   7.053   5.658   0.895
13054SOL     OW52534   7.071   6.403   0.745
13054SOL    HW252535   7.151   6.418   0.694
13054SOL    HW352536   7.064   6.308   0.751
13054SOL    MW452537   7.080   6.392   0.740
13055SOL     OW52538   6.211   7.452   0.095
13055SOL    HW252539   6.116   7.452   0.087
13055SOL    HW352540   6.227   7.398   0.173
13055SOL    MW452541   6.201   7.446   0.104
13056SOL     OW52542   6.521   6.329   1.442
13056SOL    HW252543   6.590   6.396   1.439
13056SOL    HW352544   6.454   6.367   1.498
13056SOL    MW452545   6.522   6.342   1.449
13057SOL     OW52546   5.939   6.629   1.690
13057SOL    HW252547   5.893   6.545   1.692
13057SOL    HW352548   5.996   6.623   1.614
13057SOL    MW452549   5.941   6.617   1.682
13058SOL     OW52550   7.056   6.272   0.011
13058SOL    HW252551   6.984   6.248  -0.047
13058SOL    HW352552   7.122   6.309  -0.047
13058SOL    MW452553   7.055   6.274  -0.004
13059SOL     OW52554   6.190   7.004   0.691
13059SOL    HW252555   6.255   6.937   0.712
13059SOL    HW352556   6.242   7.081   0.668
13059SOL    MW452557   6.205   7.006   0.690
13060SOL     OW52558   6.451   6.169   0.821
13060SOL    HW252559   6.391   6.187   0.893
13060SOL    HW352560   6.485   6.081   0.840
13060SOL    MW452561   6.447   6.159   0.834
13061SOL     OW52562   7.392   5.668   1.490
13061SOL    HW252563   7.313   5.714   1.518
13061SOL    HW352564   7.427   5.722   1.419
13061SOL    MW452565   7.386   5.681   1.484
13062SOL     OW52566   6.676   6.752   0.840
13062SOL    HW252567   6.768   6.733   0.858
13062SOL    HW352568   6.649   6.682   0.780
13062SOL    MW452569   6.684   6.740   0.834
13063SOL     OW52570   6.469   6.572   0.195
13063SOL    HW252571   6.455   6.484   0.160
13063SOL    HW352572   6.420   6.629   0.136
13063SOL    MW452573   6.461   6.567   0.183
13064SOL     OW52574   6.950   6.990   0.936
13064SOL    HW252575   6.923   7.074   0.901
13064SOL    HW352576   6.910   6.985   1.023
13064SOL    MW452577   6.943   6.999   0.942
13065SOL     OW52578   6.869   6.938   1.204
13065SOL    HW252579   6.880   6.905   1.293
13065SOL    HW352580   6.788   6.897   1.173
13065SOL    MW452581   6.859   6.930   1.210
13066SOL     OW52582   5.882   6.296   0.974
13066SOL    HW252583   5.832   6.295   1.055
13066SOL    HW352584   5.902   6.388   0.958
13066SOL    MW452585   5.878   6.308   0.982
13067SOL     OW52586   7.188   5.778   0.297
13067SOL    HW252587   7.181   5.782   0.392
13067SOL    HW352588   7.200   5.869   0.270
13067SOL    MW452589   7.189   5.791   0.305
13068SOL     OW52590   6.477   6.341   0.411
13068SOL    HW252591   6.457   6.327   0.318
13068SOL    HW352592   6.570   6.320   0.418
13068SOL    MW452593   6.487   6.336   0.400
13069SOL     OW52594   5.804   5.964   1.715
13069SOL    HW252595   5.761   6.023   1.652
13069SOL    HW352596   5.872   6.019   1.755
13069SOL    MW452597   5.808   5.979   1.712
13070SOL     OW52598   6.916   6.584   1.260
13070SOL    HW252599   6.979   6.581   1.333
13070SOL    HW352600   6.832   6.602   1.302
13070SOL    MW452601   6.912   6.586   1.275
13071SOL     OW52602   6.460   7.299   0.449
13071SOL    HW252603   6.518   7.370   0.476
13071SOL    HW352604   6.483   7.227   0.507
13071SOL    MW452605   6.471   7.299   0.460
13072SOL     OW52606   7.255   5.761   1.039
13072SOL    HW252607   7.300   5.679   1.058
13072SOL    HW352608   7.275   5.817   1.115
13072SOL    MW452609   7.265   5.757   1.051
13073SOL     OW52610   5.703   5.604   1.138
13073SOL    HW252611   5.694   5.605   1.043
13073SOL    HW352612   5.797   5.616   1.153
13073SOL    MW452613   5.715   5.607   1.129
13074SOL     OW52614   7.340   6.797   0.758
13074SOL    HW252615   7.319   6.743   0.681
13074SOL    HW352616   7.436   6.795   0.762
13074SOL    MW452617   7.349   6.790   0.747
13075SOL     OW52618   6.032   6.942   1.501
13075SOL    HW252619   5.953   6.892   1.524
13075SOL    HW352620   6.102   6.901   1.551
13075SOL    MW452621   6.030   6.930   1.511
13076SOL     OW52622   5.916   5.731   0.184
13076SOL    HW252623   5.845   5.786   0.152
13076SOL    HW352624   5.958   5.697   0.105
13076SOL    MW452625   5.912   5.733   0.170
13077SOL     OW52626   7.040   6.228   1.020
13077SOL    HW252627   6.963   6.274   0.986
13077SOL    HW352628   7.097   6.297   1.054
13077SOL    MW452629   7.037   6.243   1.020
13078SOL     OW52630   5.672   5.830   0.033
13078SOL    HW252631   5.639   5.909   0.077
13078SOL    HW352632   5.727   5.863  -0.038
13078SOL    MW452633   5.675   5.844   0.030
13079SOL     OW52634   5.706   7.087   0.222
13079SOL    HW252635   5.723   7.171   0.264
13079SOL    HW352636   5.741   7.096   0.134
13079SOL    MW452637   5.711   7.100   0.216
13080SOL     OW52638   6.978   7.176   0.439
13080SOL    HW252639   7.041   7.166   0.368
13080SOL    HW352640   6.895   7.196   0.394
13080SOL    MW452641   6.975   7.177   0.424
13081SOL     OW52642   7.341   6.444   2.125
13081SOL    HW252643   7.382   6.386   2.190
13081SOL    HW352644   7.248   6.436   2.142
13081SOL    MW452645   7.335   6.436   2.135
13082SOL     OW52646   7.207   6.376   3.120
13082SOL    HW252647   7.162   6.443   3.171
13082SOL    HW352648   7.295   6.412   3.106
13082SOL    MW452649   7.213   6.389   3.124
13083SOL     OW52650   6.135   6.627   2.354
13083SOL    HW252651   6.225   6.602   2.338
13083SOL    HW352652   6.131   6.720   2.331
13083SOL    MW452653   6.147   6.636   2.349
13084SOL     OW52654   7.251   7.330   2.496
13084SOL    HW252655   7.263   7.276   2.574
13084SOL    HW352656   7.288   7.278   2.425
13084SOL    MW452657   7.257   7.315   2.497
13085SOL     OW52658   6.630   7.215   3.497
13085SOL    HW252659   6.671   7.251   3.418
13085SOL    HW352660   6.665   7.126   3.504
13085SOL    MW452661   6.641   7.208   3.488
13086SOL     OW52662   7.187   6.770   3.101
13086SOL    HW252663   7.108   6.735   3.059
13086SOL    HW352664   7.214   6.842   3.045
13086SOL    MW452665   7.180   6.775   3.088
13087SOL     OW52666   6.419   6.083   2.367
13087SOL    HW252667   6.394   6.171   2.395
13087SOL    HW352668   6.416   6.086   2.271
13087SOL    MW452669   6.415   6.095   2.359
13088SOL     OW52670   5.861   6.111   2.295
13088SOL    HW252671   5.893   6.199   2.277
13088SOL    HW352672   5.849   6.109   2.390
13088SOL    MW452673   5.864   6.123   2.307
13089SOL     OW52674   5.939   6.524   3.196
13089SOL    HW252675   6.002   6.471   3.147
13089SOL    HW352676   5.920   6.598   3.139
13089SOL    MW452677   5.945   6.526   3.183
13090SOL     OW52678   6.260   5.866   2.382
13090SOL    HW252679   6.318   5.942   2.384
13090SOL    HW352680   6.195   5.887   2.315
13090SOL    MW452681   6.259   5.878   2.373
13091SOL     OW52682   6.347   6.793   2.557
13091SOL    HW252683   6.427   6.796   2.609
13091SOL    HW352684   6.375   6.760   2.471
13091SOL    MW452685   6.361   6.789   2.552
13092SOL     OW52686   6.372   7.134   3.460
13092SOL    HW252687   6.456   7.160   3.499
13092SOL    HW352688   6.396   7.078   3.386
13092SOL    MW452689   6.386   7.130   3.455
13093SOL     OW52690   6.124   6.297   2.548
13093SOL    HW252691   6.109   6.217   2.599
13093SOL    HW352692   6.206   6.332   2.582
13093SOL    MW452693   6.132   6.289   2.560
13094SOL     OW52694   6.461   6.983   3.233
13094SOL    HW252695   6.425   7.049   3.173
13094SOL    HW352696   6.389   6.921   3.246
13094SOL    MW452697   6.447   6.983   3.227
13095SOL     OW52698   6.012   6.537   2.829
13095SOL    HW252699   5.967   6.544   2.745
13095SOL    HW352700   5.992   6.620   2.873
13095SOL    MW452701   6.004   6.549   2.823
13096SOL     OW52702   5.709   7.383   2.704
13096SOL    HW252703   5.798   7.375   2.739
13096SOL    HW352704   5.673   7.295   2.709
13096SOL    MW452705   5.716   7.370   2.709
13097SOL     OW52706   5.973   6.910   2.739
13097SOL    HW252707   5.949   6.963   2.815
13097SOL    HW352708   6.029   6.968   2.687
13097SOL    MW452709   5.977   6.925   2.742
13098SOL     OW52710   6.535   6.554   2.549
13098SOL    HW252711   6.449   6.541   2.589
13098SOL    HW352712   6.588   6.481   2.581
13098SOL    MW452713   6.531   6.543   2.558
13099SOL     OW52714   5.943   7.206   3.334
13099SOL    HW252715   5.851   7.182   3.319
13099SOL    HW352716   5.987   7.123   3.351
13099SOL    MW452717   5.937   7.191   3.333
13100SOL     OW52718   6.526   6.916   2.266
13100SOL    HW252719   6.503   6.978   2.334
13100SOL    HW352720   6.483   6.834   2.292
13100SOL    MW452721   6.518   6.912   2.277
13101SOL     OW52722   7.399   5.917   2.722
13101SOL    HW252723   7.336   5.897   2.791
13101SOL    HW352724   7.389   5.846   2.659
13101SOL    MW452725   7.389   5.904   2.723
13102SOL     OW52726   6.023   5.889   2.234
13102SOL    HW252727   5.997   5.851   2.150
13102SOL    HW352728   5.960   5.959   2.250
13102SOL    MW452729   6.012   5.892   2.225
13103SOL     OW52730   6.520   7.313   2.049
13103SOL    HW252731   6.475   7.329   2.132
13103SOL    HW352732   6.451   7.278   1.991
13103SOL    MW452733   6.506   7.310   2.051
13104SOL     OW52734   7.455   6.086   2.024
13104SOL    HW252735   7.364   6.088   2.052
13104SOL    HW352736   7.500   6.148   2.082
13104SOL    MW452737   7.448   6.094   2.034
13105SOL     OW52738   7.200   6.689   2.374
13105SOL    HW252739   7.110   6.689   2.409
13105SOL    HW352740   7.193   6.735   2.291
13105SOL    MW452741   7.187   6.695   2.368
13106SOL     OW52742   7.000   6.324   3.446
13106SOL    HW252743   7.069   6.262   3.423
13106SOL    HW352744   6.925   6.298   3.393
13106SOL    MW452745   7.000   6.311   3.437
13107SOL     OW52746   5.741   7.204   2.998
13107SOL    HW252747   5.724   7.150   3.075
13107SOL    HW352748   5.729   7.294   3.028
13107SOL    MW452749   5.738   7.208   3.012
13108SOL     OW52750   6.736   6.711   3.438
13108SOL    HW252751   6.721   6.804   3.423
13108SOL    HW352752   6.831   6.701   3.438
13108SOL    MW452753   6.745   6.721   3.435
13109SOL     OW52754   6.532   6.135   3.639
13109SOL    HW252755   6.622   6.136   3.606
13109SOL    HW352756   6.491   6.060   3.597
13109SOL    MW452757   6.538   6.125   3.630
13110SOL     OW52758   7.107   6.667   2.766
13110SOL    HW252759   7.110   6.601   2.697
13110SOL    HW352760   7.192   6.710   2.762
13110SOL    MW452761   7.119   6.663   2.757
13111SOL     OW52762   6.727   6.270   2.335
13111SOL    HW252763   6.753   6.294   2.246
13111SOL    HW352764   6.709   6.177   2.331
13111SOL    MW452765   6.729   6.262   2.322
13112SOL     OW52766   7.392   6.890   2.186
13112SOL    HW252767   7.348   6.931   2.261
13112SOL    HW352768   7.449   6.958   2.151
13112SOL    MW452769   7.394   6.904   2.191
13113SOL     OW52770   6.312   5.939   3.589
13113SOL    HW252771   6.322   5.865   3.529
13113SOL    HW352772   6.348   5.908   3.672
13113SOL    MW452773   6.318   5.925   3.591
13114SOL     OW52774   6.048   7.306   2.504
13114SOL    HW252775   6.080   7.394   2.482
13114SOL    HW352776   6.001   7.278   2.426
13114SOL    MW452777   6.047   7.314   2.491
13115SOL     OW52778   7.432   5.668   2.553
13115SOL    HW252779   7.486   5.619   2.615
13115SOL    HW352780   7.375   5.602   2.514
13115SOL    MW452781   7.432   5.652   2.555
13116SOL     OW52782   5.764   7.366   2.081
13116SOL    HW252783   5.793   7.456   2.073
13116SOL    HW352784   5.714   7.349   2.002
13116SOL    MW452785   5.762   7.374   2.070
13117SOL     OW52786   6.551   5.621   2.966
13117SOL    HW252787   6.510   5.699   2.928
13117SOL    HW352788   6.645   5.639   2.961
13117SOL    MW452789   6.557   5.633   2.961
13118SOL     OW52790   7.168   7.174   2.052
13118SOL    HW252791   7.216   7.243   2.098
13118SOL    HW352792   7.089   7.218   2.021
13118SOL    MW452793   7.163   7.188   2.055
13119SOL     OW52794   6.566   6.299   1.996
13119SOL    HW252795   6.568   6.246   1.917
13119SOL    HW352796   6.654   6.336   2.002
13119SOL    MW452797   6.578   6.298   1.985
13120SOL     OW52798   7.180   6.225   2.332
13120SOL    HW252799   7.219   6.225   2.419
13120SOL    HW352800   7.121   6.301   2.332
13120SOL    MW452801   7.177   6.236   2.343
13121SOL     OW52802   6.497   6.592   3.461
13121SOL    HW252803   6.474   6.572   3.551
13121SOL    HW352804   6.582   6.636   3.466
13121SOL    MW452805   6.504   6.595   3.473
13122SOL     OW52806   6.577   5.729   3.221
13122SOL    HW252807   6.583   5.691   3.134
13122SOL    HW352808   6.566   5.823   3.206
13122SOL    MW452809   6.578   5.737   3.209
13123SOL     OW52810   6.666   6.218   3.055
13123SOL    HW252811   6.741   6.247   3.002
13123SOL    HW352812   6.598   6.283   3.039
13123SOL    MW452813   6.667   6.230   3.045
13124SOL     OW52814   7.216   6.186   3.332
13124SOL    HW252815   7.197   6.095   3.311
13124SOL    HW352816   7.194   6.235   3.253
13124SOL    MW452817   7.211   6.179   3.319
13125SOL     OW52818   7.358   7.280   3.236
13125SOL    HW252819   7.286   7.242   3.287
13125SOL    HW352820   7.375   7.365   3.277
13125SOL    MW452821   7.352   7.285   3.248
13126SOL     OW52822   6.663   5.924   3.438
13126SOL    HW252823   6.629   5.963   3.357
13126SOL    HW352824   6.641   5.832   3.431
13126SOL    MW452825   6.656   5.917   3.428
13127SOL     OW52826   7.072   6.738   3.514
13127SOL    HW252827   7.154   6.779   3.544
13127SOL    HW352828   7.035   6.700   3.594
13127SOL    MW452829   7.078   6.739   3.529
13128SOL     OW52830   7.367   6.111   2.498
13128SOL    HW252831   7.456   6.080   2.515
13128SOL    HW352832   7.310   6.051   2.546
13128SOL    MW452833   7.370   6.099   2.507
13129SOL     OW52834   5.793   5.825   2.527
13129SOL    HW252835   5.784   5.765   2.453
13129SOL    HW352836   5.726   5.796   2.590
13129SOL    MW452837   5.783   5.812   2.525
13130SOL     OW52838   6.736   6.918   2.088
13130SOL    HW252839   6.686   6.920   2.170
13130SOL    HW352840   6.670   6.936   2.020
13130SOL    MW452841   6.722   6.920   2.090
13131SOL     OW52842   7.327   6.856   3.593
13131SOL    HW252843   7.377   6.782   3.625
13131SOL    HW352844   7.273   6.883   3.668
13131SOL    MW452845   7.327   6.850   3.606
13132SOL     OW52846   7.461   6.491   3.095
13132SOL    HW252847   7.477   6.529   3.008
13132SOL    HW352848   7.495   6.557   3.156
13132SOL    MW452849   7.468   6.504   3.091
13133SOL     OW52850   7.253   7.200   2.764
13133SOL    HW252851   7.282   7.267   2.825
13133SOL    HW352852   7.234   7.124   2.819
13133SOL    MW452853   7.255   7.200   2.779
13134SOL     OW52854   6.916   7.267   1.971
13134SOL    HW252855   6.842   7.230   2.021
13134SOL    HW352856   6.924   7.357   2.004
13134SOL    MW452857   6.907   7.274   1.983
13135SOL     OW52858   7.140   6.941   1.913
13135SOL    HW252859   7.087   6.990   1.849
13135SOL    HW352860   7.171   7.007   1.974
13135SOL    MW452861   7.138   6.955   1.911
13136SOL     OW52862   6.365   5.830   1.968
13136SOL    HW252863   6.313   5.750   1.956
13136SOL    HW352864   6.452   5.807   1.936
13136SOL    MW452865   6.368   5.816   1.962
13137SOL     OW52866   5.819   7.382   3.512
13137SOL    HW252867   5.793   7.450   3.450
13137SOL    HW352868   5.867   7.319   3.460
13137SOL    MW452869   5.821   7.382   3.498
13138SOL     OW52870   5.871   6.701   3.019
13138SOL    HW252871   5.924   6.776   3.044
13138SOL    HW352872   5.790   6.739   2.985
13138SOL    MW452873   5.867   6.716   3.019
13139SOL     OW52874   6.411   6.605   3.007
13139SOL    HW252875   6.439   6.514   3.019
13139SOL    HW352876   6.340   6.599   2.943
13139SOL    MW452877   6.404   6.593   3.002
13140SOL     OW52878   5.962   6.178   3.679
13140SOL    HW252879   5.909   6.258   3.686
13140SOL    HW352880   6.032   6.190   3.744
13140SOL    MW452881   5.964   6.191   3.687
13141SOL     OW52882   6.348   5.728   3.386
13141SOL    HW252883   6.325   5.636   3.388
13141SOL    HW352884   6.434   5.730   3.343
13141SOL    MW452885   6.355   5.718   3.382
13142SOL     OW52886   6.032   6.252   3.425
13142SOL    HW252887   6.112   6.302   3.411
13142SOL    HW352888   6.023   6.246   3.520
13142SOL    MW452889   6.041   6.258   3.435
13143SOL     OW52890   6.353   7.402   2.799
13143SOL    HW252891   6.442   7.417   2.829
13143SOL    HW352892   6.348   7.449   2.715
13143SOL    MW452893   6.363   7.410   2.792
13144SOL     OW52894   7.009   5.777   3.696
13144SOL    HW252895   7.065   5.704   3.722
13144SOL    HW352896   6.979   5.815   3.778
13144SOL    MW452897   7.013   5.772   3.709
13145SOL     OW52898   5.734   7.082   2.464
13145SOL    HW252899   5.706   7.121   2.546
13145SOL    HW352900   5.754   6.991   2.486
13145SOL    MW452901   5.732   7.074   2.477
13146SOL     OW52902   6.567   7.125   2.499
13146SOL    HW252903   6.650   7.079   2.483
13146SOL    HW352904   6.557   7.124   2.595
13146SOL    MW452905   6.577   7.118   2.509
13147SOL     OW52906   7.399   6.270   2.813
13147SOL    HW252907   7.488   6.300   2.795
13147SOL    HW352908   7.379   6.210   2.742
13147SOL    MW452909   7.408   6.267   2.802
13148SOL     OW52910   7.250   6.449   3.693
13148SOL    HW252911   7.305   6.373   3.674
13148SOL    HW352912   7.252   6.457   3.788
13148SOL    MW452913   7.258   6.440   3.701
13149SOL     OW52914   6.738   5.827   2.127
13149SOL    HW252915   6.671   5.803   2.064
13149SOL    HW352916   6.803   5.876   2.076
13149SOL    MW452917   6.738   5.829   2.112
13150SOL     OW52918   6.545   6.011   3.212
13150SOL    HW252919   6.464   6.052   3.240
13150SOL    HW352920   6.592   6.079   3.164
13150SOL    MW452921   6.540   6.026   3.210
13151SOL     OW52922   6.805   6.349   2.835
13151SOL    HW252923   6.818   6.443   2.845
13151SOL    HW352924   6.766   6.339   2.749
13151SOL    MW452925   6.801   6.360   2.825
13152SOL     OW52926   6.257   6.544   2.639
13152SOL    HW252927   6.168   6.535   2.672
13152SOL    HW352928   6.261   6.634   2.607
13152SOL    MW452929   6.246   6.555   2.639
13153SOL     OW52930   7.056   6.127   2.634
13153SOL    HW252931   7.001   6.048   2.633
13153SOL    HW352932   7.038   6.168   2.718
13153SOL    MW452933   7.046   6.122   2.643
13154SOL     OW52934   6.027   5.814   3.451
13154SOL    HW252935   5.948   5.832   3.503
13154SOL    HW352936   6.022   5.876   3.378
13154SOL    MW452937   6.017   5.824   3.448
13155SOL     OW52938   6.675   6.331   2.591
13155SOL    HW252939   6.612   6.263   2.615
13155SOL    HW352940   6.695   6.312   2.499
13155SOL    MW452941   6.669   6.318   2.583
13156SOL     OW52942   5.931   7.226   2.293
13156SOL    HW252943   5.892   7.273   2.219
13156SOL    HW352944   5.865   7.161   2.318
13156SOL    MW452945   5.918   7.224   2.287
13157SOL     OW52946   6.423   6.635   2.317
13157SOL    HW252947   6.425   6.609   2.224
13157SOL    HW352948   6.481   6.572   2.360
13157SOL    MW452949   6.431   6.624   2.311
13158SOL     OW52950   6.976   7.195   3.089
13158SOL    HW252951   6.901   7.241   3.127
13158SOL    HW352952   6.958   7.102   3.106
13158SOL    MW452953   6.965   7.189   3.097
13159SOL     OW52954   6.980   7.403   2.519
13159SOL    HW252955   6.923   7.356   2.458
13159SOL    HW352956   7.066   7.364   2.506
13159SOL    MW452957   6.983   7.394   2.509
13160SOL     OW52958   6.933   5.879   2.650
13160SOL    HW252959   6.961   5.811   2.711
13160SOL    HW352960   6.847   5.850   2.620
13160SOL    MW452961   6.926   5.866   2.654
13161SOL     OW52962   5.738   6.813   2.584
13161SOL    HW252963   5.802   6.845   2.647
13161SOL    HW352964   5.787   6.749   2.532
13161SOL    MW452965   5.753   6.809   2.585
13162SOL     OW52966   6.238   6.889   3.566
13162SOL    HW252967   6.286   6.972   3.553
13162SOL    HW352968   6.295   6.837   3.622
13162SOL    MW452969   6.252   6.893   3.572
13163SOL     OW52970   5.814   7.131   3.706
13163SOL    HW252971   5.870   7.055   3.721
13163SOL    HW352972   5.763   7.109   3.628
13163SOL    MW452973   5.814   7.118   3.697
13164SOL     OW52974   6.913   5.983   1.985
13164SOL    HW252975   6.886   6.049   1.921
13164SOL    HW352976   6.983   6.026   2.035
13164SOL    MW452977   6.918   5.996   1.982
13165SOL     OW52978   6.581   5.688   1.922
13165SOL    HW252979   6.637   5.680   1.844
13165SOL    HW352980   6.558   5.598   1.944
13165SOL    MW452981   6.586   5.675   1.915
13166SOL     OW52982   7.086   6.539   2.127
13166SOL    HW252983   7.053   6.628   2.117
13166SOL    HW352984   7.051   6.510   2.212
13166SOL    MW452985   7.076   6.548   2.138
13167SOL     OW52986   6.699   6.968   3.315
13167SOL    HW252987   6.610   6.974   3.283
13167SOL    HW352988   6.743   7.047   3.283
13167SOL    MW452989   6.694   6.978   3.307
13168SOL     OW52990   5.992   5.636   3.657
13168SOL    HW252991   5.920   5.601   3.605
13168SOL    HW352992   6.050   5.677   3.592
13168SOL    MW452993   5.990   5.637   3.642
13169SOL     OW52994   6.016   7.126   2.956
13169SOL    HW252995   6.061   7.188   3.013
13169SOL    HW352996   5.923   7.145   2.969
13169SOL    MW452997   6.009   7.136   2.963
13170SOL     OW52998   7.456   6.655   3.310
13170SOL    HW252999   7.371   6.668   3.269
13170SOL    HW353000   7.436   6.619   3.397
13170SOL    MW453001   7.443   6.651   3.315
13171SOL     OW53002   6.438   7.194   3.064
13171SOL    HW253003   6.462   7.183   2.973
13171SOL    HW353004   6.361   7.251   3.062
13171SOL    MW453005   6.430   7.199   3.053
13172SOL     OW53006   6.733   6.550   2.162
13172SOL    HW253007   6.643   6.571   2.137
13172SOL    HW353008   6.760   6.623   2.218
13172SOL    MW453009   6.725   6.562   2.165
13173SOL     OW53010   6.233   6.899   2.854
13173SOL    HW253011   6.226   6.878   2.948
13173SOL    HW353012   6.151   6.867   2.817
13173SOL    MW453013   6.221   6.893   2.861
13174SOL     OW53014   7.097   5.909   3.256
13174SOL    HW253015   7.044   5.911   3.336
13174SOL    HW353016   7.082   5.822   3.219
13174SOL    MW453017   7.089   5.899   3.261
13175SOL     OW53018   7.433   5.833   3.129
13175SOL    HW253019   7.414   5.900   3.064
13175SOL    HW353020   7.490   5.771   3.084
13175SOL    MW453021   7.437   5.834   3.115
13176SOL     OW53022   5.679   6.991   3.517
13176SOL    HW253023   5.723   6.924   3.463
13176SOL    HW353024   5.594   6.953   3.537
13176SOL    MW453025   5.674   6.977   3.513
13177SOL     OW53026   6.362   5.666   2.569
13177SOL    HW253027   6.291   5.727   2.551
13177SOL    HW353028   6.413   5.663   2.488
13177SOL    MW453029   6.358   5.672   2.556
13178SOL     OW53030   6.120   6.906   2.318
13178SOL    HW253031   6.113   6.938   2.408
13178SOL    HW353032   6.030   6.890   2.290
13178SOL    MW453033   6.108   6.908   2.325
13179SOL     OW53034   6.715   7.299   3.227
13179SOL    HW253035   6.635   7.284   3.177
13179SOL    HW353036   6.722   7.394   3.234
13179SOL    MW453037   6.706   7.310   3.221
13180SOL     OW53038   6.829   7.264   2.717
13180SOL    HW253039   6.876   7.337   2.676
13180SOL    HW353040   6.750   7.303   2.753
13180SOL    MW453041   6.824   7.279   2.716
13181SOL     OW53042   7.237   7.359   2.992
13181SOL    HW253043   7.280   7.329   3.072
13181SOL    HW353044   7.156   7.307   2.989
13181SOL    MW453045   7.232   7.348   3.002
13182SOL     OW53046   6.322   6.323   3.699
13182SOL    HW253047   6.392   6.265   3.671
13182SOL    HW353048   6.265   6.268   3.754
13182SOL    MW453049   6.324   6.310   3.703
13183SOL     OW53050   7.109   6.535   3.332
13183SOL    HW253051   7.114   6.588   3.412
13183SOL    HW353052   7.071   6.452   3.360
13183SOL    MW453053   7.105   6.530   3.347
13184SOL     OW53054   6.749   5.670   3.578
13184SOL    HW253055   6.744   5.577   3.559
13184SOL    HW353056   6.832   5.681   3.624
13184SOL    MW453057   6.757   5.659   3.582
13185SOL     OW53058   6.123   6.190   2.032
13185SOL    HW253059   6.089   6.246   2.102
13185SOL    HW353060   6.194   6.140   2.072
13185SOL    MW453061   6.129   6.191   2.046
13186SOL     OW53062   7.219   6.941   2.854
13186SOL    HW253063   7.254   6.923   2.767
13186SOL    HW353064   7.124   6.942   2.841
13186SOL    MW453065   7.211   6.938   2.841
13187SOL     OW53066   6.648   6.589   3.223
13187SOL    HW253067   6.691   6.624   3.301
13187SOL    HW353068   6.631   6.666   3.169
13187SOL    MW453069   6.651   6.604   3.226
13188SOL     OW53070   7.179   6.076   2.096
13188SOL    HW253071   7.171   6.147   2.033
13188SOL    HW353072   7.197   6.120   2.179
13188SOL    MW453073   7.180   6.090   2.098
13189SOL     OW53074   5.798   6.793   3.385
13189SOL    HW253075   5.826   6.746   3.463
13189SOL    HW353076   5.719   6.748   3.356
13189SOL    MW453077   5.791   6.782   3.391
13190SOL     OW53078   6.306   6.120   3.352
13190SOL    HW253079   6.278   6.208   3.376
13190SOL    HW353080   6.275   6.064   3.423
13190SOL    MW453081   6.298   6.123   3.364
13191SOL     OW53082   6.848   6.338   2.071
13191SOL    HW253083   6.895   6.356   1.990
13191SOL    HW353084   6.814   6.422   2.099
13191SOL    MW453085   6.850   6.352   2.064
13192SOL     OW53086   5.961   6.516   2.565
13192SOL    HW253087   6.019   6.572   2.513
13192SOL    HW353088   6.005   6.431   2.567
13192SOL    MW453089   5.974   6.513   2.558
13193SOL     OW53090   7.101   5.868   2.402
13193SOL    HW253091   7.023   5.818   2.427
13193SOL    HW353092   7.072   5.959   2.402
13193SOL    MW453093   7.087   5.872   2.405
13194SOL     OW53094   6.687   5.830   2.561
13194SOL    HW253095   6.707   5.905   2.505
13194SOL    HW353096   6.667   5.869   2.646
13194SOL    MW453097   6.688   5.846   2.565
13195SOL     OW53098   7.447   6.603   3.580
13195SOL    HW253099   7.360   6.583   3.616
13195SOL    HW353100   7.501   6.529   3.605
13195SOL    MW453101   7.442   6.592   3.588
13196SOL     OW53102   5.668   7.116   2.737
13196SOL    HW253103   5.700   7.120   2.828
13196SOL    HW353104   5.573   7.124   2.745
13196SOL    MW453105   5.660   7.119   2.750
13197SOL     OW53106   7.191   7.454   3.718
13197SOL    HW253107   7.236   7.378   3.683
13197SOL    HW353108   7.229   7.467   3.805
13197SOL    MW453109   7.201   7.447   3.724
13198SOL     OW53110   6.791   6.973   2.444
13198SOL    HW253111   6.814   6.924   2.522
13198SOL    HW353112   6.872   7.015   2.416
13198SOL    MW453113   6.804   6.973   2.451
13199SOL     OW53114   6.049   5.981   3.173
13199SOL    HW253115   6.082   6.062   3.213
13199SOL    HW353116   6.022   6.007   3.085
13199SOL    MW453117   6.048   5.995   3.167
13200SOL     OW53118   6.832   6.157   3.600
13200SOL    HW253119   6.884   6.092   3.553
13200SOL    HW353120   6.790   6.208   3.530
13200SOL    MW453121   6.833   6.154   3.583
13201SOL     OW53122   6.931   5.952   3.461
13201SOL    HW253123   6.838   5.936   3.448
13201SOL    HW353124   6.957   5.890   3.529
13201SOL    MW453125   6.921   5.942   3.468
13202SOL     OW53126   6.240   7.341   3.346
13202SOL    HW253127   6.157   7.326   3.391
13202SOL    HW353128   6.299   7.274   3.381
13202SOL    MW453129   6.238   7.331   3.356
13203SOL     OW53130   7.297   6.048   2.971
13203SOL    HW253131   7.230   6.081   3.031
13203SOL    HW353132   7.340   6.126   2.937
13203SOL    MW453133   7.295   6.063   2.975
13204SOL     OW53134   7.475   6.768   2.941
13204SOL    HW253135   7.468   6.708   2.866
13204SOL    HW353136   7.401   6.828   2.930
13204SOL    MW453137   7.465   6.768   2.930
13205SOL     OW53138   6.857   6.630   2.859
13205SOL    HW253139   6.871   6.602   2.950
13205SOL    HW353140   6.943   6.661   2.831
13205SOL    MW453141   6.870   6.631   2.868
13206SOL     OW53142   6.940   6.125   3.138
13206SOL    HW253143   6.961   6.126   3.045
13206SOL    HW353144   6.985   6.047   3.171
13206SOL    MW453145   6.947   6.115   3.130
13207SOL     OW53146   7.433   6.256   3.680
13207SOL    HW253147   7.470   6.201   3.749
13207SOL    HW353148   7.458   6.213   3.598
13207SOL    MW453149   7.440   6.244   3.679
13208SOL     OW53150   6.980   6.554   3.731
13208SOL    HW253151   7.046   6.502   3.685
13208SOL    HW353152   7.000   6.541   3.824
13208SOL    MW453153   6.991   6.545   3.738
13209SOL     OW53154   6.931   5.640   2.080
13209SOL    HW253155   7.005   5.684   2.123
13209SOL    HW353156   6.855   5.694   2.102
13209SOL    MW453157   6.931   5.652   2.088
13210SOL     OW53158   6.991   6.415   2.358
13210SOL    HW253159   6.906   6.385   2.328
13210SOL    HW353160   6.983   6.422   2.453
13210SOL    MW453161   6.979   6.413   2.367
13211SOL     OW53162   6.067   6.878   3.089
13211SOL    HW253163   6.079   6.905   3.180
13211SOL    HW353164   6.048   6.959   3.042
13211SOL    MW453165   6.066   6.893   3.094
13212SOL     OW53166   6.351   5.858   2.912
13212SOL    HW253167   6.324   5.860   3.003
13212SOL    HW353168   6.281   5.810   2.867
13212SOL    MW453169   6.339   5.854   2.919
13213SOL     OW53170   6.205   7.350   3.074
13213SOL    HW253171   6.257   7.427   3.051
13213SOL    HW353172   6.214   7.342   3.169
13213SOL    MW453173   6.214   7.357   3.085
13214SOL     OW53174   7.107   6.935   3.306
13214SOL    HW253175   7.092   6.864   3.369
13214SOL    HW353176   7.153   6.893   3.234
13214SOL    MW453177   7.113   6.919   3.306
13215SOL     OW53178   6.181   6.666   3.423
13215SOL    HW253179   6.218   6.671   3.335
13215SOL    HW353180   6.220   6.739   3.470
13215SOL    MW453181   6.191   6.676   3.418
13216SOL     OW53182   6.361   6.709   3.235
13216SOL    HW253183   6.420   6.655   3.288
13216SOL    HW353184   6.376   6.681   3.145
13216SOL    MW453185   6.371   6.698   3.231
13217SOL     OW53186   6.364   6.081   2.084
13217SOL    HW253187   6.437   6.130   2.047
13217SOL    HW353188   6.380   5.990   2.058
13217SOL    MW453189   6.376   6.076   2.077
13218SOL     OW53190   7.172   7.198   3.407
13218SOL    HW253191   7.214   7.183   3.492
13218SOL    HW353192   7.163   7.111   3.369
13218SOL    MW453193   7.176   7.186   3.414
13219SOL     OW53194   6.832   5.677   2.998
13219SOL    HW253195   6.887   5.686   2.920
13219SOL    HW353196   6.887   5.711   3.069
13219SOL    MW453197   6.846   5.682   2.997
13220SOL     OW53198   6.734   7.175   2.193
13220SOL    HW253199   6.742   7.093   2.144
13220SOL    HW353200   6.653   7.214   2.160
13220SOL    MW453201   6.724   7.170   2.183
13221SOL     OW53202   5.993   7.333   2.762
13221SOL    HW253203   5.997   7.244   2.797
13221SOL    HW353204   6.019   7.324   2.671
13221SOL    MW453205   5.996   7.321   2.754
13222SOL     OW53206   6.610   6.811   3.005
13222SOL    HW253207   6.542   6.745   3.021
13222SOL    HW353208   6.628   6.805   2.912
13222SOL    MW453209   6.603   6.802   2.996
13223SOL     OW53210   5.699   7.086   3.256
13223SOL    HW253211   5.689   7.044   3.342
13223SOL    HW353212   5.620   7.139   3.246
13223SOL    MW453213   5.688   7.087   3.267
13224SOL     OW53214   6.603   5.950   2.826
13224SOL    HW253215   6.533   5.902   2.871
13224SOL    HW353216   6.635   6.013   2.890
13224SOL    MW453217   6.598   5.952   2.840
13225SOL     OW53218   6.254   6.386   3.446
13225SOL    HW253219   6.247   6.481   3.434
13225SOL    HW353220   6.263   6.375   3.541
13225SOL    MW453221   6.255   6.398   3.456
13226SOL     OW53222   5.975   6.901   3.704
13226SOL    HW253223   6.047   6.903   3.641
13226SOL    HW353224   5.945   6.810   3.703
13226SOL    MW453225   5.980   6.890   3.696
13227SOL     OW53226   7.059   5.664   3.171
13227SOL    HW253227   7.130   5.610   3.135
13227SOL    HW353228   7.058   5.643   3.264
13227SOL    MW453229   7.068   5.655   3.179
13228SOL     OW53230   7.259   7.194   3.655
13228SOL    HW253231   7.232   7.191   3.746
13228SOL    HW353232   7.355   7.198   3.658
13228SOL    MW453233   7.269   7.194   3.667
13229SOL     OW53234   5.625   7.391   3.711
13229SOL    HW253235   5.675   7.369   3.633
13229SOL    HW353236   5.633   7.486   3.719
13229SOL    MW453237   5.633   7.400   3.702
13230SOL     OW53238   6.386   7.149   2.715
13230SOL    HW253239   6.314   7.086   2.728
13230SOL    HW353240   6.347   7.234   2.733
13230SOL    MW453241   6.370   7.152   2.718
13231SOL     OW53242   6.706   5.997   2.363
13231SOL    HW253243   6.728   5.934   2.295
13231SOL    HW353244   6.611   5.989   2.374
13231SOL    MW453245   6.696   5.988   2.355
13232SOL     OW53246   5.791   5.687   2.295
13232SOL    HW253247   5.862   5.708   2.234
13232SOL    HW353248   5.745   5.615   2.253
13232SOL    MW453249   5.795   5.681   2.281
13233SOL     OW53250   5.622   6.154   3.438
13233SOL    HW253251   5.686   6.220   3.413
13233SOL    HW353252   5.541   6.181   3.395
13233SOL    MW453253   5.620   6.166   3.430
13234SOL     OW53254   7.360   7.061   2.395
13234SOL    HW253255   7.330   6.994   2.456
13234SOL    HW353256   7.454   7.067   2.409
13234SOL    MW453257   7.368   7.053   2.405
13235SOL     OW53258   6.916   6.738   2.325
13235SOL    HW253259   6.888   6.824   2.358
13235SOL    HW353260   6.944   6.754   2.235
13235SOL    MW453261   6.916   6.752   2.317
13236SOL     OW53262   6.578   5.658   2.378
13236SOL    HW253263   6.615   5.717   2.443
13236SOL    HW353264   6.555   5.714   2.304
13236SOL    MW453265   6.579   5.673   2.377
13237SOL     OW53266   7.431   6.540   2.800
13237SOL    HW253267   7.422   6.572   2.711
13237SOL    HW353268   7.384   6.456   2.800
13237SOL    MW453269   7.424   6.533   2.790
13238SOL     OW53270   5.807   6.380   3.379
13238SOL    HW253271   5.828   6.449   3.317
13238SOL    HW353272   5.887   6.327   3.384
13238SOL    MW453273   5.820   6.381   3.373
13239SOL     OW53274   7.343   6.471   2.501
13239SOL    HW253275   7.437   6.460   2.489
13239SOL    HW353276   7.319   6.543   2.442
13239SOL    MW453277   7.353   6.479   2.492
13240SOL     OW53278   5.792   6.395   3.646
13240SOL    HW253279   5.718   6.339   3.672
13240SOL    HW353280   5.787   6.398   3.551
13240SOL    MW453281   5.781   6.388   3.636
13241SOL     OW53282   5.958   5.682   3.096
13241SOL    HW253283   6.001   5.766   3.116
13241SOL    HW353284   6.031   5.620   3.089
13241SOL    MW453285   5.973   5.685   3.097
13242SOL     OW53286   6.775   6.208   3.338
13242SOL    HW253287   6.811   6.181   3.254
13242SOL    HW353288   6.688   6.242   3.317
13242SOL    MW453289   6.769   6.209   3.325
13243SOL     OW53290   7.305   7.420   2.095
13243SOL    HW253291   7.372   7.453   2.035
13243SOL    HW353292   7.262   7.499   2.129
13243SOL    MW453293   7.307   7.435   2.091
13244SOL     OW53294   6.440   6.341   3.047
13244SOL    HW253295   6.398   6.259   3.023
13244SOL    HW353296   6.441   6.340   3.143
13244SOL    MW453297   6.433   6.330   3.056
13245SOL     OW53298   7.111   7.474   3.446
13245SOL    HW253299   7.114   7.380   3.429
13245SOL    HW353300   7.134   7.482   3.538
13245SOL    MW453301   7.114   7.462   3.456
13246SOL     OW53302   6.244   5.811   3.152
13246SOL    HW253303   6.175   5.874   3.173
13246SOL    HW353304   6.271   5.775   3.237
13246SOL    MW453305   6.238   5.814   3.165
13247SOL     OW53306   7.039   5.664   2.769
13247SOL    HW253307   7.127   5.673   2.806
13247SOL    HW353308   7.049   5.605   2.695
13247SOL    MW453309   7.053   5.658   2.763
13248SOL     OW53310   7.071   6.403   2.613
13248SOL    HW253311   7.151   6.418   2.562
13248SOL    HW353312   7.064   6.308   2.619
13248SOL    MW453313   7.080   6.392   2.608
13249SOL     OW53314   6.521   6.329   3.310
13249SOL    HW253315   6.590   6.396   3.307
13249SOL    HW353316   6.454   6.367   3.366
13249SOL    MW453317   6.522   6.342   3.317
13250SOL     OW53318   5.939   6.629   3.558
13250SOL    HW253319   5.893   6.545   3.560
13250SOL    HW353320   5.996   6.623   3.482
13250SOL    MW453321   5.941   6.617   3.550
13251SOL     OW53322   7.056   6.272   1.879
13251SOL    HW253323   6.984   6.248   1.821
13251SOL    HW353324   7.122   6.309   1.821
13251SOL    MW453325   7.055   6.274   1.864
13252SOL     OW53326   6.190   7.004   2.559
13252SOL    HW253327   6.255   6.937   2.580
13252SOL    HW353328   6.242   7.081   2.536
13252SOL    MW453329   6.205   7.006   2.558
13253SOL     OW53330   6.451   6.169   2.689
13253SOL    HW253331   6.391   6.187   2.761
13253SOL    HW353332   6.485   6.081   2.708
13253SOL    MW453333   6.447   6.159   2.702
13254SOL     OW53334   7.392   5.668   3.358
13254SOL    HW253335   7.313   5.714   3.386
13254SOL    HW353336   7.427   5.722   3.287
13254SOL    MW453337   7.386   5.681   3.352
13255SOL     OW53338   6.676   6.752   2.708
13255SOL    HW253339   6.768   6.733   2.726
13255SOL    HW353340   6.649   6.682   2.648
13255SOL    MW453341   6.684   6.740   2.702
13256SOL     OW53342   6.469   6.572   2.063
13256SOL    HW253343   6.455   6.484   2.028
13256SOL    HW353344   6.420   6.629   2.004
13256SOL    MW453345   6.461   6.567   2.051
13257SOL     OW53346   6.950   6.990   2.804
13257SOL    HW253347   6.923   7.074   2.769
13257SOL    HW353348   6.910   6.985   2.891
13257SOL    MW453349   6.943   6.999   2.810
13258SOL     OW53350   6.869   6.938   3.072
13258SOL    HW253351   6.880   6.905   3.161
13258SOL    HW353352   6.788   6.897   3.041
13258SOL    MW453353   6.859   6.930   3.078
13259SOL     OW53354   6.949   7.060   3.604
13259SOL    HW253355   6.949   7.154   3.620
13259SOL    HW353356   6.994   7.050   3.520
13259SOL    MW453357   6.955   7.070   3.595
13260SOL     OW53358   7.188   5.778   2.165
13260SOL    HW253359   7.181   5.782   2.260
13260SOL    HW353360   7.200   5.869   2.138
13260SOL    MW453361   7.189   5.791   2.173
13261SOL     OW53362   6.477   6.341   2.279
13261SOL    HW253363   6.457   6.327   2.186
13261SOL    HW353364   6.570   6.320   2.286
13261SOL    MW453365   6.487   6.336   2.268
13262SOL     OW53366   5.804   5.964   3.583
13262SOL    HW253367   5.761   6.023   3.520
13262SOL    HW353368   5.872   6.019   3.623
13262SOL    MW453369   5.808   5.979   3.580
13263SOL     OW53370   6.916   6.584   3.128
13263SOL    HW253371   6.979   6.581   3.201
13263SOL    HW353372   6.832   6.602   3.170
13263SOL    MW453373   6.912   6.586   3.143
13264SOL     OW53374   7.255   5.761   2.907
13264SOL    HW253375   7.300   5.679   2.926
13264SOL    HW353376   7.275   5.817   2.983
13264SOL    MW453377   7.265   5.757   2.919
13265SOL     OW53378   5.703   5.604   3.006
13265SOL    HW253379   5.694   5.605   2.911
13265SOL    HW353380   5.797   5.616   3.021
13265SOL    MW453381   5.715   5.607   2.997
13266SOL     OW53382   7.340   6.797   2.626
13266SOL    HW253383   7.319   6.743   2.549
13266SOL    HW353384   7.436   6.795   2.630
13266SOL    MW453385   7.349   6.790   2.615
13267SOL     OW53386   6.032   6.942   3.369
13267SOL    HW253387   5.953   6.892   3.392
13267SOL    HW353388   6.102   6.901   3.419
13267SOL    MW453389   6.030   6.930   3.379
13268SOL     OW53390   5.916   5.731   2.052
13268SOL    HW253391   5.845   5.786   2.020
13268SOL    HW353392   5.958   5.697   1.973
13268SOL    MW453393   5.912   5.733   2.038
13269SOL     OW53394   7.040   6.228   2.888
13269SOL    HW253395   6.963   6.274   2.854
13269SOL    HW353396   7.097   6.297   2.922
13269SOL    MW453397   7.037   6.243   2.888
13270SOL     OW53398   5.672   5.830   1.901
13270SOL    HW253399   5.639   5.909   1.945
13270SOL    HW353400   5.727   5.863   1.830
13270SOL    MW453401   5.675   5.844   1.898
13271SOL     OW53402   5.706   7.087   2.090
13271SOL    HW253403   5.723   7.171   2.132
13271SOL    HW353404   5.741   7.096   2.002
13271SOL    MW453405   5.711   7.100   2.084
13272SOL     OW53406   6.978   7.176   2.307
13272SOL    HW253407   7.041   7.166   2.236
13272SOL    HW353408   6.895   7.196   2.262
13272SOL    MW453409   6.975   7.177   2.292
13273SOL     OW53410   7.341   6.444   3.993
13273SOL    HW253411   7.382   6.386   4.058
13273SOL    HW353412   7.248   6.436   4.010
13273SOL    MW453413   7.335   6.436   4.003
13274SOL     OW53414   7.207   6.376   4.988
13274SOL    HW253415   7.162   6.443   5.039
13274SOL    HW353416   7.295   6.412   4.974
13274SOL    MW453417   7.213   6.389   4.992
13275SOL     OW53418   6.135   6.627   4.222
13275SOL    HW253419   6.225   6.602   4.206
13275SOL    HW353420   6.131   6.720   4.199
13275SOL    MW453421   6.147   6.636   4.217
13276SOL     OW53422   7.251   7.330   4.364
13276SOL    HW253423   7.263   7.276   4.442
13276SOL    HW353424   7.288   7.278   4.293
13276SOL    MW453425   7.257   7.315   4.365
13277SOL     OW53426   6.630   7.215   5.365
13277SOL    HW253427   6.671   7.251   5.286
13277SOL    HW353428   6.665   7.126   5.372
13277SOL    MW453429   6.641   7.208   5.356
13278SOL     OW53430   7.187   6.770   4.969
13278SOL    HW253431   7.108   6.735   4.927
13278SOL    HW353432   7.214   6.842   4.913
13278SOL    MW453433   7.180   6.775   4.956
13279SOL     OW53434   6.419   6.083   4.235
13279SOL    HW253435   6.394   6.171   4.263
13279SOL    HW353436   6.416   6.086   4.139
13279SOL    MW453437   6.415   6.095   4.227
13280SOL     OW53438   5.861   6.111   4.163
13280SOL    HW253439   5.893   6.199   4.145
13280SOL    HW353440   5.849   6.109   4.258
13280SOL    MW453441   5.864   6.123   4.175
13281SOL     OW53442   5.939   6.524   5.064
13281SOL    HW253443   6.002   6.471   5.015
13281SOL    HW353444   5.920   6.598   5.007
13281SOL    MW453445   5.945   6.526   5.051
13282SOL     OW53446   6.260   5.866   4.250
13282SOL    HW253447   6.318   5.942   4.252
13282SOL    HW353448   6.195   5.887   4.183
13282SOL    MW453449   6.259   5.878   4.241
13283SOL     OW53450   6.347   6.793   4.425
13283SOL    HW253451   6.427   6.796   4.477
13283SOL    HW353452   6.375   6.760   4.339
13283SOL    MW453453   6.361   6.789   4.420
13284SOL     OW53454   6.372   7.134   5.328
13284SOL    HW253455   6.456   7.160   5.367
13284SOL    HW353456   6.396   7.078   5.254
13284SOL    MW453457   6.386   7.130   5.323
13285SOL     OW53458   6.124   6.297   4.416
13285SOL    HW253459   6.109   6.217   4.467
13285SOL    HW353460   6.206   6.332   4.450
13285SOL    MW453461   6.132   6.289   4.428
13286SOL     OW53462   6.461   6.983   5.101
13286SOL    HW253463   6.425   7.049   5.041
13286SOL    HW353464   6.389   6.921   5.114
13286SOL    MW453465   6.447   6.983   5.095
13287SOL     OW53466   6.266   6.123   4.793
13287SOL    HW253467   6.172   6.119   4.811
13287SOL    HW353468   6.296   6.032   4.802
13287SOL    MW453469   6.257   6.111   4.796
13288SOL     OW53470   6.012   6.537   4.697
13288SOL    HW253471   5.967   6.544   4.613
13288SOL    HW353472   5.992   6.620   4.741
13288SOL    MW453473   6.004   6.549   4.691
13289SOL     OW53474   5.709   7.383   4.572
13289SOL    HW253475   5.798   7.375   4.607
13289SOL    HW353476   5.673   7.295   4.577
13289SOL    MW453477   5.716   7.370   4.577
13290SOL     OW53478   6.974   6.775   3.941
13290SOL    HW253479   6.892   6.811   3.907
13290SOL    HW353480   7.042   6.818   3.890
13290SOL    MW453481   6.972   6.785   3.929
13291SOL     OW53482   5.973   6.910   4.607
13291SOL    HW253483   5.949   6.963   4.683
13291SOL    HW353484   6.029   6.968   4.555
13291SOL    MW453485   5.977   6.925   4.610
13292SOL     OW53486   6.535   6.554   4.417
13292SOL    HW253487   6.449   6.541   4.457
13292SOL    HW353488   6.588   6.481   4.449
13292SOL    MW453489   6.531   6.543   4.426
13293SOL     OW53490   5.943   7.206   5.202
13293SOL    HW253491   5.851   7.182   5.187
13293SOL    HW353492   5.987   7.123   5.219
13293SOL    MW453493   5.937   7.191   5.201
13294SOL     OW53494   6.526   6.916   4.134
13294SOL    HW253495   6.503   6.978   4.202
13294SOL    HW353496   6.483   6.834   4.160
13294SOL    MW453497   6.518   6.912   4.145
13295SOL     OW53498   7.399   5.917   4.590
13295SOL    HW253499   7.336   5.897   4.659
13295SOL    HW353500   7.389   5.846   4.527
13295SOL    MW453501   7.389   5.904   4.591
13296SOL     OW53502   6.023   5.889   4.102
13296SOL    HW253503   5.997   5.851   4.018
13296SOL    HW353504   5.960   5.959   4.118
13296SOL    MW453505   6.012   5.892   4.093
13297SOL     OW53506   5.858   6.850   4.139
13297SOL    HW253507   5.806   6.918   4.095
13297SOL    HW353508   5.855   6.776   4.079
13297SOL    MW453509   5.850   6.849   4.126
13298SOL     OW53510   6.520   7.313   3.917
13298SOL    HW253511   6.475   7.329   4.000
13298SOL    HW353512   6.451   7.278   3.859
13298SOL    MW453513   6.506   7.310   3.919
13299SOL     OW53514   7.455   6.086   3.892
13299SOL    HW253515   7.364   6.088   3.920
13299SOL    HW353516   7.500   6.148   3.950
13299SOL    MW453517   7.448   6.094   3.902
13300SOL     OW53518   7.200   6.689   4.242
13300SOL    HW253519   7.110   6.689   4.277
13300SOL    HW353520   7.193   6.735   4.159
13300SOL    MW453521   7.187   6.695   4.236
13301SOL     OW53522   7.000   6.324   5.314
13301SOL    HW253523   7.069   6.262   5.291
13301SOL    HW353524   6.925   6.298   5.261
13301SOL    MW453525   7.000   6.311   5.305
13302SOL     OW53526   5.741   7.204   4.866
13302SOL    HW253527   5.724   7.150   4.943
13302SOL    HW353528   5.729   7.294   4.896
13302SOL    MW453529   5.738   7.208   4.880
13303SOL     OW53530   6.736   6.711   5.306
13303SOL    HW253531   6.721   6.804   5.291
13303SOL    HW353532   6.831   6.701   5.306
13303SOL    MW453533   6.745   6.721   5.303
13304SOL     OW53534   6.532   6.135   5.507
13304SOL    HW253535   6.622   6.136   5.474
13304SOL    HW353536   6.491   6.060   5.465
13304SOL    MW453537   6.538   6.125   5.498
13305SOL     OW53538   7.107   6.667   4.634
13305SOL    HW253539   7.110   6.601   4.565
13305SOL    HW353540   7.192   6.710   4.630
13305SOL    MW453541   7.119   6.663   4.625
13306SOL     OW53542   6.727   6.270   4.203
13306SOL    HW253543   6.753   6.294   4.114
13306SOL    HW353544   6.709   6.177   4.199
13306SOL    MW453545   6.729   6.262   4.190
13307SOL     OW53546   7.392   6.890   4.054
13307SOL    HW253547   7.348   6.931   4.129
13307SOL    HW353548   7.449   6.958   4.019
13307SOL    MW453549   7.394   6.904   4.059
13308SOL     OW53550   6.312   5.939   5.457
13308SOL    HW253551   6.322   5.865   5.397
13308SOL    HW353552   6.348   5.908   5.540
13308SOL    MW453553   6.318   5.925   5.459
13309SOL     OW53554   6.048   7.306   4.372
13309SOL    HW253555   6.080   7.394   4.350
13309SOL    HW353556   6.001   7.278   4.294
13309SOL    MW453557   6.047   7.314   4.359
13310SOL     OW53558   7.432   5.668   4.421
13310SOL    HW253559   7.486   5.619   4.483
13310SOL    HW353560   7.375   5.602   4.382
13310SOL    MW453561   7.432   5.652   4.423
13311SOL     OW53562   5.764   7.366   3.949
13311SOL    HW253563   5.793   7.456   3.941
13311SOL    HW353564   5.714   7.349   3.870
13311SOL    MW453565   5.762   7.374   3.938
13312SOL     OW53566   6.551   5.621   4.834
13312SOL    HW253567   6.510   5.699   4.796
13312SOL    HW353568   6.645   5.639   4.829
13312SOL    MW453569   6.557   5.633   4.829
13313SOL     OW53570   7.168   7.174   3.920
13313SOL    HW253571   7.216   7.243   3.966
13313SOL    HW353572   7.089   7.218   3.889
13313SOL    MW453573   7.163   7.188   3.923
13314SOL     OW53574   6.566   6.299   3.864
13314SOL    HW253575   6.568   6.246   3.785
13314SOL    HW353576   6.654   6.336   3.870
13314SOL    MW453577   6.578   6.298   3.853
13315SOL     OW53578   7.180   6.225   4.200
13315SOL    HW253579   7.219   6.225   4.287
13315SOL    HW353580   7.121   6.301   4.200
13315SOL    MW453581   7.177   6.236   4.211
13316SOL     OW53582   6.497   6.592   5.329
13316SOL    HW253583   6.474   6.572   5.419
13316SOL    HW353584   6.582   6.636   5.334
13316SOL    MW453585   6.504   6.595   5.341
13317SOL     OW53586   6.577   5.729   5.089
13317SOL    HW253587   6.583   5.691   5.002
13317SOL    HW353588   6.566   5.823   5.074
13317SOL    MW453589   6.578   5.737   5.077
13318SOL     OW53590   6.666   6.218   4.923
13318SOL    HW253591   6.741   6.247   4.870
13318SOL    HW353592   6.598   6.283   4.907
13318SOL    MW453593   6.667   6.230   4.913
13319SOL     OW53594   7.216   6.186   5.200
13319SOL    HW253595   7.197   6.095   5.179
13319SOL    HW353596   7.194   6.235   5.121
13319SOL    MW453597   7.211   6.179   5.187
13320SOL     OW53598   7.358   7.280   5.104
13320SOL    HW253599   7.286   7.242   5.155
13320SOL    HW353600   7.375   7.365   5.145
13320SOL    MW453601   7.352   7.285   5.116
13321SOL     OW53602   6.663   5.924   5.306
13321SOL    HW253603   6.629   5.963   5.225
13321SOL    HW353604   6.641   5.832   5.299
13321SOL    MW453605   6.656   5.917   5.296
13322SOL     OW53606   7.072   6.738   5.382
13322SOL    HW253607   7.154   6.779   5.412
13322SOL    HW353608   7.035   6.700   5.462
13322SOL    MW453609   7.078   6.739   5.397
13323SOL     OW53610   7.367   6.111   4.366
13323SOL    HW253611   7.456   6.080   4.383
13323SOL    HW353612   7.310   6.051   4.414
13323SOL    MW453613   7.370   6.099   4.375
13324SOL     OW53614   5.793   5.825   4.395
13324SOL    HW253615   5.784   5.765   4.321
13324SOL    HW353616   5.726   5.796   4.458
13324SOL    MW453617   5.783   5.812   4.393
13325SOL     OW53618   6.736   6.918   3.956
13325SOL    HW253619   6.686   6.920   4.038
13325SOL    HW353620   6.670   6.936   3.888
13325SOL    MW453621   6.722   6.920   3.958
13326SOL     OW53622   5.740   5.998   4.758
13326SOL    HW253623   5.712   6.089   4.767
13326SOL    HW353624   5.677   5.959   4.697
13326SOL    MW453625   5.727   6.004   4.752
13327SOL     OW53626   6.199   7.336   4.064
13327SOL    HW253627   6.120   7.294   4.097
13327SOL    HW353628   6.265   7.319   4.131
13327SOL    MW453629   6.198   7.328   4.077
13328SOL     OW53630   7.327   6.856   5.461
13328SOL    HW253631   7.377   6.782   5.493
13328SOL    HW353632   7.273   6.883   5.536
13328SOL    MW453633   7.327   6.850   5.474
13329SOL     OW53634   6.335   6.751   3.771
13329SOL    HW253635   6.257   6.697   3.758
13329SOL    HW353636   6.306   6.824   3.824
13329SOL    MW453637   6.321   6.753   3.776
13330SOL     OW53638   7.461   6.491   4.963
13330SOL    HW253639   7.477   6.529   4.876
13330SOL    HW353640   7.495   6.557   5.024
13330SOL    MW453641   7.468   6.504   4.959
13331SOL     OW53642   7.253   7.200   4.632
13331SOL    HW253643   7.282   7.267   4.693
13331SOL    HW353644   7.234   7.124   4.687
13331SOL    MW453645   7.255   7.200   4.647
13332SOL     OW53646   6.916   7.267   3.839
13332SOL    HW253647   6.842   7.230   3.889
13332SOL    HW353648   6.924   7.357   3.872
13332SOL    MW453649   6.907   7.274   3.851
13333SOL     OW53650   5.724   6.273   4.928
13333SOL    HW253651   5.786   6.303   4.994
13333SOL    HW353652   5.658   6.342   4.922
13333SOL    MW453653   5.723   6.286   4.935
13334SOL     OW53654   7.140   6.941   3.781
13334SOL    HW253655   7.087   6.990   3.717
13334SOL    HW353656   7.171   7.007   3.842
13334SOL    MW453657   7.138   6.955   3.779
13335SOL     OW53658   6.365   5.830   3.836
13335SOL    HW253659   6.313   5.750   3.824
13335SOL    HW353660   6.452   5.807   3.804
13335SOL    MW453661   6.368   5.816   3.830
13336SOL     OW53662   5.819   7.382   5.380
13336SOL    HW253663   5.793   7.450   5.318
13336SOL    HW353664   5.867   7.319   5.328
13336SOL    MW453665   5.821   7.382   5.366
13337SOL     OW53666   5.871   6.701   4.887
13337SOL    HW253667   5.924   6.776   4.912
13337SOL    HW353668   5.790   6.739   4.853
13337SOL    MW453669   5.867   6.716   4.887
13338SOL     OW53670   6.411   6.605   4.875
13338SOL    HW253671   6.439   6.514   4.887
13338SOL    HW353672   6.340   6.599   4.811
13338SOL    MW453673   6.404   6.593   4.870
13339SOL     OW53674   5.726   6.470   4.293
13339SOL    HW253675   5.817   6.485   4.320
13339SOL    HW353676   5.729   6.391   4.239
13339SOL    MW453677   5.738   6.462   4.291
13340SOL     OW53678   5.962   6.178   5.547
13340SOL    HW253679   5.909   6.258   5.554
13340SOL    HW353680   6.032   6.190   5.612
13340SOL    MW453681   5.964   6.191   5.555
13341SOL     OW53682   6.348   5.728   5.254
13341SOL    HW253683   6.325   5.636   5.256
13341SOL    HW353684   6.434   5.730   5.211
13341SOL    MW453685   6.355   5.718   5.250
13342SOL     OW53686   6.032   6.252   5.293
13342SOL    HW253687   6.112   6.302   5.279
13342SOL    HW353688   6.023   6.246   5.388
13342SOL    MW453689   6.041   6.258   5.303
13343SOL     OW53690   6.353   7.402   4.667
13343SOL    HW253691   6.442   7.417   4.697
13343SOL    HW353692   6.348   7.449   4.583
13343SOL    MW453693   6.363   7.410   4.660
13344SOL     OW53694   7.009   5.777   5.564
13344SOL    HW253695   7.065   5.704   5.590
13344SOL    HW353696   6.979   5.815   5.646
13344SOL    MW453697   7.013   5.772   5.577
13345SOL     OW53698   5.734   7.082   4.332
13345SOL    HW253699   5.706   7.121   4.414
13345SOL    HW353700   5.754   6.991   4.354
13345SOL    MW453701   5.732   7.074   4.345
13346SOL     OW53702   6.567   7.125   4.367
13346SOL    HW253703   6.650   7.079   4.351
13346SOL    HW353704   6.557   7.124   4.463
13346SOL    MW453705   6.577   7.118   4.377
13347SOL     OW53706   7.399   6.270   4.681
13347SOL    HW253707   7.488   6.300   4.663
13347SOL    HW353708   7.379   6.210   4.610
13347SOL    MW453709   7.408   6.267   4.670
13348SOL     OW53710   7.250   6.449   5.561
13348SOL    HW253711   7.305   6.373   5.542
13348SOL    HW353712   7.252   6.457   5.656
13348SOL    MW453713   7.258   6.440   5.569
13349SOL     OW53714   6.300   7.182   3.772
13349SOL    HW253715   6.240   7.251   3.742
13349SOL    HW353716   6.245   7.124   3.825
13349SOL    MW453717   6.284   7.184   3.774
13350SOL     OW53718   6.738   5.827   3.995
13350SOL    HW253719   6.671   5.803   3.932
13350SOL    HW353720   6.803   5.876   3.944
13350SOL    MW453721   6.738   5.829   3.980
13351SOL     OW53722   6.545   6.011   5.080
13351SOL    HW253723   6.464   6.052   5.108
13351SOL    HW353724   6.592   6.079   5.032
13351SOL    MW453725   6.540   6.026   5.078
13352SOL     OW53726   6.805   6.349   4.703
13352SOL    HW253727   6.818   6.443   4.713
13352SOL    HW353728   6.766   6.339   4.617
13352SOL    MW453729   6.801   6.360   4.693
13353SOL     OW53730   6.257   6.544   4.507
13353SOL    HW253731   6.168   6.535   4.540
13353SOL    HW353732   6.261   6.634   4.475
13353SOL    MW453733   6.246   6.555   4.507
13354SOL     OW53734   7.056   6.127   4.502
13354SOL    HW253735   7.001   6.048   4.501
13354SOL    HW353736   7.038   6.168   4.586
13354SOL    MW453737   7.046   6.122   4.511
13355SOL     OW53738   6.027   5.814   5.319
13355SOL    HW253739   5.948   5.832   5.371
13355SOL    HW353740   6.022   5.876   5.246
13355SOL    MW453741   6.017   5.824   5.316
13356SOL     OW53742   6.675   6.331   4.459
13356SOL    HW253743   6.612   6.263   4.483
13356SOL    HW353744   6.695   6.312   4.367
13356SOL    MW453745   6.669   6.318   4.451
13357SOL     OW53746   5.931   7.226   4.161
13357SOL    HW253747   5.892   7.273   4.087
13357SOL    HW353748   5.865   7.161   4.186
13357SOL    MW453749   5.918   7.224   4.155
13358SOL     OW53750   6.423   6.635   4.185
13358SOL    HW253751   6.425   6.609   4.092
13358SOL    HW353752   6.481   6.572   4.228
13358SOL    MW453753   6.431   6.624   4.179
13359SOL     OW53754   6.976   7.195   4.957
13359SOL    HW253755   6.901   7.241   4.995
13359SOL    HW353756   6.958   7.102   4.974
13359SOL    MW453757   6.965   7.189   4.965
13360SOL     OW53758   6.980   7.403   4.387
13360SOL    HW253759   6.923   7.356   4.326
13360SOL    HW353760   7.066   7.364   4.374
13360SOL    MW453761   6.983   7.394   4.377
13361SOL     OW53762   6.933   5.879   4.518
13361SOL    HW253763   6.961   5.811   4.579
13361SOL    HW353764   6.847   5.850   4.488
13361SOL    MW453765   6.926   5.866   4.522
13362SOL     OW53766   5.738   6.813   4.452
13362SOL    HW253767   5.802   6.845   4.515
13362SOL    HW353768   5.787   6.749   4.400
13362SOL    MW453769   5.753   6.809   4.453
13363SOL     OW53770   6.238   6.889   5.434
13363SOL    HW253771   6.286   6.972   5.421
13363SOL    HW353772   6.295   6.837   5.490
13363SOL    MW453773   6.252   6.893   5.440
13364SOL     OW53774   5.814   7.131   5.574
13364SOL    HW253775   5.870   7.055   5.589
13364SOL    HW353776   5.763   7.109   5.496
13364SOL    MW453777   5.814   7.118   5.565
13365SOL     OW53778   6.913   5.983   3.853
13365SOL    HW253779   6.886   6.049   3.789
13365SOL    HW353780   6.983   6.026   3.903
13365SOL    MW453781   6.918   5.996   3.850
13366SOL     OW53782   6.581   5.688   3.790
13366SOL    HW253783   6.637   5.680   3.712
13366SOL    HW353784   6.558   5.598   3.812
13366SOL    MW453785   6.586   5.675   3.783
13367SOL     OW53786   7.086   6.539   3.995
13367SOL    HW253787   7.053   6.628   3.985
13367SOL    HW353788   7.051   6.510   4.080
13367SOL    MW453789   7.076   6.548   4.006
13368SOL     OW53790   6.699   6.968   5.183
13368SOL    HW253791   6.610   6.974   5.151
13368SOL    HW353792   6.743   7.047   5.151
13368SOL    MW453793   6.694   6.978   5.175
13369SOL     OW53794   5.992   5.636   5.525
13369SOL    HW253795   5.920   5.601   5.473
13369SOL    HW353796   6.050   5.677   5.460
13369SOL    MW453797   5.990   5.637   5.510
13370SOL     OW53798   6.016   7.126   4.824
13370SOL    HW253799   6.061   7.188   4.881
13370SOL    HW353800   5.923   7.145   4.837
13370SOL    MW453801   6.009   7.136   4.831
13371SOL     OW53802   7.456   6.655   5.178
13371SOL    HW253803   7.371   6.668   5.137
13371SOL    HW353804   7.436   6.619   5.265
13371SOL    MW453805   7.443   6.651   5.183
13372SOL     OW53806   6.438   7.194   4.932
13372SOL    HW253807   6.462   7.183   4.841
13372SOL    HW353808   6.361   7.251   4.930
13372SOL    MW453809   6.430   7.199   4.921
13373SOL     OW53810   6.080   6.577   3.787
13373SOL    HW253811   6.003   6.590   3.843
13373SOL    HW353812   6.044   6.541   3.706
13373SOL    MW453813   6.066   6.573   3.784
13374SOL     OW53814   6.733   6.550   4.030
13374SOL    HW253815   6.643   6.571   4.005
13374SOL    HW353816   6.760   6.623   4.086
13374SOL    MW453817   6.725   6.562   4.033
13375SOL     OW53818   6.233   6.899   4.722
13375SOL    HW253819   6.226   6.878   4.816
13375SOL    HW353820   6.151   6.867   4.685
13375SOL    MW453821   6.221   6.893   4.729
13376SOL     OW53822   7.097   5.909   5.124
13376SOL    HW253823   7.044   5.911   5.204
13376SOL    HW353824   7.082   5.822   5.087
13376SOL    MW453825   7.089   5.899   5.129
13377SOL     OW53826   7.433   5.833   4.997
13377SOL    HW253827   7.414   5.900   4.932
13377SOL    HW353828   7.490   5.771   4.952
13377SOL    MW453829   7.437   5.834   4.983
13378SOL     OW53830   5.679   6.991   5.385
13378SOL    HW253831   5.723   6.924   5.331
13378SOL    HW353832   5.594   6.953   5.405
13378SOL    MW453833   5.674   6.977   5.381
13379SOL     OW53834   6.362   5.666   4.437
13379SOL    HW253835   6.291   5.727   4.419
13379SOL    HW353836   6.413   5.663   4.356
13379SOL    MW453837   6.358   5.672   4.424
13380SOL     OW53838   6.120   6.906   4.186
13380SOL    HW253839   6.113   6.938   4.276
13380SOL    HW353840   6.030   6.890   4.158
13380SOL    MW453841   6.108   6.908   4.193
13381SOL     OW53842   6.715   7.299   5.095
13381SOL    HW253843   6.635   7.284   5.045
13381SOL    HW353844   6.722   7.394   5.102
13381SOL    MW453845   6.706   7.310   5.089
13382SOL     OW53846   6.829   7.264   4.585
13382SOL    HW253847   6.876   7.337   4.544
13382SOL    HW353848   6.750   7.303   4.621
13382SOL    MW453849   6.824   7.279   4.584
13383SOL     OW53850   7.237   7.359   4.860
13383SOL    HW253851   7.280   7.329   4.940
13383SOL    HW353852   7.156   7.307   4.857
13383SOL    MW453853   7.232   7.348   4.870
13384SOL     OW53854   6.322   6.323   5.567
13384SOL    HW253855   6.392   6.265   5.539
13384SOL    HW353856   6.265   6.268   5.622
13384SOL    MW453857   6.324   6.310   5.571
13385SOL     OW53858   7.109   6.535   5.200
13385SOL    HW253859   7.114   6.588   5.280
13385SOL    HW353860   7.071   6.452   5.228
13385SOL    MW453861   7.105   6.530   5.215
13386SOL     OW53862   6.749   5.670   5.446
13386SOL    HW253863   6.744   5.577   5.427
13386SOL    HW353864   6.832   5.681   5.492
13386SOL    MW453865   6.757   5.659   5.450
13387SOL     OW53866   6.123   6.190   3.900
13387SOL    HW253867   6.089   6.246   3.970
13387SOL    HW353868   6.194   6.140   3.940
13387SOL    MW453869   6.129   6.191   3.914
13388SOL     OW53870   7.219   6.941   4.722
13388SOL    HW253871   7.254   6.923   4.635
13388SOL    HW353872   7.124   6.942   4.709
13388SOL    MW453873   7.211   6.938   4.709
13389SOL     OW53874   6.648   6.589   5.091
13389SOL    HW253875   6.691   6.624   5.169
13389SOL    HW353876   6.631   6.666   5.037
13389SOL    MW453877   6.651   6.604   5.094
13390SOL     OW53878   7.179   6.076   3.964
13390SOL    HW253879   7.171   6.147   3.901
13390SOL    HW353880   7.197   6.120   4.047
13390SOL    MW453881   7.180   6.090   3.966
13391SOL     OW53882   6.039   5.731   4.393
13391SOL    HW253883   6.089   5.774   4.324
13391SOL    HW353884   5.954   5.775   4.393
13391SOL    MW453885   6.036   5.744   4.384
13392SOL     OW53886   5.798   6.793   5.253
13392SOL    HW253887   5.826   6.746   5.331
13392SOL    HW353888   5.719   6.748   5.224
13392SOL    MW453889   5.791   6.782   5.259
13393SOL     OW53890   6.306   6.120   5.220
13393SOL    HW253891   6.278   6.208   5.244
13393SOL    HW353892   6.275   6.064   5.291
13393SOL    MW453893   6.298   6.123   5.232
13394SOL     OW53894   6.848   6.338   3.939
13394SOL    HW253895   6.895   6.356   3.858
13394SOL    HW353896   6.814   6.422   3.967
13394SOL    MW453897   6.850   6.352   3.932
13395SOL     OW53898   5.961   6.516   4.433
13395SOL    HW253899   6.019   6.572   4.381
13395SOL    HW353900   6.005   6.431   4.435
13395SOL    MW453901   5.974   6.513   4.426
13396SOL     OW53902   7.101   5.868   4.270
13396SOL    HW253903   7.023   5.818   4.295
13396SOL    HW353904   7.072   5.959   4.270
13396SOL    MW453905   7.087   5.872   4.273
13397SOL     OW53906   6.687   5.830   4.429
13397SOL    HW253907   6.707   5.905   4.373
13397SOL    HW353908   6.667   5.869   4.514
13397SOL    MW453909   6.688   5.846   4.433
13398SOL     OW53910   6.583   7.080   3.761
13398SOL    HW253911   6.610   7.158   3.713
13398SOL    HW353912   6.490   7.095   3.780
13398SOL    MW453913   6.574   7.093   3.757
13399SOL     OW53914   7.447   6.603   5.448
13399SOL    HW253915   7.360   6.583   5.484
13399SOL    HW353916   7.501   6.529   5.473
13399SOL    MW453917   7.442   6.592   5.456
13400SOL     OW53918   5.668   7.116   4.605
13400SOL    HW253919   5.700   7.120   4.696
13400SOL    HW353920   5.573   7.124   4.613
13400SOL    MW453921   5.660   7.119   4.618
13401SOL     OW53922   5.623   6.242   4.152
13401SOL    HW253923   5.563   6.214   4.222
13401SOL    HW353924   5.697   6.182   4.158
13401SOL    MW453925   5.625   6.231   4.161
13402SOL     OW53926   7.191   7.454   5.586
13402SOL    HW253927   7.236   7.378   5.551
13402SOL    HW353928   7.229   7.467   5.673
13402SOL    MW453929   7.201   7.447   5.592
13403SOL     OW53930   6.791   6.973   4.312
13403SOL    HW253931   6.814   6.924   4.390
13403SOL    HW353932   6.872   7.015   4.284
13403SOL    MW453933   6.804   6.973   4.319
13404SOL     OW53934   6.049   5.981   5.041
13404SOL    HW253935   6.082   6.062   5.081
13404SOL    HW353936   6.022   6.007   4.953
13404SOL    MW453937   6.048   5.995   5.035
13405SOL     OW53938   6.003   5.948   4.777
13405SOL    HW253939   6.033   5.862   4.748
13405SOL    HW353940   5.908   5.941   4.780
13405SOL    MW453941   5.995   5.937   4.775
13406SOL     OW53942   6.832   6.157   5.468
13406SOL    HW253943   6.884   6.092   5.421
13406SOL    HW353944   6.790   6.208   5.398
13406SOL    MW453945   6.833   6.154   5.451
13407SOL     OW53946   6.931   5.952   5.329
13407SOL    HW253947   6.838   5.936   5.316
13407SOL    HW353948   6.957   5.890   5.397
13407SOL    MW453949   6.921   5.942   5.336
13408SOL     OW53950   6.146   5.726   4.668
13408SOL    HW253951   6.156   5.635   4.694
13408SOL    HW353952   6.102   5.722   4.583
13408SOL    MW453953   6.142   5.714   4.660
13409SOL     OW53954   6.240   7.341   5.214
13409SOL    HW253955   6.157   7.326   5.259
13409SOL    HW353956   6.299   7.274   5.249
13409SOL    MW453957   6.238   7.331   5.224
13410SOL     OW53958   7.297   6.048   4.839
13410SOL    HW253959   7.230   6.081   4.899
13410SOL    HW353960   7.340   6.126   4.805
13410SOL    MW453961   7.295   6.063   4.843
13411SOL     OW53962   7.475   6.768   4.809
13411SOL    HW253963   7.468   6.708   4.734
13411SOL    HW353964   7.401   6.828   4.798
13411SOL    MW453965   7.465   6.768   4.798
13412SOL     OW53966   6.857   6.630   4.727
13412SOL    HW253967   6.871   6.602   4.818
13412SOL    HW353968   6.943   6.661   4.699
13412SOL    MW453969   6.870   6.631   4.736
13413SOL     OW53970   6.940   6.125   5.006
13413SOL    HW253971   6.961   6.126   4.913
13413SOL    HW353972   6.985   6.047   5.039
13413SOL    MW453973   6.947   6.115   4.998
13414SOL     OW53974   7.433   6.256   5.548
13414SOL    HW253975   7.470   6.201   5.617
13414SOL    HW353976   7.458   6.213   5.466
13414SOL    MW453977   7.440   6.244   5.547
13415SOL     OW53978   6.980   6.554   5.600
13415SOL    HW253979   7.046   6.502   5.554
13415SOL    HW353980   7.000   6.541   5.693
13415SOL    MW453981   6.991   6.545   5.607
13416SOL     OW53982   6.931   5.640   3.948
13416SOL    HW253983   7.005   5.684   3.991
13416SOL    HW353984   6.855   5.694   3.970
13416SOL    MW453985   6.931   5.652   3.956
13417SOL     OW53986   6.991   6.415   4.226
13417SOL    HW253987   6.906   6.385   4.196
13417SOL    HW353988   6.983   6.422   4.321
13417SOL    MW453989   6.979   6.413   4.235
13418SOL     OW53990   6.067   6.878   4.957
13418SOL    HW253991   6.079   6.905   5.048
13418SOL    HW353992   6.048   6.959   4.910
13418SOL    MW453993   6.066   6.893   4.962
13419SOL     OW53994   6.351   5.858   4.780
13419SOL    HW253995   6.324   5.860   4.871
13419SOL    HW353996   6.281   5.810   4.735
13419SOL    MW453997   6.339   5.854   4.787
13420SOL     OW53998   6.205   7.350   4.942
13420SOL    HW253999   6.257   7.427   4.919
13420SOL    HW354000   6.214   7.342   5.037
13420SOL    MW454001   6.214   7.357   4.953
13421SOL     OW54002   7.107   6.935   5.174
13421SOL    HW254003   7.092   6.864   5.237
13421SOL    HW354004   7.153   6.893   5.102
13421SOL    MW454005   7.113   6.919   5.174
13422SOL     OW54006   6.181   6.666   5.291
13422SOL    HW254007   6.218   6.671   5.203
13422SOL    HW354008   6.220   6.739   5.338
13422SOL    MW454009   6.191   6.676   5.286
13423SOL     OW54010   6.361   6.709   5.103
13423SOL    HW254011   6.420   6.655   5.156
13423SOL    HW354012   6.376   6.681   5.013
13423SOL    MW454013   6.371   6.698   5.099
13424SOL     OW54014   6.364   6.081   3.952
13424SOL    HW254015   6.437   6.130   3.915
13424SOL    HW354016   6.380   5.990   3.926
13424SOL    MW454017   6.376   6.076   3.945
13425SOL     OW54018   7.172   7.198   5.275
13425SOL    HW254019   7.214   7.183   5.360
13425SOL    HW354020   7.163   7.111   5.237
13425SOL    MW454021   7.176   7.186   5.282
13426SOL     OW54022   6.832   5.677   4.866
13426SOL    HW254023   6.887   5.686   4.788
13426SOL    HW354024   6.887   5.711   4.937
13426SOL    MW454025   6.846   5.682   4.865
13427SOL     OW54026   5.839   6.590   4.050
13427SOL    HW254027   5.776   6.606   3.979
13427SOL    HW354028   5.786   6.553   4.121
13427SOL    MW454029   5.824   6.587   4.050
13428SOL     OW54030   6.195   6.944   3.909
13428SOL    HW254031   6.210   6.920   4.001
13428SOL    HW354032   6.103   6.922   3.893
13428SOL    MW454033   6.185   6.937   3.919
13429SOL     OW54034   6.734   7.175   4.061
13429SOL    HW254035   6.742   7.093   4.012
13429SOL    HW354036   6.653   7.214   4.028
13429SOL    MW454037   6.724   7.170   4.051
13430SOL     OW54038   5.993   7.333   4.630
13430SOL    HW254039   5.997   7.244   4.665
13430SOL    HW354040   6.019   7.324   4.539
13430SOL    MW454041   5.996   7.321   4.622
13431SOL     OW54042   6.610   6.811   4.873
13431SOL    HW254043   6.542   6.745   4.889
13431SOL    HW354044   6.628   6.805   4.780
13431SOL    MW454045   6.603   6.802   4.864
13432SOL     OW54046   5.699   7.086   5.124
13432SOL    HW254047   5.689   7.044   5.210
13432SOL    HW354048   5.620   7.139   5.114
13432SOL    MW454049   5.688   7.087   5.135
13433SOL     OW54050   6.603   5.950   4.694
13433SOL    HW254051   6.533   5.902   4.739
13433SOL    HW354052   6.635   6.013   4.758
13433SOL    MW454053   6.598   5.952   4.708
13434SOL     OW54054   6.254   6.386   5.314
13434SOL    HW254055   6.247   6.481   5.302
13434SOL    HW354056   6.263   6.375   5.409
13434SOL    MW454057   6.255   6.398   5.324
13435SOL     OW54058   5.975   6.901   5.572
13435SOL    HW254059   6.047   6.903   5.509
13435SOL    HW354060   5.945   6.810   5.571
13435SOL    MW454061   5.980   6.890   5.564
13436SOL     OW54062   7.059   5.664   5.039
13436SOL    HW254063   7.130   5.610   5.003
13436SOL    HW354064   7.058   5.643   5.132
13436SOL    MW454065   7.068   5.655   5.047
13437SOL     OW54066   7.259   7.194   5.523
13437SOL    HW254067   7.232   7.191   5.614
13437SOL    HW354068   7.355   7.198   5.526
13437SOL    MW454069   7.269   7.194   5.535
13438SOL     OW54070   6.070   6.056   4.507
13438SOL    HW254071   6.141   6.004   4.470
13438SOL    HW354072   6.056   6.021   4.594
13438SOL    MW454073   6.078   6.045   4.514
13439SOL     OW54074   5.625   7.391   5.579
13439SOL    HW254075   5.675   7.369   5.501
13439SOL    HW354076   5.633   7.486   5.587
13439SOL    MW454077   5.633   7.400   5.570
13440SOL     OW54078   6.386   7.149   4.583
13440SOL    HW254079   6.314   7.086   4.596
13440SOL    HW354080   6.347   7.234   4.601
13440SOL    MW454081   6.370   7.152   4.586
13441SOL     OW54082   6.706   5.997   4.231
13441SOL    HW254083   6.728   5.934   4.163
13441SOL    HW354084   6.611   5.989   4.242
13441SOL    MW454085   6.696   5.988   4.223
13442SOL     OW54086   5.791   5.687   4.163
13442SOL    HW254087   5.862   5.708   4.102
13442SOL    HW354088   5.745   5.615   4.121
13442SOL    MW454089   5.795   5.681   4.149
13443SOL     OW54090   5.622   6.154   5.306
13443SOL    HW254091   5.686   6.220   5.281
13443SOL    HW354092   5.541   6.181   5.263
13443SOL    MW454093   5.620   6.166   5.298
13444SOL     OW54094   7.360   7.061   4.263
13444SOL    HW254095   7.330   6.994   4.324
13444SOL    HW354096   7.454   7.067   4.277
13444SOL    MW454097   7.368   7.053   4.273
13445SOL     OW54098   6.916   6.738   4.193
13445SOL    HW254099   6.888   6.824   4.226
13445SOL    HW354100   6.944   6.754   4.103
13445SOL    MW454101   6.916   6.752   4.185
13446SOL     OW54102   6.578   5.658   4.246
13446SOL    HW254103   6.615   5.717   4.311
13446SOL    HW354104   6.555   5.714   4.172
13446SOL    MW454105   6.579   5.673   4.245
13447SOL     OW54106   7.431   6.540   4.668
13447SOL    HW254107   7.422   6.572   4.579
13447SOL    HW354108   7.384   6.456   4.668
13447SOL    MW454109   7.424   6.533   4.658
13448SOL     OW54110   5.807   6.380   5.247
13448SOL    HW254111   5.828   6.449   5.185
13448SOL    HW354112   5.887   6.327   5.252
13448SOL    MW454113   5.820   6.381   5.241
13449SOL     OW54114   7.343   6.471   4.369
13449SOL    HW254115   7.437   6.460   4.357
13449SOL    HW354116   7.319   6.543   4.310
13449SOL    MW454117   7.353   6.479   4.360
13450SOL     OW54118   5.792   6.395   5.514
13450SOL    HW254119   5.718   6.339   5.540
13450SOL    HW354120   5.787   6.398   5.419
13450SOL    MW454121   5.781   6.388   5.504
13451SOL     OW54122   5.958   5.682   4.964
13451SOL    HW254123   6.001   5.766   4.984
13451SOL    HW354124   6.031   5.620   4.957
13451SOL    MW454125   5.973   5.685   4.965
13452SOL     OW54126   5.999   6.349   4.142
13452SOL    HW254127   5.999   6.444   4.127
13452SOL    HW354128   6.076   6.333   4.196
13452SOL    MW454129   6.009   6.360   4.147
13453SOL     OW54130   6.775   6.208   5.206
13453SOL    HW254131   6.811   6.181   5.122
13453SOL    HW354132   6.688   6.242   5.185
13453SOL    MW454133   6.769   6.209   5.193
13454SOL     OW54134   5.758   6.080   4.431
13454SOL    HW254135   5.820   6.087   4.504
13454SOL    HW354136   5.758   5.987   4.408
13454SOL    MW454137   5.766   6.069   4.438
13455SOL     OW54138   7.305   7.420   3.963
13455SOL    HW254139   7.372   7.453   3.903
13455SOL    HW354140   7.262   7.499   3.997
13455SOL    MW454141   7.307   7.435   3.959
13456SOL     OW54142   6.440   6.341   4.915
13456SOL    HW254143   6.398   6.259   4.891
13456SOL    HW354144   6.441   6.340   5.011
13456SOL    MW454145   6.433   6.330   4.924
13457SOL     OW54146   7.111   7.474   5.314
13457SOL    HW254147   7.114   7.380   5.297
13457SOL    HW354148   7.134   7.482   5.406
13457SOL    MW454149   7.114   7.462   5.324
13458SOL     OW54150   6.244   5.811   5.020
13458SOL    HW254151   6.175   5.874   5.041
13458SOL    HW354152   6.271   5.775   5.105
13458SOL    MW454153   6.238   5.814   5.033
13459SOL     OW54154   5.627   6.652   3.889
13459SOL    HW254155   5.596   6.717   3.952
13459SOL    HW354156   5.576   6.574   3.908
13459SOL    MW454157   5.617   6.649   3.899
13460SOL     OW54158   7.039   5.664   4.637
13460SOL    HW254159   7.127   5.673   4.674
13460SOL    HW354160   7.049   5.605   4.563
13460SOL    MW454161   7.053   5.658   4.631
13461SOL     OW54162   7.071   6.403   4.481
13461SOL    HW254163   7.151   6.418   4.430
13461SOL    HW354164   7.064   6.308   4.487
13461SOL    MW454165   7.080   6.392   4.476
13462SOL     OW54166   6.211   7.452   3.831
13462SOL    HW254167   6.116   7.452   3.823
13462SOL    HW354168   6.227   7.398   3.909
13462SOL    MW454169   6.201   7.446   3.840
13463SOL     OW54170   6.521   6.329   5.178
13463SOL    HW254171   6.590   6.396   5.175
13463SOL    HW354172   6.454   6.367   5.234
13463SOL    MW454173   6.522   6.342   5.185
13464SOL     OW54174   5.939   6.629   5.426
13464SOL    HW254175   5.893   6.545   5.428
13464SOL    HW354176   5.996   6.623   5.350
13464SOL    MW454177   5.941   6.617   5.418
13465SOL     OW54178   7.056   6.272   3.747
13465SOL    HW254179   6.984   6.248   3.689
13465SOL    HW354180   7.122   6.309   3.689
13465SOL    MW454181   7.055   6.274   3.732
13466SOL     OW54182   6.190   7.004   4.427
13466SOL    HW254183   6.255   6.937   4.448
13466SOL    HW354184   6.242   7.081   4.404
13466SOL    MW454185   6.205   7.006   4.426
13467SOL     OW54186   6.451   6.169   4.557
13467SOL    HW254187   6.391   6.187   4.629
13467SOL    HW354188   6.485   6.081   4.576
13467SOL    MW454189   6.447   6.159   4.570
13468SOL     OW54190   7.392   5.668   5.226
13468SOL    HW254191   7.313   5.714   5.254
13468SOL    HW354192   7.427   5.722   5.155
13468SOL    MW454193   7.386   5.681   5.220
13469SOL     OW54194   6.676   6.752   4.576
13469SOL    HW254195   6.768   6.733   4.594
13469SOL    HW354196   6.649   6.682   4.516
13469SOL    MW454197   6.684   6.740   4.570
13470SOL     OW54198   6.469   6.572   3.931
13470SOL    HW254199   6.455   6.484   3.896
13470SOL    HW354200   6.420   6.629   3.872
13470SOL    MW454201   6.461   6.567   3.919
13471SOL     OW54202   6.950   6.990   4.672
13471SOL    HW254203   6.923   7.074   4.637
13471SOL    HW354204   6.910   6.985   4.759
13471SOL    MW454205   6.943   6.999   4.678
13472SOL     OW54206   6.869   6.938   4.940
13472SOL    HW254207   6.880   6.905   5.029
13472SOL    HW354208   6.788   6.897   4.909
13472SOL    MW454209   6.859   6.930   4.946
13473SOL     OW54210   5.882   6.296   4.710
13473SOL    HW254211   5.832   6.295   4.791
13473SOL    HW354212   5.902   6.388   4.694
13473SOL    MW454213   5.878   6.308   4.718
13474SOL     OW54214   6.949   7.060   5.472
13474SOL    HW254215   6.949   7.154   5.488
13474SOL    HW354216   6.994   7.050   5.388
13474SOL    MW454217   6.955   7.070   5.463
13475SOL     OW54218   7.188   5.778   4.033
13475SOL    HW254219   7.181   5.782   4.128
13475SOL    HW354220   7.200   5.869   4.006
13475SOL    MW454221   7.189   5.791   4.041
13476SOL     OW54222   6.477   6.341   4.147
13476SOL    HW254223   6.457   6.327   4.054
13476SOL    HW354224   6.570   6.320   4.154
13476SOL    MW454225   6.487   6.336   4.136
13477SOL     OW54226   5.804   5.964   5.451
13477SOL    HW254227   5.761   6.023   5.388
13477SOL    HW354228   5.872   6.019   5.491
13477SOL    MW454229   5.808   5.979   5.448
13478SOL     OW54230   6.916   6.584   4.996
13478SOL    HW254231   6.979   6.581   5.069
13478SOL    HW354232   6.832   6.602   5.038
13478SOL    MW454233   6.912   6.586   5.011
13479SOL     OW54234   6.460   7.299   4.185
13479SOL    HW254235   6.518   7.370   4.212
13479SOL    HW354236   6.483   7.227   4.243
13479SOL    MW454237   6.471   7.299   4.196
13480SOL     OW54238   7.255   5.761   4.775
13480SOL    HW254239   7.300   5.679   4.794
13480SOL    HW354240   7.275   5.817   4.851
13480SOL    MW454241   7.265   5.757   4.787
13481SOL     OW54242   5.703   5.604   4.874
13481SOL    HW254243   5.694   5.605   4.779
13481SOL    HW354244   5.797   5.616   4.889
13481SOL    MW454245   5.715   5.607   4.865
13482SOL     OW54246   7.340   6.797   4.494
13482SOL    HW254247   7.319   6.743   4.417
13482SOL    HW354248   7.436   6.795   4.498
13482SOL    MW454249   7.349   6.790   4.483
13483SOL     OW54250   6.032   6.942   5.237
13483SOL    HW254251   5.953   6.892   5.260
13483SOL    HW354252   6.102   6.901   5.287
13483SOL    MW454253   6.030   6.930   5.247
13484SOL     OW54254   5.916   5.731   3.920
13484SOL    HW254255   5.845   5.786   3.888
13484SOL    HW354256   5.958   5.697   3.841
13484SOL    MW454257   5.912   5.733   3.906
13485SOL     OW54258   7.040   6.228   4.756
13485SOL    HW254259   6.963   6.274   4.722
13485SOL    HW354260   7.097   6.297   4.790
13485SOL    MW454261   7.037   6.243   4.756
13486SOL     OW54262   5.672   5.830   3.769
13486SOL    HW254263   5.639   5.909   3.813
13486SOL    HW354264   5.727   5.863   3.698
13486SOL    MW454265   5.675   5.844   3.766
13487SOL     OW54266   5.706   7.087   3.958
13487SOL    HW254267   5.723   7.171   4.000
13487SOL    HW354268   5.741   7.096   3.870
13487SOL    MW454269   5.711   7.100   3.952
13488SOL     OW54270   6.978   7.176   4.175
13488SOL    HW254271   7.041   7.166   4.104
13488SOL    HW354272   6.895   7.196   4.130
13488SOL    MW454273   6.975   7.177   4.160
13489SOL     OW54274   7.341   6.444   5.862
13489SOL    HW254275   7.382   6.386   5.927
13489SOL    HW354276   7.248   6.436   5.879
13489SOL    MW454277   7.335   6.436   5.872
13490SOL     OW54278   7.207   6.376   6.857
13490SOL    HW254279   7.162   6.443   6.908
13490SOL    HW354280   7.295   6.412   6.843
13490SOL    MW454281   7.213   6.389   6.861
13491SOL     OW54282   6.135   6.627   6.091
13491SOL    HW254283   6.225   6.602   6.075
13491SOL    HW354284   6.131   6.720   6.068
13491SOL    MW454285   6.147   6.636   6.086
13492SOL     OW54286   7.251   7.330   6.233
13492SOL    HW254287   7.263   7.276   6.311
13492SOL    HW354288   7.288   7.278   6.162
13492SOL    MW454289   7.257   7.315   6.234
13493SOL     OW54290   6.630   7.215   7.234
13493SOL    HW254291   6.671   7.251   7.155
13493SOL    HW354292   6.665   7.126   7.241
13493SOL    MW454293   6.641   7.208   7.225
13494SOL     OW54294   7.187   6.770   6.838
13494SOL    HW254295   7.108   6.735   6.796
13494SOL    HW354296   7.214   6.842   6.782
13494SOL    MW454297   7.180   6.775   6.825
13495SOL     OW54298   6.419   6.083   6.104
13495SOL    HW254299   6.394   6.171   6.132
13495SOL    HW354300   6.416   6.086   6.008
13495SOL    MW454301   6.415   6.095   6.096
13496SOL     OW54302   5.861   6.111   6.032
13496SOL    HW254303   5.893   6.199   6.014
13496SOL    HW354304   5.849   6.109   6.127
13496SOL    MW454305   5.864   6.123   6.044
13497SOL     OW54306   5.939   6.524   6.933
13497SOL    HW254307   6.002   6.471   6.884
13497SOL    HW354308   5.920   6.598   6.876
13497SOL    MW454309   5.945   6.526   6.920
13498SOL     OW54310   6.260   5.866   6.119
13498SOL    HW254311   6.318   5.942   6.121
13498SOL    HW354312   6.195   5.887   6.052
13498SOL    MW454313   6.259   5.878   6.110
13499SOL     OW54314   6.347   6.793   6.294
13499SOL    HW254315   6.427   6.796   6.346
13499SOL    HW354316   6.375   6.760   6.208
13499SOL    MW454317   6.361   6.789   6.289
13500SOL     OW54318   6.372   7.134   7.197
13500SOL    HW254319   6.456   7.160   7.236
13500SOL    HW354320   6.396   7.078   7.123
13500SOL    MW454321   6.386   7.130   7.192
13501SOL     OW54322   6.124   6.297   6.285
13501SOL    HW254323   6.109   6.217   6.336
13501SOL    HW354324   6.206   6.332   6.319
13501SOL    MW454325   6.132   6.289   6.297
13502SOL     OW54326   6.461   6.983   6.970
13502SOL    HW254327   6.425   7.049   6.910
13502SOL    HW354328   6.389   6.921   6.983
13502SOL    MW454329   6.447   6.983   6.964
13503SOL     OW54330   6.266   6.123   6.662
13503SOL    HW254331   6.172   6.119   6.680
13503SOL    HW354332   6.296   6.032   6.671
13503SOL    MW454333   6.257   6.111   6.665
13504SOL     OW54334   6.012   6.537   6.566
13504SOL    HW254335   5.967   6.544   6.482
13504SOL    HW354336   5.992   6.620   6.610
13504SOL    MW454337   6.004   6.549   6.560
13505SOL     OW54338   5.709   7.383   6.441
13505SOL    HW254339   5.798   7.375   6.476
13505SOL    HW354340   5.673   7.295   6.446
13505SOL    MW454341   5.716   7.370   6.446
13506SOL     OW54342   6.974   6.775   5.810
13506SOL    HW254343   6.892   6.811   5.776
13506SOL    HW354344   7.042   6.818   5.759
13506SOL    MW454345   6.972   6.785   5.798
13507SOL     OW54346   5.973   6.910   6.476
13507SOL    HW254347   5.949   6.963   6.552
13507SOL    HW354348   6.029   6.968   6.424
13507SOL    MW454349   5.977   6.925   6.479
13508SOL     OW54350   6.535   6.554   6.286
13508SOL    HW254351   6.449   6.541   6.326
13508SOL    HW354352   6.588   6.481   6.318
13508SOL    MW454353   6.531   6.543   6.295
13509SOL     OW54354   5.943   7.206   7.071
13509SOL    HW254355   5.851   7.182   7.056
13509SOL    HW354356   5.987   7.123   7.088
13509SOL    MW454357   5.937   7.191   7.070
13510SOL     OW54358   6.526   6.916   6.003
13510SOL    HW254359   6.503   6.978   6.071
13510SOL    HW354360   6.483   6.834   6.029
13510SOL    MW454361   6.518   6.912   6.014
13511SOL     OW54362   7.399   5.917   6.459
13511SOL    HW254363   7.336   5.897   6.528
13511SOL    HW354364   7.389   5.846   6.396
13511SOL    MW454365   7.389   5.904   6.460
13512SOL     OW54366   6.023   5.889   5.971
13512SOL    HW254367   5.997   5.851   5.887
13512SOL    HW354368   5.960   5.959   5.987
13512SOL    MW454369   6.012   5.892   5.962
13513SOL     OW54370   5.858   6.850   6.008
13513SOL    HW254371   5.806   6.918   5.964
13513SOL    HW354372   5.855   6.776   5.948
13513SOL    MW454373   5.850   6.849   5.995
13514SOL     OW54374   6.520   7.313   5.786
13514SOL    HW254375   6.475   7.329   5.869
13514SOL    HW354376   6.451   7.278   5.728
13514SOL    MW454377   6.506   7.310   5.788
13515SOL     OW54378   7.455   6.086   5.761
13515SOL    HW254379   7.364   6.088   5.789
13515SOL    HW354380   7.500   6.148   5.819
13515SOL    MW454381   7.448   6.094   5.771
13516SOL     OW54382   7.200   6.689   6.111
13516SOL    HW254383   7.110   6.689   6.146
13516SOL    HW354384   7.193   6.735   6.028
13516SOL    MW454385   7.187   6.695   6.105
13517SOL     OW54386   7.000   6.324   7.183
13517SOL    HW254387   7.069   6.262   7.160
13517SOL    HW354388   6.925   6.298   7.130
13517SOL    MW454389   7.000   6.311   7.174
13518SOL     OW54390   5.741   7.204   6.735
13518SOL    HW254391   5.724   7.150   6.812
13518SOL    HW354392   5.729   7.294   6.765
13518SOL    MW454393   5.738   7.208   6.749
13519SOL     OW54394   6.736   6.711   7.175
13519SOL    HW254395   6.721   6.804   7.160
13519SOL    HW354396   6.831   6.701   7.175
13519SOL    MW454397   6.745   6.721   7.172
13520SOL     OW54398   6.532   6.135   7.376
13520SOL    HW254399   6.622   6.136   7.343
13520SOL    HW354400   6.491   6.060   7.334
13520SOL    MW454401   6.538   6.125   7.367
13521SOL     OW54402   7.107   6.667   6.503
13521SOL    HW254403   7.110   6.601   6.434
13521SOL    HW354404   7.192   6.710   6.499
13521SOL    MW454405   7.119   6.663   6.494
13522SOL     OW54406   6.727   6.270   6.072
13522SOL    HW254407   6.753   6.294   5.983
13522SOL    HW354408   6.709   6.177   6.068
13522SOL    MW454409   6.729   6.262   6.059
13523SOL     OW54410   7.392   6.890   5.923
13523SOL    HW254411   7.348   6.931   5.998
13523SOL    HW354412   7.449   6.958   5.888
13523SOL    MW454413   7.394   6.904   5.928
13524SOL     OW54414   6.312   5.939   7.326
13524SOL    HW254415   6.322   5.865   7.266
13524SOL    HW354416   6.348   5.908   7.409
13524SOL    MW454417   6.318   5.925   7.328
13525SOL     OW54418   6.048   7.306   6.241
13525SOL    HW254419   6.080   7.394   6.219
13525SOL    HW354420   6.001   7.278   6.163
13525SOL    MW454421   6.047   7.314   6.228
13526SOL     OW54422   7.432   5.668   6.290
13526SOL    HW254423   7.486   5.619   6.352
13526SOL    HW354424   7.375   5.602   6.251
13526SOL    MW454425   7.432   5.652   6.292
13527SOL     OW54426   5.764   7.366   5.818
13527SOL    HW254427   5.793   7.456   5.810
13527SOL    HW354428   5.714   7.349   5.739
13527SOL    MW454429   5.762   7.374   5.807
13528SOL     OW54430   6.551   5.621   6.703
13528SOL    HW254431   6.510   5.699   6.665
13528SOL    HW354432   6.645   5.639   6.698
13528SOL    MW454433   6.557   5.633   6.698
13529SOL     OW54434   7.168   7.174   5.789
13529SOL    HW254435   7.216   7.243   5.835
13529SOL    HW354436   7.089   7.218   5.758
13529SOL    MW454437   7.163   7.188   5.792
13530SOL     OW54438   6.566   6.299   5.733
13530SOL    HW254439   6.568   6.246   5.654
13530SOL    HW354440   6.654   6.336   5.739
13530SOL    MW454441   6.578   6.298   5.722
13531SOL     OW54442   7.180   6.225   6.069
13531SOL    HW254443   7.219   6.225   6.156
13531SOL    HW354444   7.121   6.301   6.069
13531SOL    MW454445   7.177   6.236   6.080
13532SOL     OW54446   6.497   6.592   7.198
13532SOL    HW254447   6.474   6.572   7.288
13532SOL    HW354448   6.582   6.636   7.203
13532SOL    MW454449   6.504   6.595   7.210
13533SOL     OW54450   6.577   5.729   6.958
13533SOL    HW254451   6.583   5.691   6.871
13533SOL    HW354452   6.566   5.823   6.943
13533SOL    MW454453   6.578   5.737   6.946
13534SOL     OW54454   6.666   6.218   6.792
13534SOL    HW254455   6.741   6.247   6.739
13534SOL    HW354456   6.598   6.283   6.776
13534SOL    MW454457   6.667   6.230   6.782
13535SOL     OW54458   7.216   6.186   7.069
13535SOL    HW254459   7.197   6.095   7.048
13535SOL    HW354460   7.194   6.235   6.990
13535SOL    MW454461   7.211   6.179   7.056
13536SOL     OW54462   7.358   7.280   6.973
13536SOL    HW254463   7.286   7.242   7.024
13536SOL    HW354464   7.375   7.365   7.014
13536SOL    MW454465   7.352   7.285   6.985
13537SOL     OW54466   6.663   5.924   7.175
13537SOL    HW254467   6.629   5.963   7.094
13537SOL    HW354468   6.641   5.832   7.168
13537SOL    MW454469   6.656   5.917   7.165
13538SOL     OW54470   7.072   6.738   7.251
13538SOL    HW254471   7.154   6.779   7.281
13538SOL    HW354472   7.035   6.700   7.331
13538SOL    MW454473   7.078   6.739   7.266
13539SOL     OW54474   7.367   6.111   6.235
13539SOL    HW254475   7.456   6.080   6.252
13539SOL    HW354476   7.310   6.051   6.283
13539SOL    MW454477   7.370   6.099   6.244
13540SOL     OW54478   5.793   5.825   6.264
13540SOL    HW254479   5.784   5.765   6.190
13540SOL    HW354480   5.726   5.796   6.327
13540SOL    MW454481   5.783   5.812   6.262
13541SOL     OW54482   6.736   6.918   5.825
13541SOL    HW254483   6.686   6.920   5.907
13541SOL    HW354484   6.670   6.936   5.757
13541SOL    MW454485   6.722   6.920   5.827
13542SOL     OW54486   5.740   5.998   6.627
13542SOL    HW254487   5.712   6.089   6.636
13542SOL    HW354488   5.677   5.959   6.566
13542SOL    MW454489   5.727   6.004   6.621
13543SOL     OW54490   6.199   7.336   5.933
13543SOL    HW254491   6.120   7.294   5.966
13543SOL    HW354492   6.265   7.319   6.000
13543SOL    MW454493   6.198   7.328   5.946
13544SOL     OW54494   7.327   6.856   7.330
13544SOL    HW254495   7.377   6.782   7.362
13544SOL    HW354496   7.273   6.883   7.405
13544SOL    MW454497   7.327   6.850   7.343
13545SOL     OW54498   6.335   6.751   5.640
13545SOL    HW254499   6.257   6.697   5.627
13545SOL    HW354500   6.306   6.824   5.693
13545SOL    MW454501   6.321   6.753   5.645
13546SOL     OW54502   7.461   6.491   6.832
13546SOL    HW254503   7.477   6.529   6.745
13546SOL    HW354504   7.495   6.557   6.893
13546SOL    MW454505   7.468   6.504   6.828
13547SOL     OW54506   7.253   7.200   6.501
13547SOL    HW254507   7.282   7.267   6.562
13547SOL    HW354508   7.234   7.124   6.556
13547SOL    MW454509   7.255   7.200   6.516
13548SOL     OW54510   6.916   7.267   5.708
13548SOL    HW254511   6.842   7.230   5.758
13548SOL    HW354512   6.924   7.357   5.741
13548SOL    MW454513   6.907   7.274   5.720
13549SOL     OW54514   5.724   6.273   6.797
13549SOL    HW254515   5.786   6.303   6.863
13549SOL    HW354516   5.658   6.342   6.791
13549SOL    MW454517   5.723   6.286   6.804
13550SOL     OW54518   7.140   6.941   5.650
13550SOL    HW254519   7.087   6.990   5.586
13550SOL    HW354520   7.171   7.007   5.711
13550SOL    MW454521   7.138   6.955   5.648
13551SOL     OW54522   6.365   5.830   5.705
13551SOL    HW254523   6.313   5.750   5.693
13551SOL    HW354524   6.452   5.807   5.673
13551SOL    MW454525   6.368   5.816   5.699
13552SOL     OW54526   5.819   7.382   7.249
13552SOL    HW254527   5.793   7.450   7.187
13552SOL    HW354528   5.867   7.319   7.197
13552SOL    MW454529   5.821   7.382   7.235
13553SOL     OW54530   5.871   6.701   6.756
13553SOL    HW254531   5.924   6.776   6.781
13553SOL    HW354532   5.790   6.739   6.722
13553SOL    MW454533   5.867   6.716   6.756
13554SOL     OW54534   6.411   6.605   6.744
13554SOL    HW254535   6.439   6.514   6.756
13554SOL    HW354536   6.340   6.599   6.680
13554SOL    MW454537   6.404   6.593   6.739
13555SOL     OW54538   5.726   6.470   6.162
13555SOL    HW254539   5.817   6.485   6.189
13555SOL    HW354540   5.729   6.391   6.108
13555SOL    MW454541   5.738   6.462   6.160
13556SOL     OW54542   5.962   6.178   7.416
13556SOL    HW254543   5.909   6.258   7.423
13556SOL    HW354544   6.032   6.190   7.481
13556SOL    MW454545   5.964   6.191   7.424
13557SOL     OW54546   6.348   5.728   7.123
13557SOL    HW254547   6.325   5.636   7.125
13557SOL    HW354548   6.434   5.730   7.080
13557SOL    MW454549   6.355   5.718   7.119
13558SOL     OW54550   6.032   6.252   7.162
13558SOL    HW254551   6.112   6.302   7.148
13558SOL    HW354552   6.023   6.246   7.257
13558SOL    MW454553   6.041   6.258   7.172
13559SOL     OW54554   6.353   7.402   6.536
13559SOL    HW254555   6.442   7.417   6.566
13559SOL    HW354556   6.348   7.449   6.452
13559SOL    MW454557   6.363   7.410   6.529
13560SOL     OW54558   7.009   5.777   7.433
13560SOL    HW254559   7.065   5.704   7.459
13560SOL    HW354560   6.979   5.815   7.515
13560SOL    MW454561   7.013   5.772   7.446
13561SOL     OW54562   5.734   7.082   6.201
13561SOL    HW254563   5.706   7.121   6.283
13561SOL    HW354564   5.754   6.991   6.223
13561SOL    MW454565   5.732   7.074   6.214
13562SOL     OW54566   6.567   7.125   6.236
13562SOL    HW254567   6.650   7.079   6.220
13562SOL    HW354568   6.557   7.124   6.332
13562SOL    MW454569   6.577   7.118   6.246
13563SOL     OW54570   7.399   6.270   6.550
13563SOL    HW254571   7.488   6.300   6.532
13563SOL    HW354572   7.379   6.210   6.479
13563SOL    MW454573   7.408   6.267   6.539
13564SOL     OW54574   7.250   6.449   7.430
13564SOL    HW254575   7.305   6.373   7.411
13564SOL    HW354576   7.252   6.457   7.525
13564SOL    MW454577   7.258   6.440   7.438
13565SOL     OW54578   6.300   7.182   5.641
13565SOL    HW254579   6.240   7.251   5.611
13565SOL    HW354580   6.245   7.124   5.694
13565SOL    MW454581   6.284   7.184   5.643
13566SOL     OW54582   6.738   5.827   5.864
13566SOL    HW254583   6.671   5.803   5.801
13566SOL    HW354584   6.803   5.876   5.813
13566SOL    MW454585   6.738   5.829   5.849
13567SOL     OW54586   6.545   6.011   6.949
13567SOL    HW254587   6.464   6.052   6.977
13567SOL    HW354588   6.592   6.079   6.901
13567SOL    MW454589   6.540   6.026   6.947
13568SOL     OW54590   6.805   6.349   6.572
13568SOL    HW254591   6.818   6.443   6.582
13568SOL    HW354592   6.766   6.339   6.486
13568SOL    MW454593   6.801   6.360   6.562
13569SOL     OW54594   6.257   6.544   6.376
13569SOL    HW254595   6.168   6.535   6.409
13569SOL    HW354596   6.261   6.634   6.344
13569SOL    MW454597   6.246   6.555   6.376
13570SOL     OW54598   7.056   6.127   6.371
13570SOL    HW254599   7.001   6.048   6.370
13570SOL    HW354600   7.038   6.168   6.455
13570SOL    MW454601   7.046   6.122   6.380
13571SOL     OW54602   6.027   5.814   7.188
13571SOL    HW254603   5.948   5.832   7.240
13571SOL    HW354604   6.022   5.876   7.115
13571SOL    MW454605   6.017   5.824   7.185
13572SOL     OW54606   6.675   6.331   6.328
13572SOL    HW254607   6.612   6.263   6.352
13572SOL    HW354608   6.695   6.312   6.236
13572SOL    MW454609   6.669   6.318   6.320
13573SOL     OW54610   5.931   7.226   6.030
13573SOL    HW254611   5.892   7.273   5.956
13573SOL    HW354612   5.865   7.161   6.055
13573SOL    MW454613   5.918   7.224   6.024
13574SOL     OW54614   6.423   6.635   6.054
13574SOL    HW254615   6.425   6.609   5.961
13574SOL    HW354616   6.481   6.572   6.097
13574SOL    MW454617   6.431   6.624   6.048
13575SOL     OW54618   6.976   7.195   6.826
13575SOL    HW254619   6.901   7.241   6.864
13575SOL    HW354620   6.958   7.102   6.843
13575SOL    MW454621   6.965   7.189   6.834
13576SOL     OW54622   6.980   7.403   6.256
13576SOL    HW254623   6.923   7.356   6.195
13576SOL    HW354624   7.066   7.364   6.243
13576SOL    MW454625   6.983   7.394   6.246
13577SOL     OW54626   6.933   5.879   6.387
13577SOL    HW254627   6.961   5.811   6.448
13577SOL    HW354628   6.847   5.850   6.357
13577SOL    MW454629   6.926   5.866   6.391
13578SOL     OW54630   5.738   6.813   6.321
13578SOL    HW254631   5.802   6.845   6.384
13578SOL    HW354632   5.787   6.749   6.269
13578SOL    MW454633   5.753   6.809   6.322
13579SOL     OW54634   6.238   6.889   7.303
13579SOL    HW254635   6.286   6.972   7.290
13579SOL    HW354636   6.295   6.837   7.359
13579SOL    MW454637   6.252   6.893   7.309
13580SOL     OW54638   5.814   7.131   7.443
13580SOL    HW254639   5.870   7.055   7.458
13580SOL    HW354640   5.763   7.109   7.365
13580SOL    MW454641   5.814   7.118   7.434
13581SOL     OW54642   6.913   5.983   5.722
13581SOL    HW254643   6.886   6.049   5.658
13581SOL    HW354644   6.983   6.026   5.772
13581SOL    MW454645   6.918   5.996   5.719
13582SOL     OW54646   6.581   5.688   5.659
13582SOL    HW254647   6.637   5.680   5.581
13582SOL    HW354648   6.558   5.598   5.681
13582SOL    MW454649   6.586   5.675   5.652
13583SOL     OW54650   7.086   6.539   5.864
13583SOL    HW254651   7.053   6.628   5.854
13583SOL    HW354652   7.051   6.510   5.949
13583SOL    MW454653   7.076   6.548   5.875
13584SOL     OW54654   6.699   6.968   7.052
13584SOL    HW254655   6.610   6.974   7.020
13584SOL    HW354656   6.743   7.047   7.020
13584SOL    MW454657   6.694   6.978   7.044
13585SOL     OW54658   5.992   5.636   7.394
13585SOL    HW254659   5.920   5.601   7.342
13585SOL    HW354660   6.050   5.677   7.329
13585SOL    MW454661   5.990   5.637   7.379
13586SOL     OW54662   6.016   7.126   6.693
13586SOL    HW254663   6.061   7.188   6.750
13586SOL    HW354664   5.923   7.145   6.706
13586SOL    MW454665   6.009   7.136   6.700
13587SOL     OW54666   7.456   6.655   7.047
13587SOL    HW254667   7.371   6.668   7.006
13587SOL    HW354668   7.436   6.619   7.134
13587SOL    MW454669   7.443   6.651   7.052
13588SOL     OW54670   6.438   7.194   6.801
13588SOL    HW254671   6.462   7.183   6.710
13588SOL    HW354672   6.361   7.251   6.799
13588SOL    MW454673   6.430   7.199   6.790
13589SOL     OW54674   6.080   6.577   5.656
13589SOL    HW254675   6.003   6.590   5.712
13589SOL    HW354676   6.044   6.541   5.575
13589SOL    MW454677   6.066   6.573   5.653
13590SOL     OW54678   6.733   6.550   5.899
13590SOL    HW254679   6.643   6.571   5.874
13590SOL    HW354680   6.760   6.623   5.955
13590SOL    MW454681   6.725   6.562   5.902
13591SOL     OW54682   6.233   6.899   6.591
13591SOL    HW254683   6.226   6.878   6.685
13591SOL    HW354684   6.151   6.867   6.554
13591SOL    MW454685   6.221   6.893   6.598
13592SOL     OW54686   7.097   5.909   6.993
13592SOL    HW254687   7.044   5.911   7.073
13592SOL    HW354688   7.082   5.822   6.956
13592SOL    MW454689   7.089   5.899   6.998
13593SOL     OW54690   7.433   5.833   6.866
13593SOL    HW254691   7.414   5.900   6.801
13593SOL    HW354692   7.490   5.771   6.821
13593SOL    MW454693   7.437   5.834   6.852
13594SOL     OW54694   5.679   6.991   7.254
13594SOL    HW254695   5.723   6.924   7.200
13594SOL    HW354696   5.594   6.953   7.274
13594SOL    MW454697   5.674   6.977   7.250
13595SOL     OW54698   6.362   5.666   6.306
13595SOL    HW254699   6.291   5.727   6.288
13595SOL    HW354700   6.413   5.663   6.225
13595SOL    MW454701   6.358   5.672   6.293
13596SOL     OW54702   6.120   6.906   6.055
13596SOL    HW254703   6.113   6.938   6.145
13596SOL    HW354704   6.030   6.890   6.027
13596SOL    MW454705   6.108   6.908   6.062
13597SOL     OW54706   6.715   7.299   6.964
13597SOL    HW254707   6.635   7.284   6.914
13597SOL    HW354708   6.722   7.394   6.971
13597SOL    MW454709   6.706   7.310   6.958
13598SOL     OW54710   6.829   7.264   6.454
13598SOL    HW254711   6.876   7.337   6.413
13598SOL    HW354712   6.750   7.303   6.490
13598SOL    MW454713   6.824   7.279   6.453
13599SOL     OW54714   7.237   7.359   6.729
13599SOL    HW254715   7.280   7.329   6.809
13599SOL    HW354716   7.156   7.307   6.726
13599SOL    MW454717   7.232   7.348   6.739
13600SOL     OW54718   6.322   6.323   7.436
13600SOL    HW254719   6.392   6.265   7.408
13600SOL    HW354720   6.265   6.268   7.491
13600SOL    MW454721   6.324   6.310   7.440
13601SOL     OW54722   7.109   6.535   7.069
13601SOL    HW254723   7.114   6.588   7.149
13601SOL    HW354724   7.071   6.452   7.097
13601SOL    MW454725   7.105   6.530   7.084
13602SOL     OW54726   6.749   5.670   7.315
13602SOL    HW254727   6.744   5.577   7.296
13602SOL    HW354728   6.832   5.681   7.361
13602SOL    MW454729   6.757   5.659   7.319
13603SOL     OW54730   6.123   6.190   5.769
13603SOL    HW254731   6.089   6.246   5.839
13603SOL    HW354732   6.194   6.140   5.809
13603SOL    MW454733   6.129   6.191   5.783
13604SOL     OW54734   7.219   6.941   6.591
13604SOL    HW254735   7.254   6.923   6.504
13604SOL    HW354736   7.124   6.942   6.578
13604SOL    MW454737   7.211   6.938   6.578
13605SOL     OW54738   6.648   6.589   6.960
13605SOL    HW254739   6.691   6.624   7.038
13605SOL    HW354740   6.631   6.666   6.906
13605SOL    MW454741   6.651   6.604   6.963
13606SOL     OW54742   7.179   6.076   5.833
13606SOL    HW254743   7.171   6.147   5.770
13606SOL    HW354744   7.197   6.120   5.916
13606SOL    MW454745   7.180   6.090   5.835
13607SOL     OW54746   6.039   5.731   6.262
13607SOL    HW254747   6.089   5.774   6.193
13607SOL    HW354748   5.954   5.775   6.262
13607SOL    MW454749   6.036   5.744   6.253
13608SOL     OW54750   5.798   6.793   7.122
13608SOL    HW254751   5.826   6.746   7.200
13608SOL    HW354752   5.719   6.748   7.093
13608SOL    MW454753   5.791   6.782   7.128
13609SOL     OW54754   6.306   6.120   7.089
13609SOL    HW254755   6.278   6.208   7.113
13609SOL    HW354756   6.275   6.064   7.160
13609SOL    MW454757   6.298   6.123   7.101
13610SOL     OW54758   6.848   6.338   5.808
13610SOL    HW254759   6.895   6.356   5.727
13610SOL    HW354760   6.814   6.422   5.836
13610SOL    MW454761   6.850   6.352   5.801
13611SOL     OW54762   5.961   6.516   6.302
13611SOL    HW254763   6.019   6.572   6.250
13611SOL    HW354764   6.005   6.431   6.304
13611SOL    MW454765   5.974   6.513   6.295
13612SOL     OW54766   7.101   5.868   6.139
13612SOL    HW254767   7.023   5.818   6.164
13612SOL    HW354768   7.072   5.959   6.139
13612SOL    MW454769   7.087   5.872   6.142
13613SOL     OW54770   6.687   5.830   6.298
13613SOL    HW254771   6.707   5.905   6.242
13613SOL    HW354772   6.667   5.869   6.383
13613SOL    MW454773   6.688   5.846   6.302
13614SOL     OW54774   6.583   7.080   5.630
13614SOL    HW254775   6.610   7.158   5.582
13614SOL    HW354776   6.490   7.095   5.649
13614SOL    MW454777   6.574   7.093   5.626
13615SOL     OW54778   7.447   6.603   7.317
13615SOL    HW254779   7.360   6.583   7.353
13615SOL    HW354780   7.501   6.529   7.342
13615SOL    MW454781   7.442   6.592   7.325
13616SOL     OW54782   5.668   7.116   6.474
13616SOL    HW254783   5.700   7.120   6.565
13616SOL    HW354784   5.573   7.124   6.482
13616SOL    MW454785   5.660   7.119   6.487
13617SOL     OW54786   5.623   6.242   6.021
13617SOL    HW254787   5.563   6.214   6.091
13617SOL    HW354788   5.697   6.182   6.027
13617SOL    MW454789   5.625   6.231   6.030
13618SOL     OW54790   7.191   7.454   7.455
13618SOL    HW254791   7.236   7.378   7.420
13618SOL    HW354792   7.229   7.467   7.542
13618SOL    MW454793   7.201   7.447   7.461
13619SOL     OW54794   6.791   6.973   6.181
13619SOL    HW254795   6.814   6.924   6.259
13619SOL    HW354796   6.872   7.015   6.153
13619SOL    MW454797   6.804   6.973   6.188
13620SOL     OW54798   6.049   5.981   6.910
13620SOL    HW254799   6.082   6.062   6.950
13620SOL    HW354800   6.022   6.007   6.822
13620SOL    MW454801   6.048   5.995   6.904
13621SOL     OW54802   6.003   5.948   6.646
13621SOL    HW254803   6.033   5.862   6.617
13621SOL    HW354804   5.908   5.941   6.649
13621SOL    MW454805   5.995   5.937   6.644
13622SOL     OW54806   6.832   6.157   7.337
13622SOL    HW254807   6.884   6.092   7.290
13622SOL    HW354808   6.790   6.208   7.267
13622SOL    MW454809   6.833   6.154   7.320
13623SOL     OW54810   6.931   5.952   7.198
13623SOL    HW254811   6.838   5.936   7.185
13623SOL    HW354812   6.957   5.890   7.266
13623SOL    MW454813   6.921   5.942   7.205
13624SOL     OW54814   6.146   5.726   6.537
13624SOL    HW254815   6.156   5.635   6.563
13624SOL    HW354816   6.102   5.722   6.452
13624SOL    MW454817   6.142   5.714   6.529
13625SOL     OW54818   6.240   7.341   7.083
13625SOL    HW254819   6.157   7.326   7.128
13625SOL    HW354820   6.299   7.274   7.118
13625SOL    MW454821   6.238   7.331   7.093
13626SOL     OW54822   7.297   6.048   6.708
13626SOL    HW254823   7.230   6.081   6.768
13626SOL    HW354824   7.340   6.126   6.674
13626SOL    MW454825   7.295   6.063   6.712
13627SOL     OW54826   7.475   6.768   6.678
13627SOL    HW254827   7.468   6.708   6.603
13627SOL    HW354828   7.401   6.828   6.667
13627SOL    MW454829   7.465   6.768   6.667
13628SOL     OW54830   6.857   6.630   6.596
13628SOL    HW254831   6.871   6.602   6.687
13628SOL    HW354832   6.943   6.661   6.568
13628SOL    MW454833   6.870   6.631   6.605
13629SOL     OW54834   6.940   6.125   6.875
13629SOL    HW254835   6.961   6.126   6.782
13629SOL    HW354836   6.985   6.047   6.908
13629SOL    MW454837   6.947   6.115   6.867
13630SOL     OW54838   7.433   6.256   7.417
13630SOL    HW254839   7.470   6.201   7.486
13630SOL    HW354840   7.458   6.213   7.335
13630SOL    MW454841   7.440   6.244   7.416
13631SOL     OW54842   6.980   6.554   7.468
13631SOL    HW254843   7.046   6.502   7.422
13631SOL    HW354844   7.000   6.541   7.561
13631SOL    MW454845   6.991   6.545   7.475
13632SOL     OW54846   6.931   5.640   5.817
13632SOL    HW254847   7.005   5.684   5.860
13632SOL    HW354848   6.855   5.694   5.839
13632SOL    MW454849   6.931   5.652   5.825
13633SOL     OW54850   6.991   6.415   6.095
13633SOL    HW254851   6.906   6.385   6.065
13633SOL    HW354852   6.983   6.422   6.190
13633SOL    MW454853   6.979   6.413   6.104
13634SOL     OW54854   6.067   6.878   6.826
13634SOL    HW254855   6.079   6.905   6.917
13634SOL    HW354856   6.048   6.959   6.779
13634SOL    MW454857   6.066   6.893   6.831
13635SOL     OW54858   6.351   5.858   6.649
13635SOL    HW254859   6.324   5.860   6.740
13635SOL    HW354860   6.281   5.810   6.604
13635SOL    MW454861   6.339   5.854   6.656
13636SOL     OW54862   6.205   7.350   6.811
13636SOL    HW254863   6.257   7.427   6.788
13636SOL    HW354864   6.214   7.342   6.906
13636SOL    MW454865   6.214   7.357   6.822
13637SOL     OW54866   7.107   6.935   7.043
13637SOL    HW254867   7.092   6.864   7.106
13637SOL    HW354868   7.153   6.893   6.971
13637SOL    MW454869   7.113   6.919   7.043
13638SOL     OW54870   6.181   6.666   7.160
13638SOL    HW254871   6.218   6.671   7.072
13638SOL    HW354872   6.220   6.739   7.207
13638SOL    MW454873   6.191   6.676   7.155
13639SOL     OW54874   6.361   6.709   6.972
13639SOL    HW254875   6.420   6.655   7.025
13639SOL    HW354876   6.376   6.681   6.882
13639SOL    MW454877   6.371   6.698   6.968
13640SOL     OW54878   6.364   6.081   5.821
13640SOL    HW254879   6.437   6.130   5.784
13640SOL    HW354880   6.380   5.990   5.795
13640SOL    MW454881   6.376   6.076   5.814
13641SOL     OW54882   7.172   7.198   7.144
13641SOL    HW254883   7.214   7.183   7.229
13641SOL    HW354884   7.163   7.111   7.106
13641SOL    MW454885   7.176   7.186   7.151
13642SOL     OW54886   6.832   5.677   6.735
13642SOL    HW254887   6.887   5.686   6.657
13642SOL    HW354888   6.887   5.711   6.806
13642SOL    MW454889   6.846   5.682   6.734
13643SOL     OW54890   5.839   6.590   5.919
13643SOL    HW254891   5.776   6.606   5.848
13643SOL    HW354892   5.786   6.553   5.990
13643SOL    MW454893   5.824   6.587   5.919
13644SOL     OW54894   6.195   6.944   5.778
13644SOL    HW254895   6.210   6.920   5.870
13644SOL    HW354896   6.103   6.922   5.762
13644SOL    MW454897   6.185   6.937   5.788
13645SOL     OW54898   6.734   7.175   5.930
13645SOL    HW254899   6.742   7.093   5.881
13645SOL    HW354900   6.653   7.214   5.897
13645SOL    MW454901   6.724   7.170   5.920
13646SOL     OW54902   5.993   7.333   6.499
13646SOL    HW254903   5.997   7.244   6.534
13646SOL    HW354904   6.019   7.324   6.408
13646SOL    MW454905   5.996   7.321   6.491
13647SOL     OW54906   6.610   6.811   6.742
13647SOL    HW254907   6.542   6.745   6.758
13647SOL    HW354908   6.628   6.805   6.649
13647SOL    MW454909   6.603   6.802   6.733
13648SOL     OW54910   5.699   7.086   6.993
13648SOL    HW254911   5.689   7.044   7.079
13648SOL    HW354912   5.620   7.139   6.983
13648SOL    MW454913   5.688   7.087   7.004
13649SOL     OW54914   6.603   5.950   6.563
13649SOL    HW254915   6.533   5.902   6.608
13649SOL    HW354916   6.635   6.013   6.627
13649SOL    MW454917   6.598   5.952   6.577
13650SOL     OW54918   6.254   6.386   7.183
13650SOL    HW254919   6.247   6.481   7.171
13650SOL    HW354920   6.263   6.375   7.278
13650SOL    MW454921   6.255   6.398   7.193
13651SOL     OW54922   5.975   6.901   7.441
13651SOL    HW254923   6.047   6.903   7.378
13651SOL    HW354924   5.945   6.810   7.440
13651SOL    MW454925   5.980   6.890   7.433
13652SOL     OW54926   7.059   5.664   6.908
13652SOL    HW254927   7.130   5.610   6.872
13652SOL    HW354928   7.058   5.643   7.001
13652SOL    MW454929   7.068   5.655   6.916
13653SOL     OW54930   7.259   7.194   7.392
13653SOL    HW254931   7.232   7.191   7.483
13653SOL    HW354932   7.355   7.198   7.395
13653SOL    MW454933   7.269   7.194   7.404
13654SOL     OW54934   6.070   6.056   6.376
13654SOL    HW254935   6.141   6.004   6.339
13654SOL    HW354936   6.056   6.021   6.463
13654SOL    MW454937   6.078   6.045   6.383
13655SOL     OW54938   5.625   7.391   7.448
13655SOL    HW254939   5.675   7.369   7.370
13655SOL    HW354940   5.633   7.486   7.456
13655SOL    MW454941   5.633   7.400   7.439
13656SOL     OW54942   6.386   7.149   6.452
13656SOL    HW254943   6.314   7.086   6.465
13656SOL    HW354944   6.347   7.234   6.470
13656SOL    MW454945   6.370   7.152   6.455
13657SOL     OW54946   6.706   5.997   6.100
13657SOL    HW254947   6.728   5.934   6.032
13657SOL    HW354948   6.611   5.989   6.111
13657SOL    MW454949   6.696   5.988   6.092
13658SOL     OW54950   5.791   5.687   6.032
13658SOL    HW254951   5.862   5.708   5.971
13658SOL    HW354952   5.745   5.615   5.990
13658SOL    MW454953   5.795   5.681   6.018
13659SOL     OW54954   5.622   6.154   7.175
13659SOL    HW254955   5.686   6.220   7.150
13659SOL    HW354956   5.541   6.181   7.132
13659SOL    MW454957   5.620   6.166   7.167
13660SOL     OW54958   7.360   7.061   6.132
13660SOL    HW254959   7.330   6.994   6.193
13660SOL    HW354960   7.454   7.067   6.146
13660SOL    MW454961   7.368   7.053   6.142
13661SOL     OW54962   6.916   6.738   6.062
13661SOL    HW254963   6.888   6.824   6.095
13661SOL    HW354964   6.944   6.754   5.972
13661SOL    MW454965   6.916   6.752   6.054
13662SOL     OW54966   6.578   5.658   6.115
13662SOL    HW254967   6.615   5.717   6.180
13662SOL    HW354968   6.555   5.714   6.041
13662SOL    MW454969   6.579   5.673   6.114
13663SOL     OW54970   7.431   6.540   6.537
13663SOL    HW254971   7.422   6.572   6.448
13663SOL    HW354972   7.384   6.456   6.537
13663SOL    MW454973   7.424   6.533   6.527
13664SOL     OW54974   5.807   6.380   7.116
13664SOL    HW254975   5.828   6.449   7.054
13664SOL    HW354976   5.887   6.327   7.121
13664SOL    MW454977   5.820   6.381   7.110
13665SOL     OW54978   7.343   6.471   6.238
13665SOL    HW254979   7.437   6.460   6.226
13665SOL    HW354980   7.319   6.543   6.179
13665SOL    MW454981   7.353   6.479   6.229
13666SOL     OW54982   5.792   6.395   7.383
13666SOL    HW254983   5.718   6.339   7.409
13666SOL    HW354984   5.787   6.398   7.288
13666SOL    MW454985   5.781   6.388   7.373
13667SOL     OW54986   5.958   5.682   6.833
13667SOL    HW254987   6.001   5.766   6.853
13667SOL    HW354988   6.031   5.620   6.826
13667SOL    MW454989   5.973   5.685   6.834
13668SOL     OW54990   5.999   6.349   6.011
13668SOL    HW254991   5.999   6.444   5.996
13668SOL    HW354992   6.076   6.333   6.065
13668SOL    MW454993   6.009   6.360   6.016
13669SOL     OW54994   6.775   6.208   7.075
13669SOL    HW254995   6.811   6.181   6.991
13669SOL    HW354996   6.688   6.242   7.054
13669SOL    MW454997   6.769   6.209   7.062
13670SOL     OW54998   5.758   6.080   6.300
13670SOL    HW254999   5.820   6.087   6.373
13670SOL    HW355000   5.758   5.987   6.277
13670SOL    MW455001   5.766   6.069   6.307
13671SOL     OW55002   7.305   7.420   5.832
13671SOL    HW255003   7.372   7.453   5.772
13671SOL    HW355004   7.262   7.499   5.866
13671SOL    MW455005   7.307   7.435   5.828
13672SOL     OW55006   6.440   6.341   6.784
13672SOL    HW255007   6.398   6.259   6.760
13672SOL    HW355008   6.441   6.340   6.880
13672SOL    MW455009   6.433   6.330   6.793
13673SOL     OW55010   7.111   7.474   7.183
13673SOL    HW255011   7.114   7.380   7.166
13673SOL    HW355012   7.134   7.482   7.275
13673SOL    MW455013   7.114   7.462   7.193
13674SOL     OW55014   6.244   5.811   6.889
13674SOL    HW255015   6.175   5.874   6.910
13674SOL    HW355016   6.271   5.775   6.974
13674SOL    MW455017   6.238   5.814   6.902
13675SOL     OW55018   5.627   6.652   5.758
13675SOL    HW255019   5.596   6.717   5.821
13675SOL    HW355020   5.576   6.574   5.777
13675SOL    MW455021   5.617   6.649   5.768
13676SOL     OW55022   7.039   5.664   6.506
13676SOL    HW255023   7.127   5.673   6.543
13676SOL    HW355024   7.049   5.605   6.432
13676SOL    MW455025   7.053   5.658   6.500
13677SOL     OW55026   7.071   6.403   6.350
13677SOL    HW255027   7.151   6.418   6.299
13677SOL    HW355028   7.064   6.308   6.356
13677SOL    MW455029   7.080   6.392   6.345
13678SOL     OW55030   6.211   7.452   5.700
13678SOL    HW255031   6.116   7.452   5.692
13678SOL    HW355032   6.227   7.398   5.778
13678SOL    MW455033   6.201   7.446   5.709
13679SOL     OW55034   6.521   6.329   7.047
13679SOL    HW255035   6.590   6.396   7.044
13679SOL    HW355036   6.454   6.367   7.103
13679SOL    MW455037   6.522   6.342   7.054
13680SOL     OW55038   5.939   6.629   7.295
13680SOL    HW255039   5.893   6.545   7.297
13680SOL    HW355040   5.996   6.623   7.219
13680SOL    MW455041   5.941   6.617   7.287
13681SOL     OW55042   7.056   6.272   5.615
13681SOL    HW255043   6.984   6.248   5.557
13681SOL    HW355044   7.122   6.309   5.557
13681SOL    MW455045   7.055   6.274   5.600
13682SOL     OW55046   6.190   7.004   6.296
13682SOL    HW255047   6.255   6.937   6.317
13682SOL    HW355048   6.242   7.081   6.273
13682SOL    MW455049   6.205   7.006   6.295
13683SOL     OW55050   6.451   6.169   6.426
13683SOL    HW255051   6.391   6.187   6.498
13683SOL    HW355052   6.485   6.081   6.445
13683SOL    MW455053   6.447   6.159   6.439
13684SOL     OW55054   7.392   5.668   7.095
13684SOL    HW255055   7.313   5.714   7.123
13684SOL    HW355056   7.427   5.722   7.024
13684SOL    MW455057   7.386   5.681   7.089
13685SOL     OW55058   6.676   6.752   6.445
13685SOL    HW255059   6.768   6.733   6.463
13685SOL    HW355060   6.649   6.682   6.385
13685SOL    MW455061   6.684   6.740   6.439
13686SOL     OW55062   6.469   6.572   5.800
13686SOL    HW255063   6.455   6.484   5.765
13686SOL    HW355064   6.420   6.629   5.741
13686SOL    MW455065   6.461   6.567   5.788
13687SOL     OW55066   6.950   6.990   6.541
13687SOL    HW255067   6.923   7.074   6.506
13687SOL    HW355068   6.910   6.985   6.628
13687SOL    MW455069   6.943   6.999   6.547
13688SOL     OW55070   6.869   6.938   6.809
13688SOL    HW255071   6.880   6.905   6.898
13688SOL    HW355072   6.788   6.897   6.778
13688SOL    MW455073   6.859   6.930   6.815
13689SOL     OW55074   5.882   6.296   6.579
13689SOL    HW255075   5.832   6.295   6.660
13689SOL    HW355076   5.902   6.388   6.563
13689SOL    MW455077   5.878   6.308   6.587
13690SOL     OW55078   6.949   7.060   7.341
13690SOL    HW255079   6.949   7.154   7.357
13690SOL    HW355080   6.994   7.050   7.257
13690SOL    MW455081   6.955   7.070   7.332
13691SOL     OW55082   7.188   5.778   5.902
13691SOL    HW255083   7.181   5.782   5.997
13691SOL    HW355084   7.200   5.869   5.875
13691SOL    MW455085   7.189   5.791   5.910
13692SOL     OW55086   6.477   6.341   6.016
13692SOL    HW255087   6.457   6.327   5.923
13692SOL    HW355088   6.570   6.320   6.023
13692SOL    MW455089   6.487   6.336   6.005
13693SOL     OW55090   5.804   5.964   7.320
13693SOL    HW255091   5.761   6.023   7.257
13693SOL    HW355092   5.872   6.019   7.360
13693SOL    MW455093   5.808   5.979   7.317
13694SOL     OW55094   6.916   6.584   6.865
13694SOL    HW255095   6.979   6.581   6.938
13694SOL    HW355096   6.832   6.602   6.907
13694SOL    MW455097   6.912   6.586   6.880
13695SOL     OW55098   6.460   7.299   6.054
13695SOL    HW255099   6.518   7.370   6.081
13695SOL    HW355100   6.483   7.227   6.112
13695SOL    MW455101   6.471   7.299   6.065
13696SOL     OW55102   7.255   5.761   6.644
13696SOL    HW255103   7.300   5.679   6.663
13696SOL    HW355104   7.275   5.817   6.720
13696SOL    MW455105   7.265   5.757   6.656
13697SOL     OW55106   5.703   5.604   6.743
13697SOL    HW255107   5.694   5.605   6.648
13697SOL    HW355108   5.797   5.616   6.758
13697SOL    MW455109   5.715   5.607   6.734
13698SOL     OW55110   7.340   6.797   6.363
13698SOL    HW255111   7.319   6.743   6.286
13698SOL    HW355112   7.436   6.795   6.367
13698SOL    MW455113   7.349   6.790   6.352
13699SOL     OW55114   6.032   6.942   7.106
13699SOL    HW255115   5.953   6.892   7.129
13699SOL    HW355116   6.102   6.901   7.156
13699SOL    MW455117   6.030   6.930   7.116
13700SOL     OW55118   5.916   5.731   5.789
13700SOL    HW255119   5.845   5.786   5.757
13700SOL    HW355120   5.958   5.697   5.710
13700SOL    MW455121   5.912   5.733   5.775
13701SOL     OW55122   7.040   6.228   6.625
13701SOL    HW255123   6.963   6.274   6.591
13701SOL    HW355124   7.097   6.297   6.659
13701SOL    MW455125   7.037   6.243   6.625
13702SOL     OW55126   5.672   5.830   5.638
13702SOL    HW255127   5.639   5.909   5.682
13702SOL    HW355128   5.727   5.863   5.567
13702SOL    MW455129   5.675   5.844   5.635
13703SOL     OW55130   5.706   7.087   5.827
13703SOL    HW255131   5.723   7.171   5.869
13703SOL    HW355132   5.741   7.096   5.739
13703SOL    MW455133   5.711   7.100   5.821
13704SOL     OW55134   6.978   7.176   6.044
13704SOL    HW255135   7.041   7.166   5.973
13704SOL    HW355136   6.895   7.196   5.999
13704SOL    MW455137   6.975   7.177   6.029
13705SOL     OW55138   1.736   0.839   7.757
13705SOL    HW255139   1.777   0.781   7.822
13705SOL    HW355140   1.643   0.831   7.774
13705SOL    MW455141   1.730   0.831   7.767
13706SOL     OW55142   1.369   1.170   7.705
13706SOL    HW255143   1.287   1.206   7.671
13706SOL    HW355144   1.437   1.213   7.654
13706SOL    MW455145   1.367   1.180   7.693
13707SOL     OW55146   1.850   0.481   7.656
13707SOL    HW255147   1.759   0.483   7.684
13707SOL    HW355148   1.895   0.543   7.714
13707SOL    MW455149   1.843   0.489   7.666
13708SOL     OW55150   1.595   1.084   8.006
13708SOL    HW255151   1.505   1.084   8.041
13708SOL    HW355152   1.588   1.130   7.923
13708SOL    MW455153   1.582   1.090   8.000
13709SOL     OW55154   1.787   1.285   7.818
13709SOL    HW255155   1.743   1.326   7.893
13709SOL    HW355156   1.844   1.353   7.783
13709SOL    MW455157   1.789   1.299   7.823
13710SOL     OW55158   1.563   1.569   7.684
13710SOL    HW255159   1.611   1.638   7.730
13710SOL    HW355160   1.484   1.613   7.653
13710SOL    MW455161   1.558   1.583   7.687
13711SOL     OW55162   0.961   0.694   7.628
13711SOL    HW255163   0.963   0.641   7.549
13711SOL    HW355164   1.049   0.731   7.634
13711SOL    MW455165   0.973   0.693   7.617
13712SOL     OW55166   1.575   0.620   7.964
13712SOL    HW255167   1.614   0.620   8.051
13712SOL    HW355168   1.516   0.696   7.964
13712SOL    MW455169   1.572   0.631   7.975
13713SOL     OW55170   1.131   1.313   7.720
13713SOL    HW255171   1.081   1.315   7.802
13713SOL    HW355172   1.065   1.331   7.652
13713SOL    MW455173   1.117   1.315   7.722
13714SOL     OW55174   0.730   1.146   7.535
13714SOL    HW255175   0.652   1.092   7.522
13714SOL    HW355176   0.701   1.219   7.588
13714SOL    MW455177   0.716   1.148   7.540
13715SOL     OW55178   1.311   1.662   7.603
13715SOL    HW255179   1.237   1.625   7.653
13715SOL    HW355180   1.319   1.752   7.636
13715SOL    MW455181   1.302   1.669   7.615
13716SOL     OW55182   1.535   1.336   7.545
13716SOL    HW255183   1.482   1.385   7.481
13716SOL    HW355184   1.566   1.402   7.606
13716SOL    MW455185   1.533   1.350   7.543
13717SOL     OW55186   0.760   0.225   7.600
13717SOL    HW255187   0.708   0.145   7.588
13717SOL    HW355188   0.847   0.202   7.568
13717SOL    MW455189   0.763   0.211   7.594
13718SOL     OW55190   0.695   1.577   7.536
13718SOL    HW255191   0.635   1.646   7.506
13718SOL    HW355192   0.640   1.519   7.589
13718SOL    MW455193   0.679   1.579   7.538
13719SOL     OW55194   1.133   0.222   7.759
13719SOL    HW255195   1.066   0.198   7.696
13719SOL    HW355196   1.198   0.271   7.708
13719SOL    MW455197   1.133   0.224   7.744
13720SOL     OW55198   0.326   1.621   7.925
13720SOL    HW255199   0.287   1.668   7.851
13720SOL    HW355200   0.260   1.556   7.950
13720SOL    MW455201   0.313   1.619   7.919
13721SOL     OW55202   1.308   0.378   7.617
13721SOL    HW255203   1.281   0.444   7.553
13721SOL    HW355204   1.378   0.421   7.667
13721SOL    MW455205   1.313   0.391   7.614
13722SOL     OW55206   0.976   0.083   7.554
13722SOL    HW255207   1.032   0.075   7.476
13722SOL    HW355208   0.953  -0.007   7.576
13722SOL    MW455209   0.981   0.070   7.547
13723SOL     OW55210   1.481   0.934   7.759
13723SOL    HW255211   1.448   1.023   7.749
13723SOL    HW355212   1.446   0.905   7.844
13723SOL    MW455213   1.471   0.943   7.770
13724SOL     OW55214   0.475   0.972   7.551
13724SOL    HW255215   0.398   0.985   7.607
13724SOL    HW355216   0.439   0.936   7.470
13724SOL    MW455217   0.461   0.968   7.548
13725SOL     OW55218   1.128   0.945   7.794
13725SOL    HW255219   1.038   0.966   7.769
13725SOL    HW355220   1.155   1.018   7.850
13725SOL    MW455221   1.120   0.957   7.797
13726SOL     OW55222   0.518   0.585   7.664
13726SOL    HW255223   0.484   0.641   7.734
13726SOL    HW355224   0.589   0.535   7.704
13726SOL    MW455225   0.524   0.586   7.678
13727SOL     OW55226   1.574   0.471   7.728
13727SOL    HW255227   1.566   0.542   7.665
13727SOL    HW355228   1.592   0.515   7.811
13727SOL    MW455229   1.575   0.485   7.730
13728SOL     OW55230   1.243   0.733   7.703
13728SOL    HW255231   1.290   0.751   7.622
13728SOL    HW355232   1.209   0.817   7.731
13728SOL    MW455233   1.245   0.747   7.696
13729SOL     OW55234   0.978   1.475   7.525
13729SOL    HW255235   1.005   1.553   7.477
13729SOL    HW355236   0.885   1.490   7.544
13729SOL    MW455237   0.969   1.488   7.521
13730SOL     OW55238   1.326   0.035   7.712
13730SOL    HW255239   1.400   0.079   7.755
13730SOL    HW355240   1.250   0.089   7.734
13730SOL    MW455241   1.326   0.047   7.720
13731SOL     OW55242   1.386   0.810   7.990
13731SOL    HW255243   1.301   0.780   7.960
13731SOL    HW355244   1.378   0.817   8.085
13731SOL    MW455245   1.374   0.808   7.999
13732SOL     OW55246   0.590   1.339   7.673
13732SOL    HW255247   0.605   1.315   7.765
13732SOL    HW355248   0.498   1.317   7.657
13732SOL    MW455249   0.580   1.332   7.683
13733SOL     OW55250   1.101   0.392   7.995
13733SOL    HW255251   1.123   0.329   7.927
13733SOL    HW355252   1.006   0.384   8.006
13733SOL    MW455253   1.091   0.383   7.987
13734SOL     OW55254   1.311   1.133   7.957
13734SOL    HW255255   1.283   1.219   7.990
13734SOL    HW355256   1.339   1.149   7.867
13734SOL    MW455257   1.311   1.147   7.949
13735SOL     OW55258   1.700   1.815   7.727
13735SOL    HW255259   1.767   1.848   7.667
13735SOL    HW355260   1.657   1.894   7.761
13735SOL    MW455261   1.702   1.830   7.723
13736SOL     OW55262   1.451   0.667   7.511
13736SOL    HW255263   1.379   0.643   7.453
13736SOL    HW355264   1.517   0.704   7.453
13736SOL    MW455265   1.450   0.669   7.496
13737SOL     OW55266   0.864   0.967   7.695
13737SOL    HW255267   0.850   0.879   7.660
13737SOL    HW355268   0.815   1.024   7.636
13737SOL    MW455269   0.856   0.962   7.683
13738SOL     OW55270   1.583   0.173   7.797
13738SOL    HW255271   1.576   0.177   7.892
13738SOL    HW355272   1.595   0.264   7.770
13738SOL    MW455273   1.584   0.186   7.805
13739SOL     OW55274   0.311   0.126   7.684
13739SOL    HW255275   0.240   0.181   7.652
13739SOL    HW355276   0.353   0.092   7.605
13739SOL    MW455277   0.307   0.128   7.670
13740SOL     OW55278   0.067   0.225   7.533
13740SOL    HW255279   0.034   0.304   7.577
13740SOL    HW355280   0.122   0.258   7.462
13740SOL    MW455281   0.070   0.239   7.530
13741SOL     OW55282   1.736   2.707   7.757
13741SOL    HW255283   1.777   2.649   7.822
13741SOL    HW355284   1.643   2.699   7.774
13741SOL    MW455285   1.730   2.699   7.767
13742SOL     OW55286   1.369   3.038   7.705
13742SOL    HW255287   1.287   3.074   7.671
13742SOL    HW355288   1.437   3.081   7.654
13742SOL    MW455289   1.367   3.048   7.693
13743SOL     OW55290   0.253   3.113   7.903
13743SOL    HW255291   0.201   3.181   7.859
13743SOL    HW355292   0.250   3.039   7.843
13743SOL    MW455293   0.245   3.112   7.890
13744SOL     OW55294   0.915   3.576   7.681
13744SOL    HW255295   0.870   3.592   7.764
13744SOL    HW355296   0.846   3.541   7.623
13744SOL    MW455297   0.901   3.573   7.683
13745SOL     OW55298   1.850   2.349   7.656
13745SOL    HW255299   1.759   2.351   7.684
13745SOL    HW355300   1.895   2.411   7.714
13745SOL    MW455301   1.843   2.357   7.666
13746SOL     OW55302   1.595   2.952   8.006
13746SOL    HW255303   1.505   2.952   8.041
13746SOL    HW355304   1.588   2.998   7.923
13746SOL    MW455305   1.582   2.958   8.000
13747SOL     OW55306   1.787   3.153   7.818
13747SOL    HW255307   1.743   3.194   7.893
13747SOL    HW355308   1.844   3.221   7.783
13747SOL    MW455309   1.789   3.167   7.823
13748SOL     OW55310   0.159   3.629   7.713
13748SOL    HW255311   0.188   3.719   7.705
13748SOL    HW355312   0.109   3.612   7.634
13748SOL    MW455313   0.157   3.637   7.702
13749SOL     OW55314   1.563   3.437   7.684
13749SOL    HW255315   1.611   3.506   7.730
13749SOL    HW355316   1.484   3.481   7.653
13749SOL    MW455317   1.558   3.451   7.687
13750SOL     OW55318   0.961   2.562   7.628
13750SOL    HW255319   0.963   2.509   7.549
13750SOL    HW355320   1.049   2.599   7.634
13750SOL    MW455321   0.973   2.561   7.617
13751SOL     OW55322   1.575   2.488   7.964
13751SOL    HW255323   1.614   2.488   8.051
13751SOL    HW355324   1.516   2.564   7.964
13751SOL    MW455325   1.572   2.499   7.975
13752SOL     OW55326   1.131   3.181   7.720
13752SOL    HW255327   1.081   3.183   7.802
13752SOL    HW355328   1.065   3.199   7.652
13752SOL    MW455329   1.117   3.183   7.722
13753SOL     OW55330   0.594   3.599   7.828
13753SOL    HW255331   0.515   3.557   7.861
13753SOL    HW355332   0.660   3.582   7.895
13753SOL    MW455333   0.593   3.591   7.841
13754SOL     OW55334   0.730   3.014   7.535
13754SOL    HW255335   0.652   2.960   7.522
13754SOL    HW355336   0.701   3.087   7.588
13754SOL    MW455337   0.716   3.016   7.540
13755SOL     OW55338   1.311   3.530   7.603
13755SOL    HW255339   1.237   3.493   7.653
13755SOL    HW355340   1.319   3.620   7.636
13755SOL    MW455341   1.302   3.537   7.615
13756SOL     OW55342   1.535   3.204   7.545
13756SOL    HW255343   1.482   3.253   7.481
13756SOL    HW355344   1.566   3.270   7.606
13756SOL    MW455345   1.533   3.218   7.543
13757SOL     OW55346   0.760   2.093   7.600
13757SOL    HW255347   0.708   2.013   7.588
13757SOL    HW355348   0.847   2.070   7.568
13757SOL    MW455349   0.763   2.079   7.594
13758SOL     OW55350   0.695   3.445   7.536
13758SOL    HW255351   0.635   3.514   7.506
13758SOL    HW355352   0.640   3.387   7.589
13758SOL    MW455353   0.679   3.447   7.538
13759SOL     OW55354   1.133   2.090   7.759
13759SOL    HW255355   1.066   2.066   7.696
13759SOL    HW355356   1.198   2.139   7.708
13759SOL    MW455357   1.133   2.092   7.744
13760SOL     OW55358   0.326   3.489   7.925
13760SOL    HW255359   0.287   3.536   7.851
13760SOL    HW355360   0.260   3.424   7.950
13760SOL    MW455361   0.313   3.487   7.919
13761SOL     OW55362   1.308   2.246   7.617
13761SOL    HW255363   1.281   2.312   7.553
13761SOL    HW355364   1.378   2.289   7.667
13761SOL    MW455365   1.313   2.259   7.614
13762SOL     OW55366   0.976   1.951   7.554
13762SOL    HW255367   1.032   1.943   7.476
13762SOL    HW355368   0.953   1.861   7.576
13762SOL    MW455369   0.981   1.938   7.547
13763SOL     OW55370   1.481   2.802   7.759
13763SOL    HW255371   1.448   2.891   7.749
13763SOL    HW355372   1.446   2.773   7.844
13763SOL    MW455373   1.471   2.811   7.770
13764SOL     OW55374   0.475   2.840   7.551
13764SOL    HW255375   0.398   2.853   7.607
13764SOL    HW355376   0.439   2.804   7.470
13764SOL    MW455377   0.461   2.836   7.548
13765SOL     OW55378   1.128   2.813   7.794
13765SOL    HW255379   1.038   2.834   7.769
13765SOL    HW355380   1.155   2.886   7.850
13765SOL    MW455381   1.120   2.825   7.797
13766SOL     OW55382   0.515   3.169   7.950
13766SOL    HW255383   0.508   3.201   8.040
13766SOL    HW355384   0.425   3.153   7.922
13766SOL    MW455385   0.503   3.171   7.957
13767SOL     OW55386   0.518   2.453   7.664
13767SOL    HW255387   0.484   2.509   7.734
13767SOL    HW355388   0.589   2.403   7.704
13767SOL    MW455389   0.524   2.454   7.678
13768SOL     OW55390   1.574   2.339   7.728
13768SOL    HW255391   1.566   2.410   7.665
13768SOL    HW355392   1.592   2.383   7.811
13768SOL    MW455393   1.575   2.353   7.730
13769SOL     OW55394   1.243   2.601   7.703
13769SOL    HW255395   1.290   2.619   7.622
13769SOL    HW355396   1.209   2.685   7.731
13769SOL    MW455397   1.245   2.615   7.696
13770SOL     OW55398   0.978   3.343   7.525
13770SOL    HW255399   1.005   3.421   7.477
13770SOL    HW355400   0.885   3.358   7.544
13770SOL    MW455401   0.969   3.356   7.521
13771SOL     OW55402   1.326   1.903   7.712
13771SOL    HW255403   1.400   1.947   7.755
13771SOL    HW355404   1.250   1.957   7.734
13771SOL    MW455405   1.326   1.915   7.720
13772SOL     OW55406   1.386   2.678   7.990
13772SOL    HW255407   1.301   2.648   7.960
13772SOL    HW355408   1.378   2.685   8.085
13772SOL    MW455409   1.374   2.676   7.999
13773SOL     OW55410   0.590   3.207   7.673
13773SOL    HW255411   0.605   3.183   7.765
13773SOL    HW355412   0.498   3.185   7.657
13773SOL    MW455413   0.580   3.200   7.683
13774SOL     OW55414   1.129   3.438   7.825
13774SOL    HW255415   1.137   3.356   7.776
13774SOL    HW355416   1.048   3.477   7.792
13774SOL    MW455417   1.119   3.433   7.815
13775SOL     OW55418   1.101   2.260   7.995
13775SOL    HW255419   1.123   2.197   7.927
13775SOL    HW355420   1.006   2.252   8.006
13775SOL    MW455421   1.091   2.251   7.987
13776SOL     OW55422   1.311   3.001   7.957
13776SOL    HW255423   1.283   3.087   7.990
13776SOL    HW355424   1.339   3.017   7.867
13776SOL    MW455425   1.311   3.015   7.949
13777SOL     OW55426   1.700   3.683   7.727
13777SOL    HW255427   1.767   3.716   7.667
13777SOL    HW355428   1.657   3.762   7.761
13777SOL    MW455429   1.702   3.698   7.723
13778SOL     OW55430   0.606   3.715   7.595
13778SOL    HW255431   0.511   3.715   7.587
13778SOL    HW355432   0.622   3.661   7.673
13778SOL    MW455433   0.596   3.709   7.604
13779SOL     OW55434   1.451   2.535   7.511
13779SOL    HW255435   1.379   2.511   7.453
13779SOL    HW355436   1.517   2.572   7.453
13779SOL    MW455437   1.450   2.537   7.496
13780SOL     OW55438   0.864   2.835   7.695
13780SOL    HW255439   0.850   2.747   7.660
13780SOL    HW355440   0.815   2.892   7.636
13780SOL    MW455441   0.856   2.830   7.683
13781SOL     OW55442   1.583   2.041   7.797
13781SOL    HW255443   1.576   2.045   7.892
13781SOL    HW355444   1.595   2.132   7.770
13781SOL    MW455445   1.584   2.054   7.805
13782SOL     OW55446   0.855   3.562   7.949
13782SOL    HW255447   0.913   3.633   7.976
13782SOL    HW355448   0.878   3.490   8.007
13782SOL    MW455449   0.866   3.562   7.960
13783SOL     OW55450   0.311   1.994   7.684
13783SOL    HW255451   0.240   2.049   7.652
13783SOL    HW355452   0.353   1.960   7.605
13783SOL    MW455453   0.307   1.996   7.670
13784SOL     OW55454   0.067   2.093   7.533
13784SOL    HW255455   0.034   2.172   7.577
13784SOL    HW355456   0.122   2.126   7.462
13784SOL    MW455457   0.070   2.107   7.530
13785SOL     OW55458   0.101   3.350   7.722
13785SOL    HW255459   0.118   3.434   7.764
13785SOL    HW355460   0.136   3.359   7.634
13785SOL    MW455461   0.106   3.363   7.716
13786SOL     OW55462   1.373   3.439   7.939
13786SOL    HW255463   1.436   3.429   7.868
13786SOL    HW355464   1.290   3.459   7.894
13786SOL    MW455465   1.370   3.440   7.924
13787SOL     OW55466   0.814   4.214   7.999
13787SOL    HW255467   0.789   4.302   8.027
13787SOL    HW355468   0.811   4.217   7.903
13787SOL    MW455469   0.810   4.226   7.991
13788SOL     OW55470   0.256   4.242   7.927
13788SOL    HW255471   0.288   4.330   7.909
13788SOL    HW355472   0.244   4.240   8.022
13788SOL    MW455473   0.259   4.254   7.939
13789SOL     OW55474   0.655   3.997   8.014
13789SOL    HW255475   0.713   4.073   8.016
13789SOL    HW355476   0.590   4.018   7.947
13789SOL    MW455477   0.654   4.009   8.005
13790SOL     OW55478   1.369   4.906   7.705
13790SOL    HW255479   1.287   4.942   7.671
13790SOL    HW355480   1.437   4.949   7.654
13790SOL    MW455481   1.367   4.916   7.693
13791SOL     OW55482   0.921   5.047   7.898
13791SOL    HW255483   0.898   5.109   7.966
13791SOL    HW355484   0.878   4.965   7.924
13791SOL    MW455485   0.913   5.043   7.909
13792SOL     OW55486   0.418   4.020   7.866
13792SOL    HW255487   0.392   3.982   7.782
13792SOL    HW355488   0.355   4.090   7.882
13792SOL    MW455489   0.407   4.023   7.857
13793SOL     OW55490   1.850   4.217   7.656
13793SOL    HW255491   1.759   4.219   7.684
13793SOL    HW355492   1.895   4.279   7.714
13793SOL    MW455493   1.843   4.225   7.666
13794SOL     OW55494   1.595   4.820   8.006
13794SOL    HW255495   1.505   4.820   8.041
13794SOL    HW355496   1.588   4.866   7.923
13794SOL    MW455497   1.582   4.826   8.000
13795SOL     OW55498   1.122   4.401   7.967
13795SOL    HW255499   1.148   4.425   7.878
13795SOL    HW355500   1.104   4.308   7.963
13795SOL    MW455501   1.124   4.393   7.954
13796SOL     OW55502   0.159   5.497   7.713
13796SOL    HW255503   0.188   5.587   7.705
13796SOL    HW355504   0.109   5.480   7.634
13796SOL    MW455505   0.157   5.505   7.702
13797SOL     OW55506   1.563   5.305   7.684
13797SOL    HW255507   1.611   5.374   7.730
13797SOL    HW355508   1.484   5.349   7.653
13797SOL    MW455509   1.558   5.319   7.687
13798SOL     OW55510   0.961   4.430   7.628
13798SOL    HW255511   0.963   4.377   7.549
13798SOL    HW355512   1.049   4.467   7.634
13798SOL    MW455513   0.973   4.429   7.617
13799SOL     OW55514   1.575   4.356   7.964
13799SOL    HW255515   1.614   4.356   8.051
13799SOL    HW355516   1.516   4.432   7.964
13799SOL    MW455517   1.572   4.367   7.975
13800SOL     OW55518   0.730   4.882   7.535
13800SOL    HW255519   0.652   4.828   7.522
13800SOL    HW355520   0.701   4.955   7.588
13800SOL    MW455521   0.716   4.884   7.540
13801SOL     OW55522   1.535   5.072   7.545
13801SOL    HW255523   1.482   5.121   7.481
13801SOL    HW355524   1.566   5.138   7.606
13801SOL    MW455525   1.533   5.086   7.543
13802SOL     OW55526   0.760   3.961   7.600
13802SOL    HW255527   0.708   3.881   7.588
13802SOL    HW355528   0.847   3.938   7.568
13802SOL    MW455529   0.763   3.947   7.594
13803SOL     OW55530   0.695   5.313   7.536
13803SOL    HW255531   0.635   5.382   7.506
13803SOL    HW355532   0.640   5.255   7.589
13803SOL    MW455533   0.679   5.315   7.538
13804SOL     OW55534   1.133   3.958   7.759
13804SOL    HW255535   1.066   3.934   7.696
13804SOL    HW355536   1.198   4.007   7.708
13804SOL    MW455537   1.133   3.960   7.744
13805SOL     OW55538   1.308   4.114   7.617
13805SOL    HW255539   1.281   4.180   7.553
13805SOL    HW355540   1.378   4.157   7.667
13805SOL    MW455541   1.313   4.127   7.614
13806SOL     OW55542   0.976   3.819   7.554
13806SOL    HW255543   1.032   3.811   7.476
13806SOL    HW355544   0.953   3.729   7.576
13806SOL    MW455545   0.981   3.806   7.547
13807SOL     OW55546   0.475   4.708   7.551
13807SOL    HW255547   0.398   4.721   7.607
13807SOL    HW355548   0.439   4.672   7.470
13807SOL    MW455549   0.461   4.704   7.548
13808SOL     OW55550   1.128   4.681   7.794
13808SOL    HW255551   1.038   4.702   7.769
13808SOL    HW355552   1.155   4.754   7.850
13808SOL    MW455553   1.120   4.693   7.797
13809SOL     OW55554   0.518   4.321   7.664
13809SOL    HW255555   0.484   4.377   7.734
13809SOL    HW355556   0.589   4.271   7.704
13809SOL    MW455557   0.524   4.322   7.678
13810SOL     OW55558   1.574   4.207   7.728
13810SOL    HW255559   1.566   4.278   7.665
13810SOL    HW355560   1.592   4.251   7.811
13810SOL    MW455561   1.575   4.221   7.730
13811SOL     OW55562   0.978   5.211   7.525
13811SOL    HW255563   1.005   5.289   7.477
13811SOL    HW355564   0.885   5.226   7.544
13811SOL    MW455565   0.969   5.224   7.521
13812SOL     OW55566   1.326   3.771   7.712
13812SOL    HW255567   1.400   3.815   7.755
13812SOL    HW355568   1.250   3.825   7.734
13812SOL    MW455569   1.326   3.783   7.720
13813SOL     OW55570   1.386   4.546   7.990
13813SOL    HW255571   1.301   4.516   7.960
13813SOL    HW355572   1.378   4.553   8.085
13813SOL    MW455573   1.374   4.544   7.999
13814SOL     OW55574   0.759   4.212   7.716
13814SOL    HW255575   0.832   4.261   7.679
13814SOL    HW355576   0.775   4.121   7.690
13814SOL    MW455577   0.771   4.207   7.709
13815SOL     OW55578   0.234   4.721   7.814
13815SOL    HW255579   0.171   4.737   7.743
13815SOL    HW355580   0.181   4.684   7.885
13815SOL    MW455581   0.219   4.718   7.814
13816SOL     OW55582   0.590   5.075   7.673
13816SOL    HW255583   0.605   5.051   7.765
13816SOL    HW355584   0.498   5.053   7.657
13816SOL    MW455585   0.580   5.068   7.683
13817SOL     OW55586   1.101   4.128   7.995
13817SOL    HW255587   1.123   4.065   7.927
13817SOL    HW355588   1.006   4.120   8.006
13817SOL    MW455589   1.091   4.119   7.987
13818SOL     OW55590   0.186   3.818   7.927
13818SOL    HW255591   0.257   3.839   7.866
13818SOL    HW355592   0.140   3.746   7.885
13818SOL    MW455593   0.190   3.812   7.913
13819SOL     OW55594   0.973   3.789   8.010
13819SOL    HW255595   1.010   3.848   8.075
13819SOL    HW355596   0.950   3.845   7.936
13819SOL    MW455597   0.974   3.804   8.009
13820SOL     OW55598   1.700   5.551   7.727
13820SOL    HW255599   1.767   5.584   7.667
13820SOL    HW355600   1.657   5.630   7.761
13820SOL    MW455601   1.702   5.566   7.723
13821SOL     OW55602   0.606   5.583   7.595
13821SOL    HW255603   0.511   5.583   7.587
13821SOL    HW355604   0.622   5.529   7.673
13821SOL    MW455605   0.596   5.577   7.604
13822SOL     OW55606   1.451   4.403   7.511
13822SOL    HW255607   1.379   4.379   7.453
13822SOL    HW355608   1.517   4.440   7.453
13822SOL    MW455609   1.450   4.405   7.496
13823SOL     OW55610   1.583   3.909   7.797
13823SOL    HW255611   1.576   3.913   7.892
13823SOL    HW355612   1.595   4.000   7.770
13823SOL    MW455613   1.584   3.922   7.805
13824SOL     OW55614   0.311   3.862   7.684
13824SOL    HW255615   0.240   3.917   7.652
13824SOL    HW355616   0.353   3.828   7.605
13824SOL    MW455617   0.307   3.864   7.670
13825SOL     OW55618   0.067   3.961   7.533
13825SOL    HW255619   0.034   4.040   7.577
13825SOL    HW355620   0.122   3.994   7.462
13825SOL    MW455621   0.070   3.975   7.530
13826SOL     OW55622   1.369   6.775   7.705
13826SOL    HW255623   1.287   6.811   7.671
13826SOL    HW355624   1.437   6.818   7.654
13826SOL    MW455625   1.367   6.785   7.693
13827SOL     OW55626   0.921   6.916   7.898
13827SOL    HW255627   0.898   6.978   7.966
13827SOL    HW355628   0.878   6.834   7.924
13827SOL    MW455629   0.913   6.912   7.909
13828SOL     OW55630   1.595   6.689   8.006
13828SOL    HW255631   1.505   6.689   8.041
13828SOL    HW355632   1.588   6.735   7.923
13828SOL    MW455633   1.582   6.695   8.000
13829SOL     OW55634   0.159   7.366   7.713
13829SOL    HW255635   0.188   7.456   7.705
13829SOL    HW355636   0.109   7.349   7.634
13829SOL    MW455637   0.157   7.374   7.702
13830SOL     OW55638   1.563   7.174   7.684
13830SOL    HW255639   1.611   7.243   7.730
13830SOL    HW355640   1.484   7.218   7.653
13830SOL    MW455641   1.558   7.188   7.687
13831SOL     OW55642   0.961   6.299   7.628
13831SOL    HW255643   0.963   6.246   7.549
13831SOL    HW355644   1.049   6.336   7.634
13831SOL    MW455645   0.973   6.298   7.617
13832SOL     OW55646   0.730   6.751   7.535
13832SOL    HW255647   0.652   6.697   7.522
13832SOL    HW355648   0.701   6.824   7.588
13832SOL    MW455649   0.716   6.753   7.540
13833SOL     OW55650   1.535   6.941   7.545
13833SOL    HW255651   1.482   6.990   7.481
13833SOL    HW355652   1.566   7.007   7.606
13833SOL    MW455653   1.533   6.955   7.543
13834SOL     OW55654   0.760   5.830   7.600
13834SOL    HW255655   0.708   5.750   7.588
13834SOL    HW355656   0.847   5.807   7.568
13834SOL    MW455657   0.763   5.816   7.594
13835SOL     OW55658   0.695   7.182   7.536
13835SOL    HW255659   0.635   7.251   7.506
13835SOL    HW355660   0.640   7.124   7.589
13835SOL    MW455661   0.679   7.184   7.538
13836SOL     OW55662   0.976   5.688   7.554
13836SOL    HW255663   1.032   5.680   7.476
13836SOL    HW355664   0.953   5.598   7.576
13836SOL    MW455665   0.981   5.675   7.547
13837SOL     OW55666   0.475   6.577   7.551
13837SOL    HW255667   0.398   6.590   7.607
13837SOL    HW355668   0.439   6.541   7.470
13837SOL    MW455669   0.461   6.573   7.548
13838SOL     OW55670   1.128   6.550   7.794
13838SOL    HW255671   1.038   6.571   7.769
13838SOL    HW355672   1.155   6.623   7.850
13838SOL    MW455673   1.120   6.562   7.797
13839SOL     OW55674   0.518   6.190   7.664
13839SOL    HW255675   0.484   6.246   7.734
13839SOL    HW355676   0.589   6.140   7.704
13839SOL    MW455677   0.524   6.191   7.678
13840SOL     OW55678   0.978   7.080   7.525
13840SOL    HW255679   1.005   7.158   7.477
13840SOL    HW355680   0.885   7.095   7.544
13840SOL    MW455681   0.969   7.093   7.521
13841SOL     OW55682   1.386   6.415   7.990
13841SOL    HW255683   1.301   6.385   7.960
13841SOL    HW355684   1.378   6.422   8.085
13841SOL    MW455685   1.374   6.413   7.999
13842SOL     OW55686   0.759   6.081   7.716
13842SOL    HW255687   0.832   6.130   7.679
13842SOL    HW355688   0.775   5.990   7.690
13842SOL    MW455689   0.771   6.076   7.709
13843SOL     OW55690   0.234   6.590   7.814
13843SOL    HW255691   0.171   6.606   7.743
13843SOL    HW355692   0.181   6.553   7.885
13843SOL    MW455693   0.219   6.587   7.814
13844SOL     OW55694   0.590   6.944   7.673
13844SOL    HW255695   0.605   6.920   7.765
13844SOL    HW355696   0.498   6.922   7.657
13844SOL    MW455697   0.580   6.937   7.683
13845SOL     OW55698   1.101   5.997   7.995
13845SOL    HW255699   1.123   5.934   7.927
13845SOL    HW355700   1.006   5.989   8.006
13845SOL    MW455701   1.091   5.988   7.987
13846SOL     OW55702   1.700   7.420   7.727
13846SOL    HW255703   1.767   7.453   7.667
13846SOL    HW355704   1.657   7.499   7.761
13846SOL    MW455705   1.702   7.435   7.723
13847SOL     OW55706   0.606   7.452   7.595
13847SOL    HW255707   0.511   7.452   7.587
13847SOL    HW355708   0.622   7.398   7.673
13847SOL    MW455709   0.596   7.446   7.604
13848SOL     OW55710   1.451   6.272   7.511
13848SOL    HW255711   1.379   6.248   7.453
13848SOL    HW355712   1.517   6.309   7.453
13848SOL    MW455713   1.450   6.274   7.496
13849SOL     OW55714   0.067   5.830   7.533
13849SOL    HW255715   0.034   5.909   7.577
13849SOL    HW355716   0.122   5.863   7.462
13849SOL    MW455717   0.070   5.844   7.530
13850SOL     OW55718   3.604   0.839   7.757
13850SOL    HW255719   3.645   0.781   7.822
13850SOL    HW355720   3.511   0.831   7.774
13850SOL    MW455721   3.598   0.831   7.767
13851SOL     OW55722   2.398   1.022   7.986
13851SOL    HW255723   2.488   0.997   7.970
13851SOL    HW355724   2.394   1.115   7.963
13851SOL    MW455725   2.410   1.031   7.981
13852SOL     OW55726   2.682   0.478   7.999
13852SOL    HW255727   2.657   0.566   8.027
13852SOL    HW355728   2.679   0.481   7.903
13852SOL    MW455729   2.678   0.490   7.991
13853SOL     OW55730   2.124   0.506   7.927
13853SOL    HW255731   2.156   0.594   7.909
13853SOL    HW355732   2.112   0.504   8.022
13853SOL    MW455733   2.127   0.518   7.939
13854SOL     OW55734   2.523   0.261   8.014
13854SOL    HW255735   2.581   0.337   8.016
13854SOL    HW355736   2.458   0.282   7.947
13854SOL    MW455737   2.522   0.273   8.005
13855SOL     OW55738   3.237   1.170   7.705
13855SOL    HW255739   3.155   1.206   7.671
13855SOL    HW355740   3.305   1.213   7.654
13855SOL    MW455741   3.235   1.180   7.693
13856SOL     OW55742   2.789   1.311   7.898
13856SOL    HW255743   2.766   1.373   7.966
13856SOL    HW355744   2.746   1.229   7.924
13856SOL    MW455745   2.781   1.307   7.909
13857SOL     OW55746   2.286   0.284   7.866
13857SOL    HW255747   2.260   0.246   7.782
13857SOL    HW355748   2.223   0.354   7.882
13857SOL    MW455749   2.275   0.287   7.857
13858SOL     OW55750   2.121   1.245   7.903
13858SOL    HW255751   2.069   1.313   7.859
13858SOL    HW355752   2.118   1.171   7.843
13858SOL    MW455753   2.113   1.244   7.890
13859SOL     OW55754   2.783   1.708   7.681
13859SOL    HW255755   2.738   1.724   7.764
13859SOL    HW355756   2.714   1.673   7.623
13859SOL    MW455757   2.769   1.705   7.683
13860SOL     OW55758   2.990   0.665   7.967
13860SOL    HW255759   3.016   0.689   7.878
13860SOL    HW355760   2.972   0.572   7.963
13860SOL    MW455761   2.992   0.657   7.954
13861SOL     OW55762   2.027   1.761   7.713
13861SOL    HW255763   2.056   1.851   7.705
13861SOL    HW355764   1.977   1.744   7.634
13861SOL    MW455765   2.025   1.769   7.702
13862SOL     OW55766   3.431   1.569   7.684
13862SOL    HW255767   3.479   1.638   7.730
13862SOL    HW355768   3.352   1.613   7.653
13862SOL    MW455769   3.426   1.583   7.687
13863SOL     OW55770   2.829   0.694   7.628
13863SOL    HW255771   2.831   0.641   7.549
13863SOL    HW355772   2.917   0.731   7.634
13863SOL    MW455773   2.841   0.693   7.617
13864SOL     OW55774   2.999   1.313   7.720
13864SOL    HW255775   2.949   1.315   7.802
13864SOL    HW355776   2.933   1.331   7.652
13864SOL    MW455777   2.985   1.315   7.722
13865SOL     OW55778   2.462   1.731   7.828
13865SOL    HW255779   2.383   1.689   7.861
13865SOL    HW355780   2.528   1.714   7.895
13865SOL    MW455781   2.461   1.723   7.841
13866SOL     OW55782   2.598   1.146   7.535
13866SOL    HW255783   2.520   1.092   7.522
13866SOL    HW355784   2.569   1.219   7.588
13866SOL    MW455785   2.584   1.148   7.540
13867SOL     OW55786   3.179   1.662   7.603
13867SOL    HW255787   3.105   1.625   7.653
13867SOL    HW355788   3.187   1.752   7.636
13867SOL    MW455789   3.170   1.669   7.615
13868SOL     OW55790   3.403   1.336   7.545
13868SOL    HW255791   3.350   1.385   7.481
13868SOL    HW355792   3.434   1.402   7.606
13868SOL    MW455793   3.401   1.350   7.543
13869SOL     OW55794   2.628   0.225   7.600
13869SOL    HW255795   2.576   0.145   7.588
13869SOL    HW355796   2.715   0.202   7.568
13869SOL    MW455797   2.631   0.211   7.594
13870SOL     OW55798   2.563   1.577   7.536
13870SOL    HW255799   2.503   1.646   7.506
13870SOL    HW355800   2.508   1.519   7.589
13870SOL    MW455801   2.547   1.579   7.538
13871SOL     OW55802   3.001   0.222   7.759
13871SOL    HW255803   2.934   0.198   7.696
13871SOL    HW355804   3.066   0.271   7.708
13871SOL    MW455805   3.001   0.224   7.744
13872SOL     OW55806   2.194   1.621   7.925
13872SOL    HW255807   2.155   1.668   7.851
13872SOL    HW355808   2.128   1.556   7.950
13872SOL    MW455809   2.181   1.619   7.919
13873SOL     OW55810   2.686   1.030   7.949
13873SOL    HW255811   2.688   1.004   7.856
13873SOL    HW355812   2.744   0.967   7.992
13873SOL    MW455813   2.694   1.019   7.943
13874SOL     OW55814   3.176   0.378   7.617
13874SOL    HW255815   3.149   0.444   7.553
13874SOL    HW355816   3.246   0.421   7.667
13874SOL    MW455817   3.181   0.391   7.614
13875SOL     OW55818   2.844   0.083   7.554
13875SOL    HW255819   2.900   0.075   7.476
13875SOL    HW355820   2.821  -0.007   7.576
13875SOL    MW455821   2.849   0.070   7.547
13876SOL     OW55822   2.343   0.972   7.551
13876SOL    HW255823   2.266   0.985   7.607
13876SOL    HW355824   2.307   0.936   7.470
13876SOL    MW455825   2.329   0.968   7.548
13877SOL     OW55826   2.996   0.945   7.794
13877SOL    HW255827   2.906   0.966   7.769
13877SOL    HW355828   3.023   1.018   7.850
13877SOL    MW455829   2.988   0.957   7.797
13878SOL     OW55830   2.383   1.301   7.950
13878SOL    HW255831   2.376   1.333   8.040
13878SOL    HW355832   2.293   1.285   7.922
13878SOL    MW455833   2.371   1.303   7.957
13879SOL     OW55834   2.386   0.585   7.664
13879SOL    HW255835   2.352   0.641   7.734
13879SOL    HW355836   2.457   0.535   7.704
13879SOL    MW455837   2.392   0.586   7.678
13880SOL     OW55838   3.442   0.471   7.728
13880SOL    HW255839   3.434   0.542   7.665
13880SOL    HW355840   3.460   0.515   7.811
13880SOL    MW455841   3.443   0.485   7.730
13881SOL     OW55842   3.111   0.733   7.703
13881SOL    HW255843   3.158   0.751   7.622
13881SOL    HW355844   3.077   0.817   7.731
13881SOL    MW455845   3.113   0.747   7.696
13882SOL     OW55846   2.846   1.475   7.525
13882SOL    HW255847   2.873   1.553   7.477
13882SOL    HW355848   2.753   1.490   7.544
13882SOL    MW455849   2.837   1.488   7.521
13883SOL     OW55850   1.886   0.637   7.916
13883SOL    HW255851   1.826   0.609   7.986
13883SOL    HW355852   1.960   0.577   7.922
13883SOL    MW455853   1.888   0.626   7.925
13884SOL     OW55854   3.194   0.035   7.712
13884SOL    HW255855   3.268   0.079   7.755
13884SOL    HW355856   3.118   0.089   7.734
13884SOL    MW455857   3.194   0.047   7.720
13885SOL     OW55858   2.627   0.476   7.716
13885SOL    HW255859   2.700   0.525   7.679
13885SOL    HW355860   2.643   0.385   7.690
13885SOL    MW455861   2.639   0.471   7.709
13886SOL     OW55862   2.102   0.985   7.814
13886SOL    HW255863   2.039   1.001   7.743
13886SOL    HW355864   2.049   0.948   7.885
13886SOL    MW455865   2.087   0.982   7.814
13887SOL     OW55866   2.458   1.339   7.673
13887SOL    HW255867   2.473   1.315   7.765
13887SOL    HW355868   2.366   1.317   7.657
13887SOL    MW455869   2.448   1.332   7.683
13888SOL     OW55870   2.997   1.570   7.825
13888SOL    HW255871   3.005   1.488   7.776
13888SOL    HW355872   2.916   1.609   7.792
13888SOL    MW455873   2.987   1.565   7.815
13889SOL     OW55874   2.969   0.392   7.995
13889SOL    HW255875   2.991   0.329   7.927
13889SOL    HW355876   2.874   0.384   8.006
13889SOL    MW455877   2.959   0.383   7.987
13890SOL     OW55878   2.054   0.082   7.927
13890SOL    HW255879   2.125   0.103   7.866
13890SOL    HW355880   2.008   0.010   7.885
13890SOL    MW455881   2.058   0.076   7.913
13891SOL     OW55882   2.841   0.053   8.010
13891SOL    HW255883   2.878   0.112   8.075
13891SOL    HW355884   2.818   0.109   7.936
13891SOL    MW455885   2.842   0.068   8.009
13892SOL     OW55886   2.262   0.744   7.906
13892SOL    HW255887   2.262   0.839   7.891
13892SOL    HW355888   2.339   0.728   7.960
13892SOL    MW455889   2.272   0.755   7.911
13893SOL     OW55890   3.568   1.815   7.727
13893SOL    HW255891   3.635   1.848   7.667
13893SOL    HW355892   3.525   1.894   7.761
13893SOL    MW455893   3.570   1.830   7.723
13894SOL     OW55894   1.890   1.047   7.653
13894SOL    HW255895   1.859   1.112   7.716
13894SOL    HW355896   1.839   0.969   7.672
13894SOL    MW455897   1.880   1.044   7.663
13895SOL     OW55898   2.474   1.847   7.595
13895SOL    HW255899   2.379   1.847   7.587
13895SOL    HW355900   2.490   1.793   7.673
13895SOL    MW455901   2.464   1.841   7.604
13896SOL     OW55902   3.319   0.667   7.511
13896SOL    HW255903   3.247   0.643   7.453
13896SOL    HW355904   3.385   0.704   7.453
13896SOL    MW455905   3.318   0.669   7.496
13897SOL     OW55906   2.732   0.967   7.695
13897SOL    HW255907   2.718   0.879   7.660
13897SOL    HW355908   2.683   1.024   7.636
13897SOL    MW455909   2.724   0.962   7.683
13898SOL     OW55910   2.740   0.736   7.911
13898SOL    HW255911   2.720   0.722   7.818
13898SOL    HW355912   2.833   0.715   7.918
13898SOL    MW455913   2.750   0.731   7.900
13899SOL     OW55914   2.723   1.694   7.949
13899SOL    HW255915   2.781   1.765   7.976
13899SOL    HW355916   2.746   1.622   8.007
13899SOL    MW455917   2.734   1.694   7.960
13900SOL     OW55918   2.179   0.126   7.684
13900SOL    HW255919   2.108   0.181   7.652
13900SOL    HW355920   2.221   0.092   7.605
13900SOL    MW455921   2.175   0.128   7.670
13901SOL     OW55922   1.935   0.225   7.533
13901SOL    HW255923   1.902   0.304   7.577
13901SOL    HW355924   1.990   0.258   7.462
13901SOL    MW455925   1.938   0.239   7.530
13902SOL     OW55926   1.969   1.482   7.722
13902SOL    HW255927   1.986   1.566   7.764
13902SOL    HW355928   2.004   1.491   7.634
13902SOL    MW455929   1.974   1.495   7.716
13903SOL     OW55930   3.241   1.571   7.939
13903SOL    HW255931   3.304   1.561   7.868
13903SOL    HW355932   3.158   1.591   7.894
13903SOL    MW455933   3.238   1.572   7.924
13904SOL     OW55934   3.604   2.707   7.757
13904SOL    HW255935   3.645   2.649   7.822
13904SOL    HW355936   3.511   2.699   7.774
13904SOL    MW455937   3.598   2.699   7.767
13905SOL     OW55938   2.398   2.890   7.986
13905SOL    HW255939   2.488   2.865   7.970
13905SOL    HW355940   2.394   2.983   7.963
13905SOL    MW455941   2.410   2.899   7.981
13906SOL     OW55942   2.682   2.346   7.999
13906SOL    HW255943   2.657   2.434   8.027
13906SOL    HW355944   2.679   2.349   7.903
13906SOL    MW455945   2.678   2.358   7.991
13907SOL     OW55946   2.124   2.374   7.927
13907SOL    HW255947   2.156   2.462   7.909
13907SOL    HW355948   2.112   2.372   8.022
13907SOL    MW455949   2.127   2.386   7.939
13908SOL     OW55950   2.523   2.129   8.014
13908SOL    HW255951   2.581   2.205   8.016
13908SOL    HW355952   2.458   2.150   7.947
13908SOL    MW455953   2.522   2.141   8.005
13909SOL     OW55954   3.237   3.038   7.705
13909SOL    HW255955   3.155   3.074   7.671
13909SOL    HW355956   3.305   3.081   7.654
13909SOL    MW455957   3.235   3.048   7.693
13910SOL     OW55958   2.789   3.179   7.898
13910SOL    HW255959   2.766   3.241   7.966
13910SOL    HW355960   2.746   3.097   7.924
13910SOL    MW455961   2.781   3.175   7.909
13911SOL     OW55962   2.286   2.152   7.866
13911SOL    HW255963   2.260   2.114   7.782
13911SOL    HW355964   2.223   2.222   7.882
13911SOL    MW455965   2.275   2.155   7.857
13912SOL     OW55966   2.121   3.113   7.903
13912SOL    HW255967   2.069   3.181   7.859
13912SOL    HW355968   2.118   3.039   7.843
13912SOL    MW455969   2.113   3.112   7.890
13913SOL     OW55970   2.783   3.576   7.681
13913SOL    HW255971   2.738   3.592   7.764
13913SOL    HW355972   2.714   3.541   7.623
13913SOL    MW455973   2.769   3.573   7.683
13914SOL     OW55974   2.990   2.533   7.967
13914SOL    HW255975   3.016   2.557   7.878
13914SOL    HW355976   2.972   2.440   7.963
13914SOL    MW455977   2.992   2.525   7.954
13915SOL     OW55978   2.027   3.629   7.713
13915SOL    HW255979   2.056   3.719   7.705
13915SOL    HW355980   1.977   3.612   7.634
13915SOL    MW455981   2.025   3.637   7.702
13916SOL     OW55982   3.431   3.437   7.684
13916SOL    HW255983   3.479   3.506   7.730
13916SOL    HW355984   3.352   3.481   7.653
13916SOL    MW455985   3.426   3.451   7.687
13917SOL     OW55986   2.829   2.562   7.628
13917SOL    HW255987   2.831   2.509   7.549
13917SOL    HW355988   2.917   2.599   7.634
13917SOL    MW455989   2.841   2.561   7.617
13918SOL     OW55990   2.999   3.181   7.720
13918SOL    HW255991   2.949   3.183   7.802
13918SOL    HW355992   2.933   3.199   7.652
13918SOL    MW455993   2.985   3.183   7.722
13919SOL     OW55994   2.462   3.599   7.828
13919SOL    HW255995   2.383   3.557   7.861
13919SOL    HW355996   2.528   3.582   7.895
13919SOL    MW455997   2.461   3.591   7.841
13920SOL     OW55998   2.598   3.014   7.535
13920SOL    HW255999   2.520   2.960   7.522
13920SOL    HW356000   2.569   3.087   7.588
13920SOL    MW456001   2.584   3.016   7.540
13921SOL     OW56002   3.179   3.530   7.603
13921SOL    HW256003   3.105   3.493   7.653
13921SOL    HW356004   3.187   3.620   7.636
13921SOL    MW456005   3.170   3.537   7.615
13922SOL     OW56006   3.403   3.204   7.545
13922SOL    HW256007   3.350   3.253   7.481
13922SOL    HW356008   3.434   3.270   7.606
13922SOL    MW456009   3.401   3.218   7.543
13923SOL     OW56010   2.628   2.093   7.600
13923SOL    HW256011   2.576   2.013   7.588
13923SOL    HW356012   2.715   2.070   7.568
13923SOL    MW456013   2.631   2.079   7.594
13924SOL     OW56014   2.563   3.445   7.536
13924SOL    HW256015   2.503   3.514   7.506
13924SOL    HW356016   2.508   3.387   7.589
13924SOL    MW456017   2.547   3.447   7.538
13925SOL     OW56018   3.001   2.090   7.759
13925SOL    HW256019   2.934   2.066   7.696
13925SOL    HW356020   3.066   2.139   7.708
13925SOL    MW456021   3.001   2.092   7.744
13926SOL     OW56022   2.194   3.489   7.925
13926SOL    HW256023   2.155   3.536   7.851
13926SOL    HW356024   2.128   3.424   7.950
13926SOL    MW456025   2.181   3.487   7.919
13927SOL     OW56026   2.686   2.898   7.949
13927SOL    HW256027   2.688   2.872   7.856
13927SOL    HW356028   2.744   2.835   7.992
13927SOL    MW456029   2.694   2.887   7.943
13928SOL     OW56030   3.176   2.246   7.617
13928SOL    HW256031   3.149   2.312   7.553
13928SOL    HW356032   3.246   2.289   7.667
13928SOL    MW456033   3.181   2.259   7.614
13929SOL     OW56034   2.844   1.951   7.554
13929SOL    HW256035   2.900   1.943   7.476
13929SOL    HW356036   2.821   1.861   7.576
13929SOL    MW456037   2.849   1.938   7.547
13930SOL     OW56038   2.343   2.840   7.551
13930SOL    HW256039   2.266   2.853   7.607
13930SOL    HW356040   2.307   2.804   7.470
13930SOL    MW456041   2.329   2.836   7.548
13931SOL     OW56042   2.996   2.813   7.794
13931SOL    HW256043   2.906   2.834   7.769
13931SOL    HW356044   3.023   2.886   7.850
13931SOL    MW456045   2.988   2.825   7.797
13932SOL     OW56046   2.383   3.169   7.950
13932SOL    HW256047   2.376   3.201   8.040
13932SOL    HW356048   2.293   3.153   7.922
13932SOL    MW456049   2.371   3.171   7.957
13933SOL     OW56050   2.386   2.453   7.664
13933SOL    HW256051   2.352   2.509   7.734
13933SOL    HW356052   2.457   2.403   7.704
13933SOL    MW456053   2.392   2.454   7.678
13934SOL     OW56054   3.442   2.339   7.728
13934SOL    HW256055   3.434   2.410   7.665
13934SOL    HW356056   3.460   2.383   7.811
13934SOL    MW456057   3.443   2.353   7.730
13935SOL     OW56058   3.111   2.601   7.703
13935SOL    HW256059   3.158   2.619   7.622
13935SOL    HW356060   3.077   2.685   7.731
13935SOL    MW456061   3.113   2.615   7.696
13936SOL     OW56062   2.846   3.343   7.525
13936SOL    HW256063   2.873   3.421   7.477
13936SOL    HW356064   2.753   3.358   7.544
13936SOL    MW456065   2.837   3.356   7.521
13937SOL     OW56066   1.886   2.505   7.916
13937SOL    HW256067   1.826   2.477   7.986
13937SOL    HW356068   1.960   2.445   7.922
13937SOL    MW456069   1.888   2.494   7.925
13938SOL     OW56070   3.194   1.903   7.712
13938SOL    HW256071   3.268   1.947   7.755
13938SOL    HW356072   3.118   1.957   7.734
13938SOL    MW456073   3.194   1.915   7.720
13939SOL     OW56074   2.627   2.344   7.716
13939SOL    HW256075   2.700   2.393   7.679
13939SOL    HW356076   2.643   2.253   7.690
13939SOL    MW456077   2.639   2.339   7.709
13940SOL     OW56078   2.102   2.853   7.814
13940SOL    HW256079   2.039   2.869   7.743
13940SOL    HW356080   2.049   2.816   7.885
13940SOL    MW456081   2.087   2.850   7.814
13941SOL     OW56082   2.458   3.207   7.673
13941SOL    HW256083   2.473   3.183   7.765
13941SOL    HW356084   2.366   3.185   7.657
13941SOL    MW456085   2.448   3.200   7.683
13942SOL     OW56086   2.997   3.438   7.825
13942SOL    HW256087   3.005   3.356   7.776
13942SOL    HW356088   2.916   3.477   7.792
13942SOL    MW456089   2.987   3.433   7.815
13943SOL     OW56090   2.969   2.260   7.995
13943SOL    HW256091   2.991   2.197   7.927
13943SOL    HW356092   2.874   2.252   8.006
13943SOL    MW456093   2.959   2.251   7.987
13944SOL     OW56094   2.054   1.950   7.927
13944SOL    HW256095   2.125   1.971   7.866
13944SOL    HW356096   2.008   1.878   7.885
13944SOL    MW456097   2.058   1.944   7.913
13945SOL     OW56098   2.841   1.921   8.010
13945SOL    HW256099   2.878   1.980   8.075
13945SOL    HW356100   2.818   1.977   7.936
13945SOL    MW456101   2.842   1.936   8.009
13946SOL     OW56102   2.262   2.612   7.906
13946SOL    HW256103   2.262   2.707   7.891
13946SOL    HW356104   2.339   2.596   7.960
13946SOL    MW456105   2.272   2.623   7.911
13947SOL     OW56106   3.568   3.683   7.727
13947SOL    HW256107   3.635   3.716   7.667
13947SOL    HW356108   3.525   3.762   7.761
13947SOL    MW456109   3.570   3.698   7.723
13948SOL     OW56110   1.890   2.915   7.653
13948SOL    HW256111   1.859   2.980   7.716
13948SOL    HW356112   1.839   2.837   7.672
13948SOL    MW456113   1.880   2.912   7.663
13949SOL     OW56114   2.474   3.715   7.595
13949SOL    HW256115   2.379   3.715   7.587
13949SOL    HW356116   2.490   3.661   7.673
13949SOL    MW456117   2.464   3.709   7.604
13950SOL     OW56118   3.319   2.535   7.511
13950SOL    HW256119   3.247   2.511   7.453
13950SOL    HW356120   3.385   2.572   7.453
13950SOL    MW456121   3.318   2.537   7.496
13951SOL     OW56122   2.732   2.835   7.695
13951SOL    HW256123   2.718   2.747   7.660
13951SOL    HW356124   2.683   2.892   7.636
13951SOL    MW456125   2.724   2.830   7.683
13952SOL     OW56126   2.740   2.604   7.911
13952SOL    HW256127   2.720   2.590   7.818
13952SOL    HW356128   2.833   2.583   7.918
13952SOL    MW456129   2.750   2.599   7.900
13953SOL     OW56130   2.723   3.562   7.949
13953SOL    HW256131   2.781   3.633   7.976
13953SOL    HW356132   2.746   3.490   8.007
13953SOL    MW456133   2.734   3.562   7.960
13954SOL     OW56134   2.179   1.994   7.684
13954SOL    HW256135   2.108   2.049   7.652
13954SOL    HW356136   2.221   1.960   7.605
13954SOL    MW456137   2.175   1.996   7.670
13955SOL     OW56138   1.935   2.093   7.533
13955SOL    HW256139   1.902   2.172   7.577
13955SOL    HW356140   1.990   2.126   7.462
13955SOL    MW456141   1.938   2.107   7.530
13956SOL     OW56142   1.969   3.350   7.722
13956SOL    HW256143   1.986   3.434   7.764
13956SOL    HW356144   2.004   3.359   7.634
13956SOL    MW456145   1.974   3.363   7.716
13957SOL     OW56146   3.241   3.439   7.939
13957SOL    HW256147   3.304   3.429   7.868
13957SOL    HW356148   3.158   3.459   7.894
13957SOL    MW456149   3.238   3.440   7.924
13958SOL     OW56150   2.682   4.214   7.999
13958SOL    HW256151   2.657   4.302   8.027
13958SOL    HW356152   2.679   4.217   7.903
13958SOL    MW456153   2.678   4.226   7.991
13959SOL     OW56154   2.124   4.242   7.927
13959SOL    HW256155   2.156   4.330   7.909
13959SOL    HW356156   2.112   4.240   8.022
13959SOL    MW456157   2.127   4.254   7.939
13960SOL     OW56158   2.523   3.997   8.014
13960SOL    HW256159   2.581   4.073   8.016
13960SOL    HW356160   2.458   4.018   7.947
13960SOL    MW456161   2.522   4.009   8.005
13961SOL     OW56162   3.237   4.906   7.705
13961SOL    HW256163   3.155   4.942   7.671
13961SOL    HW356164   3.305   4.949   7.654
13961SOL    MW456165   3.235   4.916   7.693
13962SOL     OW56166   2.789   5.047   7.898
13962SOL    HW256167   2.766   5.109   7.966
13962SOL    HW356168   2.746   4.965   7.924
13962SOL    MW456169   2.781   5.043   7.909
13963SOL     OW56170   2.286   4.020   7.866
13963SOL    HW256171   2.260   3.982   7.782
13963SOL    HW356172   2.223   4.090   7.882
13963SOL    MW456173   2.275   4.023   7.857
13964SOL     OW56174   3.718   4.217   7.656
13964SOL    HW256175   3.627   4.219   7.684
13964SOL    HW356176   3.763   4.279   7.714
13964SOL    MW456177   3.711   4.225   7.666
13965SOL     OW56178   3.463   4.820   8.006
13965SOL    HW256179   3.373   4.820   8.041
13965SOL    HW356180   3.456   4.866   7.923
13965SOL    MW456181   3.450   4.826   8.000
13966SOL     OW56182   2.990   4.401   7.967
13966SOL    HW256183   3.016   4.425   7.878
13966SOL    HW356184   2.972   4.308   7.963
13966SOL    MW456185   2.992   4.393   7.954
13967SOL     OW56186   2.027   5.497   7.713
13967SOL    HW256187   2.056   5.587   7.705
13967SOL    HW356188   1.977   5.480   7.634
13967SOL    MW456189   2.025   5.505   7.702
13968SOL     OW56190   3.431   5.305   7.684
13968SOL    HW256191   3.479   5.374   7.730
13968SOL    HW356192   3.352   5.349   7.653
13968SOL    MW456193   3.426   5.319   7.687
13969SOL     OW56194   2.829   4.430   7.628
13969SOL    HW256195   2.831   4.377   7.549
13969SOL    HW356196   2.917   4.467   7.634
13969SOL    MW456197   2.841   4.429   7.617
13970SOL     OW56198   3.443   4.356   7.964
13970SOL    HW256199   3.482   4.356   8.051
13970SOL    HW356200   3.384   4.432   7.964
13970SOL    MW456201   3.440   4.367   7.975
13971SOL     OW56202   2.598   4.882   7.535
13971SOL    HW256203   2.520   4.828   7.522
13971SOL    HW356204   2.569   4.955   7.588
13971SOL    MW456205   2.584   4.884   7.540
13972SOL     OW56206   3.403   5.072   7.545
13972SOL    HW256207   3.350   5.121   7.481
13972SOL    HW356208   3.434   5.138   7.606
13972SOL    MW456209   3.401   5.086   7.543
13973SOL     OW56210   2.628   3.961   7.600
13973SOL    HW256211   2.576   3.881   7.588
13973SOL    HW356212   2.715   3.938   7.568
13973SOL    MW456213   2.631   3.947   7.594
13974SOL     OW56214   2.563   5.313   7.536
13974SOL    HW256215   2.503   5.382   7.506
13974SOL    HW356216   2.508   5.255   7.589
13974SOL    MW456217   2.547   5.315   7.538
13975SOL     OW56218   3.001   3.958   7.759
13975SOL    HW256219   2.934   3.934   7.696
13975SOL    HW356220   3.066   4.007   7.708
13975SOL    MW456221   3.001   3.960   7.744
13976SOL     OW56222   3.176   4.114   7.617
13976SOL    HW256223   3.149   4.180   7.553
13976SOL    HW356224   3.246   4.157   7.667
13976SOL    MW456225   3.181   4.127   7.614
13977SOL     OW56226   2.844   3.819   7.554
13977SOL    HW256227   2.900   3.811   7.476
13977SOL    HW356228   2.821   3.729   7.576
13977SOL    MW456229   2.849   3.806   7.547
13978SOL     OW56230   2.343   4.708   7.551
13978SOL    HW256231   2.266   4.721   7.607
13978SOL    HW356232   2.307   4.672   7.470
13978SOL    MW456233   2.329   4.704   7.548
13979SOL     OW56234   2.996   4.681   7.794
13979SOL    HW256235   2.906   4.702   7.769
13979SOL    HW356236   3.023   4.754   7.850
13979SOL    MW456237   2.988   4.693   7.797
13980SOL     OW56238   2.386   4.321   7.664
13980SOL    HW256239   2.352   4.377   7.734
13980SOL    HW356240   2.457   4.271   7.704
13980SOL    MW456241   2.392   4.322   7.678
13981SOL     OW56242   3.442   4.207   7.728
13981SOL    HW256243   3.434   4.278   7.665
13981SOL    HW356244   3.460   4.251   7.811
13981SOL    MW456245   3.443   4.221   7.730
13982SOL     OW56246   2.846   5.211   7.525
13982SOL    HW256247   2.873   5.289   7.477
13982SOL    HW356248   2.753   5.226   7.544
13982SOL    MW456249   2.837   5.224   7.521
13983SOL     OW56250   3.194   3.771   7.712
13983SOL    HW256251   3.268   3.815   7.755
13983SOL    HW356252   3.118   3.825   7.734
13983SOL    MW456253   3.194   3.783   7.720
13984SOL     OW56254   3.254   4.546   7.990
13984SOL    HW256255   3.169   4.516   7.960
13984SOL    HW356256   3.246   4.553   8.085
13984SOL    MW456257   3.242   4.544   7.999
13985SOL     OW56258   2.627   4.212   7.716
13985SOL    HW256259   2.700   4.261   7.679
13985SOL    HW356260   2.643   4.121   7.690
13985SOL    MW456261   2.639   4.207   7.709
13986SOL     OW56262   2.102   4.721   7.814
13986SOL    HW256263   2.039   4.737   7.743
13986SOL    HW356264   2.049   4.684   7.885
13986SOL    MW456265   2.087   4.718   7.814
13987SOL     OW56266   2.458   5.075   7.673
13987SOL    HW256267   2.473   5.051   7.765
13987SOL    HW356268   2.366   5.053   7.657
13987SOL    MW456269   2.448   5.068   7.683
13988SOL     OW56270   2.969   4.128   7.995
13988SOL    HW256271   2.991   4.065   7.927
13988SOL    HW356272   2.874   4.120   8.006
13988SOL    MW456273   2.959   4.119   7.987
13989SOL     OW56274   2.054   3.818   7.927
13989SOL    HW256275   2.125   3.839   7.866
13989SOL    HW356276   2.008   3.746   7.885
13989SOL    MW456277   2.058   3.812   7.913
13990SOL     OW56278   2.841   3.789   8.010
13990SOL    HW256279   2.878   3.848   8.075
13990SOL    HW356280   2.818   3.845   7.936
13990SOL    MW456281   2.842   3.804   8.009
13991SOL     OW56282   3.568   5.551   7.727
13991SOL    HW256283   3.635   5.584   7.667
13991SOL    HW356284   3.525   5.630   7.761
13991SOL    MW456285   3.570   5.566   7.723
13992SOL     OW56286   2.474   5.583   7.595
13992SOL    HW256287   2.379   5.583   7.587
13992SOL    HW356288   2.490   5.529   7.673
13992SOL    MW456289   2.464   5.577   7.604
13993SOL     OW56290   3.319   4.403   7.511
13993SOL    HW256291   3.247   4.379   7.453
13993SOL    HW356292   3.385   4.440   7.453
13993SOL    MW456293   3.318   4.405   7.496
13994SOL     OW56294   3.451   3.909   7.797
13994SOL    HW256295   3.444   3.913   7.892
13994SOL    HW356296   3.463   4.000   7.770
13994SOL    MW456297   3.452   3.922   7.805
13995SOL     OW56298   2.179   3.862   7.684
13995SOL    HW256299   2.108   3.917   7.652
13995SOL    HW356300   2.221   3.828   7.605
13995SOL    MW456301   2.175   3.864   7.670
13996SOL     OW56302   1.935   3.961   7.533
13996SOL    HW256303   1.902   4.040   7.577
13996SOL    HW356304   1.990   3.994   7.462
13996SOL    MW456305   1.938   3.975   7.530
13997SOL     OW56306   3.237   6.775   7.705
13997SOL    HW256307   3.155   6.811   7.671
13997SOL    HW356308   3.305   6.818   7.654
13997SOL    MW456309   3.235   6.785   7.693
13998SOL     OW56310   2.789   6.916   7.898
13998SOL    HW256311   2.766   6.978   7.966
13998SOL    HW356312   2.746   6.834   7.924
13998SOL    MW456313   2.781   6.912   7.909
13999SOL     OW56314   3.463   6.689   8.006
13999SOL    HW256315   3.373   6.689   8.041
13999SOL    HW356316   3.456   6.735   7.923
13999SOL    MW456317   3.450   6.695   8.000
14000SOL     OW56318   2.027   7.366   7.713
14000SOL    HW256319   2.056   7.456   7.705
14000SOL    HW356320   1.977   7.349   7.634
14000SOL    MW456321   2.025   7.374   7.702
14001SOL     OW56322   3.431   7.174   7.684
14001SOL    HW256323   3.479   7.243   7.730
14001SOL    HW356324   3.352   7.218   7.653
14001SOL    MW456325   3.426   7.188   7.687
14002SOL     OW56326   2.829   6.299   7.628
14002SOL    HW256327   2.831   6.246   7.549
14002SOL    HW356328   2.917   6.336   7.634
14002SOL    MW456329   2.841   6.298   7.617
14003SOL     OW56330   2.598   6.751   7.535
14003SOL    HW256331   2.520   6.697   7.522
14003SOL    HW356332   2.569   6.824   7.588
14003SOL    MW456333   2.584   6.753   7.540
14004SOL     OW56334   3.403   6.941   7.545
14004SOL    HW256335   3.350   6.990   7.481
14004SOL    HW356336   3.434   7.007   7.606
14004SOL    MW456337   3.401   6.955   7.543
14005SOL     OW56338   2.628   5.830   7.600
14005SOL    HW256339   2.576   5.750   7.588
14005SOL    HW356340   2.715   5.807   7.568
14005SOL    MW456341   2.631   5.816   7.594
14006SOL     OW56342   2.563   7.182   7.536
14006SOL    HW256343   2.503   7.251   7.506
14006SOL    HW356344   2.508   7.124   7.589
14006SOL    MW456345   2.547   7.184   7.538
14007SOL     OW56346   2.844   5.688   7.554
14007SOL    HW256347   2.900   5.680   7.476
14007SOL    HW356348   2.821   5.598   7.576
14007SOL    MW456349   2.849   5.675   7.547
14008SOL     OW56350   2.343   6.577   7.551
14008SOL    HW256351   2.266   6.590   7.607
14008SOL    HW356352   2.307   6.541   7.470
14008SOL    MW456353   2.329   6.573   7.548
14009SOL     OW56354   2.996   6.550   7.794
14009SOL    HW256355   2.906   6.571   7.769
14009SOL    HW356356   3.023   6.623   7.850
14009SOL    MW456357   2.988   6.562   7.797
14010SOL     OW56358   2.386   6.190   7.664
14010SOL    HW256359   2.352   6.246   7.734
14010SOL    HW356360   2.457   6.140   7.704
14010SOL    MW456361   2.392   6.191   7.678
14011SOL     OW56362   2.846   7.080   7.525
14011SOL    HW256363   2.873   7.158   7.477
14011SOL    HW356364   2.753   7.095   7.544
14011SOL    MW456365   2.837   7.093   7.521
14012SOL     OW56366   3.254   6.415   7.990
14012SOL    HW256367   3.169   6.385   7.960
14012SOL    HW356368   3.246   6.422   8.085
14012SOL    MW456369   3.242   6.413   7.999
14013SOL     OW56370   2.627   6.081   7.716
14013SOL    HW256371   2.700   6.130   7.679
14013SOL    HW356372   2.643   5.990   7.690
14013SOL    MW456373   2.639   6.076   7.709
14014SOL     OW56374   2.102   6.590   7.814
14014SOL    HW256375   2.039   6.606   7.743
14014SOL    HW356376   2.049   6.553   7.885
14014SOL    MW456377   2.087   6.587   7.814
14015SOL     OW56378   2.458   6.944   7.673
14015SOL    HW256379   2.473   6.920   7.765
14015SOL    HW356380   2.366   6.922   7.657
14015SOL    MW456381   2.448   6.937   7.683
14016SOL     OW56382   2.969   5.997   7.995
14016SOL    HW256383   2.991   5.934   7.927
14016SOL    HW356384   2.874   5.989   8.006
14016SOL    MW456385   2.959   5.988   7.987
14017SOL     OW56386   3.568   7.420   7.727
14017SOL    HW256387   3.635   7.453   7.667
14017SOL    HW356388   3.525   7.499   7.761
14017SOL    MW456389   3.570   7.435   7.723
14018SOL     OW56390   2.474   7.452   7.595
14018SOL    HW256391   2.379   7.452   7.587
14018SOL    HW356392   2.490   7.398   7.673
14018SOL    MW456393   2.464   7.446   7.604
14019SOL     OW56394   3.319   6.272   7.511
14019SOL    HW256395   3.247   6.248   7.453
14019SOL    HW356396   3.385   6.309   7.453
14019SOL    MW456397   3.318   6.274   7.496
14020SOL     OW56398   1.935   5.830   7.533
14020SOL    HW256399   1.902   5.909   7.577
14020SOL    HW356400   1.990   5.863   7.462
14020SOL    MW456401   1.938   5.844   7.530
14021SOL     OW56402   5.472   0.839   7.757
14021SOL    HW256403   5.513   0.781   7.822
14021SOL    HW356404   5.379   0.831   7.774
14021SOL    MW456405   5.466   0.831   7.767
14022SOL     OW56406   5.105   1.170   7.705
14022SOL    HW256407   5.023   1.206   7.671
14022SOL    HW356408   5.173   1.213   7.654
14022SOL    MW456409   5.103   1.180   7.693
14023SOL     OW56410   3.895   1.761   7.713
14023SOL    HW256411   3.924   1.851   7.705
14023SOL    HW356412   3.845   1.744   7.634
14023SOL    MW456413   3.893   1.769   7.702
14024SOL     OW56414   5.299   1.569   7.684
14024SOL    HW256415   5.347   1.638   7.730
14024SOL    HW356416   5.220   1.613   7.653
14024SOL    MW456417   5.294   1.583   7.687
14025SOL     OW56418   4.867   1.313   7.720
14025SOL    HW256419   4.817   1.315   7.802
14025SOL    HW356420   4.801   1.331   7.652
14025SOL    MW456421   4.853   1.315   7.722
14026SOL     OW56422   4.330   1.731   7.828
14026SOL    HW256423   4.251   1.689   7.861
14026SOL    HW356424   4.396   1.714   7.895
14026SOL    MW456425   4.329   1.723   7.841
14027SOL     OW56426   4.466   1.146   7.535
14027SOL    HW256427   4.388   1.092   7.522
14027SOL    HW356428   4.437   1.219   7.588
14027SOL    MW456429   4.452   1.148   7.540
14028SOL     OW56430   5.047   1.662   7.603
14028SOL    HW256431   4.973   1.625   7.653
14028SOL    HW356432   5.055   1.752   7.636
14028SOL    MW456433   5.038   1.669   7.615
14029SOL     OW56434   5.271   1.336   7.545
14029SOL    HW256435   5.218   1.385   7.481
14029SOL    HW356436   5.302   1.402   7.606
14029SOL    MW456437   5.269   1.350   7.543
14030SOL     OW56438   4.496   0.225   7.600
14030SOL    HW256439   4.444   0.145   7.588
14030SOL    HW356440   4.583   0.202   7.568
14030SOL    MW456441   4.499   0.211   7.594
14031SOL     OW56442   4.431   1.577   7.536
14031SOL    HW256443   4.371   1.646   7.506
14031SOL    HW356444   4.376   1.519   7.589
14031SOL    MW456445   4.415   1.579   7.538
14032SOL     OW56446   4.869   0.222   7.759
14032SOL    HW256447   4.802   0.198   7.696
14032SOL    HW356448   4.934   0.271   7.708
14032SOL    MW456449   4.869   0.224   7.744
14033SOL     OW56450   5.044   0.378   7.617
14033SOL    HW256451   5.017   0.444   7.553
14033SOL    HW356452   5.114   0.421   7.667
14033SOL    MW456453   5.049   0.391   7.614
14034SOL     OW56454   4.211   0.972   7.551
14034SOL    HW256455   4.134   0.985   7.607
14034SOL    HW356456   4.175   0.936   7.470
14034SOL    MW456457   4.197   0.968   7.548
14035SOL     OW56458   5.310   0.471   7.728
14035SOL    HW256459   5.302   0.542   7.665
14035SOL    HW356460   5.328   0.515   7.811
14035SOL    MW456461   5.311   0.485   7.730
14036SOL     OW56462   4.979   0.733   7.703
14036SOL    HW256463   5.026   0.751   7.622
14036SOL    HW356464   4.945   0.817   7.731
14036SOL    MW456465   4.981   0.747   7.696
14037SOL     OW56466   4.714   1.475   7.525
14037SOL    HW256467   4.741   1.553   7.477
14037SOL    HW356468   4.621   1.490   7.544
14037SOL    MW456469   4.705   1.488   7.521
14038SOL     OW56470   5.062   0.035   7.712
14038SOL    HW256471   5.136   0.079   7.755
14038SOL    HW356472   4.986   0.089   7.734
14038SOL    MW456473   5.062   0.047   7.720
14039SOL     OW56474   4.495   0.476   7.716
14039SOL    HW256475   4.568   0.525   7.679
14039SOL    HW356476   4.511   0.385   7.690
14039SOL    MW456477   4.507   0.471   7.709
14040SOL     OW56478   5.436   1.815   7.727
14040SOL    HW256479   5.503   1.848   7.667
14040SOL    HW356480   5.393   1.894   7.761
14040SOL    MW456481   5.438   1.830   7.723
14041SOL     OW56482   4.342   1.847   7.595
14041SOL    HW256483   4.247   1.847   7.587
14041SOL    HW356484   4.358   1.793   7.673
14041SOL    MW456485   4.332   1.841   7.604
14042SOL     OW56486   5.187   0.667   7.511
14042SOL    HW256487   5.115   0.643   7.453
14042SOL    HW356488   5.253   0.704   7.453
14042SOL    MW456489   5.186   0.669   7.496
14043SOL     OW56490   4.600   0.967   7.695
14043SOL    HW256491   4.586   0.879   7.660
14043SOL    HW356492   4.551   1.024   7.636
14043SOL    MW456493   4.592   0.962   7.683
14044SOL     OW56494   4.047   0.126   7.684
14044SOL    HW256495   3.976   0.181   7.652
14044SOL    HW356496   4.089   0.092   7.605
14044SOL    MW456497   4.043   0.128   7.670
14045SOL     OW56498   3.803   0.225   7.533
14045SOL    HW256499   3.770   0.304   7.577
14045SOL    HW356500   3.858   0.258   7.462
14045SOL    MW456501   3.806   0.239   7.530
14046SOL     OW56502   5.472   2.707   7.757
14046SOL    HW256503   5.513   2.649   7.822
14046SOL    HW356504   5.379   2.699   7.774
14046SOL    MW456505   5.466   2.699   7.767
14047SOL     OW56506   5.105   3.038   7.705
14047SOL    HW256507   5.023   3.074   7.671
14047SOL    HW356508   5.173   3.081   7.654
14047SOL    MW456509   5.103   3.048   7.693
14048SOL     OW56510   4.657   3.179   7.898
14048SOL    HW256511   4.634   3.241   7.966
14048SOL    HW356512   4.614   3.097   7.924
14048SOL    MW456513   4.649   3.175   7.909
14049SOL     OW56514   3.989   3.113   7.903
14049SOL    HW256515   3.937   3.181   7.859
14049SOL    HW356516   3.986   3.039   7.843
14049SOL    MW456517   3.981   3.112   7.890
14050SOL     OW56518   4.651   3.576   7.681
14050SOL    HW256519   4.606   3.592   7.764
14050SOL    HW356520   4.582   3.541   7.623
14050SOL    MW456521   4.637   3.573   7.683
14051SOL     OW56522   3.895   3.629   7.713
14051SOL    HW256523   3.924   3.719   7.705
14051SOL    HW356524   3.845   3.612   7.634
14051SOL    MW456525   3.893   3.637   7.702
14052SOL     OW56526   5.299   3.437   7.684
14052SOL    HW256527   5.347   3.506   7.730
14052SOL    HW356528   5.220   3.481   7.653
14052SOL    MW456529   5.294   3.451   7.687
14053SOL     OW56530   4.867   3.181   7.720
14053SOL    HW256531   4.817   3.183   7.802
14053SOL    HW356532   4.801   3.199   7.652
14053SOL    MW456533   4.853   3.183   7.722
14054SOL     OW56534   4.330   3.599   7.828
14054SOL    HW256535   4.251   3.557   7.861
14054SOL    HW356536   4.396   3.582   7.895
14054SOL    MW456537   4.329   3.591   7.841
14055SOL     OW56538   4.466   3.014   7.535
14055SOL    HW256539   4.388   2.960   7.522
14055SOL    HW356540   4.437   3.087   7.588
14055SOL    MW456541   4.452   3.016   7.540
14056SOL     OW56542   5.047   3.530   7.603
14056SOL    HW256543   4.973   3.493   7.653
14056SOL    HW356544   5.055   3.620   7.636
14056SOL    MW456545   5.038   3.537   7.615
14057SOL     OW56546   5.271   3.204   7.545
14057SOL    HW256547   5.218   3.253   7.481
14057SOL    HW356548   5.302   3.270   7.606
14057SOL    MW456549   5.269   3.218   7.543
14058SOL     OW56550   4.496   2.093   7.600
14058SOL    HW256551   4.444   2.013   7.588
14058SOL    HW356552   4.583   2.070   7.568
14058SOL    MW456553   4.499   2.079   7.594
14059SOL     OW56554   4.431   3.445   7.536
14059SOL    HW256555   4.371   3.514   7.506
14059SOL    HW356556   4.376   3.387   7.589
14059SOL    MW456557   4.415   3.447   7.538
14060SOL     OW56558   4.869   2.090   7.759
14060SOL    HW256559   4.802   2.066   7.696
14060SOL    HW356560   4.934   2.139   7.708
14060SOL    MW456561   4.869   2.092   7.744
14061SOL     OW56562   4.062   3.489   7.925
14061SOL    HW256563   4.023   3.536   7.851
14061SOL    HW356564   3.996   3.424   7.950
14061SOL    MW456565   4.049   3.487   7.919
14062SOL     OW56566   5.044   2.246   7.617
14062SOL    HW256567   5.017   2.312   7.553
14062SOL    HW356568   5.114   2.289   7.667
14062SOL    MW456569   5.049   2.259   7.614
14063SOL     OW56570   4.211   2.840   7.551
14063SOL    HW256571   4.134   2.853   7.607
14063SOL    HW356572   4.175   2.804   7.470
14063SOL    MW456573   4.197   2.836   7.548
14064SOL     OW56574   4.251   3.169   7.950
14064SOL    HW256575   4.244   3.201   8.040
14064SOL    HW356576   4.161   3.153   7.922
14064SOL    MW456577   4.239   3.171   7.957
14065SOL     OW56578   5.310   2.339   7.728
14065SOL    HW256579   5.302   2.410   7.665
14065SOL    HW356580   5.328   2.383   7.811
14065SOL    MW456581   5.311   2.353   7.730
14066SOL     OW56582   4.979   2.601   7.703
14066SOL    HW256583   5.026   2.619   7.622
14066SOL    HW356584   4.945   2.685   7.731
14066SOL    MW456585   4.981   2.615   7.696
14067SOL     OW56586   4.714   3.343   7.525
14067SOL    HW256587   4.741   3.421   7.477
14067SOL    HW356588   4.621   3.358   7.544
14067SOL    MW456589   4.705   3.356   7.521
14068SOL     OW56590   5.062   1.903   7.712
14068SOL    HW256591   5.136   1.947   7.755
14068SOL    HW356592   4.986   1.957   7.734
14068SOL    MW456593   5.062   1.915   7.720
14069SOL     OW56594   4.495   2.344   7.716
14069SOL    HW256595   4.568   2.393   7.679
14069SOL    HW356596   4.511   2.253   7.690
14069SOL    MW456597   4.507   2.339   7.709
14070SOL     OW56598   4.326   3.207   7.673
14070SOL    HW256599   4.341   3.183   7.765
14070SOL    HW356600   4.234   3.185   7.657
14070SOL    MW456601   4.316   3.200   7.683
14071SOL     OW56602   4.865   3.438   7.825
14071SOL    HW256603   4.873   3.356   7.776
14071SOL    HW356604   4.784   3.477   7.792
14071SOL    MW456605   4.855   3.433   7.815
14072SOL     OW56606   5.436   3.683   7.727
14072SOL    HW256607   5.503   3.716   7.667
14072SOL    HW356608   5.393   3.762   7.761
14072SOL    MW456609   5.438   3.698   7.723
14073SOL     OW56610   4.342   3.715   7.595
14073SOL    HW256611   4.247   3.715   7.587
14073SOL    HW356612   4.358   3.661   7.673
14073SOL    MW456613   4.332   3.709   7.604
14074SOL     OW56614   5.187   2.535   7.511
14074SOL    HW256615   5.115   2.511   7.453
14074SOL    HW356616   5.253   2.572   7.453
14074SOL    MW456617   5.186   2.537   7.496
14075SOL     OW56618   4.600   2.835   7.695
14075SOL    HW256619   4.586   2.747   7.660
14075SOL    HW356620   4.551   2.892   7.636
14075SOL    MW456621   4.592   2.830   7.683
14076SOL     OW56622   4.591   3.562   7.949
14076SOL    HW256623   4.649   3.633   7.976
14076SOL    HW356624   4.614   3.490   8.007
14076SOL    MW456625   4.602   3.562   7.960
14077SOL     OW56626   4.047   1.994   7.684
14077SOL    HW256627   3.976   2.049   7.652
14077SOL    HW356628   4.089   1.960   7.605
14077SOL    MW456629   4.043   1.996   7.670
14078SOL     OW56630   3.803   2.093   7.533
14078SOL    HW256631   3.770   2.172   7.577
14078SOL    HW356632   3.858   2.126   7.462
14078SOL    MW456633   3.806   2.107   7.530
14079SOL     OW56634   3.837   3.350   7.722
14079SOL    HW256635   3.854   3.434   7.764
14079SOL    HW356636   3.872   3.359   7.634
14079SOL    MW456637   3.842   3.363   7.716
14080SOL     OW56638   5.109   3.439   7.939
14080SOL    HW256639   5.172   3.429   7.868
14080SOL    HW356640   5.026   3.459   7.894
14080SOL    MW456641   5.106   3.440   7.924
14081SOL     OW56642   5.472   4.575   7.757
14081SOL    HW256643   5.513   4.517   7.822
14081SOL    HW356644   5.379   4.567   7.774
14081SOL    MW456645   5.466   4.567   7.767
14082SOL     OW56646   4.550   4.214   7.999
14082SOL    HW256647   4.525   4.302   8.027
14082SOL    HW356648   4.547   4.217   7.903
14082SOL    MW456649   4.546   4.226   7.991
14083SOL     OW56650   3.992   4.242   7.927
14083SOL    HW256651   4.024   4.330   7.909
14083SOL    HW356652   3.980   4.240   8.022
14083SOL    MW456653   3.995   4.254   7.939
14084SOL     OW56654   4.391   3.997   8.014
14084SOL    HW256655   4.449   4.073   8.016
14084SOL    HW356656   4.326   4.018   7.947
14084SOL    MW456657   4.390   4.009   8.005
14085SOL     OW56658   5.105   4.906   7.705
14085SOL    HW256659   5.023   4.942   7.671
14085SOL    HW356660   5.173   4.949   7.654
14085SOL    MW456661   5.103   4.916   7.693
14086SOL     OW56662   4.657   5.047   7.898
14086SOL    HW256663   4.634   5.109   7.966
14086SOL    HW356664   4.614   4.965   7.924
14086SOL    MW456665   4.649   5.043   7.909
14087SOL     OW56666   4.154   4.020   7.866
14087SOL    HW256667   4.128   3.982   7.782
14087SOL    HW356668   4.091   4.090   7.882
14087SOL    MW456669   4.143   4.023   7.857
14088SOL     OW56670   4.651   5.444   7.681
14088SOL    HW256671   4.606   5.460   7.764
14088SOL    HW356672   4.582   5.409   7.623
14088SOL    MW456673   4.637   5.441   7.683
14089SOL     OW56674   5.586   4.217   7.656
14089SOL    HW256675   5.495   4.219   7.684
14089SOL    HW356676   5.631   4.279   7.714
14089SOL    MW456677   5.579   4.225   7.666
14090SOL     OW56678   5.331   4.820   8.006
14090SOL    HW256679   5.241   4.820   8.041
14090SOL    HW356680   5.324   4.866   7.923
14090SOL    MW456681   5.318   4.826   8.000
14091SOL     OW56682   4.858   4.401   7.967
14091SOL    HW256683   4.884   4.425   7.878
14091SOL    HW356684   4.840   4.308   7.963
14091SOL    MW456685   4.860   4.393   7.954
14092SOL     OW56686   5.523   5.021   7.818
14092SOL    HW256687   5.479   5.062   7.893
14092SOL    HW356688   5.580   5.089   7.783
14092SOL    MW456689   5.525   5.035   7.823
14093SOL     OW56690   3.895   5.497   7.713
14093SOL    HW256691   3.924   5.587   7.705
14093SOL    HW356692   3.845   5.480   7.634
14093SOL    MW456693   3.893   5.505   7.702
14094SOL     OW56694   5.299   5.305   7.684
14094SOL    HW256695   5.347   5.374   7.730
14094SOL    HW356696   5.220   5.349   7.653
14094SOL    MW456697   5.294   5.319   7.687
14095SOL     OW56698   4.697   4.430   7.628
14095SOL    HW256699   4.699   4.377   7.549
14095SOL    HW356700   4.785   4.467   7.634
14095SOL    MW456701   4.709   4.429   7.617
14096SOL     OW56702   5.311   4.356   7.964
14096SOL    HW256703   5.350   4.356   8.051
14096SOL    HW356704   5.252   4.432   7.964
14096SOL    MW456705   5.308   4.367   7.975
14097SOL     OW56706   4.867   5.049   7.720
14097SOL    HW256707   4.817   5.051   7.802
14097SOL    HW356708   4.801   5.067   7.652
14097SOL    MW456709   4.853   5.051   7.722
14098SOL     OW56710   4.330   5.467   7.828
14098SOL    HW256711   4.251   5.425   7.861
14098SOL    HW356712   4.396   5.450   7.895
14098SOL    MW456713   4.329   5.459   7.841
14099SOL     OW56714   4.466   4.882   7.535
14099SOL    HW256715   4.388   4.828   7.522
14099SOL    HW356716   4.437   4.955   7.588
14099SOL    MW456717   4.452   4.884   7.540
14100SOL     OW56718   5.047   5.398   7.603
14100SOL    HW256719   4.973   5.361   7.653
14100SOL    HW356720   5.055   5.488   7.636
14100SOL    MW456721   5.038   5.405   7.615
14101SOL     OW56722   5.271   5.072   7.545
14101SOL    HW256723   5.218   5.121   7.481
14101SOL    HW356724   5.302   5.138   7.606
14101SOL    MW456725   5.269   5.086   7.543
14102SOL     OW56726   4.496   3.961   7.600
14102SOL    HW256727   4.444   3.881   7.588
14102SOL    HW356728   4.583   3.938   7.568
14102SOL    MW456729   4.499   3.947   7.594
14103SOL     OW56730   4.431   5.313   7.536
14103SOL    HW256731   4.371   5.382   7.506
14103SOL    HW356732   4.376   5.255   7.589
14103SOL    MW456733   4.415   5.315   7.538
14104SOL     OW56734   4.869   3.958   7.759
14104SOL    HW256735   4.802   3.934   7.696
14104SOL    HW356736   4.934   4.007   7.708
14104SOL    MW456737   4.869   3.960   7.744
14105SOL     OW56738   4.554   4.766   7.949
14105SOL    HW256739   4.556   4.740   7.856
14105SOL    HW356740   4.612   4.703   7.992
14105SOL    MW456741   4.562   4.755   7.943
14106SOL     OW56742   5.044   4.114   7.617
14106SOL    HW256743   5.017   4.180   7.553
14106SOL    HW356744   5.114   4.157   7.667
14106SOL    MW456745   5.049   4.127   7.614
14107SOL     OW56746   4.712   3.819   7.554
14107SOL    HW256747   4.768   3.811   7.476
14107SOL    HW356748   4.689   3.729   7.576
14107SOL    MW456749   4.717   3.806   7.547
14108SOL     OW56750   5.217   4.670   7.759
14108SOL    HW256751   5.184   4.759   7.749
14108SOL    HW356752   5.182   4.641   7.844
14108SOL    MW456753   5.207   4.679   7.770
14109SOL     OW56754   4.211   4.708   7.551
14109SOL    HW256755   4.134   4.721   7.607
14109SOL    HW356756   4.175   4.672   7.470
14109SOL    MW456757   4.197   4.704   7.548
14110SOL     OW56758   4.864   4.681   7.794
14110SOL    HW256759   4.774   4.702   7.769
14110SOL    HW356760   4.891   4.754   7.850
14110SOL    MW456761   4.856   4.693   7.797
14111SOL     OW56762   4.254   4.321   7.664
14111SOL    HW256763   4.220   4.377   7.734
14111SOL    HW356764   4.325   4.271   7.704
14111SOL    MW456765   4.260   4.322   7.678
14112SOL     OW56766   5.310   4.207   7.728
14112SOL    HW256767   5.302   4.278   7.665
14112SOL    HW356768   5.328   4.251   7.811
14112SOL    MW456769   5.311   4.221   7.730
14113SOL     OW56770   4.979   4.469   7.703
14113SOL    HW256771   5.026   4.487   7.622
14113SOL    HW356772   4.945   4.553   7.731
14113SOL    MW456773   4.981   4.483   7.696
14114SOL     OW56774   4.714   5.211   7.525
14114SOL    HW256775   4.741   5.289   7.477
14114SOL    HW356776   4.621   5.226   7.544
14114SOL    MW456777   4.705   5.224   7.521
14115SOL     OW56778   5.062   3.771   7.712
14115SOL    HW256779   5.136   3.815   7.755
14115SOL    HW356780   4.986   3.825   7.734
14115SOL    MW456781   5.062   3.783   7.720
14116SOL     OW56782   5.122   4.546   7.990
14116SOL    HW256783   5.037   4.516   7.960
14116SOL    HW356784   5.114   4.553   8.085
14116SOL    MW456785   5.110   4.544   7.999
14117SOL     OW56786   4.495   4.212   7.716
14117SOL    HW256787   4.568   4.261   7.679
14117SOL    HW356788   4.511   4.121   7.690
14117SOL    MW456789   4.507   4.207   7.709
14118SOL     OW56790   3.970   4.721   7.814
14118SOL    HW256791   3.907   4.737   7.743
14118SOL    HW356792   3.917   4.684   7.885
14118SOL    MW456793   3.955   4.718   7.814
14119SOL     OW56794   4.326   5.075   7.673
14119SOL    HW256795   4.341   5.051   7.765
14119SOL    HW356796   4.234   5.053   7.657
14119SOL    MW456797   4.316   5.068   7.683
14120SOL     OW56798   4.865   5.306   7.825
14120SOL    HW256799   4.873   5.224   7.776
14120SOL    HW356800   4.784   5.345   7.792
14120SOL    MW456801   4.855   5.301   7.815
14121SOL     OW56802   4.837   4.128   7.995
14121SOL    HW256803   4.859   4.065   7.927
14121SOL    HW356804   4.742   4.120   8.006
14121SOL    MW456805   4.827   4.119   7.987
14122SOL     OW56806   3.922   3.818   7.927
14122SOL    HW256807   3.993   3.839   7.866
14122SOL    HW356808   3.876   3.746   7.885
14122SOL    MW456809   3.926   3.812   7.913
14123SOL     OW56810   5.047   4.869   7.957
14123SOL    HW256811   5.019   4.955   7.990
14123SOL    HW356812   5.075   4.885   7.867
14123SOL    MW456813   5.047   4.883   7.949
14124SOL     OW56814   4.709   3.789   8.010
14124SOL    HW256815   4.746   3.848   8.075
14124SOL    HW356816   4.686   3.845   7.936
14124SOL    MW456817   4.710   3.804   8.009
14125SOL     OW56818   5.436   5.551   7.727
14125SOL    HW256819   5.503   5.584   7.667
14125SOL    HW356820   5.393   5.630   7.761
14125SOL    MW456821   5.438   5.566   7.723
14126SOL     OW56822   4.342   5.583   7.595
14126SOL    HW256823   4.247   5.583   7.587
14126SOL    HW356824   4.358   5.529   7.673
14126SOL    MW456825   4.332   5.577   7.604
14127SOL     OW56826   5.187   4.403   7.511
14127SOL    HW256827   5.115   4.379   7.453
14127SOL    HW356828   5.253   4.440   7.453
14127SOL    MW456829   5.186   4.405   7.496
14128SOL     OW56830   4.600   4.703   7.695
14128SOL    HW256831   4.586   4.615   7.660
14128SOL    HW356832   4.551   4.760   7.636
14128SOL    MW456833   4.592   4.698   7.683
14129SOL     OW56834   5.319   3.909   7.797
14129SOL    HW256835   5.312   3.913   7.892
14129SOL    HW356836   5.331   4.000   7.770
14129SOL    MW456837   5.320   3.922   7.805
14130SOL     OW56838   4.608   4.472   7.911
14130SOL    HW256839   4.588   4.458   7.818
14130SOL    HW356840   4.701   4.451   7.918
14130SOL    MW456841   4.618   4.467   7.900
14131SOL     OW56842   4.591   5.430   7.949
14131SOL    HW256843   4.649   5.501   7.976
14131SOL    HW356844   4.614   5.358   8.007
14131SOL    MW456845   4.602   5.430   7.960
14132SOL     OW56846   4.047   3.862   7.684
14132SOL    HW256847   3.976   3.917   7.652
14132SOL    HW356848   4.089   3.828   7.605
14132SOL    MW456849   4.043   3.864   7.670
14133SOL     OW56850   3.803   3.961   7.533
14133SOL    HW256851   3.770   4.040   7.577
14133SOL    HW356852   3.858   3.994   7.462
14133SOL    MW456853   3.806   3.975   7.530
14134SOL     OW56854   5.109   5.307   7.939
14134SOL    HW256855   5.172   5.297   7.868
14134SOL    HW356856   5.026   5.327   7.894
14134SOL    MW456857   5.106   5.308   7.924
14135SOL     OW56858   5.472   6.444   7.757
14135SOL    HW256859   5.513   6.386   7.822
14135SOL    HW356860   5.379   6.436   7.774
14135SOL    MW456861   5.466   6.436   7.767
14136SOL     OW56862   4.550   6.083   7.999
14136SOL    HW256863   4.525   6.171   8.027
14136SOL    HW356864   4.547   6.086   7.903
14136SOL    MW456865   4.546   6.095   7.991
14137SOL     OW56866   5.105   6.775   7.705
14137SOL    HW256867   5.023   6.811   7.671
14137SOL    HW356868   5.173   6.818   7.654
14137SOL    MW456869   5.103   6.785   7.693
14138SOL     OW56870   4.657   6.916   7.898
14138SOL    HW256871   4.634   6.978   7.966
14138SOL    HW356872   4.614   6.834   7.924
14138SOL    MW456873   4.649   6.912   7.909
14139SOL     OW56874   4.651   7.313   7.681
14139SOL    HW256875   4.606   7.329   7.764
14139SOL    HW356876   4.582   7.278   7.623
14139SOL    MW456877   4.637   7.310   7.683
14140SOL     OW56878   5.586   6.086   7.656
14140SOL    HW256879   5.495   6.088   7.684
14140SOL    HW356880   5.631   6.148   7.714
14140SOL    MW456881   5.579   6.094   7.666
14141SOL     OW56882   5.331   6.689   8.006
14141SOL    HW256883   5.241   6.689   8.041
14141SOL    HW356884   5.324   6.735   7.923
14141SOL    MW456885   5.318   6.695   8.000
14142SOL     OW56886   4.858   6.270   7.967
14142SOL    HW256887   4.884   6.294   7.878
14142SOL    HW356888   4.840   6.177   7.963
14142SOL    MW456889   4.860   6.262   7.954
14143SOL     OW56890   5.523   6.890   7.818
14143SOL    HW256891   5.479   6.931   7.893
14143SOL    HW356892   5.580   6.958   7.783
14143SOL    MW456893   5.525   6.904   7.823
14144SOL     OW56894   3.895   7.366   7.713
14144SOL    HW256895   3.924   7.456   7.705
14144SOL    HW356896   3.845   7.349   7.634
14144SOL    MW456897   3.893   7.374   7.702
14145SOL     OW56898   5.299   7.174   7.684
14145SOL    HW256899   5.347   7.243   7.730
14145SOL    HW356900   5.220   7.218   7.653
14145SOL    MW456901   5.294   7.188   7.687
14146SOL     OW56902   4.697   6.299   7.628
14146SOL    HW256903   4.699   6.246   7.549
14146SOL    HW356904   4.785   6.336   7.634
14146SOL    MW456905   4.709   6.298   7.617
14147SOL     OW56906   5.311   6.225   7.964
14147SOL    HW256907   5.350   6.225   8.051
14147SOL    HW356908   5.252   6.301   7.964
14147SOL    MW456909   5.308   6.236   7.975
14148SOL     OW56910   4.867   6.918   7.720
14148SOL    HW256911   4.817   6.920   7.802
14148SOL    HW356912   4.801   6.936   7.652
14148SOL    MW456913   4.853   6.920   7.722
14149SOL     OW56914   4.330   7.336   7.828
14149SOL    HW256915   4.251   7.294   7.861
14149SOL    HW356916   4.396   7.319   7.895
14149SOL    MW456917   4.329   7.328   7.841
14150SOL     OW56918   4.466   6.751   7.535
14150SOL    HW256919   4.388   6.697   7.522
14150SOL    HW356920   4.437   6.824   7.588
14150SOL    MW456921   4.452   6.753   7.540
14151SOL     OW56922   5.047   7.267   7.603
14151SOL    HW256923   4.973   7.230   7.653
14151SOL    HW356924   5.055   7.357   7.636
14151SOL    MW456925   5.038   7.274   7.615
14152SOL     OW56926   5.271   6.941   7.545
14152SOL    HW256927   5.218   6.990   7.481
14152SOL    HW356928   5.302   7.007   7.606
14152SOL    MW456929   5.269   6.955   7.543
14153SOL     OW56930   4.496   5.830   7.600
14153SOL    HW256931   4.444   5.750   7.588
14153SOL    HW356932   4.583   5.807   7.568
14153SOL    MW456933   4.499   5.816   7.594
14154SOL     OW56934   4.431   7.182   7.536
14154SOL    HW256935   4.371   7.251   7.506
14154SOL    HW356936   4.376   7.124   7.589
14154SOL    MW456937   4.415   7.184   7.538
14155SOL     OW56938   4.869   5.827   7.759
14155SOL    HW256939   4.802   5.803   7.696
14155SOL    HW356940   4.934   5.876   7.708
14155SOL    MW456941   4.869   5.829   7.744
14156SOL     OW56942   4.554   6.635   7.949
14156SOL    HW256943   4.556   6.609   7.856
14156SOL    HW356944   4.612   6.572   7.992
14156SOL    MW456945   4.562   6.624   7.943
14157SOL     OW56946   5.044   5.983   7.617
14157SOL    HW256947   5.017   6.049   7.553
14157SOL    HW356948   5.114   6.026   7.667
14157SOL    MW456949   5.049   5.996   7.614
14158SOL     OW56950   4.712   5.688   7.554
14158SOL    HW256951   4.768   5.680   7.476
14158SOL    HW356952   4.689   5.598   7.576
14158SOL    MW456953   4.717   5.675   7.547
14159SOL     OW56954   5.217   6.539   7.759
14159SOL    HW256955   5.184   6.628   7.749
14159SOL    HW356956   5.182   6.510   7.844
14159SOL    MW456957   5.207   6.548   7.770
14160SOL     OW56958   4.211   6.577   7.551
14160SOL    HW256959   4.134   6.590   7.607
14160SOL    HW356960   4.175   6.541   7.470
14160SOL    MW456961   4.197   6.573   7.548
14161SOL     OW56962   4.864   6.550   7.794
14161SOL    HW256963   4.774   6.571   7.769
14161SOL    HW356964   4.891   6.623   7.850
14161SOL    MW456965   4.856   6.562   7.797
14162SOL     OW56966   4.254   6.190   7.664
14162SOL    HW256967   4.220   6.246   7.734
14162SOL    HW356968   4.325   6.140   7.704
14162SOL    MW456969   4.260   6.191   7.678
14163SOL     OW56970   5.310   6.076   7.728
14163SOL    HW256971   5.302   6.147   7.665
14163SOL    HW356972   5.328   6.120   7.811
14163SOL    MW456973   5.311   6.090   7.730
14164SOL     OW56974   4.979   6.338   7.703
14164SOL    HW256975   5.026   6.356   7.622
14164SOL    HW356976   4.945   6.422   7.731
14164SOL    MW456977   4.981   6.352   7.696
14165SOL     OW56978   4.714   7.080   7.525
14165SOL    HW256979   4.741   7.158   7.477
14165SOL    HW356980   4.621   7.095   7.544
14165SOL    MW456981   4.705   7.093   7.521
14166SOL     OW56982   5.062   5.640   7.712
14166SOL    HW256983   5.136   5.684   7.755
14166SOL    HW356984   4.986   5.694   7.734
14166SOL    MW456985   5.062   5.652   7.720
14167SOL     OW56986   5.122   6.415   7.990
14167SOL    HW256987   5.037   6.385   7.960
14167SOL    HW356988   5.114   6.422   8.085
14167SOL    MW456989   5.110   6.413   7.999
14168SOL     OW56990   4.495   6.081   7.716
14168SOL    HW256991   4.568   6.130   7.679
14168SOL    HW356992   4.511   5.990   7.690
14168SOL    MW456993   4.507   6.076   7.709
14169SOL     OW56994   3.970   6.590   7.814
14169SOL    HW256995   3.907   6.606   7.743
14169SOL    HW356996   3.917   6.553   7.885
14169SOL    MW456997   3.955   6.587   7.814
14170SOL     OW56998   4.326   6.944   7.673
14170SOL    HW256999   4.341   6.920   7.765
14170SOL    HW357000   4.234   6.922   7.657
14170SOL    MW457001   4.316   6.937   7.683
14171SOL     OW57002   4.865   7.175   7.825
14171SOL    HW257003   4.873   7.093   7.776
14171SOL    HW357004   4.784   7.214   7.792
14171SOL    MW457005   4.855   7.170   7.815
14172SOL     OW57006   4.837   5.997   7.995
14172SOL    HW257007   4.859   5.934   7.927
14172SOL    HW357008   4.742   5.989   8.006
14172SOL    MW457009   4.827   5.988   7.987
14173SOL     OW57010   5.047   6.738   7.957
14173SOL    HW257011   5.019   6.824   7.990
14173SOL    HW357012   5.075   6.754   7.867
14173SOL    MW457013   5.047   6.752   7.949
14174SOL     OW57014   4.709   5.658   8.010
14174SOL    HW257015   4.746   5.717   8.075
14174SOL    HW357016   4.686   5.714   7.936
14174SOL    MW457017   4.710   5.673   8.009
14175SOL     OW57018   5.436   7.420   7.727
14175SOL    HW257019   5.503   7.453   7.667
14175SOL    HW357020   5.393   7.499   7.761
14175SOL    MW457021   5.438   7.435   7.723
14176SOL     OW57022   4.342   7.452   7.595
14176SOL    HW257023   4.247   7.452   7.587
14176SOL    HW357024   4.358   7.398   7.673
14176SOL    MW457025   4.332   7.446   7.604
14177SOL     OW57026   5.187   6.272   7.511
14177SOL    HW257027   5.115   6.248   7.453
14177SOL    HW357028   5.253   6.309   7.453
14177SOL    MW457029   5.186   6.274   7.496
14178SOL     OW57030   4.600   6.572   7.695
14178SOL    HW257031   4.586   6.484   7.660
14178SOL    HW357032   4.551   6.629   7.636
14178SOL    MW457033   4.592   6.567   7.683
14179SOL     OW57034   5.319   5.778   7.797
14179SOL    HW257035   5.312   5.782   7.892
14179SOL    HW357036   5.331   5.869   7.770
14179SOL    MW457037   5.320   5.791   7.805
14180SOL     OW57038   4.608   6.341   7.911
14180SOL    HW257039   4.588   6.327   7.818
14180SOL    HW357040   4.701   6.320   7.918
14180SOL    MW457041   4.618   6.336   7.900
14181SOL     OW57042   4.591   7.299   7.949
14181SOL    HW257043   4.649   7.370   7.976
14181SOL    HW357044   4.614   7.227   8.007
14181SOL    MW457045   4.602   7.299   7.960
14182SOL     OW57046   3.803   5.830   7.533
14182SOL    HW257047   3.770   5.909   7.577
14182SOL    HW357048   3.858   5.863   7.462
14182SOL    MW457049   3.806   5.844   7.530
14183SOL     OW57050   5.109   7.176   7.939
14183SOL    HW257051   5.172   7.166   7.868
14183SOL    HW357052   5.026   7.196   7.894
14183SOL    MW457053   5.106   7.177   7.924
14184SOL     OW57054   7.341   0.839   7.757
14184SOL    HW257055   7.382   0.781   7.822
14184SOL    HW357056   7.248   0.831   7.774
14184SOL    MW457057   7.335   0.831   7.767
14185SOL     OW57058   6.974   1.170   7.705
14185SOL    HW257059   6.892   1.206   7.671
14185SOL    HW357060   7.042   1.213   7.654
14185SOL    MW457061   6.972   1.180   7.693
14186SOL     OW57062   5.764   1.761   7.713
14186SOL    HW257063   5.793   1.851   7.705
14186SOL    HW357064   5.714   1.744   7.634
14186SOL    MW457065   5.762   1.769   7.702
14187SOL     OW57066   7.168   1.569   7.684
14187SOL    HW257067   7.216   1.638   7.730
14187SOL    HW357068   7.089   1.613   7.653
14187SOL    MW457069   7.163   1.583   7.687
14188SOL     OW57070   6.736   1.313   7.720
14188SOL    HW257071   6.686   1.315   7.802
14188SOL    HW357072   6.670   1.331   7.652
14188SOL    MW457073   6.722   1.315   7.722
14189SOL     OW57074   6.199   1.731   7.828
14189SOL    HW257075   6.120   1.689   7.861
14189SOL    HW357076   6.265   1.714   7.895
14189SOL    MW457077   6.198   1.723   7.841
14190SOL     OW57078   6.335   1.146   7.535
14190SOL    HW257079   6.257   1.092   7.522
14190SOL    HW357080   6.306   1.219   7.588
14190SOL    MW457081   6.321   1.148   7.540
14191SOL     OW57082   6.916   1.662   7.603
14191SOL    HW257083   6.842   1.625   7.653
14191SOL    HW357084   6.924   1.752   7.636
14191SOL    MW457085   6.907   1.669   7.615
14192SOL     OW57086   7.140   1.336   7.545
14192SOL    HW257087   7.087   1.385   7.481
14192SOL    HW357088   7.171   1.402   7.606
14192SOL    MW457089   7.138   1.350   7.543
14193SOL     OW57090   6.365   0.225   7.600
14193SOL    HW257091   6.313   0.145   7.588
14193SOL    HW357092   6.452   0.202   7.568
14193SOL    MW457093   6.368   0.211   7.594
14194SOL     OW57094   6.300   1.577   7.536
14194SOL    HW257095   6.240   1.646   7.506
14194SOL    HW357096   6.245   1.519   7.589
14194SOL    MW457097   6.284   1.579   7.538
14195SOL     OW57098   6.738   0.222   7.759
14195SOL    HW257099   6.671   0.198   7.696
14195SOL    HW357100   6.803   0.271   7.708
14195SOL    MW457101   6.738   0.224   7.744
14196SOL     OW57102   6.913   0.378   7.617
14196SOL    HW257103   6.886   0.444   7.553
14196SOL    HW357104   6.983   0.421   7.667
14196SOL    MW457105   6.918   0.391   7.614
14197SOL     OW57106   6.080   0.972   7.551
14197SOL    HW257107   6.003   0.985   7.607
14197SOL    HW357108   6.044   0.936   7.470
14197SOL    MW457109   6.066   0.968   7.548
14198SOL     OW57110   7.179   0.471   7.728
14198SOL    HW257111   7.171   0.542   7.665
14198SOL    HW357112   7.197   0.515   7.811
14198SOL    MW457113   7.180   0.485   7.730
14199SOL     OW57114   6.848   0.733   7.703
14199SOL    HW257115   6.895   0.751   7.622
14199SOL    HW357116   6.814   0.817   7.731
14199SOL    MW457117   6.850   0.747   7.696
14200SOL     OW57118   6.583   1.475   7.525
14200SOL    HW257119   6.610   1.553   7.477
14200SOL    HW357120   6.490   1.490   7.544
14200SOL    MW457121   6.574   1.488   7.521
14201SOL     OW57122   6.931   0.035   7.712
14201SOL    HW257123   7.005   0.079   7.755
14201SOL    HW357124   6.855   0.089   7.734
14201SOL    MW457125   6.931   0.047   7.720
14202SOL     OW57126   6.364   0.476   7.716
14202SOL    HW257127   6.437   0.525   7.679
14202SOL    HW357128   6.380   0.385   7.690
14202SOL    MW457129   6.376   0.471   7.709
14203SOL     OW57130   7.305   1.815   7.727
14203SOL    HW257131   7.372   1.848   7.667
14203SOL    HW357132   7.262   1.894   7.761
14203SOL    MW457133   7.307   1.830   7.723
14204SOL     OW57134   6.211   1.847   7.595
14204SOL    HW257135   6.116   1.847   7.587
14204SOL    HW357136   6.227   1.793   7.673
14204SOL    MW457137   6.201   1.841   7.604
14205SOL     OW57138   7.056   0.667   7.511
14205SOL    HW257139   6.984   0.643   7.453
14205SOL    HW357140   7.122   0.704   7.453
14205SOL    MW457141   7.055   0.669   7.496
14206SOL     OW57142   6.469   0.967   7.695
14206SOL    HW257143   6.455   0.879   7.660
14206SOL    HW357144   6.420   1.024   7.636
14206SOL    MW457145   6.461   0.962   7.683
14207SOL     OW57146   5.916   0.126   7.684
14207SOL    HW257147   5.845   0.181   7.652
14207SOL    HW357148   5.958   0.092   7.605
14207SOL    MW457149   5.912   0.128   7.670
14208SOL     OW57150   5.672   0.225   7.533
14208SOL    HW257151   5.639   0.304   7.577
14208SOL    HW357152   5.727   0.258   7.462
14208SOL    MW457153   5.675   0.239   7.530
14209SOL     OW57154   7.341   2.707   7.757
14209SOL    HW257155   7.382   2.649   7.822
14209SOL    HW357156   7.248   2.699   7.774
14209SOL    MW457157   7.335   2.699   7.767
14210SOL     OW57158   6.974   3.038   7.705
14210SOL    HW257159   6.892   3.074   7.671
14210SOL    HW357160   7.042   3.081   7.654
14210SOL    MW457161   6.972   3.048   7.693
14211SOL     OW57162   6.526   3.179   7.898
14211SOL    HW257163   6.503   3.241   7.966
14211SOL    HW357164   6.483   3.097   7.924
14211SOL    MW457165   6.518   3.175   7.909
14212SOL     OW57166   5.858   3.113   7.903
14212SOL    HW257167   5.806   3.181   7.859
14212SOL    HW357168   5.855   3.039   7.843
14212SOL    MW457169   5.850   3.112   7.890
14213SOL     OW57170   6.520   3.576   7.681
14213SOL    HW257171   6.475   3.592   7.764
14213SOL    HW357172   6.451   3.541   7.623
14213SOL    MW457173   6.506   3.573   7.683
14214SOL     OW57174   5.764   3.629   7.713
14214SOL    HW257175   5.793   3.719   7.705
14214SOL    HW357176   5.714   3.612   7.634
14214SOL    MW457177   5.762   3.637   7.702
14215SOL     OW57178   7.168   3.437   7.684
14215SOL    HW257179   7.216   3.506   7.730
14215SOL    HW357180   7.089   3.481   7.653
14215SOL    MW457181   7.163   3.451   7.687
14216SOL     OW57182   6.736   3.181   7.720
14216SOL    HW257183   6.686   3.183   7.802
14216SOL    HW357184   6.670   3.199   7.652
14216SOL    MW457185   6.722   3.183   7.722
14217SOL     OW57186   6.199   3.599   7.828
14217SOL    HW257187   6.120   3.557   7.861
14217SOL    HW357188   6.265   3.582   7.895
14217SOL    MW457189   6.198   3.591   7.841
14218SOL     OW57190   6.335   3.014   7.535
14218SOL    HW257191   6.257   2.960   7.522
14218SOL    HW357192   6.306   3.087   7.588
14218SOL    MW457193   6.321   3.016   7.540
14219SOL     OW57194   6.916   3.530   7.603
14219SOL    HW257195   6.842   3.493   7.653
14219SOL    HW357196   6.924   3.620   7.636
14219SOL    MW457197   6.907   3.537   7.615
14220SOL     OW57198   7.140   3.204   7.545
14220SOL    HW257199   7.087   3.253   7.481
14220SOL    HW357200   7.171   3.270   7.606
14220SOL    MW457201   7.138   3.218   7.543
14221SOL     OW57202   6.365   2.093   7.600
14221SOL    HW257203   6.313   2.013   7.588
14221SOL    HW357204   6.452   2.070   7.568
14221SOL    MW457205   6.368   2.079   7.594
14222SOL     OW57206   6.300   3.445   7.536
14222SOL    HW257207   6.240   3.514   7.506
14222SOL    HW357208   6.245   3.387   7.589
14222SOL    MW457209   6.284   3.447   7.538
14223SOL     OW57210   6.738   2.090   7.759
14223SOL    HW257211   6.671   2.066   7.696
14223SOL    HW357212   6.803   2.139   7.708
14223SOL    MW457213   6.738   2.092   7.744
14224SOL     OW57214   5.931   3.489   7.925
14224SOL    HW257215   5.892   3.536   7.851
14224SOL    HW357216   5.865   3.424   7.950
14224SOL    MW457217   5.918   3.487   7.919
14225SOL     OW57218   6.913   2.246   7.617
14225SOL    HW257219   6.886   2.312   7.553
14225SOL    HW357220   6.983   2.289   7.667
14225SOL    MW457221   6.918   2.259   7.614
14226SOL     OW57222   6.080   2.840   7.551
14226SOL    HW257223   6.003   2.853   7.607
14226SOL    HW357224   6.044   2.804   7.470
14226SOL    MW457225   6.066   2.836   7.548
14227SOL     OW57226   6.120   3.169   7.950
14227SOL    HW257227   6.113   3.201   8.040
14227SOL    HW357228   6.030   3.153   7.922
14227SOL    MW457229   6.108   3.171   7.957
14228SOL     OW57230   7.179   2.339   7.728
14228SOL    HW257231   7.171   2.410   7.665
14228SOL    HW357232   7.197   2.383   7.811
14228SOL    MW457233   7.180   2.353   7.730
14229SOL     OW57234   6.848   2.601   7.703
14229SOL    HW257235   6.895   2.619   7.622
14229SOL    HW357236   6.814   2.685   7.731
14229SOL    MW457237   6.850   2.615   7.696
14230SOL     OW57238   6.583   3.343   7.525
14230SOL    HW257239   6.610   3.421   7.477
14230SOL    HW357240   6.490   3.358   7.544
14230SOL    MW457241   6.574   3.356   7.521
14231SOL     OW57242   6.931   1.903   7.712
14231SOL    HW257243   7.005   1.947   7.755
14231SOL    HW357244   6.855   1.957   7.734
14231SOL    MW457245   6.931   1.915   7.720
14232SOL     OW57246   6.364   2.344   7.716
14232SOL    HW257247   6.437   2.393   7.679
14232SOL    HW357248   6.380   2.253   7.690
14232SOL    MW457249   6.376   2.339   7.709
14233SOL     OW57250   6.195   3.207   7.673
14233SOL    HW257251   6.210   3.183   7.765
14233SOL    HW357252   6.103   3.185   7.657
14233SOL    MW457253   6.185   3.200   7.683
14234SOL     OW57254   6.734   3.438   7.825
14234SOL    HW257255   6.742   3.356   7.776
14234SOL    HW357256   6.653   3.477   7.792
14234SOL    MW457257   6.724   3.433   7.815
14235SOL     OW57258   7.305   3.683   7.727
14235SOL    HW257259   7.372   3.716   7.667
14235SOL    HW357260   7.262   3.762   7.761
14235SOL    MW457261   7.307   3.698   7.723
14236SOL     OW57262   6.211   3.715   7.595
14236SOL    HW257263   6.116   3.715   7.587
14236SOL    HW357264   6.227   3.661   7.673
14236SOL    MW457265   6.201   3.709   7.604
14237SOL     OW57266   7.056   2.535   7.511
14237SOL    HW257267   6.984   2.511   7.453
14237SOL    HW357268   7.122   2.572   7.453
14237SOL    MW457269   7.055   2.537   7.496
14238SOL     OW57270   6.469   2.835   7.695
14238SOL    HW257271   6.455   2.747   7.660
14238SOL    HW357272   6.420   2.892   7.636
14238SOL    MW457273   6.461   2.830   7.683
14239SOL     OW57274   6.460   3.562   7.949
14239SOL    HW257275   6.518   3.633   7.976
14239SOL    HW357276   6.483   3.490   8.007
14239SOL    MW457277   6.471   3.562   7.960
14240SOL     OW57278   5.916   1.994   7.684
14240SOL    HW257279   5.845   2.049   7.652
14240SOL    HW357280   5.958   1.960   7.605
14240SOL    MW457281   5.912   1.996   7.670
14241SOL     OW57282   5.672   2.093   7.533
14241SOL    HW257283   5.639   2.172   7.577
14241SOL    HW357284   5.727   2.126   7.462
14241SOL    MW457285   5.675   2.107   7.530
14242SOL     OW57286   5.706   3.350   7.722
14242SOL    HW257287   5.723   3.434   7.764
14242SOL    HW357288   5.741   3.359   7.634
14242SOL    MW457289   5.711   3.363   7.716
14243SOL     OW57290   6.978   3.439   7.939
14243SOL    HW257291   7.041   3.429   7.868
14243SOL    HW357292   6.895   3.459   7.894
14243SOL    MW457293   6.975   3.440   7.924
14244SOL     OW57294   6.135   4.758   7.986
14244SOL    HW257295   6.225   4.733   7.970
14244SOL    HW357296   6.131   4.851   7.963
14244SOL    MW457297   6.147   4.767   7.981
14245SOL     OW57298   6.419   4.214   7.999
14245SOL    HW257299   6.394   4.302   8.027
14245SOL    HW357300   6.416   4.217   7.903
14245SOL    MW457301   6.415   4.226   7.991
14246SOL     OW57302   5.861   4.242   7.927
14246SOL    HW257303   5.893   4.330   7.909
14246SOL    HW357304   5.849   4.240   8.022
14246SOL    MW457305   5.864   4.254   7.939
14247SOL     OW57306   6.260   3.997   8.014
14247SOL    HW257307   6.318   4.073   8.016
14247SOL    HW357308   6.195   4.018   7.947
14247SOL    MW457309   6.259   4.009   8.005
14248SOL     OW57310   6.974   4.906   7.705
14248SOL    HW257311   6.892   4.942   7.671
14248SOL    HW357312   7.042   4.949   7.654
14248SOL    MW457313   6.972   4.916   7.693
14249SOL     OW57314   6.526   5.047   7.898
14249SOL    HW257315   6.503   5.109   7.966
14249SOL    HW357316   6.483   4.965   7.924
14249SOL    MW457317   6.518   5.043   7.909
14250SOL     OW57318   6.023   4.020   7.866
14250SOL    HW257319   5.997   3.982   7.782
14250SOL    HW357320   5.960   4.090   7.882
14250SOL    MW457321   6.012   4.023   7.857
14251SOL     OW57322   5.858   4.981   7.903
14251SOL    HW257323   5.806   5.049   7.859
14251SOL    HW357324   5.855   4.907   7.843
14251SOL    MW457325   5.850   4.980   7.890
14252SOL     OW57326   6.520   5.444   7.681
14252SOL    HW257327   6.475   5.460   7.764
14252SOL    HW357328   6.451   5.409   7.623
14252SOL    MW457329   6.506   5.441   7.683
14253SOL     OW57330   7.455   4.217   7.656
14253SOL    HW257331   7.364   4.219   7.684
14253SOL    HW357332   7.500   4.279   7.714
14253SOL    MW457333   7.448   4.225   7.666
14254SOL     OW57334   6.727   4.401   7.967
14254SOL    HW257335   6.753   4.425   7.878
14254SOL    HW357336   6.709   4.308   7.963
14254SOL    MW457337   6.729   4.393   7.954
14255SOL     OW57338   5.764   5.497   7.713
14255SOL    HW257339   5.793   5.587   7.705
14255SOL    HW357340   5.714   5.480   7.634
14255SOL    MW457341   5.762   5.505   7.702
14256SOL     OW57342   7.168   5.305   7.684
14256SOL    HW257343   7.216   5.374   7.730
14256SOL    HW357344   7.089   5.349   7.653
14256SOL    MW457345   7.163   5.319   7.687
14257SOL     OW57346   6.566   4.430   7.628
14257SOL    HW257347   6.568   4.377   7.549
14257SOL    HW357348   6.654   4.467   7.634
14257SOL    MW457349   6.578   4.429   7.617
14258SOL     OW57350   7.180   4.356   7.964
14258SOL    HW257351   7.219   4.356   8.051
14258SOL    HW357352   7.121   4.432   7.964
14258SOL    MW457353   7.177   4.367   7.975
14259SOL     OW57354   6.335   4.882   7.535
14259SOL    HW257355   6.257   4.828   7.522
14259SOL    HW357356   6.306   4.955   7.588
14259SOL    MW457357   6.321   4.884   7.540
14260SOL     OW57358   7.140   5.072   7.545
14260SOL    HW257359   7.087   5.121   7.481
14260SOL    HW357360   7.171   5.138   7.606
14260SOL    MW457361   7.138   5.086   7.543
14261SOL     OW57362   6.365   3.961   7.600
14261SOL    HW257363   6.313   3.881   7.588
14261SOL    HW357364   6.452   3.938   7.568
14261SOL    MW457365   6.368   3.947   7.594
14262SOL     OW57366   6.300   5.313   7.536
14262SOL    HW257367   6.240   5.382   7.506
14262SOL    HW357368   6.245   5.255   7.589
14262SOL    MW457369   6.284   5.315   7.538
14263SOL     OW57370   6.738   3.958   7.759
14263SOL    HW257371   6.671   3.934   7.696
14263SOL    HW357372   6.803   4.007   7.708
14263SOL    MW457373   6.738   3.960   7.744
14264SOL     OW57374   5.931   5.357   7.925
14264SOL    HW257375   5.892   5.404   7.851
14264SOL    HW357376   5.865   5.292   7.950
14264SOL    MW457377   5.918   5.355   7.919
14265SOL     OW57378   6.913   4.114   7.617
14265SOL    HW257379   6.886   4.180   7.553
14265SOL    HW357380   6.983   4.157   7.667
14265SOL    MW457381   6.918   4.127   7.614
14266SOL     OW57382   6.581   3.819   7.554
14266SOL    HW257383   6.637   3.811   7.476
14266SOL    HW357384   6.558   3.729   7.576
14266SOL    MW457385   6.586   3.806   7.547
14267SOL     OW57386   6.080   4.708   7.551
14267SOL    HW257387   6.003   4.721   7.607
14267SOL    HW357388   6.044   4.672   7.470
14267SOL    MW457389   6.066   4.704   7.548
14268SOL     OW57390   6.733   4.681   7.794
14268SOL    HW257391   6.643   4.702   7.769
14268SOL    HW357392   6.760   4.754   7.850
14268SOL    MW457393   6.725   4.693   7.797
14269SOL     OW57394   6.120   5.037   7.950
14269SOL    HW257395   6.113   5.069   8.040
14269SOL    HW357396   6.030   5.021   7.922
14269SOL    MW457397   6.108   5.039   7.957
14270SOL     OW57398   6.123   4.321   7.664
14270SOL    HW257399   6.089   4.377   7.734
14270SOL    HW357400   6.194   4.271   7.704
14270SOL    MW457401   6.129   4.322   7.678
14271SOL     OW57402   7.179   4.207   7.728
14271SOL    HW257403   7.171   4.278   7.665
14271SOL    HW357404   7.197   4.251   7.811
14271SOL    MW457405   7.180   4.221   7.730
14272SOL     OW57406   6.848   4.469   7.703
14272SOL    HW257407   6.895   4.487   7.622
14272SOL    HW357408   6.814   4.553   7.731
14272SOL    MW457409   6.850   4.483   7.696
14273SOL     OW57410   6.583   5.211   7.525
14273SOL    HW257411   6.610   5.289   7.477
14273SOL    HW357412   6.490   5.226   7.544
14273SOL    MW457413   6.574   5.224   7.521
14274SOL     OW57414   5.623   4.373   7.916
14274SOL    HW257415   5.563   4.345   7.986
14274SOL    HW357416   5.697   4.313   7.922
14274SOL    MW457417   5.625   4.362   7.925
14275SOL     OW57418   6.931   3.771   7.712
14275SOL    HW257419   7.005   3.815   7.755
14275SOL    HW357420   6.855   3.825   7.734
14275SOL    MW457421   6.931   3.783   7.720
14276SOL     OW57422   6.991   4.546   7.990
14276SOL    HW257423   6.906   4.516   7.960
14276SOL    HW357424   6.983   4.553   8.085
14276SOL    MW457425   6.979   4.544   7.999
14277SOL     OW57426   6.364   4.212   7.716
14277SOL    HW257427   6.437   4.261   7.679
14277SOL    HW357428   6.380   4.121   7.690
14277SOL    MW457429   6.376   4.207   7.709
14278SOL     OW57430   5.839   4.721   7.814
14278SOL    HW257431   5.776   4.737   7.743
14278SOL    HW357432   5.786   4.684   7.885
14278SOL    MW457433   5.824   4.718   7.814
14279SOL     OW57434   6.195   5.075   7.673
14279SOL    HW257435   6.210   5.051   7.765
14279SOL    HW357436   6.103   5.053   7.657
14279SOL    MW457437   6.185   5.068   7.683
14280SOL     OW57438   6.706   4.128   7.995
14280SOL    HW257439   6.728   4.065   7.927
14280SOL    HW357440   6.611   4.120   8.006
14280SOL    MW457441   6.696   4.119   7.987
14281SOL     OW57442   5.791   3.818   7.927
14281SOL    HW257443   5.862   3.839   7.866
14281SOL    HW357444   5.745   3.746   7.885
14281SOL    MW457445   5.795   3.812   7.913
14282SOL     OW57446   6.578   3.789   8.010
14282SOL    HW257447   6.615   3.848   8.075
14282SOL    HW357448   6.555   3.845   7.936
14282SOL    MW457449   6.579   3.804   8.009
14283SOL     OW57450   5.999   4.480   7.906
14283SOL    HW257451   5.999   4.575   7.891
14283SOL    HW357452   6.076   4.464   7.960
14283SOL    MW457453   6.009   4.491   7.911
14284SOL     OW57454   7.305   5.551   7.727
14284SOL    HW257455   7.372   5.584   7.667
14284SOL    HW357456   7.262   5.630   7.761
14284SOL    MW457457   7.307   5.566   7.723
14285SOL     OW57458   5.627   4.783   7.653
14285SOL    HW257459   5.596   4.848   7.716
14285SOL    HW357460   5.576   4.705   7.672
14285SOL    MW457461   5.617   4.780   7.663
14286SOL     OW57462   6.211   5.583   7.595
14286SOL    HW257463   6.116   5.583   7.587
14286SOL    HW357464   6.227   5.529   7.673
14286SOL    MW457465   6.201   5.577   7.604
14287SOL     OW57466   7.056   4.403   7.511
14287SOL    HW257467   6.984   4.379   7.453
14287SOL    HW357468   7.122   4.440   7.453
14287SOL    MW457469   7.055   4.405   7.496
14288SOL     OW57470   7.188   3.909   7.797
14288SOL    HW257471   7.181   3.913   7.892
14288SOL    HW357472   7.200   4.000   7.770
14288SOL    MW457473   7.189   3.922   7.805
14289SOL     OW57474   5.916   3.862   7.684
14289SOL    HW257475   5.845   3.917   7.652
14289SOL    HW357476   5.958   3.828   7.605
14289SOL    MW457477   5.912   3.864   7.670
14290SOL     OW57478   5.672   3.961   7.533
14290SOL    HW257479   5.639   4.040   7.577
14290SOL    HW357480   5.727   3.994   7.462
14290SOL    MW457481   5.675   3.975   7.530
14291SOL     OW57482   5.706   5.218   7.722
14291SOL    HW257483   5.723   5.302   7.764
14291SOL    HW357484   5.741   5.227   7.634
14291SOL    MW457485   5.711   5.231   7.716
14292SOL     OW57486   6.135   6.627   7.986
14292SOL    HW257487   6.225   6.602   7.970
14292SOL    HW357488   6.131   6.720   7.963
14292SOL    MW457489   6.147   6.636   7.981
14293SOL     OW57490   5.861   6.111   7.927
14293SOL    HW257491   5.893   6.199   7.909
14293SOL    HW357492   5.849   6.109   8.022
14293SOL    MW457493   5.864   6.123   7.939
14294SOL     OW57494   6.974   6.775   7.705
14294SOL    HW257495   6.892   6.811   7.671
14294SOL    HW357496   7.042   6.818   7.654
14294SOL    MW457497   6.972   6.785   7.693
14295SOL     OW57498   6.526   6.916   7.898
14295SOL    HW257499   6.503   6.978   7.966
14295SOL    HW357500   6.483   6.834   7.924
14295SOL    MW457501   6.518   6.912   7.909
14296SOL     OW57502   6.023   5.889   7.866
14296SOL    HW257503   5.997   5.851   7.782
14296SOL    HW357504   5.960   5.959   7.882
14296SOL    MW457505   6.012   5.892   7.857
14297SOL     OW57506   5.858   6.850   7.903
14297SOL    HW257507   5.806   6.918   7.859
14297SOL    HW357508   5.855   6.776   7.843
14297SOL    MW457509   5.850   6.849   7.890
14298SOL     OW57510   6.520   7.313   7.681
14298SOL    HW257511   6.475   7.329   7.764
14298SOL    HW357512   6.451   7.278   7.623
14298SOL    MW457513   6.506   7.310   7.683
14299SOL     OW57514   5.764   7.366   7.713
14299SOL    HW257515   5.793   7.456   7.705
14299SOL    HW357516   5.714   7.349   7.634
14299SOL    MW457517   5.762   7.374   7.702
14300SOL     OW57518   7.168   7.174   7.684
14300SOL    HW257519   7.216   7.243   7.730
14300SOL    HW357520   7.089   7.218   7.653
14300SOL    MW457521   7.163   7.188   7.687
14301SOL     OW57522   6.566   6.299   7.628
14301SOL    HW257523   6.568   6.246   7.549
14301SOL    HW357524   6.654   6.336   7.634
14301SOL    MW457525   6.578   6.298   7.617
14302SOL     OW57526   6.335   6.751   7.535
14302SOL    HW257527   6.257   6.697   7.522
14302SOL    HW357528   6.306   6.824   7.588
14302SOL    MW457529   6.321   6.753   7.540
14303SOL     OW57530   7.140   6.941   7.545
14303SOL    HW257531   7.087   6.990   7.481
14303SOL    HW357532   7.171   7.007   7.606
14303SOL    MW457533   7.138   6.955   7.543
14304SOL     OW57534   6.365   5.830   7.600
14304SOL    HW257535   6.313   5.750   7.588
14304SOL    HW357536   6.452   5.807   7.568
14304SOL    MW457537   6.368   5.816   7.594
14305SOL     OW57538   6.300   7.182   7.536
14305SOL    HW257539   6.240   7.251   7.506
14305SOL    HW357540   6.245   7.124   7.589
14305SOL    MW457541   6.284   7.184   7.538
14306SOL     OW57542   5.931   7.226   7.925
14306SOL    HW257543   5.892   7.273   7.851
14306SOL    HW357544   5.865   7.161   7.950
14306SOL    MW457545   5.918   7.224   7.919
14307SOL     OW57546   6.581   5.688   7.554
14307SOL    HW257547   6.637   5.680   7.476
14307SOL    HW357548   6.558   5.598   7.576
14307SOL    MW457549   6.586   5.675   7.547
14308SOL     OW57550   6.080   6.577   7.551
14308SOL    HW257551   6.003   6.590   7.607
14308SOL    HW357552   6.044   6.541   7.470
14308SOL    MW457553   6.066   6.573   7.548
14309SOL     OW57554   6.733   6.550   7.794
14309SOL    HW257555   6.643   6.571   7.769
14309SOL    HW357556   6.760   6.623   7.850
14309SOL    MW457557   6.725   6.562   7.797
14310SOL     OW57558   6.120   6.906   7.950
14310SOL    HW257559   6.113   6.938   8.040
14310SOL    HW357560   6.030   6.890   7.922
14310SOL    MW457561   6.108   6.908   7.957
14311SOL     OW57562   6.123   6.190   7.664
14311SOL    HW257563   6.089   6.246   7.734
14311SOL    HW357564   6.194   6.140   7.704
14311SOL    MW457565   6.129   6.191   7.678
14312SOL     OW57566   6.583   7.080   7.525
14312SOL    HW257567   6.610   7.158   7.477
14312SOL    HW357568   6.490   7.095   7.544
14312SOL    MW457569   6.574   7.093   7.521
14313SOL     OW57570   5.623   6.242   7.916
14313SOL    HW257571   5.563   6.214   7.986
14313SOL    HW357572   5.697   6.182   7.922
14313SOL    MW457573   5.625   6.231   7.925
14314SOL     OW57574   6.991   6.415   7.990
14314SOL    HW257575   6.906   6.385   7.960
14314SOL    HW357576   6.983   6.422   8.085
14314SOL    MW457577   6.979   6.413   7.999
14315SOL     OW57578   6.364   6.081   7.716
14315SOL    HW257579   6.437   6.130   7.679
14315SOL    HW357580   6.380   5.990   7.690
14315SOL    MW457581   6.376   6.076   7.709
14316SOL     OW57582   5.839   6.590   7.814
14316SOL    HW257583   5.776   6.606   7.743
14316SOL    HW357584   5.786   6.553   7.885
14316SOL    MW457585   5.824   6.587   7.814
14317SOL     OW57586   6.195   6.944   7.673
14317SOL    HW257587   6.210   6.920   7.765
14317SOL    HW357588   6.103   6.922   7.657
14317SOL    MW457589   6.185   6.937   7.683
14318SOL     OW57590   5.791   5.687   7.927
14318SOL    HW257591   5.862   5.708   7.866
14318SOL    HW357592   5.745   5.615   7.885
14318SOL    MW457593   5.795   5.681   7.913
14319SOL     OW57594   5.999   6.349   7.906
14319SOL    HW257595   5.999   6.444   7.891
14319SOL    HW357596   6.076   6.333   7.960
14319SOL    MW457597   6.009   6.360   7.911
14320SOL     OW57598   7.305   7.420   7.727
14320SOL    HW257599   7.372   7.453   7.667
14320SOL    HW357600   7.262   7.499   7.761
14320SOL    MW457601   7.307   7.435   7.723
14321SOL     OW57602   5.627   6.652   7.653
14321SOL    HW257603   5.596   6.717   7.716
14321SOL    HW357604   5.576   6.574   7.672
14321SOL    MW457605   5.617   6.649   7.663
14322SOL     OW57606   6.211   7.452   7.595
14322SOL    HW257607   6.116   7.452   7.587
14322SOL    HW357608   6.227   7.398   7.673
14322SOL    MW457609   6.201   7.446   7.604
14323SOL     OW57610   7.056   6.272   7.511
14323SOL    HW257611   6.984   6.248   7.453
14323SOL    HW357612   7.122   6.309   7.453
14323SOL    MW457613   7.055   6.274   7.496
14324SOL     OW57614   5.916   5.731   7.684
14324SOL    HW257615   5.845   5.786   7.652
14324SOL    HW357616   5.958   5.697   7.605
14324SOL    MW457617   5.912   5.733   7.670
14325SOL     OW57618   5.672   5.830   7.533
14325SOL    HW257619   5.639   5.909   7.577
14325SOL    HW357620   5.727   5.863   7.462
14325SOL    MW457621   5.675   5.844   7.530
14326SOL     OW57622   5.706   7.087   7.722
14326SOL    HW257623   5.723   7.171   7.764
14326SOL    HW357624   5.741   7.096   7.634
14326SOL    MW457625   5.711   7.100   7.716
14327SOL     OW57626   1.602   8.271   1.252
14327SOL    HW257627   1.557   8.338   1.303
14327SOL    HW357628   1.690   8.307   1.238
14327SOL    MW457629   1.608   8.284   1.256
14328SOL     OW57630   0.530   8.522   0.486
14328SOL    HW257631   0.620   8.497   0.470
14328SOL    HW357632   0.526   8.615   0.463
14328SOL    MW457633   0.542   8.531   0.481
14329SOL     OW57634   1.582   8.665   1.233
14329SOL    HW257635   1.503   8.630   1.191
14329SOL    HW357636   1.609   8.737   1.177
14329SOL    MW457637   1.575   8.670   1.220
14330SOL     OW57638   0.814   7.978   0.499
14330SOL    HW257639   0.789   8.066   0.527
14330SOL    HW357640   0.811   7.981   0.403
14330SOL    MW457641   0.810   7.990   0.491
14331SOL     OW57642   0.256   8.006   0.427
14331SOL    HW257643   0.288   8.094   0.409
14331SOL    HW357644   0.244   8.004   0.522
14331SOL    MW457645   0.259   8.018   0.439
14332SOL     OW57646   0.334   8.419   1.328
14332SOL    HW257647   0.397   8.366   1.279
14332SOL    HW357648   0.315   8.493   1.271
14332SOL    MW457649   0.340   8.421   1.315
14333SOL     OW57650   0.655   7.761   0.514
14333SOL    HW257651   0.713   7.837   0.516
14333SOL    HW357652   0.590   7.782   0.447
14333SOL    MW457653   0.654   7.773   0.505
14334SOL     OW57654   0.742   8.688   0.689
14334SOL    HW257655   0.822   8.691   0.741
14334SOL    HW357656   0.770   8.655   0.603
14334SOL    MW457657   0.756   8.684   0.684
14335SOL     OW57658   0.519   8.192   0.680
14335SOL    HW257659   0.504   8.112   0.731
14335SOL    HW357660   0.601   8.227   0.714
14335SOL    MW457661   0.527   8.184   0.692
14336SOL     OW57662   0.661   8.018   1.057
14336SOL    HW257663   0.567   8.014   1.075
14336SOL    HW357664   0.691   7.927   1.066
14336SOL    MW457665   0.652   8.006   1.060
14337SOL     OW57666   0.407   8.432   0.961
14337SOL    HW257667   0.362   8.439   0.877
14337SOL    HW357668   0.387   8.515   1.005
14337SOL    MW457669   0.399   8.444   0.955
14338SOL     OW57670   0.368   8.805   0.871
14338SOL    HW257671   0.344   8.858   0.947
14338SOL    HW357672   0.424   8.863   0.819
14338SOL    MW457673   0.372   8.820   0.874
14339SOL     OW57674   0.930   8.449   0.681
14339SOL    HW257675   0.844   8.436   0.721
14339SOL    HW357676   0.983   8.376   0.713
14339SOL    MW457677   0.926   8.438   0.690
14340SOL     OW57678   1.794   7.812   0.854
14340SOL    HW257679   1.731   7.792   0.923
14340SOL    HW357680   1.784   7.741   0.791
14340SOL    MW457681   1.784   7.799   0.855
14341SOL     OW57682   0.418   7.784   0.366
14341SOL    HW257683   0.392   7.746   0.282
14341SOL    HW357684   0.355   7.854   0.382
14341SOL    MW457685   0.407   7.787   0.357
14342SOL     OW57686   1.595   8.584   0.506
14342SOL    HW257687   1.505   8.584   0.541
14342SOL    HW357688   1.588   8.630   0.423
14342SOL    MW457689   1.582   8.590   0.500
14343SOL     OW57690   1.395   8.219   1.578
14343SOL    HW257691   1.464   8.157   1.555
14343SOL    HW357692   1.320   8.193   1.525
14343SOL    MW457693   1.395   8.206   1.569
14344SOL     OW57694   1.131   8.606   1.570
14344SOL    HW257695   1.116   8.699   1.555
14344SOL    HW357696   1.226   8.596   1.570
14344SOL    MW457697   1.140   8.616   1.567
14345SOL     OW57698   0.927   8.030   1.771
14345SOL    HW257699   1.017   8.031   1.738
14345SOL    HW357700   0.886   7.955   1.729
14345SOL    MW457701   0.933   8.020   1.762
14346SOL     OW57702   1.502   8.562   0.898
14346SOL    HW257703   1.505   8.496   0.829
14346SOL    HW357704   1.587   8.605   0.894
14346SOL    MW457705   1.514   8.558   0.889
14347SOL     OW57706   1.122   8.165   0.467
14347SOL    HW257707   1.148   8.189   0.378
14347SOL    HW357708   1.104   8.072   0.463
14347SOL    MW457709   1.124   8.157   0.454
14348SOL     OW57710   0.707   7.834   1.721
14348SOL    HW257711   0.717   7.760   1.661
14348SOL    HW357712   0.743   7.803   1.804
14348SOL    MW457713   0.713   7.820   1.723
14349SOL     OW57714   1.827   7.563   0.685
14349SOL    HW257715   1.881   7.514   0.747
14349SOL    HW357716   1.770   7.497   0.646
14349SOL    MW457717   1.827   7.547   0.687
14350SOL     OW57718   0.946   7.516   1.098
14350SOL    HW257719   0.905   7.594   1.060
14350SOL    HW357720   1.040   7.534   1.093
14350SOL    MW457721   0.952   7.528   1.093
14351SOL     OW57722   1.575   8.120   0.464
14351SOL    HW257723   1.614   8.120   0.551
14351SOL    HW357724   1.516   8.196   0.464
14351SOL    MW457725   1.572   8.131   0.475
14352SOL     OW57726   0.892   8.487   1.593
14352SOL    HW257727   0.869   8.467   1.683
14352SOL    HW357728   0.977   8.531   1.598
14352SOL    MW457729   0.899   8.490   1.605
14353SOL     OW57730   0.972   7.624   1.353
14353SOL    HW257731   0.978   7.586   1.266
14353SOL    HW357732   0.961   7.718   1.338
14353SOL    MW457733   0.973   7.632   1.341
14354SOL     OW57734   1.061   8.113   1.187
14354SOL    HW257735   1.136   8.142   1.134
14354SOL    HW357736   0.993   8.178   1.171
14354SOL    MW457737   1.062   8.125   1.177
14355SOL     OW57738   1.611   8.081   1.464
14355SOL    HW257739   1.592   7.990   1.443
14355SOL    HW357740   1.589   8.130   1.385
14355SOL    MW457741   1.606   8.074   1.451
14356SOL     OW57742   1.753   9.175   1.368
14356SOL    HW257743   1.681   9.137   1.419
14356SOL    HW357744   1.770   9.260   1.409
14356SOL    MW457745   1.747   9.180   1.380
14357SOL     OW57746   1.058   7.819   1.570
14357SOL    HW257747   1.024   7.858   1.489
14357SOL    HW357748   1.036   7.727   1.563
14357SOL    MW457749   1.051   7.812   1.560
14358SOL     OW57750   1.467   8.633   1.646
14358SOL    HW257751   1.549   8.674   1.676
14358SOL    HW357752   1.430   8.595   1.726
14358SOL    MW457753   1.473   8.634   1.661
14359SOL     OW57754   1.762   8.006   0.630
14359SOL    HW257755   1.851   7.975   0.647
14359SOL    HW357756   1.705   7.946   0.678
14359SOL    MW457757   1.765   7.994   0.639
14360SOL     OW57758   0.188   7.720   0.659
14360SOL    HW257759   0.179   7.660   0.585
14360SOL    HW357760   0.121   7.691   0.722
14360SOL    MW457761   0.178   7.707   0.657
14361SOL     OW57762   0.135   7.893   1.022
14361SOL    HW257763   0.107   7.984   1.031
14361SOL    HW357764   0.072   7.854   0.961
14361SOL    MW457765   0.122   7.899   1.016
14362SOL     OW57766   1.722   8.751   1.725
14362SOL    HW257767   1.772   8.677   1.757
14362SOL    HW357768   1.668   8.778   1.800
14362SOL    MW457769   1.722   8.745   1.738
14363SOL     OW57770   1.856   8.386   1.227
14363SOL    HW257771   1.872   8.424   1.140
14363SOL    HW357772   1.890   8.452   1.288
14363SOL    MW457773   1.863   8.399   1.223
14364SOL     OW57774   1.648   9.095   0.896
14364SOL    HW257775   1.677   9.162   0.957
14364SOL    HW357776   1.629   9.019   0.951
14364SOL    MW457777   1.650   9.095   0.911
14365SOL     OW57778   0.119   8.168   1.192
14365SOL    HW257779   0.181   8.198   1.258
14365SOL    HW357780   0.053   8.237   1.186
14365SOL    MW457781   0.118   8.181   1.199
14366SOL     OW57782   0.266   8.596   1.151
14366SOL    HW257783   0.319   8.671   1.176
14366SOL    HW357784   0.185   8.634   1.117
14366SOL    MW457785   0.262   8.611   1.151
14367SOL     OW57786   0.806   8.500   1.139
14367SOL    HW257787   0.834   8.409   1.151
14367SOL    HW357788   0.735   8.494   1.075
14367SOL    MW457789   0.799   8.488   1.134
14368SOL     OW57790   0.121   8.365   0.557
14368SOL    HW257791   0.212   8.380   0.584
14368SOL    HW357792   0.124   8.286   0.503
14368SOL    MW457793   0.133   8.357   0.555
14369SOL     OW57794   0.357   8.073   1.811
14369SOL    HW257795   0.304   8.153   1.818
14369SOL    HW357796   0.427   8.085   1.876
14369SOL    MW457797   0.359   8.086   1.819
14370SOL     OW57798   0.743   7.623   1.518
14370SOL    HW257799   0.720   7.531   1.520
14370SOL    HW357800   0.829   7.625   1.475
14370SOL    MW457801   0.750   7.613   1.514
14371SOL     OW57802   0.427   8.147   1.557
14371SOL    HW257803   0.507   8.197   1.543
14371SOL    HW357804   0.418   8.141   1.652
14371SOL    MW457805   0.436   8.153   1.567
14372SOL     OW57806   1.404   7.672   1.828
14372SOL    HW257807   1.460   7.599   1.854
14372SOL    HW357808   1.374   7.710   1.910
14372SOL    MW457809   1.408   7.667   1.841
14373SOL     OW57810   1.794   8.165   0.945
14373SOL    HW257811   1.883   8.195   0.927
14373SOL    HW357812   1.774   8.105   0.874
14373SOL    MW457813   1.803   8.162   0.934
14374SOL     OW57814   1.645   8.344   1.825
14374SOL    HW257815   1.700   8.268   1.806
14374SOL    HW357816   1.647   8.352   1.920
14374SOL    MW457817   1.653   8.335   1.833
14375SOL     OW57818   0.940   7.906   1.344
14375SOL    HW257819   0.859   7.947   1.372
14375SOL    HW357820   0.987   7.974   1.296
14375SOL    MW457821   0.935   7.921   1.342
14376SOL     OW57822   1.200   8.244   0.967
14376SOL    HW257823   1.213   8.338   0.977
14376SOL    HW357824   1.161   8.234   0.881
14376SOL    MW457825   1.196   8.255   0.957
14377SOL     OW57826   0.652   8.439   0.771
14377SOL    HW257827   0.563   8.430   0.804
14377SOL    HW357828   0.656   8.529   0.739
14377SOL    MW457829   0.641   8.450   0.771
14378SOL     OW57830   1.451   8.022   0.766
14378SOL    HW257831   1.396   7.943   0.765
14378SOL    HW357832   1.433   8.063   0.850
14378SOL    MW457833   1.441   8.017   0.775
14379SOL     OW57834   0.422   7.709   1.583
14379SOL    HW257835   0.343   7.727   1.635
14379SOL    HW357836   0.417   7.771   1.510
14379SOL    MW457837   0.412   7.719   1.580
14380SOL     OW57838   1.070   8.226   0.723
14380SOL    HW257839   1.007   8.158   0.747
14380SOL    HW357840   1.090   8.207   0.631
14380SOL    MW457841   1.064   8.213   0.715
14381SOL     OW57842   0.818   8.530   0.449
14381SOL    HW257843   0.820   8.504   0.356
14381SOL    HW357844   0.876   8.467   0.492
14381SOL    MW457845   0.826   8.519   0.443
14382SOL     OW57846   1.328   7.774   0.782
14382SOL    HW257847   1.356   7.706   0.843
14382SOL    HW357848   1.242   7.745   0.752
14382SOL    MW457849   1.321   7.761   0.786
14383SOL     OW57850   0.133   8.708   0.716
14383SOL    HW257851   0.197   8.740   0.779
14383SOL    HW357852   0.182   8.644   0.664
14383SOL    MW457853   0.148   8.704   0.717
14384SOL     OW57854   0.633   8.784   1.698
14384SOL    HW257855   0.681   8.867   1.685
14384SOL    HW357856   0.690   8.732   1.754
14384SOL    MW457857   0.647   8.788   1.704
14385SOL     OW57858   0.387   7.531   1.789
14385SOL    HW257859   0.315   7.496   1.737
14385SOL    HW357860   0.445   7.572   1.724
14385SOL    MW457861   0.385   7.532   1.774
14386SOL     OW57862   1.851   8.550   1.442
14386SOL    HW257863   1.766   8.563   1.401
14386SOL    HW357864   1.831   8.514   1.529
14386SOL    MW457865   1.838   8.546   1.447
14387SOL     OW57866   0.628   8.794   0.986
14387SOL    HW257867   0.621   8.773   1.080
14387SOL    HW357868   0.546   8.762   0.949
14387SOL    MW457869   0.616   8.788   0.993
14388SOL     OW57870   1.492   7.804   1.388
14388SOL    HW257871   1.439   7.806   1.468
14388SOL    HW357872   1.477   7.717   1.351
14388SOL    MW457873   1.484   7.794   1.393
14389SOL     OW57874   1.828   7.728   1.261
14389SOL    HW257875   1.809   7.795   1.196
14389SOL    HW357876   1.885   7.666   1.216
14389SOL    MW457877   1.832   7.729   1.247
14390SOL     OW57878   0.757   7.561   0.701
14390SOL    HW257879   0.686   7.622   0.683
14390SOL    HW357880   0.808   7.558   0.620
14390SOL    MW457881   0.753   7.567   0.688
14391SOL     OW57882   0.717   8.218   1.831
14391SOL    HW257883   0.787   8.160   1.803
14391SOL    HW357884   0.660   8.163   1.886
14391SOL    MW457885   0.719   8.205   1.835
14392SOL     OW57886   1.504   8.430   1.464
14392SOL    HW257887   1.509   8.483   1.544
14392SOL    HW357888   1.466   8.347   1.492
14392SOL    MW457889   1.500   8.425   1.479
14393SOL     OW57890   1.144   7.565   1.710
14393SOL    HW257891   1.139   7.472   1.691
14393SOL    HW357892   1.227   7.576   1.756
14393SOL    MW457893   1.152   7.554   1.714
14394SOL     OW57894   0.518   8.085   0.164
14394SOL    HW257895   0.484   8.141   0.234
14394SOL    HW357896   0.589   8.035   0.204
14394SOL    MW457897   0.524   8.086   0.178
14395SOL     OW57898   1.614   8.836   0.986
14395SOL    HW257899   1.649   8.818   0.899
14395SOL    HW357900   1.519   8.837   0.973
14395SOL    MW457901   1.606   8.833   0.973
14396SOL     OW57902   1.043   8.484   1.355
14396SOL    HW257903   1.086   8.519   1.433
14396SOL    HW357904   1.026   8.561   1.301
14396SOL    MW457905   1.046   8.499   1.358
14397SOL     OW57906   0.434   7.626   0.657
14397SOL    HW257907   0.484   7.669   0.588
14397SOL    HW357908   0.349   7.670   0.657
14397SOL    MW457909   0.431   7.639   0.648
14398SOL     OW57910   0.193   8.688   1.517
14398SOL    HW257911   0.221   8.641   1.595
14398SOL    HW357912   0.114   8.643   1.488
14398SOL    MW457913   0.186   8.677   1.523
14399SOL     OW57914   0.701   8.015   1.484
14399SOL    HW257915   0.673   8.103   1.508
14399SOL    HW357916   0.670   7.959   1.555
14399SOL    MW457917   0.693   8.018   1.496
14400SOL     OW57918   0.356   8.411   0.697
14400SOL    HW257919   0.414   8.467   0.645
14400SOL    HW357920   0.400   8.326   0.699
14400SOL    MW457921   0.369   8.408   0.690
14401SOL     OW57922   1.496   7.763   0.534
14401SOL    HW257923   1.418   7.713   0.559
14401SOL    HW357924   1.467   7.854   0.534
14401SOL    MW457925   1.482   7.767   0.537
14402SOL     OW57926   1.082   7.725   0.693
14402SOL    HW257927   1.102   7.800   0.637
14402SOL    HW357928   1.062   7.764   0.778
14402SOL    MW457929   1.083   7.741   0.697
14403SOL     OW57930   0.978   8.975   0.025
14403SOL    HW257931   1.005   9.053  -0.023
14403SOL    HW357932   0.885   8.990   0.044
14403SOL    MW457933   0.969   8.988   0.021
14404SOL     OW57934   1.842   8.498   1.712
14404SOL    HW257935   1.755   8.478   1.748
14404SOL    HW357936   1.896   8.424   1.737
14404SOL    MW457937   1.837   8.487   1.720
14405SOL     OW57938   0.018   8.137   0.416
14405SOL    HW257939  -0.042   8.109   0.486
14405SOL    HW357940   0.092   8.077   0.422
14405SOL    MW457941   0.020   8.126   0.425
14406SOL     OW57942   0.444   7.876   1.305
14406SOL    HW257943   0.477   7.957   1.345
14406SOL    HW357944   0.417   7.902   1.217
14406SOL    MW457945   0.443   7.890   1.299
14407SOL     OW57946   0.398   7.843   1.041
14407SOL    HW257947   0.428   7.757   1.012
14407SOL    HW357948   0.303   7.836   1.044
14407SOL    MW457949   0.390   7.832   1.039
14408SOL     OW57950   1.227   8.052   1.732
14408SOL    HW257951   1.279   7.987   1.685
14408SOL    HW357952   1.185   8.103   1.662
14408SOL    MW457953   1.228   8.049   1.715
14409SOL     OW57954   1.326   7.847   1.593
14409SOL    HW257955   1.233   7.831   1.580
14409SOL    HW357956   1.352   7.785   1.661
14409SOL    MW457957   1.316   7.837   1.600
14410SOL     OW57958   0.541   7.621   0.932
14410SOL    HW257959   0.551   7.530   0.958
14410SOL    HW357960   0.497   7.617   0.847
14410SOL    MW457961   0.537   7.609   0.924
14411SOL     OW57962   1.692   7.943   1.103
14411SOL    HW257963   1.625   7.976   1.163
14411SOL    HW357964   1.735   8.021   1.069
14411SOL    MW457965   1.690   7.958   1.107
14412SOL     OW57966   1.870   8.663   1.073
14412SOL    HW257967   1.863   8.603   0.998
14412SOL    HW357968   1.796   8.723   1.062
14412SOL    MW457969   1.860   8.663   1.062
14413SOL     OW57970   1.252   8.525   0.991
14413SOL    HW257971   1.266   8.497   1.082
14413SOL    HW357972   1.338   8.556   0.963
14413SOL    MW457973   1.265   8.526   1.000
14414SOL     OW57974   1.335   8.020   1.270
14414SOL    HW257975   1.356   8.021   1.177
14414SOL    HW357976   1.380   7.942   1.303
14414SOL    MW457977   1.342   8.010   1.262
14415SOL     OW57978   1.828   8.151   1.812
14415SOL    HW257979   1.865   8.096   1.881
14415SOL    HW357980   1.853   8.108   1.730
14415SOL    MW457981   1.835   8.139   1.811
14416SOL     OW57982   1.375   8.449   1.863
14416SOL    HW257983   1.441   8.397   1.817
14416SOL    HW357984   1.395   8.436   1.956
14416SOL    MW457985   1.386   8.440   1.870
14417SOL     OW57986   1.386   8.310   0.490
14417SOL    HW257987   1.301   8.280   0.460
14417SOL    HW357988   1.378   8.317   0.585
14417SOL    MW457989   1.374   8.308   0.499
14418SOL     OW57990   0.462   8.773   1.221
14418SOL    HW257991   0.474   8.800   1.312
14418SOL    HW357992   0.443   8.854   1.174
14418SOL    MW457993   0.461   8.788   1.226
14419SOL     OW57994   0.746   7.753   1.044
14419SOL    HW257995   0.719   7.755   1.135
14419SOL    HW357996   0.676   7.705   0.999
14419SOL    MW457997   0.734   7.749   1.051
14420SOL     OW57998   1.502   8.830   1.438
14420SOL    HW257999   1.487   8.759   1.501
14420SOL    HW358000   1.548   8.788   1.366
14420SOL    MW458001   1.508   8.814   1.438
14421SOL     OW58002   0.576   8.561   1.555
14421SOL    HW258003   0.613   8.566   1.467
14421SOL    HW358004   0.615   8.634   1.602
14421SOL    MW458005   0.586   8.571   1.550
14422SOL     OW58006   0.756   8.604   1.367
14422SOL    HW258007   0.815   8.550   1.420
14422SOL    HW358008   0.771   8.576   1.277
14422SOL    MW458009   0.766   8.593   1.363
14423SOL     OW58010   1.567   9.093   1.539
14423SOL    HW258011   1.609   9.078   1.624
14423SOL    HW358012   1.558   9.006   1.501
14423SOL    MW458013   1.571   9.081   1.546
14424SOL     OW58014   1.227   7.572   1.130
14424SOL    HW258015   1.282   7.581   1.052
14424SOL    HW358016   1.282   7.606   1.201
14424SOL    MW458017   1.241   7.577   1.129
14425SOL     OW58018   0.234   8.485   0.314
14425SOL    HW258019   0.171   8.501   0.243
14425SOL    HW358020   0.181   8.448   0.385
14425SOL    MW458021   0.219   8.482   0.314
14426SOL     OW58022   1.129   9.070   0.325
14426SOL    HW258023   1.137   8.988   0.276
14426SOL    HW358024   1.048   9.109   0.292
14426SOL    MW458025   1.119   9.065   0.315
14427SOL     OW58026   1.005   8.706   1.137
14427SOL    HW258027   0.937   8.640   1.153
14427SOL    HW358028   1.023   8.700   1.044
14427SOL    MW458029   0.998   8.697   1.128
14428SOL     OW58030   0.998   7.845   0.958
14428SOL    HW258031   0.928   7.797   1.003
14428SOL    HW358032   1.030   7.908   1.022
14428SOL    MW458033   0.993   7.847   0.972
14429SOL     OW58034   0.649   8.281   1.578
14429SOL    HW258035   0.642   8.376   1.566
14429SOL    HW358036   0.658   8.270   1.673
14429SOL    MW458037   0.650   8.293   1.588
14430SOL     OW58038   1.454   7.559   1.303
14430SOL    HW258039   1.525   7.505   1.267
14430SOL    HW358040   1.453   7.538   1.396
14430SOL    MW458041   1.463   7.550   1.311
14431SOL     OW58042   1.654   9.089   1.787
14431SOL    HW258043   1.627   9.086   1.878
14431SOL    HW358044   1.750   9.093   1.790
14431SOL    MW458045   1.664   9.089   1.799
14432SOL     OW58046   0.465   7.951   0.771
14432SOL    HW258047   0.536   7.899   0.734
14432SOL    HW358048   0.451   7.916   0.858
14432SOL    MW458049   0.473   7.940   0.778
14433SOL     OW58050   1.101   7.892   0.495
14433SOL    HW258051   1.123   7.829   0.427
14433SOL    HW358052   1.006   7.884   0.506
14433SOL    MW458053   1.091   7.883   0.487
14434SOL     OW58054   0.186   7.582   0.427
14434SOL    HW258055   0.257   7.603   0.366
14434SOL    HW358056   0.140   7.510   0.385
14434SOL    MW458057   0.190   7.576   0.413
14435SOL     OW58058   0.017   8.049   1.570
14435SOL    HW258059   0.081   8.115   1.545
14435SOL    HW358060  -0.064   8.076   1.527
14435SOL    MW458061   0.015   8.061   1.562
14436SOL     OW58062   1.755   8.956   0.527
14436SOL    HW258063   1.725   8.889   0.588
14436SOL    HW358064   1.849   8.962   0.541
14436SOL    MW458065   1.763   8.948   0.537
14437SOL     OW58066   0.973   7.553   0.510
14437SOL    HW258067   1.010   7.612   0.575
14437SOL    HW358068   0.950   7.609   0.436
14437SOL    MW458069   0.974   7.568   0.509
14438SOL     OW58070   1.826   8.435   0.932
14438SOL    HW258071   1.817   8.467   0.843
14438SOL    HW358072   1.779   8.351   0.932
14438SOL    MW458073   1.819   8.428   0.922
14439SOL     OW58074   0.202   8.275   1.511
14439SOL    HW258075   0.223   8.344   1.449
14439SOL    HW358076   0.282   8.222   1.516
14439SOL    MW458077   0.215   8.276   1.505
14440SOL     OW58078   1.738   8.366   0.633
14440SOL    HW258079   1.832   8.355   0.621
14440SOL    HW358080   1.714   8.438   0.574
14440SOL    MW458081   1.748   8.374   0.624
14441SOL     OW58082   0.187   8.290   1.778
14441SOL    HW258083   0.113   8.234   1.804
14441SOL    HW358084   0.182   8.293   1.683
14441SOL    MW458085   0.176   8.283   1.768
14442SOL     OW58086   0.353   7.577   1.228
14442SOL    HW258087   0.396   7.661   1.248
14442SOL    HW358088   0.426   7.515   1.221
14442SOL    MW458089   0.368   7.580   1.229
14443SOL     OW58090   0.394   8.244   0.406
14443SOL    HW258091   0.394   8.339   0.391
14443SOL    HW358092   0.471   8.228   0.460
14443SOL    MW458093   0.404   8.255   0.411
14444SOL     OW58094   1.170   8.103   1.470
14444SOL    HW258095   1.206   8.076   1.386
14444SOL    HW358096   1.083   8.137   1.449
14444SOL    MW458097   1.164   8.104   1.457
14445SOL     OW58098   0.153   7.975   0.695
14445SOL    HW258099   0.215   7.982   0.768
14445SOL    HW358100   0.153   7.882   0.672
14445SOL    MW458101   0.161   7.964   0.702
14446SOL     OW58102   0.835   8.236   1.179
14446SOL    HW258103   0.793   8.154   1.155
14446SOL    HW358104   0.836   8.235   1.275
14446SOL    MW458105   0.828   8.225   1.188
14447SOL     OW58106   0.639   7.706   1.284
14447SOL    HW258107   0.570   7.769   1.305
14447SOL    HW358108   0.666   7.670   1.369
14447SOL    MW458109   0.633   7.709   1.297
14448SOL     OW58110   0.022   8.547   0.153
14448SOL    HW258111  -0.009   8.612   0.216
14448SOL    HW358112  -0.029   8.469   0.172
14448SOL    MW458113   0.012   8.544   0.163
14449SOL     OW58114   1.434   7.559   0.901
14449SOL    HW258115   1.522   7.568   0.938
14449SOL    HW358116   1.444   7.500   0.827
14449SOL    MW458117   1.448   7.553   0.895
14450SOL     OW58118   1.466   8.298   0.745
14450SOL    HW258119   1.546   8.313   0.694
14450SOL    HW358120   1.459   8.203   0.751
14450SOL    MW458121   1.475   8.287   0.740
14451SOL     OW58122   0.916   8.224   1.442
14451SOL    HW258123   0.985   8.291   1.439
14451SOL    HW358124   0.849   8.262   1.498
14451SOL    MW458125   0.917   8.237   1.449
14452SOL     OW58126   0.334   8.524   1.690
14452SOL    HW258127   0.288   8.440   1.692
14452SOL    HW358128   0.391   8.518   1.614
14452SOL    MW458129   0.336   8.512   1.682
14453SOL     OW58130   0.585   8.899   0.691
14453SOL    HW258131   0.650   8.832   0.712
14453SOL    HW358132   0.637   8.976   0.668
14453SOL    MW458133   0.600   8.901   0.690
14454SOL     OW58134   0.846   8.064   0.821
14454SOL    HW258135   0.786   8.082   0.893
14454SOL    HW358136   0.880   7.976   0.840
14454SOL    MW458137   0.842   8.054   0.834
14455SOL     OW58138   1.787   7.563   1.490
14455SOL    HW258139   1.708   7.609   1.518
14455SOL    HW358140   1.822   7.617   1.419
14455SOL    MW458141   1.781   7.576   1.484
14456SOL     OW58142   1.071   8.647   0.840
14456SOL    HW258143   1.163   8.628   0.858
14456SOL    HW358144   1.044   8.577   0.780
14456SOL    MW458145   1.079   8.635   0.834
14457SOL     OW58146   1.345   8.885   0.936
14457SOL    HW258147   1.318   8.969   0.901
14457SOL    HW358148   1.305   8.880   1.023
14457SOL    MW458149   1.338   8.894   0.942
14458SOL     OW58150   1.264   8.833   1.204
14458SOL    HW258151   1.275   8.800   1.293
14458SOL    HW358152   1.183   8.792   1.173
14458SOL    MW458153   1.254   8.825   1.210
14459SOL     OW58154   0.277   8.191   0.974
14459SOL    HW258155   0.227   8.190   1.055
14459SOL    HW358156   0.297   8.283   0.958
14459SOL    MW458157   0.273   8.203   0.982
14460SOL     OW58158   1.344   8.955   1.736
14460SOL    HW258159   1.344   9.049   1.752
14460SOL    HW358160   1.389   8.945   1.652
14460SOL    MW458161   1.350   8.965   1.727
14461SOL     OW58162   0.199   7.859   1.715
14461SOL    HW258163   0.156   7.918   1.652
14461SOL    HW358164   0.267   7.914   1.755
14461SOL    MW458165   0.203   7.874   1.712
14462SOL     OW58166   1.311   8.479   1.260
14462SOL    HW258167   1.374   8.476   1.333
14462SOL    HW358168   1.227   8.497   1.302
14462SOL    MW458169   1.307   8.481   1.275
14463SOL     OW58170   1.650   7.656   1.039
14463SOL    HW258171   1.695   7.574   1.058
14463SOL    HW358172   1.670   7.712   1.115
14463SOL    MW458173   1.660   7.652   1.051
14464SOL     OW58174   0.098   7.499   1.138
14464SOL    HW258175   0.089   7.500   1.043
14464SOL    HW358176   0.192   7.511   1.153
14464SOL    MW458177   0.110   7.502   1.129
14465SOL     OW58178   1.735   8.692   0.758
14465SOL    HW258179   1.714   8.638   0.681
14465SOL    HW358180   1.831   8.690   0.762
14465SOL    MW458181   1.744   8.685   0.747
14466SOL     OW58182   0.427   8.837   1.501
14466SOL    HW258183   0.348   8.787   1.524
14466SOL    HW358184   0.497   8.796   1.551
14466SOL    MW458185   0.425   8.825   1.511
14467SOL     OW58186   0.311   7.626   0.184
14467SOL    HW258187   0.240   7.681   0.152
14467SOL    HW358188   0.353   7.592   0.105
14467SOL    MW458189   0.307   7.628   0.170
14468SOL     OW58190   1.435   8.123   1.020
14468SOL    HW258191   1.358   8.169   0.986
14468SOL    HW358192   1.492   8.192   1.054
14468SOL    MW458193   1.432   8.138   1.020
14469SOL     OW58194   0.067   7.725   0.033
14469SOL    HW258195   0.034   7.804   0.077
14469SOL    HW358196   0.122   7.758  -0.038
14469SOL    MW458197   0.070   7.739   0.030
14470SOL     OW58198   1.736   8.339   2.125
14470SOL    HW258199   1.777   8.281   2.190
14470SOL    HW358200   1.643   8.331   2.142
14470SOL    MW458201   1.730   8.331   2.135
14471SOL     OW58202   1.602   8.271   3.120
14471SOL    HW258203   1.557   8.338   3.171
14471SOL    HW358204   1.690   8.307   3.106
14471SOL    MW458205   1.608   8.284   3.124
14472SOL     OW58206   0.530   8.522   2.354
14472SOL    HW258207   0.620   8.497   2.338
14472SOL    HW358208   0.526   8.615   2.331
14472SOL    MW458209   0.542   8.531   2.349
14473SOL     OW58210   1.582   8.665   3.101
14473SOL    HW258211   1.503   8.630   3.059
14473SOL    HW358212   1.609   8.737   3.045
14473SOL    MW458213   1.575   8.670   3.088
14474SOL     OW58214   0.814   7.978   2.367
14474SOL    HW258215   0.789   8.066   2.395
14474SOL    HW358216   0.811   7.981   2.271
14474SOL    MW458217   0.810   7.990   2.359
14475SOL     OW58218   0.256   8.006   2.295
14475SOL    HW258219   0.288   8.094   2.277
14475SOL    HW358220   0.244   8.004   2.390
14475SOL    MW458221   0.259   8.018   2.307
14476SOL     OW58222   0.334   8.419   3.196
14476SOL    HW258223   0.397   8.366   3.147
14476SOL    HW358224   0.315   8.493   3.139
14476SOL    MW458225   0.340   8.421   3.183
14477SOL     OW58226   0.655   7.761   2.382
14477SOL    HW258227   0.713   7.837   2.384
14477SOL    HW358228   0.590   7.782   2.315
14477SOL    MW458229   0.654   7.773   2.373
14478SOL     OW58230   0.742   8.688   2.557
14478SOL    HW258231   0.822   8.691   2.609
14478SOL    HW358232   0.770   8.655   2.471
14478SOL    MW458233   0.756   8.684   2.552
14479SOL     OW58234   0.519   8.192   2.548
14479SOL    HW258235   0.504   8.112   2.599
14479SOL    HW358236   0.601   8.227   2.582
14479SOL    MW458237   0.527   8.184   2.560
14480SOL     OW58238   0.661   8.018   2.925
14480SOL    HW258239   0.567   8.014   2.943
14480SOL    HW358240   0.691   7.927   2.934
14480SOL    MW458241   0.652   8.006   2.928
14481SOL     OW58242   0.407   8.432   2.829
14481SOL    HW258243   0.362   8.439   2.745
14481SOL    HW358244   0.387   8.515   2.873
14481SOL    MW458245   0.399   8.444   2.823
14482SOL     OW58246   1.369   8.670   2.073
14482SOL    HW258247   1.287   8.706   2.039
14482SOL    HW358248   1.437   8.713   2.022
14482SOL    MW458249   1.367   8.680   2.061
14483SOL     OW58250   0.368   8.805   2.739
14483SOL    HW258251   0.344   8.858   2.815
14483SOL    HW358252   0.424   8.863   2.687
14483SOL    MW458253   0.372   8.820   2.742
14484SOL     OW58254   0.930   8.449   2.549
14484SOL    HW258255   0.844   8.436   2.589
14484SOL    HW358256   0.983   8.376   2.581
14484SOL    MW458257   0.926   8.438   2.558
14485SOL     OW58258   0.921   8.811   2.266
14485SOL    HW258259   0.898   8.873   2.334
14485SOL    HW358260   0.878   8.729   2.292
14485SOL    MW458261   0.913   8.807   2.277
14486SOL     OW58262   1.794   7.812   2.722
14486SOL    HW258263   1.731   7.792   2.791
14486SOL    HW358264   1.784   7.741   2.659
14486SOL    MW458265   1.784   7.799   2.723
14487SOL     OW58266   0.418   7.784   2.234
14487SOL    HW258267   0.392   7.746   2.150
14487SOL    HW358268   0.355   7.854   2.250
14487SOL    MW458269   0.407   7.787   2.225
14488SOL     OW58270   0.253   8.745   2.271
14488SOL    HW258271   0.201   8.813   2.227
14488SOL    HW358272   0.250   8.671   2.211
14488SOL    MW458273   0.245   8.744   2.258
14489SOL     OW58274   1.850   7.981   2.024
14489SOL    HW258275   1.759   7.983   2.052
14489SOL    HW358276   1.895   8.043   2.082
14489SOL    MW458277   1.843   7.989   2.034
14490SOL     OW58278   1.595   8.584   2.374
14490SOL    HW258279   1.505   8.584   2.409
14490SOL    HW358280   1.588   8.630   2.291
14490SOL    MW458281   1.582   8.590   2.368
14491SOL     OW58282   1.395   8.219   3.446
14491SOL    HW258283   1.464   8.157   3.423
14491SOL    HW358284   1.320   8.193   3.393
14491SOL    MW458285   1.395   8.206   3.437
14492SOL     OW58286   1.131   8.606   3.438
14492SOL    HW258287   1.116   8.699   3.423
14492SOL    HW358288   1.226   8.596   3.438
14492SOL    MW458289   1.140   8.616   3.435
14493SOL     OW58290   0.927   8.030   3.639
14493SOL    HW258291   1.017   8.031   3.606
14493SOL    HW358292   0.886   7.955   3.597
14493SOL    MW458293   0.933   8.020   3.630
14494SOL     OW58294   1.502   8.562   2.766
14494SOL    HW258295   1.505   8.496   2.697
14494SOL    HW358296   1.587   8.605   2.762
14494SOL    MW458297   1.514   8.558   2.757
14495SOL     OW58298   1.122   8.165   2.335
14495SOL    HW258299   1.148   8.189   2.246
14495SOL    HW358300   1.104   8.072   2.331
14495SOL    MW458301   1.124   8.157   2.322
14496SOL     OW58302   1.787   8.785   2.186
14496SOL    HW258303   1.743   8.826   2.261
14496SOL    HW358304   1.844   8.853   2.151
14496SOL    MW458305   1.789   8.799   2.191
14497SOL     OW58306   0.707   7.834   3.589
14497SOL    HW258307   0.717   7.760   3.529
14497SOL    HW358308   0.743   7.803   3.672
14497SOL    MW458309   0.713   7.820   3.591
14498SOL     OW58310   1.827   7.563   2.553
14498SOL    HW258311   1.881   7.514   2.615
14498SOL    HW358312   1.770   7.497   2.514
14498SOL    MW458313   1.827   7.547   2.555
14499SOL     OW58314   0.946   7.516   2.966
14499SOL    HW258315   0.905   7.594   2.928
14499SOL    HW358316   1.040   7.534   2.961
14499SOL    MW458317   0.952   7.528   2.961
14500SOL     OW58318   1.563   9.069   2.052
14500SOL    HW258319   1.611   9.138   2.098
14500SOL    HW358320   1.484   9.113   2.021
14500SOL    MW458321   1.558   9.083   2.055
14501SOL     OW58322   0.961   8.194   1.996
14501SOL    HW258323   0.963   8.141   1.917
14501SOL    HW358324   1.049   8.231   2.002
14501SOL    MW458325   0.973   8.193   1.985
14502SOL     OW58326   1.575   8.120   2.332
14502SOL    HW258327   1.614   8.120   2.419
14502SOL    HW358328   1.516   8.196   2.332
14502SOL    MW458329   1.572   8.131   2.343
14503SOL     OW58330   0.892   8.487   3.461
14503SOL    HW258331   0.869   8.467   3.551
14503SOL    HW358332   0.977   8.531   3.466
14503SOL    MW458333   0.899   8.490   3.473
14504SOL     OW58334   0.972   7.624   3.221
14504SOL    HW258335   0.978   7.586   3.134
14504SOL    HW358336   0.961   7.718   3.206
14504SOL    MW458337   0.973   7.632   3.209
14505SOL     OW58338   1.061   8.113   3.055
14505SOL    HW258339   1.136   8.142   3.002
14505SOL    HW358340   0.993   8.178   3.039
14505SOL    MW458341   1.062   8.125   3.045
14506SOL     OW58342   1.611   8.081   3.332
14506SOL    HW258343   1.592   7.990   3.311
14506SOL    HW358344   1.589   8.130   3.253
14506SOL    MW458345   1.606   8.074   3.319
14507SOL     OW58346   1.753   9.175   3.236
14507SOL    HW258347   1.681   9.137   3.287
14507SOL    HW358348   1.770   9.260   3.277
14507SOL    MW458349   1.747   9.180   3.248
14508SOL     OW58350   1.058   7.819   3.438
14508SOL    HW258351   1.024   7.858   3.357
14508SOL    HW358352   1.036   7.727   3.431
14508SOL    MW458353   1.051   7.812   3.428
14509SOL     OW58354   1.467   8.633   3.514
14509SOL    HW258355   1.549   8.674   3.544
14509SOL    HW358356   1.430   8.595   3.594
14509SOL    MW458357   1.473   8.634   3.529
14510SOL     OW58358   1.762   8.006   2.498
14510SOL    HW258359   1.851   7.975   2.515
14510SOL    HW358360   1.705   7.946   2.546
14510SOL    MW458361   1.765   7.994   2.507
14511SOL     OW58362   0.188   7.720   2.527
14511SOL    HW258363   0.179   7.660   2.453
14511SOL    HW358364   0.121   7.691   2.590
14511SOL    MW458365   0.178   7.707   2.525
14512SOL     OW58366   1.131   8.813   2.088
14512SOL    HW258367   1.081   8.815   2.170
14512SOL    HW358368   1.065   8.831   2.020
14512SOL    MW458369   1.117   8.815   2.090
14513SOL     OW58370   0.135   7.893   2.890
14513SOL    HW258371   0.107   7.984   2.899
14513SOL    HW358372   0.072   7.854   2.829
14513SOL    MW458373   0.122   7.899   2.884
14514SOL     OW58374   1.722   8.751   3.593
14514SOL    HW258375   1.772   8.677   3.625
14514SOL    HW358376   1.668   8.778   3.668
14514SOL    MW458377   1.722   8.745   3.606
14515SOL     OW58378   0.730   8.646   1.903
14515SOL    HW258379   0.652   8.592   1.890
14515SOL    HW358380   0.701   8.719   1.956
14515SOL    MW458381   0.716   8.648   1.908
14516SOL     OW58382   1.856   8.386   3.095
14516SOL    HW258383   1.872   8.424   3.008
14516SOL    HW358384   1.890   8.452   3.156
14516SOL    MW458385   1.863   8.399   3.091
14517SOL     OW58386   1.648   9.095   2.764
14517SOL    HW258387   1.677   9.162   2.825
14517SOL    HW358388   1.629   9.019   2.819
14517SOL    MW458389   1.650   9.095   2.779
14518SOL     OW58390   1.311   9.162   1.971
14518SOL    HW258391   1.237   9.125   2.021
14518SOL    HW358392   1.319   9.252   2.004
14518SOL    MW458393   1.302   9.169   1.983
14519SOL     OW58394   0.119   8.168   3.060
14519SOL    HW258395   0.181   8.198   3.126
14519SOL    HW358396   0.053   8.237   3.054
14519SOL    MW458397   0.118   8.181   3.067
14520SOL     OW58398   1.535   8.836   1.913
14520SOL    HW258399   1.482   8.885   1.849
14520SOL    HW358400   1.566   8.902   1.974
14520SOL    MW458401   1.533   8.850   1.911
14521SOL     OW58402   0.760   7.725   1.968
14521SOL    HW258403   0.708   7.645   1.956
14521SOL    HW358404   0.847   7.702   1.936
14521SOL    MW458405   0.763   7.711   1.962
14522SOL     OW58406   0.266   8.596   3.019
14522SOL    HW258407   0.319   8.671   3.044
14522SOL    HW358408   0.185   8.634   2.985
14522SOL    MW458409   0.262   8.611   3.019
14523SOL     OW58410   0.806   8.500   3.007
14523SOL    HW258411   0.834   8.409   3.019
14523SOL    HW358412   0.735   8.494   2.943
14523SOL    MW458413   0.799   8.488   3.002
14524SOL     OW58414   0.121   8.365   2.425
14524SOL    HW258415   0.212   8.380   2.452
14524SOL    HW358416   0.124   8.286   2.371
14524SOL    MW458417   0.133   8.357   2.423
14525SOL     OW58418   0.357   8.073   3.679
14525SOL    HW258419   0.304   8.153   3.686
14525SOL    HW358420   0.427   8.085   3.744
14525SOL    MW458421   0.359   8.086   3.687
14526SOL     OW58422   0.743   7.623   3.386
14526SOL    HW258423   0.720   7.531   3.388
14526SOL    HW358424   0.829   7.625   3.343
14526SOL    MW458425   0.750   7.613   3.382
14527SOL     OW58426   0.427   8.147   3.425
14527SOL    HW258427   0.507   8.197   3.411
14527SOL    HW358428   0.418   8.141   3.520
14527SOL    MW458429   0.436   8.153   3.435
14528SOL     OW58430   1.404   7.672   3.696
14528SOL    HW258431   1.460   7.599   3.722
14528SOL    HW358432   1.374   7.710   3.778
14528SOL    MW458433   1.408   7.667   3.709
14529SOL     OW58434   1.794   8.165   2.813
14529SOL    HW258435   1.883   8.195   2.795
14529SOL    HW358436   1.774   8.105   2.742
14529SOL    MW458437   1.803   8.162   2.802
14530SOL     OW58438   1.645   8.344   3.693
14530SOL    HW258439   1.700   8.268   3.674
14530SOL    HW358440   1.647   8.352   3.788
14530SOL    MW458441   1.653   8.335   3.701
14531SOL     OW58442   1.133   7.722   2.127
14531SOL    HW258443   1.066   7.698   2.064
14531SOL    HW358444   1.198   7.771   2.076
14531SOL    MW458445   1.133   7.724   2.112
14532SOL     OW58446   0.940   7.906   3.212
14532SOL    HW258447   0.859   7.947   3.240
14532SOL    HW358448   0.987   7.974   3.164
14532SOL    MW458449   0.935   7.921   3.210
14533SOL     OW58450   1.200   8.244   2.835
14533SOL    HW258451   1.213   8.338   2.845
14533SOL    HW358452   1.161   8.234   2.749
14533SOL    MW458453   1.196   8.255   2.825
14534SOL     OW58454   0.652   8.439   2.639
14534SOL    HW258455   0.563   8.430   2.672
14534SOL    HW358456   0.656   8.529   2.607
14534SOL    MW458457   0.641   8.450   2.639
14535SOL     OW58458   1.451   8.022   2.634
14535SOL    HW258459   1.396   7.943   2.633
14535SOL    HW358460   1.433   8.063   2.718
14535SOL    MW458461   1.441   8.017   2.643
14536SOL     OW58462   0.422   7.709   3.451
14536SOL    HW258463   0.343   7.727   3.503
14536SOL    HW358464   0.417   7.771   3.378
14536SOL    MW458465   0.412   7.719   3.448
14537SOL     OW58466   1.070   8.226   2.591
14537SOL    HW258467   1.007   8.158   2.615
14537SOL    HW358468   1.090   8.207   2.499
14537SOL    MW458469   1.064   8.213   2.583
14538SOL     OW58470   0.818   8.530   2.317
14538SOL    HW258471   0.820   8.504   2.224
14538SOL    HW358472   0.876   8.467   2.360
14538SOL    MW458473   0.826   8.519   2.311
14539SOL     OW58474   1.328   7.774   2.650
14539SOL    HW258475   1.356   7.706   2.711
14539SOL    HW358476   1.242   7.745   2.620
14539SOL    MW458477   1.321   7.761   2.654
14540SOL     OW58478   0.133   8.708   2.584
14540SOL    HW258479   0.197   8.740   2.647
14540SOL    HW358480   0.182   8.644   2.532
14540SOL    MW458481   0.148   8.704   2.585
14541SOL     OW58482   0.633   8.784   3.566
14541SOL    HW258483   0.681   8.867   3.553
14541SOL    HW358484   0.690   8.732   3.622
14541SOL    MW458485   0.647   8.788   3.572
14542SOL     OW58486   1.308   7.878   1.985
14542SOL    HW258487   1.281   7.944   1.921
14542SOL    HW358488   1.378   7.921   2.035
14542SOL    MW458489   1.313   7.891   1.982
14543SOL     OW58490   0.976   7.583   1.922
14543SOL    HW258491   1.032   7.575   1.844
14543SOL    HW358492   0.953   7.493   1.944
14543SOL    MW458493   0.981   7.570   1.915
14544SOL     OW58494   1.481   8.434   2.127
14544SOL    HW258495   1.448   8.523   2.117
14544SOL    HW358496   1.446   8.405   2.212
14544SOL    MW458497   1.471   8.443   2.138
14545SOL     OW58498   0.387   7.531   3.657
14545SOL    HW258499   0.315   7.496   3.605
14545SOL    HW358500   0.445   7.572   3.592
14545SOL    MW458501   0.385   7.532   3.642
14546SOL     OW58502   1.851   8.550   3.310
14546SOL    HW258503   1.766   8.563   3.269
14546SOL    HW358504   1.831   8.514   3.397
14546SOL    MW458505   1.838   8.546   3.315
14547SOL     OW58506   0.475   8.472   1.919
14547SOL    HW258507   0.398   8.485   1.975
14547SOL    HW358508   0.439   8.436   1.838
14547SOL    MW458509   0.461   8.468   1.916
14548SOL     OW58510   1.128   8.445   2.162
14548SOL    HW258511   1.038   8.466   2.137
14548SOL    HW358512   1.155   8.518   2.218
14548SOL    MW458513   1.120   8.457   2.165
14549SOL     OW58514   0.628   8.794   2.854
14549SOL    HW258515   0.621   8.773   2.948
14549SOL    HW358516   0.546   8.762   2.817
14549SOL    MW458517   0.616   8.788   2.861
14550SOL     OW58518   1.492   7.804   3.256
14550SOL    HW258519   1.439   7.806   3.336
14550SOL    HW358520   1.477   7.717   3.219
14550SOL    MW458521   1.484   7.794   3.261
14551SOL     OW58522   1.828   7.728   3.129
14551SOL    HW258523   1.809   7.795   3.064
14551SOL    HW358524   1.885   7.666   3.084
14551SOL    MW458525   1.832   7.729   3.115
14552SOL     OW58526   0.757   7.561   2.569
14552SOL    HW258527   0.686   7.622   2.551
14552SOL    HW358528   0.808   7.558   2.488
14552SOL    MW458529   0.753   7.567   2.556
14553SOL     OW58530   0.515   8.801   2.318
14553SOL    HW258531   0.508   8.833   2.408
14553SOL    HW358532   0.425   8.785   2.290
14553SOL    MW458533   0.503   8.803   2.325
14554SOL     OW58534   0.717   8.218   3.699
14554SOL    HW258535   0.787   8.160   3.671
14554SOL    HW358536   0.660   8.163   3.754
14554SOL    MW458537   0.719   8.205   3.703
14555SOL     OW58538   1.504   8.430   3.332
14555SOL    HW258539   1.509   8.483   3.412
14555SOL    HW358540   1.466   8.347   3.360
14555SOL    MW458541   1.500   8.425   3.347
14556SOL     OW58542   1.144   7.565   3.578
14556SOL    HW258543   1.139   7.472   3.559
14556SOL    HW358544   1.227   7.576   3.624
14556SOL    MW458545   1.152   7.554   3.582
14557SOL     OW58546   0.518   8.085   2.032
14557SOL    HW258547   0.484   8.141   2.102
14557SOL    HW358548   0.589   8.035   2.072
14557SOL    MW458549   0.524   8.086   2.046
14558SOL     OW58550   1.614   8.836   2.854
14558SOL    HW258551   1.649   8.818   2.767
14558SOL    HW358552   1.519   8.837   2.841
14558SOL    MW458553   1.606   8.833   2.841
14559SOL     OW58554   1.043   8.484   3.223
14559SOL    HW258555   1.086   8.519   3.301
14559SOL    HW358556   1.026   8.561   3.169
14559SOL    MW458557   1.046   8.499   3.226
14560SOL     OW58558   1.574   7.971   2.096
14560SOL    HW258559   1.566   8.042   2.033
14560SOL    HW358560   1.592   8.015   2.179
14560SOL    MW458561   1.575   7.985   2.098
14561SOL     OW58562   0.434   7.626   2.525
14561SOL    HW258563   0.484   7.669   2.456
14561SOL    HW358564   0.349   7.670   2.525
14561SOL    MW458565   0.431   7.639   2.516
14562SOL     OW58566   0.193   8.688   3.385
14562SOL    HW258567   0.221   8.641   3.463
14562SOL    HW358568   0.114   8.643   3.356
14562SOL    MW458569   0.186   8.677   3.391
14563SOL     OW58570   0.701   8.015   3.352
14563SOL    HW258571   0.673   8.103   3.376
14563SOL    HW358572   0.670   7.959   3.423
14563SOL    MW458573   0.693   8.018   3.364
14564SOL     OW58574   1.243   8.233   2.071
14564SOL    HW258575   1.290   8.251   1.990
14564SOL    HW358576   1.209   8.317   2.099
14564SOL    MW458577   1.245   8.247   2.064
14565SOL     OW58578   0.356   8.411   2.565
14565SOL    HW258579   0.414   8.467   2.513
14565SOL    HW358580   0.400   8.326   2.567
14565SOL    MW458581   0.369   8.408   2.558
14566SOL     OW58582   1.496   7.763   2.402
14566SOL    HW258583   1.418   7.713   2.427
14566SOL    HW358584   1.467   7.854   2.402
14566SOL    MW458585   1.482   7.767   2.405
14567SOL     OW58586   1.082   7.725   2.561
14567SOL    HW258587   1.102   7.800   2.505
14567SOL    HW358588   1.062   7.764   2.646
14567SOL    MW458589   1.083   7.741   2.565
14568SOL     OW58590   1.842   8.498   3.580
14568SOL    HW258591   1.755   8.478   3.616
14568SOL    HW358592   1.896   8.424   3.605
14568SOL    MW458593   1.837   8.487   3.588
14569SOL     OW58594   0.018   8.137   2.284
14569SOL    HW258595  -0.042   8.109   2.354
14569SOL    HW358596   0.092   8.077   2.290
14569SOL    MW458597   0.020   8.126   2.293
14570SOL     OW58598   0.444   7.876   3.173
14570SOL    HW258599   0.477   7.957   3.213
14570SOL    HW358600   0.417   7.902   3.085
14570SOL    MW458601   0.443   7.890   3.167
14571SOL     OW58602   0.398   7.843   2.909
14571SOL    HW258603   0.428   7.757   2.880
14571SOL    HW358604   0.303   7.836   2.912
14571SOL    MW458605   0.390   7.832   2.907
14572SOL     OW58606   1.227   8.052   3.600
14572SOL    HW258607   1.279   7.987   3.553
14572SOL    HW358608   1.185   8.103   3.530
14572SOL    MW458609   1.228   8.049   3.583
14573SOL     OW58610   1.326   7.847   3.461
14573SOL    HW258611   1.233   7.831   3.448
14573SOL    HW358612   1.352   7.785   3.529
14573SOL    MW458613   1.316   7.837   3.468
14574SOL     OW58614   0.541   7.621   2.800
14574SOL    HW258615   0.551   7.530   2.826
14574SOL    HW358616   0.497   7.617   2.715
14574SOL    MW458617   0.537   7.609   2.792
14575SOL     OW58618   1.692   7.943   2.971
14575SOL    HW258619   1.625   7.976   3.031
14575SOL    HW358620   1.735   8.021   2.937
14575SOL    MW458621   1.690   7.958   2.975
14576SOL     OW58622   1.870   8.663   2.941
14576SOL    HW258623   1.863   8.603   2.866
14576SOL    HW358624   1.796   8.723   2.930
14576SOL    MW458625   1.860   8.663   2.930
14577SOL     OW58626   1.252   8.525   2.859
14577SOL    HW258627   1.266   8.497   2.950
14577SOL    HW358628   1.338   8.556   2.831
14577SOL    MW458629   1.265   8.526   2.868
14578SOL     OW58630   1.335   8.020   3.138
14578SOL    HW258631   1.356   8.021   3.045
14578SOL    HW358632   1.380   7.942   3.171
14578SOL    MW458633   1.342   8.010   3.130
14579SOL     OW58634   1.828   8.151   3.680
14579SOL    HW258635   1.865   8.096   3.749
14579SOL    HW358636   1.853   8.108   3.598
14579SOL    MW458637   1.835   8.139   3.679
14580SOL     OW58638   1.375   8.449   3.731
14580SOL    HW258639   1.441   8.397   3.685
14580SOL    HW358640   1.395   8.436   3.824
14580SOL    MW458641   1.386   8.440   3.738
14581SOL     OW58642   1.326   7.535   2.080
14581SOL    HW258643   1.400   7.579   2.123
14581SOL    HW358644   1.250   7.589   2.102
14581SOL    MW458645   1.326   7.547   2.088
14582SOL     OW58646   1.386   8.310   2.358
14582SOL    HW258647   1.301   8.280   2.328
14582SOL    HW358648   1.378   8.317   2.453
14582SOL    MW458649   1.374   8.308   2.367
14583SOL     OW58650   0.462   8.773   3.089
14583SOL    HW258651   0.474   8.800   3.180
14583SOL    HW358652   0.443   8.854   3.042
14583SOL    MW458653   0.461   8.788   3.094
14584SOL     OW58654   0.746   7.753   2.912
14584SOL    HW258655   0.719   7.755   3.003
14584SOL    HW358656   0.676   7.705   2.867
14584SOL    MW458657   0.734   7.749   2.919
14585SOL     OW58658   1.502   8.830   3.306
14585SOL    HW258659   1.487   8.759   3.369
14585SOL    HW358660   1.548   8.788   3.234
14585SOL    MW458661   1.508   8.814   3.306
14586SOL     OW58662   0.576   8.561   3.423
14586SOL    HW258663   0.613   8.566   3.335
14586SOL    HW358664   0.615   8.634   3.470
14586SOL    MW458665   0.586   8.571   3.418
14587SOL     OW58666   0.756   8.604   3.235
14587SOL    HW258667   0.815   8.550   3.288
14587SOL    HW358668   0.771   8.576   3.145
14587SOL    MW458669   0.766   8.593   3.231
14588SOL     OW58670   0.759   7.976   2.084
14588SOL    HW258671   0.832   8.025   2.047
14588SOL    HW358672   0.775   7.885   2.058
14588SOL    MW458673   0.771   7.971   2.077
14589SOL     OW58674   1.567   9.093   3.407
14589SOL    HW258675   1.609   9.078   3.492
14589SOL    HW358676   1.558   9.006   3.369
14589SOL    MW458677   1.571   9.081   3.414
14590SOL     OW58678   1.227   7.572   2.998
14590SOL    HW258679   1.282   7.581   2.920
14590SOL    HW358680   1.282   7.606   3.069
14590SOL    MW458681   1.241   7.577   2.997
14591SOL     OW58682   0.234   8.485   2.182
14591SOL    HW258683   0.171   8.501   2.111
14591SOL    HW358684   0.181   8.448   2.253
14591SOL    MW458685   0.219   8.482   2.182
14592SOL     OW58686   1.129   9.070   2.193
14592SOL    HW258687   1.137   8.988   2.144
14592SOL    HW358688   1.048   9.109   2.160
14592SOL    MW458689   1.119   9.065   2.183
14593SOL     OW58690   1.005   8.706   3.005
14593SOL    HW258691   0.937   8.640   3.021
14593SOL    HW358692   1.023   8.700   2.912
14593SOL    MW458693   0.998   8.697   2.996
14594SOL     OW58694   0.998   7.845   2.826
14594SOL    HW258695   0.928   7.797   2.871
14594SOL    HW358696   1.030   7.908   2.890
14594SOL    MW458697   0.993   7.847   2.840
14595SOL     OW58698   0.649   8.281   3.446
14595SOL    HW258699   0.642   8.376   3.434
14595SOL    HW358700   0.658   8.270   3.541
14595SOL    MW458701   0.650   8.293   3.456
14596SOL     OW58702   1.454   7.559   3.171
14596SOL    HW258703   1.525   7.505   3.135
14596SOL    HW358704   1.453   7.538   3.264
14596SOL    MW458705   1.463   7.550   3.179
14597SOL     OW58706   1.654   9.089   3.655
14597SOL    HW258707   1.627   9.086   3.746
14597SOL    HW358708   1.750   9.093   3.658
14597SOL    MW458709   1.664   9.089   3.667
14598SOL     OW58710   0.465   7.951   2.639
14598SOL    HW258711   0.536   7.899   2.602
14598SOL    HW358712   0.451   7.916   2.726
14598SOL    MW458713   0.473   7.940   2.646
14599SOL     OW58714   1.101   7.892   2.363
14599SOL    HW258715   1.123   7.829   2.295
14599SOL    HW358716   1.006   7.884   2.374
14599SOL    MW458717   1.091   7.883   2.355
14600SOL     OW58718   0.186   7.582   2.295
14600SOL    HW258719   0.257   7.603   2.234
14600SOL    HW358720   0.140   7.510   2.253
14600SOL    MW458721   0.190   7.576   2.281
14601SOL     OW58722   0.017   8.049   3.438
14601SOL    HW258723   0.081   8.115   3.413
14601SOL    HW358724  -0.064   8.076   3.395
14601SOL    MW458725   0.015   8.061   3.430
14602SOL     OW58726   1.755   8.956   2.395
14602SOL    HW258727   1.725   8.889   2.456
14602SOL    HW358728   1.849   8.962   2.409
14602SOL    MW458729   1.763   8.948   2.405
14603SOL     OW58730   1.311   8.633   2.325
14603SOL    HW258731   1.283   8.719   2.358
14603SOL    HW358732   1.339   8.649   2.235
14603SOL    MW458733   1.311   8.647   2.317
14604SOL     OW58734   0.973   7.553   2.378
14604SOL    HW258735   1.010   7.612   2.443
14604SOL    HW358736   0.950   7.609   2.304
14604SOL    MW458737   0.974   7.568   2.377
14605SOL     OW58738   1.826   8.435   2.800
14605SOL    HW258739   1.817   8.467   2.711
14605SOL    HW358740   1.779   8.351   2.800
14605SOL    MW458741   1.819   8.428   2.790
14606SOL     OW58742   0.202   8.275   3.379
14606SOL    HW258743   0.223   8.344   3.317
14606SOL    HW358744   0.282   8.222   3.384
14606SOL    MW458745   0.215   8.276   3.373
14607SOL     OW58746   1.738   8.366   2.501
14607SOL    HW258747   1.832   8.355   2.489
14607SOL    HW358748   1.714   8.438   2.442
14607SOL    MW458749   1.748   8.374   2.492
14608SOL     OW58750   0.187   8.290   3.646
14608SOL    HW258751   0.113   8.234   3.672
14608SOL    HW358752   0.182   8.293   3.551
14608SOL    MW458753   0.176   8.283   3.636
14609SOL     OW58754   0.353   7.577   3.096
14609SOL    HW258755   0.396   7.661   3.116
14609SOL    HW358756   0.426   7.515   3.089
14609SOL    MW458757   0.368   7.580   3.097
14610SOL     OW58758   0.394   8.244   2.274
14610SOL    HW258759   0.394   8.339   2.259
14610SOL    HW358760   0.471   8.228   2.328
14610SOL    MW458761   0.404   8.255   2.279
14611SOL     OW58762   1.170   8.103   3.338
14611SOL    HW258763   1.206   8.076   3.254
14611SOL    HW358764   1.083   8.137   3.317
14611SOL    MW458765   1.164   8.104   3.325
14612SOL     OW58766   0.153   7.975   2.563
14612SOL    HW258767   0.215   7.982   2.636
14612SOL    HW358768   0.153   7.882   2.540
14612SOL    MW458769   0.161   7.964   2.570
14613SOL     OW58770   0.835   8.236   3.047
14613SOL    HW258771   0.793   8.154   3.023
14613SOL    HW358772   0.836   8.235   3.143
14613SOL    MW458773   0.828   8.225   3.056
14614SOL     OW58774   0.639   7.706   3.152
14614SOL    HW258775   0.570   7.769   3.173
14614SOL    HW358776   0.666   7.670   3.237
14614SOL    MW458777   0.633   7.709   3.165
14615SOL     OW58778   0.022   8.547   2.021
14615SOL    HW258779  -0.009   8.612   2.084
14615SOL    HW358780  -0.029   8.469   2.040
14615SOL    MW458781   0.012   8.544   2.031
14616SOL     OW58782   1.434   7.559   2.769
14616SOL    HW258783   1.522   7.568   2.806
14616SOL    HW358784   1.444   7.500   2.695
14616SOL    MW458785   1.448   7.553   2.763
14617SOL     OW58786   1.466   8.298   2.613
14617SOL    HW258787   1.546   8.313   2.562
14617SOL    HW358788   1.459   8.203   2.619
14617SOL    MW458789   1.475   8.287   2.608
14618SOL     OW58790   0.916   8.224   3.310
14618SOL    HW258791   0.985   8.291   3.307
14618SOL    HW358792   0.849   8.262   3.366
14618SOL    MW458793   0.917   8.237   3.317
14619SOL     OW58794   0.334   8.524   3.558
14619SOL    HW258795   0.288   8.440   3.560
14619SOL    HW358796   0.391   8.518   3.482
14619SOL    MW458797   0.336   8.512   3.550
14620SOL     OW58798   1.451   8.167   1.879
14620SOL    HW258799   1.379   8.143   1.821
14620SOL    HW358800   1.517   8.204   1.821
14620SOL    MW458801   1.450   8.169   1.864
14621SOL     OW58802   0.585   8.899   2.559
14621SOL    HW258803   0.650   8.832   2.580
14621SOL    HW358804   0.637   8.976   2.536
14621SOL    MW458805   0.600   8.901   2.558
14622SOL     OW58806   0.846   8.064   2.689
14622SOL    HW258807   0.786   8.082   2.761
14622SOL    HW358808   0.880   7.976   2.708
14622SOL    MW458809   0.842   8.054   2.702
14623SOL     OW58810   1.787   7.563   3.358
14623SOL    HW258811   1.708   7.609   3.386
14623SOL    HW358812   1.822   7.617   3.287
14623SOL    MW458813   1.781   7.576   3.352
14624SOL     OW58814   1.071   8.647   2.708
14624SOL    HW258815   1.163   8.628   2.726
14624SOL    HW358816   1.044   8.577   2.648
14624SOL    MW458817   1.079   8.635   2.702
14625SOL     OW58818   0.864   8.467   2.063
14625SOL    HW258819   0.850   8.379   2.028
14625SOL    HW358820   0.815   8.524   2.004
14625SOL    MW458821   0.856   8.462   2.051
14626SOL     OW58822   1.345   8.885   2.804
14626SOL    HW258823   1.318   8.969   2.769
14626SOL    HW358824   1.305   8.880   2.891
14626SOL    MW458825   1.338   8.894   2.810
14627SOL     OW58826   1.264   8.833   3.072
14627SOL    HW258827   1.275   8.800   3.161
14627SOL    HW358828   1.183   8.792   3.041
14627SOL    MW458829   1.254   8.825   3.078
14628SOL     OW58830   0.277   8.191   2.842
14628SOL    HW258831   0.227   8.190   2.923
14628SOL    HW358832   0.297   8.283   2.826
14628SOL    MW458833   0.273   8.203   2.850
14629SOL     OW58834   1.344   8.955   3.604
14629SOL    HW258835   1.344   9.049   3.620
14629SOL    HW358836   1.389   8.945   3.520
14629SOL    MW458837   1.350   8.965   3.595
14630SOL     OW58838   1.583   7.673   2.165
14630SOL    HW258839   1.576   7.677   2.260
14630SOL    HW358840   1.595   7.764   2.138
14630SOL    MW458841   1.584   7.686   2.173
14631SOL     OW58842   0.872   8.236   2.279
14631SOL    HW258843   0.852   8.222   2.186
14631SOL    HW358844   0.965   8.215   2.286
14631SOL    MW458845   0.882   8.231   2.268
14632SOL     OW58846   0.199   7.859   3.583
14632SOL    HW258847   0.156   7.918   3.520
14632SOL    HW358848   0.267   7.914   3.623
14632SOL    MW458849   0.203   7.874   3.580
14633SOL     OW58850   1.311   8.479   3.128
14633SOL    HW258851   1.374   8.476   3.201
14633SOL    HW358852   1.227   8.497   3.170
14633SOL    MW458853   1.307   8.481   3.143
14634SOL     OW58854   1.650   7.656   2.907
14634SOL    HW258855   1.695   7.574   2.926
14634SOL    HW358856   1.670   7.712   2.983
14634SOL    MW458857   1.660   7.652   2.919
14635SOL     OW58858   0.098   7.499   3.006
14635SOL    HW258859   0.089   7.500   2.911
14635SOL    HW358860   0.192   7.511   3.021
14635SOL    MW458861   0.110   7.502   2.997
14636SOL     OW58862   1.735   8.692   2.626
14636SOL    HW258863   1.714   8.638   2.549
14636SOL    HW358864   1.831   8.690   2.630
14636SOL    MW458865   1.744   8.685   2.615
14637SOL     OW58866   0.427   8.837   3.369
14637SOL    HW258867   0.348   8.787   3.392
14637SOL    HW358868   0.497   8.796   3.419
14637SOL    MW458869   0.425   8.825   3.379
14638SOL     OW58870   0.311   7.626   2.052
14638SOL    HW258871   0.240   7.681   2.020
14638SOL    HW358872   0.353   7.592   1.973
14638SOL    MW458873   0.307   7.628   2.038
14639SOL     OW58874   1.435   8.123   2.888
14639SOL    HW258875   1.358   8.169   2.854
14639SOL    HW358876   1.492   8.192   2.922
14639SOL    MW458877   1.432   8.138   2.888
14640SOL     OW58878   0.067   7.725   1.901
14640SOL    HW258879   0.034   7.804   1.945
14640SOL    HW358880   0.122   7.758   1.830
14640SOL    MW458881   0.070   7.739   1.898
14641SOL     OW58882   1.373   9.071   2.307
14641SOL    HW258883   1.436   9.061   2.236
14641SOL    HW358884   1.290   9.091   2.262
14641SOL    MW458885   1.370   9.072   2.292
14642SOL     OW58886   1.736   8.339   3.993
14642SOL    HW258887   1.777   8.281   4.058
14642SOL    HW358888   1.643   8.331   4.010
14642SOL    MW458889   1.730   8.331   4.003
14643SOL     OW58890   1.602   8.271   4.988
14643SOL    HW258891   1.557   8.338   5.039
14643SOL    HW358892   1.690   8.307   4.974
14643SOL    MW458893   1.608   8.284   4.992
14644SOL     OW58894   0.530   8.522   4.222
14644SOL    HW258895   0.620   8.497   4.206
14644SOL    HW358896   0.526   8.615   4.199
14644SOL    MW458897   0.542   8.531   4.217
14645SOL     OW58898   1.582   8.665   4.969
14645SOL    HW258899   1.503   8.630   4.927
14645SOL    HW358900   1.609   8.737   4.913
14645SOL    MW458901   1.575   8.670   4.956
14646SOL     OW58902   0.814   7.978   4.235
14646SOL    HW258903   0.789   8.066   4.263
14646SOL    HW358904   0.811   7.981   4.139
14646SOL    MW458905   0.810   7.990   4.227
14647SOL     OW58906   0.256   8.006   4.163
14647SOL    HW258907   0.288   8.094   4.145
14647SOL    HW358908   0.244   8.004   4.258
14647SOL    MW458909   0.259   8.018   4.175
14648SOL     OW58910   0.334   8.419   5.064
14648SOL    HW258911   0.397   8.366   5.015
14648SOL    HW358912   0.315   8.493   5.007
14648SOL    MW458913   0.340   8.421   5.051
14649SOL     OW58914   0.655   7.761   4.250
14649SOL    HW258915   0.713   7.837   4.252
14649SOL    HW358916   0.590   7.782   4.183
14649SOL    MW458917   0.654   7.773   4.241
14650SOL     OW58918   0.742   8.688   4.425
14650SOL    HW258919   0.822   8.691   4.477
14650SOL    HW358920   0.770   8.655   4.339
14650SOL    MW458921   0.756   8.684   4.420
14651SOL     OW58922   0.519   8.192   4.416
14651SOL    HW258923   0.504   8.112   4.467
14651SOL    HW358924   0.601   8.227   4.450
14651SOL    MW458925   0.527   8.184   4.428
14652SOL     OW58926   0.661   8.018   4.793
14652SOL    HW258927   0.567   8.014   4.811
14652SOL    HW358928   0.691   7.927   4.802
14652SOL    MW458929   0.652   8.006   4.796
14653SOL     OW58930   0.407   8.432   4.697
14653SOL    HW258931   0.362   8.439   4.613
14653SOL    HW358932   0.387   8.515   4.741
14653SOL    MW458933   0.399   8.444   4.691
14654SOL     OW58934   1.369   8.670   3.941
14654SOL    HW258935   1.287   8.706   3.907
14654SOL    HW358936   1.437   8.713   3.890
14654SOL    MW458937   1.367   8.680   3.929
14655SOL     OW58938   0.368   8.805   4.607
14655SOL    HW258939   0.344   8.858   4.683
14655SOL    HW358940   0.424   8.863   4.555
14655SOL    MW458941   0.372   8.820   4.610
14656SOL     OW58942   0.930   8.449   4.417
14656SOL    HW258943   0.844   8.436   4.457
14656SOL    HW358944   0.983   8.376   4.449
14656SOL    MW458945   0.926   8.438   4.426
14657SOL     OW58946   0.921   8.811   4.134
14657SOL    HW258947   0.898   8.873   4.202
14657SOL    HW358948   0.878   8.729   4.160
14657SOL    MW458949   0.913   8.807   4.145
14658SOL     OW58950   1.794   7.812   4.590
14658SOL    HW258951   1.731   7.792   4.659
14658SOL    HW358952   1.784   7.741   4.527
14658SOL    MW458953   1.784   7.799   4.591
14659SOL     OW58954   0.418   7.784   4.102
14659SOL    HW258955   0.392   7.746   4.018
14659SOL    HW358956   0.355   7.854   4.118
14659SOL    MW458957   0.407   7.787   4.093
14660SOL     OW58958   0.253   8.745   4.139
14660SOL    HW258959   0.201   8.813   4.095
14660SOL    HW358960   0.250   8.671   4.079
14660SOL    MW458961   0.245   8.744   4.126
14661SOL     OW58962   1.850   7.981   3.892
14661SOL    HW258963   1.759   7.983   3.920
14661SOL    HW358964   1.895   8.043   3.950
14661SOL    MW458965   1.843   7.989   3.902
14662SOL     OW58966   1.595   8.584   4.242
14662SOL    HW258967   1.505   8.584   4.277
14662SOL    HW358968   1.588   8.630   4.159
14662SOL    MW458969   1.582   8.590   4.236
14663SOL     OW58970   1.395   8.219   5.314
14663SOL    HW258971   1.464   8.157   5.291
14663SOL    HW358972   1.320   8.193   5.261
14663SOL    MW458973   1.395   8.206   5.305
14664SOL     OW58974   1.131   8.606   5.306
14664SOL    HW258975   1.116   8.699   5.291
14664SOL    HW358976   1.226   8.596   5.306
14664SOL    MW458977   1.140   8.616   5.303
14665SOL     OW58978   0.927   8.030   5.507
14665SOL    HW258979   1.017   8.031   5.474
14665SOL    HW358980   0.886   7.955   5.465
14665SOL    MW458981   0.933   8.020   5.498
14666SOL     OW58982   1.502   8.562   4.634
14666SOL    HW258983   1.505   8.496   4.565
14666SOL    HW358984   1.587   8.605   4.630
14666SOL    MW458985   1.514   8.558   4.625
14667SOL     OW58986   1.122   8.165   4.203
14667SOL    HW258987   1.148   8.189   4.114
14667SOL    HW358988   1.104   8.072   4.199
14667SOL    MW458989   1.124   8.157   4.190
14668SOL     OW58990   1.787   8.785   4.054
14668SOL    HW258991   1.743   8.826   4.129
14668SOL    HW358992   1.844   8.853   4.019
14668SOL    MW458993   1.789   8.799   4.059
14669SOL     OW58994   0.707   7.834   5.457
14669SOL    HW258995   0.717   7.760   5.397
14669SOL    HW358996   0.743   7.803   5.540
14669SOL    MW458997   0.713   7.820   5.459
14670SOL     OW58998   1.827   7.563   4.421
14670SOL    HW258999   1.881   7.514   4.483
14670SOL    HW359000   1.770   7.497   4.382
14670SOL    MW459001   1.827   7.547   4.423
14671SOL     OW59002   0.946   7.516   4.834
14671SOL    HW259003   0.905   7.594   4.796
14671SOL    HW359004   1.040   7.534   4.829
14671SOL    MW459005   0.952   7.528   4.829
14672SOL     OW59006   1.563   9.069   3.920
14672SOL    HW259007   1.611   9.138   3.966
14672SOL    HW359008   1.484   9.113   3.889
14672SOL    MW459009   1.558   9.083   3.923
14673SOL     OW59010   0.961   8.194   3.864
14673SOL    HW259011   0.963   8.141   3.785
14673SOL    HW359012   1.049   8.231   3.870
14673SOL    MW459013   0.973   8.193   3.853
14674SOL     OW59014   1.575   8.120   4.200
14674SOL    HW259015   1.614   8.120   4.287
14674SOL    HW359016   1.516   8.196   4.200
14674SOL    MW459017   1.572   8.131   4.211
14675SOL     OW59018   0.892   8.487   5.329
14675SOL    HW259019   0.869   8.467   5.419
14675SOL    HW359020   0.977   8.531   5.334
14675SOL    MW459021   0.899   8.490   5.341
14676SOL     OW59022   0.972   7.624   5.089
14676SOL    HW259023   0.978   7.586   5.002
14676SOL    HW359024   0.961   7.718   5.074
14676SOL    MW459025   0.973   7.632   5.077
14677SOL     OW59026   1.061   8.113   4.923
14677SOL    HW259027   1.136   8.142   4.870
14677SOL    HW359028   0.993   8.178   4.907
14677SOL    MW459029   1.062   8.125   4.913
14678SOL     OW59030   1.611   8.081   5.200
14678SOL    HW259031   1.592   7.990   5.179
14678SOL    HW359032   1.589   8.130   5.121
14678SOL    MW459033   1.606   8.074   5.187
14679SOL     OW59034   1.753   9.175   5.104
14679SOL    HW259035   1.681   9.137   5.155
14679SOL    HW359036   1.770   9.260   5.145
14679SOL    MW459037   1.747   9.180   5.116
14680SOL     OW59038   1.058   7.819   5.306
14680SOL    HW259039   1.024   7.858   5.225
14680SOL    HW359040   1.036   7.727   5.299
14680SOL    MW459041   1.051   7.812   5.296
14681SOL     OW59042   1.467   8.633   5.382
14681SOL    HW259043   1.549   8.674   5.412
14681SOL    HW359044   1.430   8.595   5.462
14681SOL    MW459045   1.473   8.634   5.397
14682SOL     OW59046   1.762   8.006   4.366
14682SOL    HW259047   1.851   7.975   4.383
14682SOL    HW359048   1.705   7.946   4.414
14682SOL    MW459049   1.765   7.994   4.375
14683SOL     OW59050   0.188   7.720   4.395
14683SOL    HW259051   0.179   7.660   4.321
14683SOL    HW359052   0.121   7.691   4.458
14683SOL    MW459053   0.178   7.707   4.393
14684SOL     OW59054   1.131   8.813   3.956
14684SOL    HW259055   1.081   8.815   4.038
14684SOL    HW359056   1.065   8.831   3.888
14684SOL    MW459057   1.117   8.815   3.958
14685SOL     OW59058   0.135   7.893   4.758
14685SOL    HW259059   0.107   7.984   4.767
14685SOL    HW359060   0.072   7.854   4.697
14685SOL    MW459061   0.122   7.899   4.752
14686SOL     OW59062   1.722   8.751   5.461
14686SOL    HW259063   1.772   8.677   5.493
14686SOL    HW359064   1.668   8.778   5.536
14686SOL    MW459065   1.722   8.745   5.474
14687SOL     OW59066   0.730   8.646   3.771
14687SOL    HW259067   0.652   8.592   3.758
14687SOL    HW359068   0.701   8.719   3.824
14687SOL    MW459069   0.716   8.648   3.776
14688SOL     OW59070   1.856   8.386   4.963
14688SOL    HW259071   1.872   8.424   4.876
14688SOL    HW359072   1.890   8.452   5.024
14688SOL    MW459073   1.863   8.399   4.959
14689SOL     OW59074   1.648   9.095   4.632
14689SOL    HW259075   1.677   9.162   4.693
14689SOL    HW359076   1.629   9.019   4.687
14689SOL    MW459077   1.650   9.095   4.647
14690SOL     OW59078   1.311   9.162   3.839
14690SOL    HW259079   1.237   9.125   3.889
14690SOL    HW359080   1.319   9.252   3.872
14690SOL    MW459081   1.302   9.169   3.851
14691SOL     OW59082   0.119   8.168   4.928
14691SOL    HW259083   0.181   8.198   4.994
14691SOL    HW359084   0.053   8.237   4.922
14691SOL    MW459085   0.118   8.181   4.935
14692SOL     OW59086   1.535   8.836   3.781
14692SOL    HW259087   1.482   8.885   3.717
14692SOL    HW359088   1.566   8.902   3.842
14692SOL    MW459089   1.533   8.850   3.779
14693SOL     OW59090   0.760   7.725   3.836
14693SOL    HW259091   0.708   7.645   3.824
14693SOL    HW359092   0.847   7.702   3.804
14693SOL    MW459093   0.763   7.711   3.830
14694SOL     OW59094   0.266   8.596   4.887
14694SOL    HW259095   0.319   8.671   4.912
14694SOL    HW359096   0.185   8.634   4.853
14694SOL    MW459097   0.262   8.611   4.887
14695SOL     OW59098   0.806   8.500   4.875
14695SOL    HW259099   0.834   8.409   4.887
14695SOL    HW359100   0.735   8.494   4.811
14695SOL    MW459101   0.799   8.488   4.870
14696SOL     OW59102   0.121   8.365   4.293
14696SOL    HW259103   0.212   8.380   4.320
14696SOL    HW359104   0.124   8.286   4.239
14696SOL    MW459105   0.133   8.357   4.291
14697SOL     OW59106   0.357   8.073   5.547
14697SOL    HW259107   0.304   8.153   5.554
14697SOL    HW359108   0.427   8.085   5.612
14697SOL    MW459109   0.359   8.086   5.555
14698SOL     OW59110   0.743   7.623   5.254
14698SOL    HW259111   0.720   7.531   5.256
14698SOL    HW359112   0.829   7.625   5.211
14698SOL    MW459113   0.750   7.613   5.250
14699SOL     OW59114   0.427   8.147   5.293
14699SOL    HW259115   0.507   8.197   5.279
14699SOL    HW359116   0.418   8.141   5.388
14699SOL    MW459117   0.436   8.153   5.303
14700SOL     OW59118   1.404   7.672   5.564
14700SOL    HW259119   1.460   7.599   5.590
14700SOL    HW359120   1.374   7.710   5.646
14700SOL    MW459121   1.408   7.667   5.577
14701SOL     OW59122   1.794   8.165   4.681
14701SOL    HW259123   1.883   8.195   4.663
14701SOL    HW359124   1.774   8.105   4.610
14701SOL    MW459125   1.803   8.162   4.670
14702SOL     OW59126   1.645   8.344   5.561
14702SOL    HW259127   1.700   8.268   5.542
14702SOL    HW359128   1.647   8.352   5.656
14702SOL    MW459129   1.653   8.335   5.569
14703SOL     OW59130   1.133   7.722   3.995
14703SOL    HW259131   1.066   7.698   3.932
14703SOL    HW359132   1.198   7.771   3.944
14703SOL    MW459133   1.133   7.724   3.980
14704SOL     OW59134   0.940   7.906   5.080
14704SOL    HW259135   0.859   7.947   5.108
14704SOL    HW359136   0.987   7.974   5.032
14704SOL    MW459137   0.935   7.921   5.078
14705SOL     OW59138   1.200   8.244   4.703
14705SOL    HW259139   1.213   8.338   4.713
14705SOL    HW359140   1.161   8.234   4.617
14705SOL    MW459141   1.196   8.255   4.693
14706SOL     OW59142   0.652   8.439   4.507
14706SOL    HW259143   0.563   8.430   4.540
14706SOL    HW359144   0.656   8.529   4.475
14706SOL    MW459145   0.641   8.450   4.507
14707SOL     OW59146   1.451   8.022   4.502
14707SOL    HW259147   1.396   7.943   4.501
14707SOL    HW359148   1.433   8.063   4.586
14707SOL    MW459149   1.441   8.017   4.511
14708SOL     OW59150   0.422   7.709   5.319
14708SOL    HW259151   0.343   7.727   5.371
14708SOL    HW359152   0.417   7.771   5.246
14708SOL    MW459153   0.412   7.719   5.316
14709SOL     OW59154   1.070   8.226   4.459
14709SOL    HW259155   1.007   8.158   4.483
14709SOL    HW359156   1.090   8.207   4.367
14709SOL    MW459157   1.064   8.213   4.451
14710SOL     OW59158   0.818   8.530   4.185
14710SOL    HW259159   0.820   8.504   4.092
14710SOL    HW359160   0.876   8.467   4.228
14710SOL    MW459161   0.826   8.519   4.179
14711SOL     OW59162   1.328   7.774   4.518
14711SOL    HW259163   1.356   7.706   4.579
14711SOL    HW359164   1.242   7.745   4.488
14711SOL    MW459165   1.321   7.761   4.522
14712SOL     OW59166   0.133   8.708   4.452
14712SOL    HW259167   0.197   8.740   4.515
14712SOL    HW359168   0.182   8.644   4.400
14712SOL    MW459169   0.148   8.704   4.453
14713SOL     OW59170   0.633   8.784   5.434
14713SOL    HW259171   0.681   8.867   5.421
14713SOL    HW359172   0.690   8.732   5.490
14713SOL    MW459173   0.647   8.788   5.440
14714SOL     OW59174   1.308   7.878   3.853
14714SOL    HW259175   1.281   7.944   3.789
14714SOL    HW359176   1.378   7.921   3.903
14714SOL    MW459177   1.313   7.891   3.850
14715SOL     OW59178   0.976   7.583   3.790
14715SOL    HW259179   1.032   7.575   3.712
14715SOL    HW359180   0.953   7.493   3.812
14715SOL    MW459181   0.981   7.570   3.783
14716SOL     OW59182   1.481   8.434   3.995
14716SOL    HW259183   1.448   8.523   3.985
14716SOL    HW359184   1.446   8.405   4.080
14716SOL    MW459185   1.471   8.443   4.006
14717SOL     OW59186   0.387   7.531   5.525
14717SOL    HW259187   0.315   7.496   5.473
14717SOL    HW359188   0.445   7.572   5.460
14717SOL    MW459189   0.385   7.532   5.510
14718SOL     OW59190   1.851   8.550   5.178
14718SOL    HW259191   1.766   8.563   5.137
14718SOL    HW359192   1.831   8.514   5.265
14718SOL    MW459193   1.838   8.546   5.183
14719SOL     OW59194   0.475   8.472   3.787
14719SOL    HW259195   0.398   8.485   3.843
14719SOL    HW359196   0.439   8.436   3.706
14719SOL    MW459197   0.461   8.468   3.784
14720SOL     OW59198   1.128   8.445   4.030
14720SOL    HW259199   1.038   8.466   4.005
14720SOL    HW359200   1.155   8.518   4.086
14720SOL    MW459201   1.120   8.457   4.033
14721SOL     OW59202   0.628   8.794   4.722
14721SOL    HW259203   0.621   8.773   4.816
14721SOL    HW359204   0.546   8.762   4.685
14721SOL    MW459205   0.616   8.788   4.729
14722SOL     OW59206   1.492   7.804   5.124
14722SOL    HW259207   1.439   7.806   5.204
14722SOL    HW359208   1.477   7.717   5.087
14722SOL    MW459209   1.484   7.794   5.129
14723SOL     OW59210   1.828   7.728   4.997
14723SOL    HW259211   1.809   7.795   4.932
14723SOL    HW359212   1.885   7.666   4.952
14723SOL    MW459213   1.832   7.729   4.983
14724SOL     OW59214   0.757   7.561   4.437
14724SOL    HW259215   0.686   7.622   4.419
14724SOL    HW359216   0.808   7.558   4.356
14724SOL    MW459217   0.753   7.567   4.424
14725SOL     OW59218   0.515   8.801   4.186
14725SOL    HW259219   0.508   8.833   4.276
14725SOL    HW359220   0.425   8.785   4.158
14725SOL    MW459221   0.503   8.803   4.193
14726SOL     OW59222   0.717   8.218   5.567
14726SOL    HW259223   0.787   8.160   5.539
14726SOL    HW359224   0.660   8.163   5.622
14726SOL    MW459225   0.719   8.205   5.571
14727SOL     OW59226   1.504   8.430   5.200
14727SOL    HW259227   1.509   8.483   5.280
14727SOL    HW359228   1.466   8.347   5.228
14727SOL    MW459229   1.500   8.425   5.215
14728SOL     OW59230   1.144   7.565   5.446
14728SOL    HW259231   1.139   7.472   5.427
14728SOL    HW359232   1.227   7.576   5.492
14728SOL    MW459233   1.152   7.554   5.450
14729SOL     OW59234   0.518   8.085   3.900
14729SOL    HW259235   0.484   8.141   3.970
14729SOL    HW359236   0.589   8.035   3.940
14729SOL    MW459237   0.524   8.086   3.914
14730SOL     OW59238   1.614   8.836   4.722
14730SOL    HW259239   1.649   8.818   4.635
14730SOL    HW359240   1.519   8.837   4.709
14730SOL    MW459241   1.606   8.833   4.709
14731SOL     OW59242   1.043   8.484   5.091
14731SOL    HW259243   1.086   8.519   5.169
14731SOL    HW359244   1.026   8.561   5.037
14731SOL    MW459245   1.046   8.499   5.094
14732SOL     OW59246   1.574   7.971   3.964
14732SOL    HW259247   1.566   8.042   3.901
14732SOL    HW359248   1.592   8.015   4.047
14732SOL    MW459249   1.575   7.985   3.966
14733SOL     OW59250   0.434   7.626   4.393
14733SOL    HW259251   0.484   7.669   4.324
14733SOL    HW359252   0.349   7.670   4.393
14733SOL    MW459253   0.431   7.639   4.384
14734SOL     OW59254   0.193   8.688   5.253
14734SOL    HW259255   0.221   8.641   5.331
14734SOL    HW359256   0.114   8.643   5.224
14734SOL    MW459257   0.186   8.677   5.259
14735SOL     OW59258   0.701   8.015   5.220
14735SOL    HW259259   0.673   8.103   5.244
14735SOL    HW359260   0.670   7.959   5.291
14735SOL    MW459261   0.693   8.018   5.232
14736SOL     OW59262   1.243   8.233   3.939
14736SOL    HW259263   1.290   8.251   3.858
14736SOL    HW359264   1.209   8.317   3.967
14736SOL    MW459265   1.245   8.247   3.932
14737SOL     OW59266   0.356   8.411   4.433
14737SOL    HW259267   0.414   8.467   4.381
14737SOL    HW359268   0.400   8.326   4.435
14737SOL    MW459269   0.369   8.408   4.426
14738SOL     OW59270   1.496   7.763   4.270
14738SOL    HW259271   1.418   7.713   4.295
14738SOL    HW359272   1.467   7.854   4.270
14738SOL    MW459273   1.482   7.767   4.273
14739SOL     OW59274   1.082   7.725   4.429
14739SOL    HW259275   1.102   7.800   4.373
14739SOL    HW359276   1.062   7.764   4.514
14739SOL    MW459277   1.083   7.741   4.433
14740SOL     OW59278   1.842   8.498   5.448
14740SOL    HW259279   1.755   8.478   5.484
14740SOL    HW359280   1.896   8.424   5.473
14740SOL    MW459281   1.837   8.487   5.456
14741SOL     OW59282   0.018   8.137   4.152
14741SOL    HW259283  -0.042   8.109   4.222
14741SOL    HW359284   0.092   8.077   4.158
14741SOL    MW459285   0.020   8.126   4.161
14742SOL     OW59286   0.444   7.876   5.041
14742SOL    HW259287   0.477   7.957   5.081
14742SOL    HW359288   0.417   7.902   4.953
14742SOL    MW459289   0.443   7.890   5.035
14743SOL     OW59290   0.398   7.843   4.777
14743SOL    HW259291   0.428   7.757   4.748
14743SOL    HW359292   0.303   7.836   4.780
14743SOL    MW459293   0.390   7.832   4.775
14744SOL     OW59294   1.227   8.052   5.468
14744SOL    HW259295   1.279   7.987   5.421
14744SOL    HW359296   1.185   8.103   5.398
14744SOL    MW459297   1.228   8.049   5.451
14745SOL     OW59298   1.326   7.847   5.329
14745SOL    HW259299   1.233   7.831   5.316
14745SOL    HW359300   1.352   7.785   5.397
14745SOL    MW459301   1.316   7.837   5.336
14746SOL     OW59302   0.541   7.621   4.668
14746SOL    HW259303   0.551   7.530   4.694
14746SOL    HW359304   0.497   7.617   4.583
14746SOL    MW459305   0.537   7.609   4.660
14747SOL     OW59306   1.692   7.943   4.839
14747SOL    HW259307   1.625   7.976   4.899
14747SOL    HW359308   1.735   8.021   4.805
14747SOL    MW459309   1.690   7.958   4.843
14748SOL     OW59310   1.870   8.663   4.809
14748SOL    HW259311   1.863   8.603   4.734
14748SOL    HW359312   1.796   8.723   4.798
14748SOL    MW459313   1.860   8.663   4.798
14749SOL     OW59314   1.252   8.525   4.727
14749SOL    HW259315   1.266   8.497   4.818
14749SOL    HW359316   1.338   8.556   4.699
14749SOL    MW459317   1.265   8.526   4.736
14750SOL     OW59318   1.335   8.020   5.006
14750SOL    HW259319   1.356   8.021   4.913
14750SOL    HW359320   1.380   7.942   5.039
14750SOL    MW459321   1.342   8.010   4.998
14751SOL     OW59322   1.828   8.151   5.548
14751SOL    HW259323   1.865   8.096   5.617
14751SOL    HW359324   1.853   8.108   5.466
14751SOL    MW459325   1.835   8.139   5.547
14752SOL     OW59326   1.375   8.449   5.600
14752SOL    HW259327   1.441   8.397   5.554
14752SOL    HW359328   1.395   8.436   5.693
14752SOL    MW459329   1.386   8.440   5.607
14753SOL     OW59330   1.326   7.535   3.948
14753SOL    HW259331   1.400   7.579   3.991
14753SOL    HW359332   1.250   7.589   3.970
14753SOL    MW459333   1.326   7.547   3.956
14754SOL     OW59334   1.386   8.310   4.226
14754SOL    HW259335   1.301   8.280   4.196
14754SOL    HW359336   1.378   8.317   4.321
14754SOL    MW459337   1.374   8.308   4.235
14755SOL     OW59338   0.462   8.773   4.957
14755SOL    HW259339   0.474   8.800   5.048
14755SOL    HW359340   0.443   8.854   4.910
14755SOL    MW459341   0.461   8.788   4.962
14756SOL     OW59342   0.746   7.753   4.780
14756SOL    HW259343   0.719   7.755   4.871
14756SOL    HW359344   0.676   7.705   4.735
14756SOL    MW459345   0.734   7.749   4.787
14757SOL     OW59346   1.502   8.830   5.174
14757SOL    HW259347   1.487   8.759   5.237
14757SOL    HW359348   1.548   8.788   5.102
14757SOL    MW459349   1.508   8.814   5.174
14758SOL     OW59350   0.576   8.561   5.291
14758SOL    HW259351   0.613   8.566   5.203
14758SOL    HW359352   0.615   8.634   5.338
14758SOL    MW459353   0.586   8.571   5.286
14759SOL     OW59354   0.756   8.604   5.103
14759SOL    HW259355   0.815   8.550   5.156
14759SOL    HW359356   0.771   8.576   5.013
14759SOL    MW459357   0.766   8.593   5.099
14760SOL     OW59358   0.759   7.976   3.952
14760SOL    HW259359   0.832   8.025   3.915
14760SOL    HW359360   0.775   7.885   3.926
14760SOL    MW459361   0.771   7.971   3.945
14761SOL     OW59362   1.567   9.093   5.275
14761SOL    HW259363   1.609   9.078   5.360
14761SOL    HW359364   1.558   9.006   5.237
14761SOL    MW459365   1.571   9.081   5.282
14762SOL     OW59366   1.227   7.572   4.866
14762SOL    HW259367   1.282   7.581   4.788
14762SOL    HW359368   1.282   7.606   4.937
14762SOL    MW459369   1.241   7.577   4.865
14763SOL     OW59370   0.234   8.485   4.050
14763SOL    HW259371   0.171   8.501   3.979
14763SOL    HW359372   0.181   8.448   4.121
14763SOL    MW459373   0.219   8.482   4.050
14764SOL     OW59374   1.129   9.070   4.061
14764SOL    HW259375   1.137   8.988   4.012
14764SOL    HW359376   1.048   9.109   4.028
14764SOL    MW459377   1.119   9.065   4.051
14765SOL     OW59378   1.005   8.706   4.873
14765SOL    HW259379   0.937   8.640   4.889
14765SOL    HW359380   1.023   8.700   4.780
14765SOL    MW459381   0.998   8.697   4.864
14766SOL     OW59382   0.998   7.845   4.694
14766SOL    HW259383   0.928   7.797   4.739
14766SOL    HW359384   1.030   7.908   4.758
14766SOL    MW459385   0.993   7.847   4.708
14767SOL     OW59386   0.649   8.281   5.314
14767SOL    HW259387   0.642   8.376   5.302
14767SOL    HW359388   0.658   8.270   5.409
14767SOL    MW459389   0.650   8.293   5.324
14768SOL     OW59390   1.454   7.559   5.039
14768SOL    HW259391   1.525   7.505   5.003
14768SOL    HW359392   1.453   7.538   5.132
14768SOL    MW459393   1.463   7.550   5.047
14769SOL     OW59394   1.654   9.089   5.523
14769SOL    HW259395   1.627   9.086   5.614
14769SOL    HW359396   1.750   9.093   5.526
14769SOL    MW459397   1.664   9.089   5.535
14770SOL     OW59398   0.465   7.951   4.507
14770SOL    HW259399   0.536   7.899   4.470
14770SOL    HW359400   0.451   7.916   4.594
14770SOL    MW459401   0.473   7.940   4.514
14771SOL     OW59402   1.101   7.892   4.231
14771SOL    HW259403   1.123   7.829   4.163
14771SOL    HW359404   1.006   7.884   4.242
14771SOL    MW459405   1.091   7.883   4.223
14772SOL     OW59406   0.186   7.582   4.163
14772SOL    HW259407   0.257   7.603   4.102
14772SOL    HW359408   0.140   7.510   4.121
14772SOL    MW459409   0.190   7.576   4.149
14773SOL     OW59410   0.017   8.049   5.306
14773SOL    HW259411   0.081   8.115   5.281
14773SOL    HW359412  -0.064   8.076   5.263
14773SOL    MW459413   0.015   8.061   5.298
14774SOL     OW59414   1.755   8.956   4.263
14774SOL    HW259415   1.725   8.889   4.324
14774SOL    HW359416   1.849   8.962   4.277
14774SOL    MW459417   1.763   8.948   4.273
14775SOL     OW59418   1.311   8.633   4.193
14775SOL    HW259419   1.283   8.719   4.226
14775SOL    HW359420   1.339   8.649   4.103
14775SOL    MW459421   1.311   8.647   4.185
14776SOL     OW59422   0.973   7.553   4.246
14776SOL    HW259423   1.010   7.612   4.311
14776SOL    HW359424   0.950   7.609   4.172
14776SOL    MW459425   0.974   7.568   4.245
14777SOL     OW59426   1.826   8.435   4.668
14777SOL    HW259427   1.817   8.467   4.579
14777SOL    HW359428   1.779   8.351   4.668
14777SOL    MW459429   1.819   8.428   4.658
14778SOL     OW59430   0.202   8.275   5.247
14778SOL    HW259431   0.223   8.344   5.185
14778SOL    HW359432   0.282   8.222   5.252
14778SOL    MW459433   0.215   8.276   5.241
14779SOL     OW59434   1.738   8.366   4.369
14779SOL    HW259435   1.832   8.355   4.357
14779SOL    HW359436   1.714   8.438   4.310
14779SOL    MW459437   1.748   8.374   4.360
14780SOL     OW59438   0.187   8.290   5.514
14780SOL    HW259439   0.113   8.234   5.540
14780SOL    HW359440   0.182   8.293   5.419
14780SOL    MW459441   0.176   8.283   5.504
14781SOL     OW59442   0.353   7.577   4.964
14781SOL    HW259443   0.396   7.661   4.984
14781SOL    HW359444   0.426   7.515   4.957
14781SOL    MW459445   0.368   7.580   4.965
14782SOL     OW59446   0.394   8.244   4.142
14782SOL    HW259447   0.394   8.339   4.127
14782SOL    HW359448   0.471   8.228   4.196
14782SOL    MW459449   0.404   8.255   4.147
14783SOL     OW59450   1.170   8.103   5.206
14783SOL    HW259451   1.206   8.076   5.122
14783SOL    HW359452   1.083   8.137   5.185
14783SOL    MW459453   1.164   8.104   5.193
14784SOL     OW59454   0.153   7.975   4.431
14784SOL    HW259455   0.215   7.982   4.504
14784SOL    HW359456   0.153   7.882   4.408
14784SOL    MW459457   0.161   7.964   4.438
14785SOL     OW59458   0.835   8.236   4.915
14785SOL    HW259459   0.793   8.154   4.891
14785SOL    HW359460   0.836   8.235   5.011
14785SOL    MW459461   0.828   8.225   4.924
14786SOL     OW59462   0.639   7.706   5.020
14786SOL    HW259463   0.570   7.769   5.041
14786SOL    HW359464   0.666   7.670   5.105
14786SOL    MW459465   0.633   7.709   5.033
14787SOL     OW59466   0.022   8.547   3.889
14787SOL    HW259467  -0.009   8.612   3.952
14787SOL    HW359468  -0.029   8.469   3.908
14787SOL    MW459469   0.012   8.544   3.899
14788SOL     OW59470   1.434   7.559   4.637
14788SOL    HW259471   1.522   7.568   4.674
14788SOL    HW359472   1.444   7.500   4.563
14788SOL    MW459473   1.448   7.553   4.631
14789SOL     OW59474   1.466   8.298   4.481
14789SOL    HW259475   1.546   8.313   4.430
14789SOL    HW359476   1.459   8.203   4.487
14789SOL    MW459477   1.475   8.287   4.476
14790SOL     OW59478   0.916   8.224   5.178
14790SOL    HW259479   0.985   8.291   5.175
14790SOL    HW359480   0.849   8.262   5.234
14790SOL    MW459481   0.917   8.237   5.185
14791SOL     OW59482   0.334   8.524   5.426
14791SOL    HW259483   0.288   8.440   5.428
14791SOL    HW359484   0.391   8.518   5.350
14791SOL    MW459485   0.336   8.512   5.418
14792SOL     OW59486   1.451   8.167   3.747
14792SOL    HW259487   1.379   8.143   3.689
14792SOL    HW359488   1.517   8.204   3.689
14792SOL    MW459489   1.450   8.169   3.732
14793SOL     OW59490   0.585   8.899   4.427
14793SOL    HW259491   0.650   8.832   4.448
14793SOL    HW359492   0.637   8.976   4.404
14793SOL    MW459493   0.600   8.901   4.426
14794SOL     OW59494   0.846   8.064   4.557
14794SOL    HW259495   0.786   8.082   4.629
14794SOL    HW359496   0.880   7.976   4.576
14794SOL    MW459497   0.842   8.054   4.570
14795SOL     OW59498   1.787   7.563   5.226
14795SOL    HW259499   1.708   7.609   5.254
14795SOL    HW359500   1.822   7.617   5.155
14795SOL    MW459501   1.781   7.576   5.220
14796SOL     OW59502   1.071   8.647   4.576
14796SOL    HW259503   1.163   8.628   4.594
14796SOL    HW359504   1.044   8.577   4.516
14796SOL    MW459505   1.079   8.635   4.570
14797SOL     OW59506   0.864   8.467   3.931
14797SOL    HW259507   0.850   8.379   3.896
14797SOL    HW359508   0.815   8.524   3.872
14797SOL    MW459509   0.856   8.462   3.919
14798SOL     OW59510   1.345   8.885   4.672
14798SOL    HW259511   1.318   8.969   4.637
14798SOL    HW359512   1.305   8.880   4.759
14798SOL    MW459513   1.338   8.894   4.678
14799SOL     OW59514   1.264   8.833   4.940
14799SOL    HW259515   1.275   8.800   5.029
14799SOL    HW359516   1.183   8.792   4.909
14799SOL    MW459517   1.254   8.825   4.946
14800SOL     OW59518   0.277   8.191   4.710
14800SOL    HW259519   0.227   8.190   4.791
14800SOL    HW359520   0.297   8.283   4.694
14800SOL    MW459521   0.273   8.203   4.718
14801SOL     OW59522   1.344   8.955   5.472
14801SOL    HW259523   1.344   9.049   5.488
14801SOL    HW359524   1.389   8.945   5.388
14801SOL    MW459525   1.350   8.965   5.463
14802SOL     OW59526   1.583   7.673   4.033
14802SOL    HW259527   1.576   7.677   4.128
14802SOL    HW359528   1.595   7.764   4.006
14802SOL    MW459529   1.584   7.686   4.041
14803SOL     OW59530   0.872   8.236   4.147
14803SOL    HW259531   0.852   8.222   4.054
14803SOL    HW359532   0.965   8.215   4.154
14803SOL    MW459533   0.882   8.231   4.136
14804SOL     OW59534   0.199   7.859   5.451
14804SOL    HW259535   0.156   7.918   5.388
14804SOL    HW359536   0.267   7.914   5.491
14804SOL    MW459537   0.203   7.874   5.448
14805SOL     OW59538   1.311   8.479   4.996
14805SOL    HW259539   1.374   8.476   5.069
14805SOL    HW359540   1.227   8.497   5.038
14805SOL    MW459541   1.307   8.481   5.011
14806SOL     OW59542   1.650   7.656   4.775
14806SOL    HW259543   1.695   7.574   4.794
14806SOL    HW359544   1.670   7.712   4.851
14806SOL    MW459545   1.660   7.652   4.787
14807SOL     OW59546   0.098   7.499   4.874
14807SOL    HW259547   0.089   7.500   4.779
14807SOL    HW359548   0.192   7.511   4.889
14807SOL    MW459549   0.110   7.502   4.865
14808SOL     OW59550   1.735   8.692   4.494
14808SOL    HW259551   1.714   8.638   4.417
14808SOL    HW359552   1.831   8.690   4.498
14808SOL    MW459553   1.744   8.685   4.483
14809SOL     OW59554   0.427   8.837   5.237
14809SOL    HW259555   0.348   8.787   5.260
14809SOL    HW359556   0.497   8.796   5.287
14809SOL    MW459557   0.425   8.825   5.247
14810SOL     OW59558   0.311   7.626   3.920
14810SOL    HW259559   0.240   7.681   3.888
14810SOL    HW359560   0.353   7.592   3.841
14810SOL    MW459561   0.307   7.628   3.906
14811SOL     OW59562   1.435   8.123   4.756
14811SOL    HW259563   1.358   8.169   4.722
14811SOL    HW359564   1.492   8.192   4.790
14811SOL    MW459565   1.432   8.138   4.756
14812SOL     OW59566   0.067   7.725   3.769
14812SOL    HW259567   0.034   7.804   3.813
14812SOL    HW359568   0.122   7.758   3.698
14812SOL    MW459569   0.070   7.739   3.766
14813SOL     OW59570   1.373   9.071   4.175
14813SOL    HW259571   1.436   9.061   4.104
14813SOL    HW359572   1.290   9.091   4.130
14813SOL    MW459573   1.370   9.072   4.160
14814SOL     OW59574   1.736   8.339   5.862
14814SOL    HW259575   1.777   8.281   5.927
14814SOL    HW359576   1.643   8.331   5.879
14814SOL    MW459577   1.730   8.331   5.872
14815SOL     OW59578   1.602   8.271   6.857
14815SOL    HW259579   1.557   8.338   6.908
14815SOL    HW359580   1.690   8.307   6.843
14815SOL    MW459581   1.608   8.284   6.861
14816SOL     OW59582   0.530   8.522   6.091
14816SOL    HW259583   0.620   8.497   6.075
14816SOL    HW359584   0.526   8.615   6.068
14816SOL    MW459585   0.542   8.531   6.086
14817SOL     OW59586   1.582   8.665   6.838
14817SOL    HW259587   1.503   8.630   6.796
14817SOL    HW359588   1.609   8.737   6.782
14817SOL    MW459589   1.575   8.670   6.825
14818SOL     OW59590   0.814   7.978   6.104
14818SOL    HW259591   0.789   8.066   6.132
14818SOL    HW359592   0.811   7.981   6.008
14818SOL    MW459593   0.810   7.990   6.096
14819SOL     OW59594   0.256   8.006   6.032
14819SOL    HW259595   0.288   8.094   6.014
14819SOL    HW359596   0.244   8.004   6.127
14819SOL    MW459597   0.259   8.018   6.044
14820SOL     OW59598   0.334   8.419   6.933
14820SOL    HW259599   0.397   8.366   6.884
14820SOL    HW359600   0.315   8.493   6.876
14820SOL    MW459601   0.340   8.421   6.920
14821SOL     OW59602   0.655   7.761   6.119
14821SOL    HW259603   0.713   7.837   6.121
14821SOL    HW359604   0.590   7.782   6.052
14821SOL    MW459605   0.654   7.773   6.110
14822SOL     OW59606   0.742   8.688   6.294
14822SOL    HW259607   0.822   8.691   6.346
14822SOL    HW359608   0.770   8.655   6.208
14822SOL    MW459609   0.756   8.684   6.289
14823SOL     OW59610   0.519   8.192   6.285
14823SOL    HW259611   0.504   8.112   6.336
14823SOL    HW359612   0.601   8.227   6.319
14823SOL    MW459613   0.527   8.184   6.297
14824SOL     OW59614   0.661   8.018   6.662
14824SOL    HW259615   0.567   8.014   6.680
14824SOL    HW359616   0.691   7.927   6.671
14824SOL    MW459617   0.652   8.006   6.665
14825SOL     OW59618   0.407   8.432   6.566
14825SOL    HW259619   0.362   8.439   6.482
14825SOL    HW359620   0.387   8.515   6.610
14825SOL    MW459621   0.399   8.444   6.560
14826SOL     OW59622   1.369   8.670   5.810
14826SOL    HW259623   1.287   8.706   5.776
14826SOL    HW359624   1.437   8.713   5.759
14826SOL    MW459625   1.367   8.680   5.798
14827SOL     OW59626   0.368   8.805   6.476
14827SOL    HW259627   0.344   8.858   6.552
14827SOL    HW359628   0.424   8.863   6.424
14827SOL    MW459629   0.372   8.820   6.479
14828SOL     OW59630   0.930   8.449   6.286
14828SOL    HW259631   0.844   8.436   6.326
14828SOL    HW359632   0.983   8.376   6.318
14828SOL    MW459633   0.926   8.438   6.295
14829SOL     OW59634   0.921   8.811   6.003
14829SOL    HW259635   0.898   8.873   6.071
14829SOL    HW359636   0.878   8.729   6.029
14829SOL    MW459637   0.913   8.807   6.014
14830SOL     OW59638   1.794   7.812   6.459
14830SOL    HW259639   1.731   7.792   6.528
14830SOL    HW359640   1.784   7.741   6.396
14830SOL    MW459641   1.784   7.799   6.460
14831SOL     OW59642   0.418   7.784   5.971
14831SOL    HW259643   0.392   7.746   5.887
14831SOL    HW359644   0.355   7.854   5.987
14831SOL    MW459645   0.407   7.787   5.962
14832SOL     OW59646   0.253   8.745   6.008
14832SOL    HW259647   0.201   8.813   5.964
14832SOL    HW359648   0.250   8.671   5.948
14832SOL    MW459649   0.245   8.744   5.995
14833SOL     OW59650   1.850   7.981   5.761
14833SOL    HW259651   1.759   7.983   5.789
14833SOL    HW359652   1.895   8.043   5.819
14833SOL    MW459653   1.843   7.989   5.771
14834SOL     OW59654   1.595   8.584   6.111
14834SOL    HW259655   1.505   8.584   6.146
14834SOL    HW359656   1.588   8.630   6.028
14834SOL    MW459657   1.582   8.590   6.105
14835SOL     OW59658   1.395   8.219   7.183
14835SOL    HW259659   1.464   8.157   7.160
14835SOL    HW359660   1.320   8.193   7.130
14835SOL    MW459661   1.395   8.206   7.174
14836SOL     OW59662   1.131   8.606   7.175
14836SOL    HW259663   1.116   8.699   7.160
14836SOL    HW359664   1.226   8.596   7.175
14836SOL    MW459665   1.140   8.616   7.172
14837SOL     OW59666   0.927   8.030   7.376
14837SOL    HW259667   1.017   8.031   7.343
14837SOL    HW359668   0.886   7.955   7.334
14837SOL    MW459669   0.933   8.020   7.367
14838SOL     OW59670   1.502   8.562   6.503
14838SOL    HW259671   1.505   8.496   6.434
14838SOL    HW359672   1.587   8.605   6.499
14838SOL    MW459673   1.514   8.558   6.494
14839SOL     OW59674   1.122   8.165   6.072
14839SOL    HW259675   1.148   8.189   5.983
14839SOL    HW359676   1.104   8.072   6.068
14839SOL    MW459677   1.124   8.157   6.059
14840SOL     OW59678   1.787   8.785   5.923
14840SOL    HW259679   1.743   8.826   5.998
14840SOL    HW359680   1.844   8.853   5.888
14840SOL    MW459681   1.789   8.799   5.928
14841SOL     OW59682   0.707   7.834   7.326
14841SOL    HW259683   0.717   7.760   7.266
14841SOL    HW359684   0.743   7.803   7.409
14841SOL    MW459685   0.713   7.820   7.328
14842SOL     OW59686   1.827   7.563   6.290
14842SOL    HW259687   1.881   7.514   6.352
14842SOL    HW359688   1.770   7.497   6.251
14842SOL    MW459689   1.827   7.547   6.292
14843SOL     OW59690   0.946   7.516   6.703
14843SOL    HW259691   0.905   7.594   6.665
14843SOL    HW359692   1.040   7.534   6.698
14843SOL    MW459693   0.952   7.528   6.698
14844SOL     OW59694   1.563   9.069   5.789
14844SOL    HW259695   1.611   9.138   5.835
14844SOL    HW359696   1.484   9.113   5.758
14844SOL    MW459697   1.558   9.083   5.792
14845SOL     OW59698   0.961   8.194   5.733
14845SOL    HW259699   0.963   8.141   5.654
14845SOL    HW359700   1.049   8.231   5.739
14845SOL    MW459701   0.973   8.193   5.722
14846SOL     OW59702   1.575   8.120   6.069
14846SOL    HW259703   1.614   8.120   6.156
14846SOL    HW359704   1.516   8.196   6.069
14846SOL    MW459705   1.572   8.131   6.080
14847SOL     OW59706   0.892   8.487   7.198
14847SOL    HW259707   0.869   8.467   7.288
14847SOL    HW359708   0.977   8.531   7.203
14847SOL    MW459709   0.899   8.490   7.210
14848SOL     OW59710   0.972   7.624   6.958
14848SOL    HW259711   0.978   7.586   6.871
14848SOL    HW359712   0.961   7.718   6.943
14848SOL    MW459713   0.973   7.632   6.946
14849SOL     OW59714   1.061   8.113   6.792
14849SOL    HW259715   1.136   8.142   6.739
14849SOL    HW359716   0.993   8.178   6.776
14849SOL    MW459717   1.062   8.125   6.782
14850SOL     OW59718   1.611   8.081   7.069
14850SOL    HW259719   1.592   7.990   7.048
14850SOL    HW359720   1.589   8.130   6.990
14850SOL    MW459721   1.606   8.074   7.056
14851SOL     OW59722   1.753   9.175   6.973
14851SOL    HW259723   1.681   9.137   7.024
14851SOL    HW359724   1.770   9.260   7.014
14851SOL    MW459725   1.747   9.180   6.985
14852SOL     OW59726   1.058   7.819   7.175
14852SOL    HW259727   1.024   7.858   7.094
14852SOL    HW359728   1.036   7.727   7.168
14852SOL    MW459729   1.051   7.812   7.165
14853SOL     OW59730   1.467   8.633   7.251
14853SOL    HW259731   1.549   8.674   7.281
14853SOL    HW359732   1.430   8.595   7.331
14853SOL    MW459733   1.473   8.634   7.266
14854SOL     OW59734   1.762   8.006   6.235
14854SOL    HW259735   1.851   7.975   6.252
14854SOL    HW359736   1.705   7.946   6.283
14854SOL    MW459737   1.765   7.994   6.244
14855SOL     OW59738   0.188   7.720   6.264
14855SOL    HW259739   0.179   7.660   6.190
14855SOL    HW359740   0.121   7.691   6.327
14855SOL    MW459741   0.178   7.707   6.262
14856SOL     OW59742   1.131   8.813   5.825
14856SOL    HW259743   1.081   8.815   5.907
14856SOL    HW359744   1.065   8.831   5.757
14856SOL    MW459745   1.117   8.815   5.827
14857SOL     OW59746   0.135   7.893   6.627
14857SOL    HW259747   0.107   7.984   6.636
14857SOL    HW359748   0.072   7.854   6.566
14857SOL    MW459749   0.122   7.899   6.621
14858SOL     OW59750   1.722   8.751   7.330
14858SOL    HW259751   1.772   8.677   7.362
14858SOL    HW359752   1.668   8.778   7.405
14858SOL    MW459753   1.722   8.745   7.343
14859SOL     OW59754   0.730   8.646   5.640
14859SOL    HW259755   0.652   8.592   5.627
14859SOL    HW359756   0.701   8.719   5.693
14859SOL    MW459757   0.716   8.648   5.645
14860SOL     OW59758   1.856   8.386   6.832
14860SOL    HW259759   1.872   8.424   6.745
14860SOL    HW359760   1.890   8.452   6.893
14860SOL    MW459761   1.863   8.399   6.828
14861SOL     OW59762   1.648   9.095   6.501
14861SOL    HW259763   1.677   9.162   6.562
14861SOL    HW359764   1.629   9.019   6.556
14861SOL    MW459765   1.650   9.095   6.516
14862SOL     OW59766   1.311   9.162   5.708
14862SOL    HW259767   1.237   9.125   5.758
14862SOL    HW359768   1.319   9.252   5.741
14862SOL    MW459769   1.302   9.169   5.720
14863SOL     OW59770   0.119   8.168   6.797
14863SOL    HW259771   0.181   8.198   6.863
14863SOL    HW359772   0.053   8.237   6.791
14863SOL    MW459773   0.118   8.181   6.804
14864SOL     OW59774   1.535   8.836   5.650
14864SOL    HW259775   1.482   8.885   5.586
14864SOL    HW359776   1.566   8.902   5.711
14864SOL    MW459777   1.533   8.850   5.648
14865SOL     OW59778   0.760   7.725   5.705
14865SOL    HW259779   0.708   7.645   5.693
14865SOL    HW359780   0.847   7.702   5.673
14865SOL    MW459781   0.763   7.711   5.699
14866SOL     OW59782   0.266   8.596   6.756
14866SOL    HW259783   0.319   8.671   6.781
14866SOL    HW359784   0.185   8.634   6.722
14866SOL    MW459785   0.262   8.611   6.756
14867SOL     OW59786   0.806   8.500   6.744
14867SOL    HW259787   0.834   8.409   6.756
14867SOL    HW359788   0.735   8.494   6.680
14867SOL    MW459789   0.799   8.488   6.739
14868SOL     OW59790   0.121   8.365   6.162
14868SOL    HW259791   0.212   8.380   6.189
14868SOL    HW359792   0.124   8.286   6.108
14868SOL    MW459793   0.133   8.357   6.160
14869SOL     OW59794   0.357   8.073   7.416
14869SOL    HW259795   0.304   8.153   7.423
14869SOL    HW359796   0.427   8.085   7.481
14869SOL    MW459797   0.359   8.086   7.424
14870SOL     OW59798   0.743   7.623   7.123
14870SOL    HW259799   0.720   7.531   7.125
14870SOL    HW359800   0.829   7.625   7.080
14870SOL    MW459801   0.750   7.613   7.119
14871SOL     OW59802   0.427   8.147   7.162
14871SOL    HW259803   0.507   8.197   7.148
14871SOL    HW359804   0.418   8.141   7.257
14871SOL    MW459805   0.436   8.153   7.172
14872SOL     OW59806   1.404   7.672   7.433
14872SOL    HW259807   1.460   7.599   7.459
14872SOL    HW359808   1.374   7.710   7.515
14872SOL    MW459809   1.408   7.667   7.446
14873SOL     OW59810   1.794   8.165   6.550
14873SOL    HW259811   1.883   8.195   6.532
14873SOL    HW359812   1.774   8.105   6.479
14873SOL    MW459813   1.803   8.162   6.539
14874SOL     OW59814   1.645   8.344   7.430
14874SOL    HW259815   1.700   8.268   7.411
14874SOL    HW359816   1.647   8.352   7.525
14874SOL    MW459817   1.653   8.335   7.438
14875SOL     OW59818   1.133   7.722   5.864
14875SOL    HW259819   1.066   7.698   5.801
14875SOL    HW359820   1.198   7.771   5.813
14875SOL    MW459821   1.133   7.724   5.849
14876SOL     OW59822   0.940   7.906   6.949
14876SOL    HW259823   0.859   7.947   6.977
14876SOL    HW359824   0.987   7.974   6.901
14876SOL    MW459825   0.935   7.921   6.947
14877SOL     OW59826   1.200   8.244   6.572
14877SOL    HW259827   1.213   8.338   6.582
14877SOL    HW359828   1.161   8.234   6.486
14877SOL    MW459829   1.196   8.255   6.562
14878SOL     OW59830   0.652   8.439   6.376
14878SOL    HW259831   0.563   8.430   6.409
14878SOL    HW359832   0.656   8.529   6.344
14878SOL    MW459833   0.641   8.450   6.376
14879SOL     OW59834   1.451   8.022   6.371
14879SOL    HW259835   1.396   7.943   6.370
14879SOL    HW359836   1.433   8.063   6.455
14879SOL    MW459837   1.441   8.017   6.380
14880SOL     OW59838   0.422   7.709   7.188
14880SOL    HW259839   0.343   7.727   7.240
14880SOL    HW359840   0.417   7.771   7.115
14880SOL    MW459841   0.412   7.719   7.185
14881SOL     OW59842   1.070   8.226   6.328
14881SOL    HW259843   1.007   8.158   6.352
14881SOL    HW359844   1.090   8.207   6.236
14881SOL    MW459845   1.064   8.213   6.320
14882SOL     OW59846   0.818   8.530   6.054
14882SOL    HW259847   0.820   8.504   5.961
14882SOL    HW359848   0.876   8.467   6.097
14882SOL    MW459849   0.826   8.519   6.048
14883SOL     OW59850   1.328   7.774   6.387
14883SOL    HW259851   1.356   7.706   6.448
14883SOL    HW359852   1.242   7.745   6.357
14883SOL    MW459853   1.321   7.761   6.391
14884SOL     OW59854   0.133   8.708   6.321
14884SOL    HW259855   0.197   8.740   6.384
14884SOL    HW359856   0.182   8.644   6.269
14884SOL    MW459857   0.148   8.704   6.322
14885SOL     OW59858   0.633   8.784   7.303
14885SOL    HW259859   0.681   8.867   7.290
14885SOL    HW359860   0.690   8.732   7.359
14885SOL    MW459861   0.647   8.788   7.309
14886SOL     OW59862   1.308   7.878   5.722
14886SOL    HW259863   1.281   7.944   5.658
14886SOL    HW359864   1.378   7.921   5.772
14886SOL    MW459865   1.313   7.891   5.719
14887SOL     OW59866   0.976   7.583   5.659
14887SOL    HW259867   1.032   7.575   5.581
14887SOL    HW359868   0.953   7.493   5.681
14887SOL    MW459869   0.981   7.570   5.652
14888SOL     OW59870   1.481   8.434   5.864
14888SOL    HW259871   1.448   8.523   5.854
14888SOL    HW359872   1.446   8.405   5.949
14888SOL    MW459873   1.471   8.443   5.875
14889SOL     OW59874   0.387   7.531   7.394
14889SOL    HW259875   0.315   7.496   7.342
14889SOL    HW359876   0.445   7.572   7.329
14889SOL    MW459877   0.385   7.532   7.379
14890SOL     OW59878   1.851   8.550   7.047
14890SOL    HW259879   1.766   8.563   7.006
14890SOL    HW359880   1.831   8.514   7.134
14890SOL    MW459881   1.838   8.546   7.052
14891SOL     OW59882   0.475   8.472   5.656
14891SOL    HW259883   0.398   8.485   5.712
14891SOL    HW359884   0.439   8.436   5.575
14891SOL    MW459885   0.461   8.468   5.653
14892SOL     OW59886   1.128   8.445   5.899
14892SOL    HW259887   1.038   8.466   5.874
14892SOL    HW359888   1.155   8.518   5.955
14892SOL    MW459889   1.120   8.457   5.902
14893SOL     OW59890   0.628   8.794   6.591
14893SOL    HW259891   0.621   8.773   6.685
14893SOL    HW359892   0.546   8.762   6.554
14893SOL    MW459893   0.616   8.788   6.598
14894SOL     OW59894   1.492   7.804   6.993
14894SOL    HW259895   1.439   7.806   7.073
14894SOL    HW359896   1.477   7.717   6.956
14894SOL    MW459897   1.484   7.794   6.998
14895SOL     OW59898   1.828   7.728   6.866
14895SOL    HW259899   1.809   7.795   6.801
14895SOL    HW359900   1.885   7.666   6.821
14895SOL    MW459901   1.832   7.729   6.852
14896SOL     OW59902   0.757   7.561   6.306
14896SOL    HW259903   0.686   7.622   6.288
14896SOL    HW359904   0.808   7.558   6.225
14896SOL    MW459905   0.753   7.567   6.293
14897SOL     OW59906   0.515   8.801   6.055
14897SOL    HW259907   0.508   8.833   6.145
14897SOL    HW359908   0.425   8.785   6.027
14897SOL    MW459909   0.503   8.803   6.062
14898SOL     OW59910   0.717   8.218   7.436
14898SOL    HW259911   0.787   8.160   7.408
14898SOL    HW359912   0.660   8.163   7.491
14898SOL    MW459913   0.719   8.205   7.440
14899SOL     OW59914   1.504   8.430   7.069
14899SOL    HW259915   1.509   8.483   7.149
14899SOL    HW359916   1.466   8.347   7.097
14899SOL    MW459917   1.500   8.425   7.084
14900SOL     OW59918   1.144   7.565   7.315
14900SOL    HW259919   1.139   7.472   7.296
14900SOL    HW359920   1.227   7.576   7.361
14900SOL    MW459921   1.152   7.554   7.319
14901SOL     OW59922   0.518   8.085   5.769
14901SOL    HW259923   0.484   8.141   5.839
14901SOL    HW359924   0.589   8.035   5.809
14901SOL    MW459925   0.524   8.086   5.783
14902SOL     OW59926   1.614   8.836   6.591
14902SOL    HW259927   1.649   8.818   6.504
14902SOL    HW359928   1.519   8.837   6.578
14902SOL    MW459929   1.606   8.833   6.578
14903SOL     OW59930   1.043   8.484   6.960
14903SOL    HW259931   1.086   8.519   7.038
14903SOL    HW359932   1.026   8.561   6.906
14903SOL    MW459933   1.046   8.499   6.963
14904SOL     OW59934   1.574   7.971   5.833
14904SOL    HW259935   1.566   8.042   5.770
14904SOL    HW359936   1.592   8.015   5.916
14904SOL    MW459937   1.575   7.985   5.835
14905SOL     OW59938   0.434   7.626   6.262
14905SOL    HW259939   0.484   7.669   6.193
14905SOL    HW359940   0.349   7.670   6.262
14905SOL    MW459941   0.431   7.639   6.253
14906SOL     OW59942   0.193   8.688   7.122
14906SOL    HW259943   0.221   8.641   7.200
14906SOL    HW359944   0.114   8.643   7.093
14906SOL    MW459945   0.186   8.677   7.128
14907SOL     OW59946   0.701   8.015   7.089
14907SOL    HW259947   0.673   8.103   7.113
14907SOL    HW359948   0.670   7.959   7.160
14907SOL    MW459949   0.693   8.018   7.101
14908SOL     OW59950   1.243   8.233   5.808
14908SOL    HW259951   1.290   8.251   5.727
14908SOL    HW359952   1.209   8.317   5.836
14908SOL    MW459953   1.245   8.247   5.801
14909SOL     OW59954   0.356   8.411   6.302
14909SOL    HW259955   0.414   8.467   6.250
14909SOL    HW359956   0.400   8.326   6.304
14909SOL    MW459957   0.369   8.408   6.295
14910SOL     OW59958   1.496   7.763   6.139
14910SOL    HW259959   1.418   7.713   6.164
14910SOL    HW359960   1.467   7.854   6.139
14910SOL    MW459961   1.482   7.767   6.142
14911SOL     OW59962   1.082   7.725   6.298
14911SOL    HW259963   1.102   7.800   6.242
14911SOL    HW359964   1.062   7.764   6.383
14911SOL    MW459965   1.083   7.741   6.302
14912SOL     OW59966   1.842   8.498   7.317
14912SOL    HW259967   1.755   8.478   7.353
14912SOL    HW359968   1.896   8.424   7.342
14912SOL    MW459969   1.837   8.487   7.325
14913SOL     OW59970   0.018   8.137   6.021
14913SOL    HW259971  -0.042   8.109   6.091
14913SOL    HW359972   0.092   8.077   6.027
14913SOL    MW459973   0.020   8.126   6.030
14914SOL     OW59974   0.444   7.876   6.910
14914SOL    HW259975   0.477   7.957   6.950
14914SOL    HW359976   0.417   7.902   6.822
14914SOL    MW459977   0.443   7.890   6.904
14915SOL     OW59978   0.398   7.843   6.646
14915SOL    HW259979   0.428   7.757   6.617
14915SOL    HW359980   0.303   7.836   6.649
14915SOL    MW459981   0.390   7.832   6.644
14916SOL     OW59982   1.227   8.052   7.337
14916SOL    HW259983   1.279   7.987   7.290
14916SOL    HW359984   1.185   8.103   7.267
14916SOL    MW459985   1.228   8.049   7.320
14917SOL     OW59986   1.326   7.847   7.198
14917SOL    HW259987   1.233   7.831   7.185
14917SOL    HW359988   1.352   7.785   7.266
14917SOL    MW459989   1.316   7.837   7.205
14918SOL     OW59990   0.541   7.621   6.537
14918SOL    HW259991   0.551   7.530   6.563
14918SOL    HW359992   0.497   7.617   6.452
14918SOL    MW459993   0.537   7.609   6.529
14919SOL     OW59994   1.692   7.943   6.708
14919SOL    HW259995   1.625   7.976   6.768
14919SOL    HW359996   1.735   8.021   6.674
14919SOL    MW459997   1.690   7.958   6.712
14920SOL     OW59998   1.870   8.663   6.678
14920SOL    HW259999   1.863   8.603   6.603
14920SOL    HW360000   1.796   8.723   6.667
14920SOL    MW460001   1.860   8.663   6.667
14921SOL     OW60002   1.252   8.525   6.596
14921SOL    HW260003   1.266   8.497   6.687
14921SOL    HW360004   1.338   8.556   6.568
14921SOL    MW460005   1.265   8.526   6.605
14922SOL     OW60006   1.335   8.020   6.875
14922SOL    HW260007   1.356   8.021   6.782
14922SOL    HW360008   1.380   7.942   6.908
14922SOL    MW460009   1.342   8.010   6.867
14923SOL     OW60010   1.828   8.151   7.417
14923SOL    HW260011   1.865   8.096   7.486
14923SOL    HW360012   1.853   8.108   7.335
14923SOL    MW460013   1.835   8.139   7.416
14924SOL     OW60014   1.375   8.449   7.468
14924SOL    HW260015   1.441   8.397   7.422
14924SOL    HW360016   1.395   8.436   7.561
14924SOL    MW460017   1.386   8.440   7.475
14925SOL     OW60018   1.326   7.535   5.817
14925SOL    HW260019   1.400   7.579   5.860
14925SOL    HW360020   1.250   7.589   5.839
14925SOL    MW460021   1.326   7.547   5.825
14926SOL     OW60022   1.386   8.310   6.095
14926SOL    HW260023   1.301   8.280   6.065
14926SOL    HW360024   1.378   8.317   6.190
14926SOL    MW460025   1.374   8.308   6.104
14927SOL     OW60026   0.462   8.773   6.826
14927SOL    HW260027   0.474   8.800   6.917
14927SOL    HW360028   0.443   8.854   6.779
14927SOL    MW460029   0.461   8.788   6.831
14928SOL     OW60030   0.746   7.753   6.649
14928SOL    HW260031   0.719   7.755   6.740
14928SOL    HW360032   0.676   7.705   6.604
14928SOL    MW460033   0.734   7.749   6.656
14929SOL     OW60034   1.502   8.830   7.043
14929SOL    HW260035   1.487   8.759   7.106
14929SOL    HW360036   1.548   8.788   6.971
14929SOL    MW460037   1.508   8.814   7.043
14930SOL     OW60038   0.576   8.561   7.160
14930SOL    HW260039   0.613   8.566   7.072
14930SOL    HW360040   0.615   8.634   7.207
14930SOL    MW460041   0.586   8.571   7.155
14931SOL     OW60042   0.756   8.604   6.972
14931SOL    HW260043   0.815   8.550   7.025
14931SOL    HW360044   0.771   8.576   6.882
14931SOL    MW460045   0.766   8.593   6.968
14932SOL     OW60046   0.759   7.976   5.821
14932SOL    HW260047   0.832   8.025   5.784
14932SOL    HW360048   0.775   7.885   5.795
14932SOL    MW460049   0.771   7.971   5.814
14933SOL     OW60050   1.567   9.093   7.144
14933SOL    HW260051   1.609   9.078   7.229
14933SOL    HW360052   1.558   9.006   7.106
14933SOL    MW460053   1.571   9.081   7.151
14934SOL     OW60054   1.227   7.572   6.735
14934SOL    HW260055   1.282   7.581   6.657
14934SOL    HW360056   1.282   7.606   6.806
14934SOL    MW460057   1.241   7.577   6.734
14935SOL     OW60058   0.234   8.485   5.919
14935SOL    HW260059   0.171   8.501   5.848
14935SOL    HW360060   0.181   8.448   5.990
14935SOL    MW460061   0.219   8.482   5.919
14936SOL     OW60062   1.129   9.070   5.930
14936SOL    HW260063   1.137   8.988   5.881
14936SOL    HW360064   1.048   9.109   5.897
14936SOL    MW460065   1.119   9.065   5.920
14937SOL     OW60066   1.005   8.706   6.742
14937SOL    HW260067   0.937   8.640   6.758
14937SOL    HW360068   1.023   8.700   6.649
14937SOL    MW460069   0.998   8.697   6.733
14938SOL     OW60070   0.998   7.845   6.563
14938SOL    HW260071   0.928   7.797   6.608
14938SOL    HW360072   1.030   7.908   6.627
14938SOL    MW460073   0.993   7.847   6.577
14939SOL     OW60074   0.649   8.281   7.183
14939SOL    HW260075   0.642   8.376   7.171
14939SOL    HW360076   0.658   8.270   7.278
14939SOL    MW460077   0.650   8.293   7.193
14940SOL     OW60078   1.454   7.559   6.908
14940SOL    HW260079   1.525   7.505   6.872
14940SOL    HW360080   1.453   7.538   7.001
14940SOL    MW460081   1.463   7.550   6.916
14941SOL     OW60082   1.654   9.089   7.392
14941SOL    HW260083   1.627   9.086   7.483
14941SOL    HW360084   1.750   9.093   7.395
14941SOL    MW460085   1.664   9.089   7.404
14942SOL     OW60086   0.465   7.951   6.376
14942SOL    HW260087   0.536   7.899   6.339
14942SOL    HW360088   0.451   7.916   6.463
14942SOL    MW460089   0.473   7.940   6.383
14943SOL     OW60090   1.101   7.892   6.100
14943SOL    HW260091   1.123   7.829   6.032
14943SOL    HW360092   1.006   7.884   6.111
14943SOL    MW460093   1.091   7.883   6.092
14944SOL     OW60094   0.186   7.582   6.032
14944SOL    HW260095   0.257   7.603   5.971
14944SOL    HW360096   0.140   7.510   5.990
14944SOL    MW460097   0.190   7.576   6.018
14945SOL     OW60098   0.017   8.049   7.175
14945SOL    HW260099   0.081   8.115   7.150
14945SOL    HW360100  -0.064   8.076   7.132
14945SOL    MW460101   0.015   8.061   7.167
14946SOL     OW60102   1.755   8.956   6.132
14946SOL    HW260103   1.725   8.889   6.193
14946SOL    HW360104   1.849   8.962   6.146
14946SOL    MW460105   1.763   8.948   6.142
14947SOL     OW60106   1.311   8.633   6.062
14947SOL    HW260107   1.283   8.719   6.095
14947SOL    HW360108   1.339   8.649   5.972
14947SOL    MW460109   1.311   8.647   6.054
14948SOL     OW60110   0.973   7.553   6.115
14948SOL    HW260111   1.010   7.612   6.180
14948SOL    HW360112   0.950   7.609   6.041
14948SOL    MW460113   0.974   7.568   6.114
14949SOL     OW60114   1.826   8.435   6.537
14949SOL    HW260115   1.817   8.467   6.448
14949SOL    HW360116   1.779   8.351   6.537
14949SOL    MW460117   1.819   8.428   6.527
14950SOL     OW60118   0.202   8.275   7.116
14950SOL    HW260119   0.223   8.344   7.054
14950SOL    HW360120   0.282   8.222   7.121
14950SOL    MW460121   0.215   8.276   7.110
14951SOL     OW60122   1.738   8.366   6.238
14951SOL    HW260123   1.832   8.355   6.226
14951SOL    HW360124   1.714   8.438   6.179
14951SOL    MW460125   1.748   8.374   6.229
14952SOL     OW60126   0.187   8.290   7.383
14952SOL    HW260127   0.113   8.234   7.409
14952SOL    HW360128   0.182   8.293   7.288
14952SOL    MW460129   0.176   8.283   7.373
14953SOL     OW60130   0.353   7.577   6.833
14953SOL    HW260131   0.396   7.661   6.853
14953SOL    HW360132   0.426   7.515   6.826
14953SOL    MW460133   0.368   7.580   6.834
14954SOL     OW60134   0.394   8.244   6.011
14954SOL    HW260135   0.394   8.339   5.996
14954SOL    HW360136   0.471   8.228   6.065
14954SOL    MW460137   0.404   8.255   6.016
14955SOL     OW60138   1.170   8.103   7.075
14955SOL    HW260139   1.206   8.076   6.991
14955SOL    HW360140   1.083   8.137   7.054
14955SOL    MW460141   1.164   8.104   7.062
14956SOL     OW60142   0.153   7.975   6.300
14956SOL    HW260143   0.215   7.982   6.373
14956SOL    HW360144   0.153   7.882   6.277
14956SOL    MW460145   0.161   7.964   6.307
14957SOL     OW60146   0.835   8.236   6.784
14957SOL    HW260147   0.793   8.154   6.760
14957SOL    HW360148   0.836   8.235   6.880
14957SOL    MW460149   0.828   8.225   6.793
14958SOL     OW60150   0.639   7.706   6.889
14958SOL    HW260151   0.570   7.769   6.910
14958SOL    HW360152   0.666   7.670   6.974
14958SOL    MW460153   0.633   7.709   6.902
14959SOL     OW60154   0.022   8.547   5.758
14959SOL    HW260155  -0.009   8.612   5.821
14959SOL    HW360156  -0.029   8.469   5.777
14959SOL    MW460157   0.012   8.544   5.768
14960SOL     OW60158   1.434   7.559   6.506
14960SOL    HW260159   1.522   7.568   6.543
14960SOL    HW360160   1.444   7.500   6.432
14960SOL    MW460161   1.448   7.553   6.500
14961SOL     OW60162   1.466   8.298   6.350
14961SOL    HW260163   1.546   8.313   6.299
14961SOL    HW360164   1.459   8.203   6.356
14961SOL    MW460165   1.475   8.287   6.345
14962SOL     OW60166   0.916   8.224   7.047
14962SOL    HW260167   0.985   8.291   7.044
14962SOL    HW360168   0.849   8.262   7.103
14962SOL    MW460169   0.917   8.237   7.054
14963SOL     OW60170   0.334   8.524   7.295
14963SOL    HW260171   0.288   8.440   7.297
14963SOL    HW360172   0.391   8.518   7.219
14963SOL    MW460173   0.336   8.512   7.287
14964SOL     OW60174   1.451   8.167   5.615
14964SOL    HW260175   1.379   8.143   5.557
14964SOL    HW360176   1.517   8.204   5.557
14964SOL    MW460177   1.450   8.169   5.600
14965SOL     OW60178   0.585   8.899   6.296
14965SOL    HW260179   0.650   8.832   6.317
14965SOL    HW360180   0.637   8.976   6.273
14965SOL    MW460181   0.600   8.901   6.295
14966SOL     OW60182   0.846   8.064   6.426
14966SOL    HW260183   0.786   8.082   6.498
14966SOL    HW360184   0.880   7.976   6.445
14966SOL    MW460185   0.842   8.054   6.439
14967SOL     OW60186   1.787   7.563   7.095
14967SOL    HW260187   1.708   7.609   7.123
14967SOL    HW360188   1.822   7.617   7.024
14967SOL    MW460189   1.781   7.576   7.089
14968SOL     OW60190   1.071   8.647   6.445
14968SOL    HW260191   1.163   8.628   6.463
14968SOL    HW360192   1.044   8.577   6.385
14968SOL    MW460193   1.079   8.635   6.439
14969SOL     OW60194   0.864   8.467   5.800
14969SOL    HW260195   0.850   8.379   5.765
14969SOL    HW360196   0.815   8.524   5.741
14969SOL    MW460197   0.856   8.462   5.788
14970SOL     OW60198   1.345   8.885   6.541
14970SOL    HW260199   1.318   8.969   6.506
14970SOL    HW360200   1.305   8.880   6.628
14970SOL    MW460201   1.338   8.894   6.547
14971SOL     OW60202   1.264   8.833   6.809
14971SOL    HW260203   1.275   8.800   6.898
14971SOL    HW360204   1.183   8.792   6.778
14971SOL    MW460205   1.254   8.825   6.815
14972SOL     OW60206   0.277   8.191   6.579
14972SOL    HW260207   0.227   8.190   6.660
14972SOL    HW360208   0.297   8.283   6.563
14972SOL    MW460209   0.273   8.203   6.587
14973SOL     OW60210   1.344   8.955   7.341
14973SOL    HW260211   1.344   9.049   7.357
14973SOL    HW360212   1.389   8.945   7.257
14973SOL    MW460213   1.350   8.965   7.332
14974SOL     OW60214   1.583   7.673   5.902
14974SOL    HW260215   1.576   7.677   5.997
14974SOL    HW360216   1.595   7.764   5.875
14974SOL    MW460217   1.584   7.686   5.910
14975SOL     OW60218   0.872   8.236   6.016
14975SOL    HW260219   0.852   8.222   5.923
14975SOL    HW360220   0.965   8.215   6.023
14975SOL    MW460221   0.882   8.231   6.005
14976SOL     OW60222   0.199   7.859   7.320
14976SOL    HW260223   0.156   7.918   7.257
14976SOL    HW360224   0.267   7.914   7.360
14976SOL    MW460225   0.203   7.874   7.317
14977SOL     OW60226   1.311   8.479   6.865
14977SOL    HW260227   1.374   8.476   6.938
14977SOL    HW360228   1.227   8.497   6.907
14977SOL    MW460229   1.307   8.481   6.880
14978SOL     OW60230   1.650   7.656   6.644
14978SOL    HW260231   1.695   7.574   6.663
14978SOL    HW360232   1.670   7.712   6.720
14978SOL    MW460233   1.660   7.652   6.656
14979SOL     OW60234   0.098   7.499   6.743
14979SOL    HW260235   0.089   7.500   6.648
14979SOL    HW360236   0.192   7.511   6.758
14979SOL    MW460237   0.110   7.502   6.734
14980SOL     OW60238   1.735   8.692   6.363
14980SOL    HW260239   1.714   8.638   6.286
14980SOL    HW360240   1.831   8.690   6.367
14980SOL    MW460241   1.744   8.685   6.352
14981SOL     OW60242   0.427   8.837   7.106
14981SOL    HW260243   0.348   8.787   7.129
14981SOL    HW360244   0.497   8.796   7.156
14981SOL    MW460245   0.425   8.825   7.116
14982SOL     OW60246   0.311   7.626   5.789
14982SOL    HW260247   0.240   7.681   5.757
14982SOL    HW360248   0.353   7.592   5.710
14982SOL    MW460249   0.307   7.628   5.775
14983SOL     OW60250   1.435   8.123   6.625
14983SOL    HW260251   1.358   8.169   6.591
14983SOL    HW360252   1.492   8.192   6.659
14983SOL    MW460253   1.432   8.138   6.625
14984SOL     OW60254   0.067   7.725   5.638
14984SOL    HW260255   0.034   7.804   5.682
14984SOL    HW360256   0.122   7.758   5.567
14984SOL    MW460257   0.070   7.739   5.635
14985SOL     OW60258   1.373   9.071   6.044
14985SOL    HW260259   1.436   9.061   5.973
14985SOL    HW360260   1.290   9.091   5.999
14985SOL    MW460261   1.370   9.072   6.029
14986SOL     OW60262   3.470   8.271   1.252
14986SOL    HW260263   3.425   8.338   1.303
14986SOL    HW360264   3.558   8.307   1.238
14986SOL    MW460265   3.476   8.284   1.256
14987SOL     OW60266   2.398   8.522   0.486
14987SOL    HW260267   2.488   8.497   0.470
14987SOL    HW360268   2.394   8.615   0.463
14987SOL    MW460269   2.410   8.531   0.481
14988SOL     OW60270   2.893   9.110   1.629
14988SOL    HW260271   2.934   9.146   1.550
14988SOL    HW360272   2.928   9.021   1.636
14988SOL    MW460273   2.904   9.103   1.620
14989SOL     OW60274   3.450   8.665   1.233
14989SOL    HW260275   3.371   8.630   1.191
14989SOL    HW360276   3.477   8.737   1.177
14989SOL    MW460277   3.443   8.670   1.220
14990SOL     OW60278   2.682   7.978   0.499
14990SOL    HW260279   2.657   8.066   0.527
14990SOL    HW360280   2.679   7.981   0.403
14990SOL    MW460281   2.678   7.990   0.491
14991SOL     OW60282   2.124   8.006   0.427
14991SOL    HW260283   2.156   8.094   0.409
14991SOL    HW360284   2.112   8.004   0.522
14991SOL    MW460285   2.127   8.018   0.439
14992SOL     OW60286   2.202   8.419   1.328
14992SOL    HW260287   2.265   8.366   1.279
14992SOL    HW360288   2.183   8.493   1.271
14992SOL    MW460289   2.208   8.421   1.315
14993SOL     OW60290   2.523   7.761   0.514
14993SOL    HW260291   2.581   7.837   0.516
14993SOL    HW360292   2.458   7.782   0.447
14993SOL    MW460293   2.522   7.773   0.505
14994SOL     OW60294   2.610   8.688   0.689
14994SOL    HW260295   2.690   8.691   0.741
14994SOL    HW360296   2.638   8.655   0.603
14994SOL    MW460297   2.624   8.684   0.684
14995SOL     OW60298   2.635   9.029   1.592
14995SOL    HW260299   2.719   9.055   1.631
14995SOL    HW360300   2.659   8.973   1.518
14995SOL    MW460301   2.649   9.025   1.587
14996SOL     OW60302   2.387   8.192   0.680
14996SOL    HW260303   2.372   8.112   0.731
14996SOL    HW360304   2.469   8.227   0.714
14996SOL    MW460305   2.395   8.184   0.692
14997SOL     OW60306   2.724   8.878   1.365
14997SOL    HW260307   2.688   8.944   1.305
14997SOL    HW360308   2.652   8.816   1.378
14997SOL    MW460309   2.710   8.878   1.359
14998SOL     OW60310   2.529   8.018   1.057
14998SOL    HW260311   2.435   8.014   1.075
14998SOL    HW360312   2.559   7.927   1.066
14998SOL    MW460313   2.520   8.006   1.060
14999SOL     OW60314   2.275   8.432   0.961
14999SOL    HW260315   2.230   8.439   0.877
14999SOL    HW360316   2.255   8.515   1.005
14999SOL    MW460317   2.267   8.444   0.955
15000SOL     OW60318   2.236   8.805   0.871
15000SOL    HW260319   2.212   8.858   0.947
15000SOL    HW360320   2.292   8.863   0.819
15000SOL    MW460321   2.240   8.820   0.874
15001SOL     OW60322   2.798   8.449   0.681
15001SOL    HW260323   2.712   8.436   0.721
15001SOL    HW360324   2.851   8.376   0.713
15001SOL    MW460325   2.794   8.438   0.690
15002SOL     OW60326   2.206   9.101   1.466
15002SOL    HW260327   2.114   9.077   1.451
15002SOL    HW360328   2.250   9.018   1.483
15002SOL    MW460329   2.200   9.086   1.465
15003SOL     OW60330   3.662   7.812   0.854
15003SOL    HW260331   3.599   7.792   0.923
15003SOL    HW360332   3.652   7.741   0.791
15003SOL    MW460333   3.652   7.799   0.855
15004SOL     OW60334   2.286   7.784   0.366
15004SOL    HW260335   2.260   7.746   0.282
15004SOL    HW360336   2.223   7.854   0.382
15004SOL    MW460337   2.275   7.787   0.357
15005SOL     OW60338   3.463   8.584   0.506
15005SOL    HW260339   3.373   8.584   0.541
15005SOL    HW360340   3.456   8.630   0.423
15005SOL    MW460341   3.450   8.590   0.500
15006SOL     OW60342   3.263   8.219   1.578
15006SOL    HW260343   3.332   8.157   1.555
15006SOL    HW360344   3.188   8.193   1.525
15006SOL    MW460345   3.263   8.206   1.569
15007SOL     OW60346   2.004   9.099   1.130
15007SOL    HW260347   1.987   9.045   1.207
15007SOL    HW360348   1.992   9.189   1.160
15007SOL    MW460349   2.001   9.103   1.144
15008SOL     OW60350   2.999   8.606   1.570
15008SOL    HW260351   2.984   8.699   1.555
15008SOL    HW360352   3.094   8.596   1.570
15008SOL    MW460353   3.008   8.616   1.567
15009SOL     OW60354   2.795   8.030   1.771
15009SOL    HW260355   2.885   8.031   1.738
15009SOL    HW360356   2.754   7.955   1.729
15009SOL    MW460357   2.801   8.020   1.762
15010SOL     OW60358   3.370   8.562   0.898
15010SOL    HW260359   3.373   8.496   0.829
15010SOL    HW360360   3.455   8.605   0.894
15010SOL    MW460361   3.382   8.558   0.889
15011SOL     OW60362   2.990   8.165   0.467
15011SOL    HW260363   3.016   8.189   0.378
15011SOL    HW360364   2.972   8.072   0.463
15011SOL    MW460365   2.992   8.157   0.454
15012SOL     OW60366   2.575   7.834   1.721
15012SOL    HW260367   2.585   7.760   1.661
15012SOL    HW360368   2.611   7.803   1.804
15012SOL    MW460369   2.581   7.820   1.723
15013SOL     OW60370   3.695   7.563   0.685
15013SOL    HW260371   3.749   7.514   0.747
15013SOL    HW360372   3.638   7.497   0.646
15013SOL    MW460373   3.695   7.547   0.687
15014SOL     OW60374   2.814   7.516   1.098
15014SOL    HW260375   2.773   7.594   1.060
15014SOL    HW360376   2.908   7.534   1.093
15014SOL    MW460377   2.820   7.528   1.093
15015SOL     OW60378   3.443   8.120   0.464
15015SOL    HW260379   3.482   8.120   0.551
15015SOL    HW360380   3.384   8.196   0.464
15015SOL    MW460381   3.440   8.131   0.475
15016SOL     OW60382   2.760   8.487   1.593
15016SOL    HW260383   2.737   8.467   1.683
15016SOL    HW360384   2.845   8.531   1.598
15016SOL    MW460385   2.767   8.490   1.605
15017SOL     OW60386   2.840   7.624   1.353
15017SOL    HW260387   2.846   7.586   1.266
15017SOL    HW360388   2.829   7.718   1.338
15017SOL    MW460389   2.841   7.632   1.341
15018SOL     OW60390   2.929   8.113   1.187
15018SOL    HW260391   3.004   8.142   1.134
15018SOL    HW360392   2.861   8.178   1.171
15018SOL    MW460393   2.930   8.125   1.177
15019SOL     OW60394   3.479   8.081   1.464
15019SOL    HW260395   3.460   7.990   1.443
15019SOL    HW360396   3.457   8.130   1.385
15019SOL    MW460397   3.474   8.074   1.451
15020SOL     OW60398   2.926   7.819   1.570
15020SOL    HW260399   2.892   7.858   1.489
15020SOL    HW360400   2.904   7.727   1.563
15020SOL    MW460401   2.919   7.812   1.560
15021SOL     OW60402   3.335   8.633   1.646
15021SOL    HW260403   3.417   8.674   1.676
15021SOL    HW360404   3.298   8.595   1.726
15021SOL    MW460405   3.341   8.634   1.661
15022SOL     OW60406   3.630   8.006   0.630
15022SOL    HW260407   3.719   7.975   0.647
15022SOL    HW360408   3.573   7.946   0.678
15022SOL    MW460409   3.633   7.994   0.639
15023SOL     OW60410   2.056   7.720   0.659
15023SOL    HW260411   2.047   7.660   0.585
15023SOL    HW360412   1.989   7.691   0.722
15023SOL    MW460413   2.046   7.707   0.657
15024SOL     OW60414   2.003   7.893   1.022
15024SOL    HW260415   1.975   7.984   1.031
15024SOL    HW360416   1.940   7.854   0.961
15024SOL    MW460417   1.990   7.899   1.016
15025SOL     OW60418   3.724   8.386   1.227
15025SOL    HW260419   3.740   8.424   1.140
15025SOL    HW360420   3.758   8.452   1.288
15025SOL    MW460421   3.731   8.399   1.223
15026SOL     OW60422   1.987   8.168   1.192
15026SOL    HW260423   2.049   8.198   1.258
15026SOL    HW360424   1.921   8.237   1.186
15026SOL    MW460425   1.986   8.181   1.199
15027SOL     OW60426   2.134   8.596   1.151
15027SOL    HW260427   2.187   8.671   1.176
15027SOL    HW360428   2.053   8.634   1.117
15027SOL    MW460429   2.130   8.611   1.151
15028SOL     OW60430   2.674   8.500   1.139
15028SOL    HW260431   2.702   8.409   1.151
15028SOL    HW360432   2.603   8.494   1.075
15028SOL    MW460433   2.667   8.488   1.134
15029SOL     OW60434   1.989   8.365   0.557
15029SOL    HW260435   2.080   8.380   0.584
15029SOL    HW360436   1.992   8.286   0.503
15029SOL    MW460437   2.001   8.357   0.555
15030SOL     OW60438   2.225   8.073   1.811
15030SOL    HW260439   2.172   8.153   1.818
15030SOL    HW360440   2.295   8.085   1.876
15030SOL    MW460441   2.227   8.086   1.819
15031SOL     OW60442   2.611   7.623   1.518
15031SOL    HW260443   2.588   7.531   1.520
15031SOL    HW360444   2.697   7.625   1.475
15031SOL    MW460445   2.618   7.613   1.514
15032SOL     OW60446   2.295   8.147   1.557
15032SOL    HW260447   2.375   8.197   1.543
15032SOL    HW360448   2.286   8.141   1.652
15032SOL    MW460449   2.304   8.153   1.567
15033SOL     OW60450   3.272   7.672   1.828
15033SOL    HW260451   3.328   7.599   1.854
15033SOL    HW360452   3.242   7.710   1.910
15033SOL    MW460453   3.276   7.667   1.841
15034SOL     OW60454   1.997   8.977   0.596
15034SOL    HW260455   1.969   9.016   0.678
15034SOL    HW360456   2.017   8.886   0.618
15034SOL    MW460457   1.995   8.969   0.609
15035SOL     OW60458   2.830   9.020   0.631
15035SOL    HW260459   2.913   8.974   0.615
15035SOL    HW360460   2.820   9.019   0.727
15035SOL    MW460461   2.840   9.013   0.641
15036SOL     OW60462   3.662   8.165   0.945
15036SOL    HW260463   3.751   8.195   0.927
15036SOL    HW360464   3.642   8.105   0.874
15036SOL    MW460465   3.671   8.162   0.934
15037SOL     OW60466   3.513   8.344   1.825
15037SOL    HW260467   3.568   8.268   1.806
15037SOL    HW360468   3.515   8.352   1.920
15037SOL    MW460469   3.521   8.335   1.833
15038SOL     OW60470   2.808   7.906   1.344
15038SOL    HW260471   2.727   7.947   1.372
15038SOL    HW360472   2.855   7.974   1.296
15038SOL    MW460473   2.803   7.921   1.342
15039SOL     OW60474   3.068   8.244   0.967
15039SOL    HW260475   3.081   8.338   0.977
15039SOL    HW360476   3.029   8.234   0.881
15039SOL    MW460477   3.064   8.255   0.957
15040SOL     OW60478   2.520   8.439   0.771
15040SOL    HW260479   2.431   8.430   0.804
15040SOL    HW360480   2.524   8.529   0.739
15040SOL    MW460481   2.509   8.450   0.771
15041SOL     OW60482   3.319   8.022   0.766
15041SOL    HW260483   3.264   7.943   0.765
15041SOL    HW360484   3.301   8.063   0.850
15041SOL    MW460485   3.309   8.017   0.775
15042SOL     OW60486   2.290   7.709   1.583
15042SOL    HW260487   2.211   7.727   1.635
15042SOL    HW360488   2.285   7.771   1.510
15042SOL    MW460489   2.280   7.719   1.580
15043SOL     OW60490   2.938   8.226   0.723
15043SOL    HW260491   2.875   8.158   0.747
15043SOL    HW360492   2.958   8.207   0.631
15043SOL    MW460493   2.932   8.213   0.715
15044SOL     OW60494   2.686   8.530   0.449
15044SOL    HW260495   2.688   8.504   0.356
15044SOL    HW360496   2.744   8.467   0.492
15044SOL    MW460497   2.694   8.519   0.443
15045SOL     OW60498   3.196   7.774   0.782
15045SOL    HW260499   3.224   7.706   0.843
15045SOL    HW360500   3.110   7.745   0.752
15045SOL    MW460501   3.189   7.761   0.786
15046SOL     OW60502   2.001   8.708   0.716
15046SOL    HW260503   2.065   8.740   0.779
15046SOL    HW360504   2.050   8.644   0.664
15046SOL    MW460505   2.016   8.704   0.717
15047SOL     OW60506   2.501   8.784   1.698
15047SOL    HW260507   2.549   8.867   1.685
15047SOL    HW360508   2.558   8.732   1.754
15047SOL    MW460509   2.515   8.788   1.704
15048SOL     OW60510   2.077   9.026   1.838
15048SOL    HW260511   2.133   8.950   1.853
15048SOL    HW360512   2.026   9.004   1.760
15048SOL    MW460513   2.077   9.013   1.829
15049SOL     OW60514   2.962   8.863   1.447
15049SOL    HW260515   2.873   8.869   1.415
15049SOL    HW360516   3.006   8.942   1.415
15049SOL    MW460517   2.957   8.873   1.439
15050SOL     OW60518   2.255   7.531   1.789
15050SOL    HW260519   2.183   7.496   1.737
15050SOL    HW360520   2.313   7.572   1.724
15050SOL    MW460521   2.253   7.532   1.774
15051SOL     OW60522   2.279   9.021   1.088
15051SOL    HW260523   2.324   9.083   1.145
15051SOL    HW360524   2.186   9.040   1.101
15051SOL    MW460525   2.272   9.031   1.095
15052SOL     OW60526   3.719   8.550   1.442
15052SOL    HW260527   3.634   8.563   1.401
15052SOL    HW360528   3.699   8.514   1.529
15052SOL    MW460529   3.706   8.546   1.447
15053SOL     OW60530   2.701   9.089   1.196
15053SOL    HW260531   2.725   9.078   1.105
15053SOL    HW360532   2.624   9.146   1.194
15053SOL    MW460533   2.693   9.094   1.185
15054SOL     OW60534   2.496   8.794   0.986
15054SOL    HW260535   2.489   8.773   1.080
15054SOL    HW360536   2.414   8.762   0.949
15054SOL    MW460537   2.484   8.788   0.993
15055SOL     OW60538   3.360   7.804   1.388
15055SOL    HW260539   3.307   7.806   1.468
15055SOL    HW360540   3.345   7.717   1.351
15055SOL    MW460541   3.352   7.794   1.393
15056SOL     OW60542   3.696   7.728   1.261
15056SOL    HW260543   3.677   7.795   1.196
15056SOL    HW360544   3.753   7.666   1.216
15056SOL    MW460545   3.700   7.729   1.247
15057SOL     OW60546   1.942   8.886   1.649
15057SOL    HW260547   1.986   8.819   1.595
15057SOL    HW360548   1.857   8.848   1.669
15057SOL    MW460549   1.937   8.872   1.645
15058SOL     OW60550   2.625   7.561   0.701
15058SOL    HW260551   2.554   7.622   0.683
15058SOL    HW360552   2.676   7.558   0.620
15058SOL    MW460553   2.621   7.567   0.688
15059SOL     OW60554   2.585   8.218   1.831
15059SOL    HW260555   2.655   8.160   1.803
15059SOL    HW360556   2.528   8.163   1.886
15059SOL    MW460557   2.587   8.205   1.835
15060SOL     OW60558   3.372   8.430   1.464
15060SOL    HW260559   3.377   8.483   1.544
15060SOL    HW360560   3.334   8.347   1.492
15060SOL    MW460561   3.368   8.425   1.479
15061SOL     OW60562   3.012   7.565   1.710
15061SOL    HW260563   3.007   7.472   1.691
15061SOL    HW360564   3.095   7.576   1.756
15061SOL    MW460565   3.020   7.554   1.714
15062SOL     OW60566   2.386   8.085   0.164
15062SOL    HW260567   2.352   8.141   0.234
15062SOL    HW360568   2.457   8.035   0.204
15062SOL    MW460569   2.392   8.086   0.178
15063SOL     OW60570   3.482   8.836   0.986
15063SOL    HW260571   3.517   8.818   0.899
15063SOL    HW360572   3.387   8.837   0.973
15063SOL    MW460573   3.474   8.833   0.973
15064SOL     OW60574   2.911   8.484   1.355
15064SOL    HW260575   2.954   8.519   1.433
15064SOL    HW360576   2.894   8.561   1.301
15064SOL    MW460577   2.914   8.499   1.358
15065SOL     OW60578   2.302   7.626   0.657
15065SOL    HW260579   2.352   7.669   0.588
15065SOL    HW360580   2.217   7.670   0.657
15065SOL    MW460581   2.299   7.639   0.648
15066SOL     OW60582   2.061   8.688   1.517
15066SOL    HW260583   2.089   8.641   1.595
15066SOL    HW360584   1.982   8.643   1.488
15066SOL    MW460585   2.054   8.677   1.523
15067SOL     OW60586   2.569   8.015   1.484
15067SOL    HW260587   2.541   8.103   1.508
15067SOL    HW360588   2.538   7.959   1.555
15067SOL    MW460589   2.561   8.018   1.496
15068SOL     OW60590   2.224   8.411   0.697
15068SOL    HW260591   2.282   8.467   0.645
15068SOL    HW360592   2.268   8.326   0.699
15068SOL    MW460593   2.237   8.408   0.690
15069SOL     OW60594   3.364   7.763   0.534
15069SOL    HW260595   3.286   7.713   0.559
15069SOL    HW360596   3.335   7.854   0.534
15069SOL    MW460597   3.350   7.767   0.537
15070SOL     OW60598   2.950   7.725   0.693
15070SOL    HW260599   2.970   7.800   0.637
15070SOL    HW360600   2.930   7.764   0.778
15070SOL    MW460601   2.951   7.741   0.697
15071SOL     OW60602   2.846   8.975   0.025
15071SOL    HW260603   2.873   9.053  -0.023
15071SOL    HW360604   2.753   8.990   0.044
15071SOL    MW460605   2.837   8.988   0.021
15072SOL     OW60606   3.710   8.498   1.712
15072SOL    HW260607   3.623   8.478   1.748
15072SOL    HW360608   3.764   8.424   1.737
15072SOL    MW460609   3.705   8.487   1.720
15073SOL     OW60610   1.931   9.011   0.869
15073SOL    HW260611   1.963   9.015   0.960
15073SOL    HW360612   1.836   9.019   0.877
15073SOL    MW460613   1.923   9.014   0.882
15074SOL     OW60614   1.886   8.137   0.416
15074SOL    HW260615   1.826   8.109   0.486
15074SOL    HW360616   1.960   8.077   0.422
15074SOL    MW460617   1.888   8.126   0.425
15075SOL     OW60618   3.054   8.868   0.576
15075SOL    HW260619   3.077   8.819   0.654
15075SOL    HW360620   3.135   8.910   0.548
15075SOL    MW460621   3.067   8.868   0.583
15076SOL     OW60622   2.312   7.876   1.305
15076SOL    HW260623   2.345   7.957   1.345
15076SOL    HW360624   2.285   7.902   1.217
15076SOL    MW460625   2.311   7.890   1.299
15077SOL     OW60626   2.266   7.843   1.041
15077SOL    HW260627   2.296   7.757   1.012
15077SOL    HW360628   2.171   7.836   1.044
15077SOL    MW460629   2.258   7.832   1.039
15078SOL     OW60630   3.095   8.052   1.732
15078SOL    HW260631   3.147   7.987   1.685
15078SOL    HW360632   3.053   8.103   1.662
15078SOL    MW460633   3.096   8.049   1.715
15079SOL     OW60634   3.194   7.847   1.593
15079SOL    HW260635   3.101   7.831   1.580
15079SOL    HW360636   3.220   7.785   1.661
15079SOL    MW460637   3.184   7.837   1.600
15080SOL     OW60638   2.409   7.621   0.932
15080SOL    HW260639   2.419   7.530   0.958
15080SOL    HW360640   2.365   7.617   0.847
15080SOL    MW460641   2.405   7.609   0.924
15081SOL     OW60642   3.560   7.943   1.103
15081SOL    HW260643   3.493   7.976   1.163
15081SOL    HW360644   3.603   8.021   1.069
15081SOL    MW460645   3.558   7.958   1.107
15082SOL     OW60646   3.738   8.663   1.073
15082SOL    HW260647   3.731   8.603   0.998
15082SOL    HW360648   3.664   8.723   1.062
15082SOL    MW460649   3.728   8.663   1.062
15083SOL     OW60650   3.120   8.525   0.991
15083SOL    HW260651   3.134   8.497   1.082
15083SOL    HW360652   3.206   8.556   0.963
15083SOL    MW460653   3.133   8.526   1.000
15084SOL     OW60654   3.203   8.020   1.270
15084SOL    HW260655   3.224   8.021   1.177
15084SOL    HW360656   3.248   7.942   1.303
15084SOL    MW460657   3.210   8.010   1.262
15085SOL     OW60658   3.696   8.151   1.812
15085SOL    HW260659   3.733   8.096   1.881
15085SOL    HW360660   3.721   8.108   1.730
15085SOL    MW460661   3.703   8.139   1.811
15086SOL     OW60662   3.243   8.449   1.863
15086SOL    HW260663   3.309   8.397   1.817
15086SOL    HW360664   3.263   8.436   1.956
15086SOL    MW460665   3.254   8.440   1.870
15087SOL     OW60666   3.254   8.310   0.490
15087SOL    HW260667   3.169   8.280   0.460
15087SOL    HW360668   3.246   8.317   0.585
15087SOL    MW460669   3.242   8.308   0.499
15088SOL     OW60670   2.330   8.773   1.221
15088SOL    HW260671   2.342   8.800   1.312
15088SOL    HW360672   2.311   8.854   1.174
15088SOL    MW460673   2.329   8.788   1.226
15089SOL     OW60674   2.614   7.753   1.044
15089SOL    HW260675   2.587   7.755   1.135
15089SOL    HW360676   2.544   7.705   0.999
15089SOL    MW460677   2.602   7.749   1.051
15090SOL     OW60678   3.370   8.830   1.438
15090SOL    HW260679   3.355   8.759   1.501
15090SOL    HW360680   3.416   8.788   1.366
15090SOL    MW460681   3.376   8.814   1.438
15091SOL     OW60682   2.444   8.561   1.555
15091SOL    HW260683   2.481   8.566   1.467
15091SOL    HW360684   2.483   8.634   1.602
15091SOL    MW460685   2.454   8.571   1.550
15092SOL     OW60686   2.624   8.604   1.367
15092SOL    HW260687   2.683   8.550   1.420
15092SOL    HW360688   2.639   8.576   1.277
15092SOL    MW460689   2.634   8.593   1.363
15093SOL     OW60690   3.095   7.572   1.130
15093SOL    HW260691   3.150   7.581   1.052
15093SOL    HW360692   3.150   7.606   1.201
15093SOL    MW460693   3.109   7.577   1.129
15094SOL     OW60694   2.102   8.485   0.314
15094SOL    HW260695   2.039   8.501   0.243
15094SOL    HW360696   2.049   8.448   0.385
15094SOL    MW460697   2.087   8.482   0.314
15095SOL     OW60698   2.256   9.228   0.894
15095SOL    HW260699   2.260   9.139   0.929
15095SOL    HW360700   2.282   9.219   0.803
15095SOL    MW460701   2.259   9.216   0.886
15096SOL     OW60702   2.873   8.706   1.137
15096SOL    HW260703   2.805   8.640   1.153
15096SOL    HW360704   2.891   8.700   1.044
15096SOL    MW460705   2.866   8.697   1.128
15097SOL     OW60706   1.962   8.981   1.388
15097SOL    HW260707   1.952   8.939   1.474
15097SOL    HW360708   1.883   9.034   1.378
15097SOL    MW460709   1.951   8.982   1.399
15098SOL     OW60710   2.866   7.845   0.958
15098SOL    HW260711   2.796   7.797   1.003
15098SOL    HW360712   2.898   7.908   1.022
15098SOL    MW460713   2.861   7.847   0.972
15099SOL     OW60714   2.517   8.281   1.578
15099SOL    HW260715   2.510   8.376   1.566
15099SOL    HW360716   2.526   8.270   1.673
15099SOL    MW460717   2.518   8.293   1.588
15100SOL     OW60718   2.238   8.796   1.836
15100SOL    HW260719   2.310   8.798   1.773
15100SOL    HW360720   2.208   8.705   1.835
15100SOL    MW460721   2.243   8.785   1.828
15101SOL     OW60722   3.322   7.559   1.303
15101SOL    HW260723   3.393   7.505   1.267
15101SOL    HW360724   3.321   7.538   1.396
15101SOL    MW460725   3.331   7.550   1.311
15102SOL     OW60726   2.333   7.951   0.771
15102SOL    HW260727   2.404   7.899   0.734
15102SOL    HW360728   2.319   7.916   0.858
15102SOL    MW460729   2.341   7.940   0.778
15103SOL     OW60730   2.649   9.044   0.847
15103SOL    HW260731   2.577   8.981   0.860
15103SOL    HW360732   2.610   9.129   0.865
15103SOL    MW460733   2.633   9.047   0.850
15104SOL     OW60734   2.969   7.892   0.495
15104SOL    HW260735   2.991   7.829   0.427
15104SOL    HW360736   2.874   7.884   0.506
15104SOL    MW460737   2.959   7.883   0.487
15105SOL     OW60738   2.054   7.582   0.427
15105SOL    HW260739   2.125   7.603   0.366
15105SOL    HW360740   2.008   7.510   0.385
15105SOL    MW460741   2.058   7.576   0.413
15106SOL     OW60742   1.885   8.049   1.570
15106SOL    HW260743   1.949   8.115   1.545
15106SOL    HW360744   1.804   8.076   1.527
15106SOL    MW460745   1.883   8.061   1.562
15107SOL     OW60746   2.841   7.553   0.510
15107SOL    HW260747   2.878   7.612   0.575
15107SOL    HW360748   2.818   7.609   0.436
15107SOL    MW460749   2.842   7.568   0.509
15108SOL     OW60750   3.694   8.435   0.932
15108SOL    HW260751   3.685   8.467   0.843
15108SOL    HW360752   3.647   8.351   0.932
15108SOL    MW460753   3.687   8.428   0.922
15109SOL     OW60754   2.070   8.275   1.511
15109SOL    HW260755   2.091   8.344   1.449
15109SOL    HW360756   2.150   8.222   1.516
15109SOL    MW460757   2.083   8.276   1.505
15110SOL     OW60758   3.606   8.366   0.633
15110SOL    HW260759   3.700   8.355   0.621
15110SOL    HW360760   3.582   8.438   0.574
15110SOL    MW460761   3.616   8.374   0.624
15111SOL     OW60762   2.055   8.290   1.778
15111SOL    HW260763   1.981   8.234   1.804
15111SOL    HW360764   2.050   8.293   1.683
15111SOL    MW460765   2.044   8.283   1.768
15112SOL     OW60766   2.221   7.577   1.228
15112SOL    HW260767   2.264   7.661   1.248
15112SOL    HW360768   2.294   7.515   1.221
15112SOL    MW460769   2.236   7.580   1.229
15113SOL     OW60770   2.262   8.244   0.406
15113SOL    HW260771   2.262   8.339   0.391
15113SOL    HW360772   2.339   8.228   0.460
15113SOL    MW460773   2.272   8.255   0.411
15114SOL     OW60774   3.038   8.103   1.470
15114SOL    HW260775   3.074   8.076   1.386
15114SOL    HW360776   2.951   8.137   1.449
15114SOL    MW460777   3.032   8.104   1.457
15115SOL     OW60778   2.021   7.975   0.695
15115SOL    HW260779   2.083   7.982   0.768
15115SOL    HW360780   2.021   7.882   0.672
15115SOL    MW460781   2.029   7.964   0.702
15116SOL     OW60782   2.703   8.236   1.179
15116SOL    HW260783   2.661   8.154   1.155
15116SOL    HW360784   2.704   8.235   1.275
15116SOL    MW460785   2.696   8.225   1.188
15117SOL     OW60786   2.507   7.706   1.284
15117SOL    HW260787   2.438   7.769   1.305
15117SOL    HW360788   2.534   7.670   1.369
15117SOL    MW460789   2.501   7.709   1.297
15118SOL     OW60790   1.890   8.547   0.153
15118SOL    HW260791   1.859   8.612   0.216
15118SOL    HW360792   1.839   8.469   0.172
15118SOL    MW460793   1.880   8.544   0.163
15119SOL     OW60794   3.302   7.559   0.901
15119SOL    HW260795   3.390   7.568   0.938
15119SOL    HW360796   3.312   7.500   0.827
15119SOL    MW460797   3.316   7.553   0.895
15120SOL     OW60798   3.334   8.298   0.745
15120SOL    HW260799   3.414   8.313   0.694
15120SOL    HW360800   3.327   8.203   0.751
15120SOL    MW460801   3.343   8.287   0.740
15121SOL     OW60802   2.784   8.224   1.442
15121SOL    HW260803   2.853   8.291   1.439
15121SOL    HW360804   2.717   8.262   1.498
15121SOL    MW460805   2.785   8.237   1.449
15122SOL     OW60806   2.202   8.524   1.690
15122SOL    HW260807   2.156   8.440   1.692
15122SOL    HW360808   2.259   8.518   1.614
15122SOL    MW460809   2.204   8.512   1.682
15123SOL     OW60810   2.453   8.899   0.691
15123SOL    HW260811   2.518   8.832   0.712
15123SOL    HW360812   2.505   8.976   0.668
15123SOL    MW460813   2.468   8.901   0.690
15124SOL     OW60814   2.714   8.064   0.821
15124SOL    HW260815   2.654   8.082   0.893
15124SOL    HW360816   2.748   7.976   0.840
15124SOL    MW460817   2.710   8.054   0.834
15125SOL     OW60818   3.655   7.563   1.490
15125SOL    HW260819   3.576   7.609   1.518
15125SOL    HW360820   3.690   7.617   1.419
15125SOL    MW460821   3.649   7.576   1.484
15126SOL     OW60822   2.939   8.647   0.840
15126SOL    HW260823   3.031   8.628   0.858
15126SOL    HW360824   2.912   8.577   0.780
15126SOL    MW460825   2.947   8.635   0.834
15127SOL     OW60826   2.145   8.191   0.974
15127SOL    HW260827   2.095   8.190   1.055
15127SOL    HW360828   2.165   8.283   0.958
15127SOL    MW460829   2.141   8.203   0.982
15128SOL     OW60830   3.212   8.955   1.736
15128SOL    HW260831   3.212   9.049   1.752
15128SOL    HW360832   3.257   8.945   1.652
15128SOL    MW460833   3.218   8.965   1.727
15129SOL     OW60834   2.067   7.859   1.715
15129SOL    HW260835   2.024   7.918   1.652
15129SOL    HW360836   2.135   7.914   1.755
15129SOL    MW460837   2.071   7.874   1.712
15130SOL     OW60838   3.179   8.479   1.260
15130SOL    HW260839   3.242   8.476   1.333
15130SOL    HW360840   3.095   8.497   1.302
15130SOL    MW460841   3.175   8.481   1.275
15131SOL     OW60842   2.723   9.194   0.449
15131SOL    HW260843   2.781   9.265   0.476
15131SOL    HW360844   2.746   9.122   0.507
15131SOL    MW460845   2.734   9.194   0.460
15132SOL     OW60846   3.518   7.656   1.039
15132SOL    HW260847   3.563   7.574   1.058
15132SOL    HW360848   3.538   7.712   1.115
15132SOL    MW460849   3.528   7.652   1.051
15133SOL     OW60850   1.966   7.499   1.138
15133SOL    HW260851   1.957   7.500   1.043
15133SOL    HW360852   2.060   7.511   1.153
15133SOL    MW460853   1.978   7.502   1.129
15134SOL     OW60854   3.603   8.692   0.758
15134SOL    HW260855   3.582   8.638   0.681
15134SOL    HW360856   3.699   8.690   0.762
15134SOL    MW460857   3.612   8.685   0.747
15135SOL     OW60858   2.295   8.837   1.501
15135SOL    HW260859   2.216   8.787   1.524
15135SOL    HW360860   2.365   8.796   1.551
15135SOL    MW460861   2.293   8.825   1.511
15136SOL     OW60862   2.179   7.626   0.184
15136SOL    HW260863   2.108   7.681   0.152
15136SOL    HW360864   2.221   7.592   0.105
15136SOL    MW460865   2.175   7.628   0.170
15137SOL     OW60866   3.303   8.123   1.020
15137SOL    HW260867   3.226   8.169   0.986
15137SOL    HW360868   3.360   8.192   1.054
15137SOL    MW460869   3.300   8.138   1.020
15138SOL     OW60870   1.935   7.725   0.033
15138SOL    HW260871   1.902   7.804   0.077
15138SOL    HW360872   1.990   7.758  -0.038
15138SOL    MW460873   1.938   7.739   0.030
15139SOL     OW60874   3.604   8.339   2.125
15139SOL    HW260875   3.645   8.281   2.190
15139SOL    HW360876   3.511   8.331   2.142
15139SOL    MW460877   3.598   8.331   2.135
15140SOL     OW60878   3.470   8.271   3.120
15140SOL    HW260879   3.425   8.338   3.171
15140SOL    HW360880   3.558   8.307   3.106
15140SOL    MW460881   3.476   8.284   3.124
15141SOL     OW60882   2.398   8.522   2.354
15141SOL    HW260883   2.488   8.497   2.338
15141SOL    HW360884   2.394   8.615   2.331
15141SOL    MW460885   2.410   8.531   2.349
15142SOL     OW60886   2.893   9.110   3.497
15142SOL    HW260887   2.934   9.146   3.418
15142SOL    HW360888   2.928   9.021   3.504
15142SOL    MW460889   2.904   9.103   3.488
15143SOL     OW60890   3.450   8.665   3.101
15143SOL    HW260891   3.371   8.630   3.059
15143SOL    HW360892   3.477   8.737   3.045
15143SOL    MW460893   3.443   8.670   3.088
15144SOL     OW60894   2.682   7.978   2.367
15144SOL    HW260895   2.657   8.066   2.395
15144SOL    HW360896   2.679   7.981   2.271
15144SOL    MW460897   2.678   7.990   2.359
15145SOL     OW60898   2.124   8.006   2.295
15145SOL    HW260899   2.156   8.094   2.277
15145SOL    HW360900   2.112   8.004   2.390
15145SOL    MW460901   2.127   8.018   2.307
15146SOL     OW60902   2.202   8.419   3.196
15146SOL    HW260903   2.265   8.366   3.147
15146SOL    HW360904   2.183   8.493   3.139
15146SOL    MW460905   2.208   8.421   3.183
15147SOL     OW60906   2.523   7.761   2.382
15147SOL    HW260907   2.581   7.837   2.384
15147SOL    HW360908   2.458   7.782   2.315
15147SOL    MW460909   2.522   7.773   2.373
15148SOL     OW60910   2.610   8.688   2.557
15148SOL    HW260911   2.690   8.691   2.609
15148SOL    HW360912   2.638   8.655   2.471
15148SOL    MW460913   2.624   8.684   2.552
15149SOL     OW60914   2.635   9.029   3.460
15149SOL    HW260915   2.719   9.055   3.499
15149SOL    HW360916   2.659   8.973   3.386
15149SOL    MW460917   2.649   9.025   3.455
15150SOL     OW60918   2.387   8.192   2.548
15150SOL    HW260919   2.372   8.112   2.599
15150SOL    HW360920   2.469   8.227   2.582
15150SOL    MW460921   2.395   8.184   2.560
15151SOL     OW60922   2.724   8.878   3.233
15151SOL    HW260923   2.688   8.944   3.173
15151SOL    HW360924   2.652   8.816   3.246
15151SOL    MW460925   2.710   8.878   3.227
15152SOL     OW60926   2.529   8.018   2.925
15152SOL    HW260927   2.435   8.014   2.943
15152SOL    HW360928   2.559   7.927   2.934
15152SOL    MW460929   2.520   8.006   2.928
15153SOL     OW60930   2.275   8.432   2.829
15153SOL    HW260931   2.230   8.439   2.745
15153SOL    HW360932   2.255   8.515   2.873
15153SOL    MW460933   2.267   8.444   2.823
15154SOL     OW60934   3.237   8.670   2.073
15154SOL    HW260935   3.155   8.706   2.039
15154SOL    HW360936   3.305   8.713   2.022
15154SOL    MW460937   3.235   8.680   2.061
15155SOL     OW60938   2.236   8.805   2.739
15155SOL    HW260939   2.212   8.858   2.815
15155SOL    HW360940   2.292   8.863   2.687
15155SOL    MW460941   2.240   8.820   2.742
15156SOL     OW60942   2.798   8.449   2.549
15156SOL    HW260943   2.712   8.436   2.589
15156SOL    HW360944   2.851   8.376   2.581
15156SOL    MW460945   2.794   8.438   2.558
15157SOL     OW60946   2.206   9.101   3.334
15157SOL    HW260947   2.114   9.077   3.319
15157SOL    HW360948   2.250   9.018   3.351
15157SOL    MW460949   2.200   9.086   3.333
15158SOL     OW60950   2.789   8.811   2.266
15158SOL    HW260951   2.766   8.873   2.334
15158SOL    HW360952   2.746   8.729   2.292
15158SOL    MW460953   2.781   8.807   2.277
15159SOL     OW60954   3.662   7.812   2.722
15159SOL    HW260955   3.599   7.792   2.791
15159SOL    HW360956   3.652   7.741   2.659
15159SOL    MW460957   3.652   7.799   2.723
15160SOL     OW60958   2.286   7.784   2.234
15160SOL    HW260959   2.260   7.746   2.150
15160SOL    HW360960   2.223   7.854   2.250
15160SOL    MW460961   2.275   7.787   2.225
15161SOL     OW60962   2.121   8.745   2.271
15161SOL    HW260963   2.069   8.813   2.227
15161SOL    HW360964   2.118   8.671   2.211
15161SOL    MW460965   2.113   8.744   2.258
15162SOL     OW60966   3.718   7.981   2.024
15162SOL    HW260967   3.627   7.983   2.052
15162SOL    HW360968   3.763   8.043   2.082
15162SOL    MW460969   3.711   7.989   2.034
15163SOL     OW60970   3.463   8.584   2.374
15163SOL    HW260971   3.373   8.584   2.409
15163SOL    HW360972   3.456   8.630   2.291
15163SOL    MW460973   3.450   8.590   2.368
15164SOL     OW60974   3.263   8.219   3.446
15164SOL    HW260975   3.332   8.157   3.423
15164SOL    HW360976   3.188   8.193   3.393
15164SOL    MW460977   3.263   8.206   3.437
15165SOL     OW60978   2.004   9.099   2.998
15165SOL    HW260979   1.987   9.045   3.075
15165SOL    HW360980   1.992   9.189   3.028
15165SOL    MW460981   2.001   9.103   3.012
15166SOL     OW60982   2.999   8.606   3.438
15166SOL    HW260983   2.984   8.699   3.423
15166SOL    HW360984   3.094   8.596   3.438
15166SOL    MW460985   3.008   8.616   3.435
15167SOL     OW60986   2.795   8.030   3.639
15167SOL    HW260987   2.885   8.031   3.606
15167SOL    HW360988   2.754   7.955   3.597
15167SOL    MW460989   2.801   8.020   3.630
15168SOL     OW60990   3.370   8.562   2.766
15168SOL    HW260991   3.373   8.496   2.697
15168SOL    HW360992   3.455   8.605   2.762
15168SOL    MW460993   3.382   8.558   2.757
15169SOL     OW60994   2.990   8.165   2.335
15169SOL    HW260995   3.016   8.189   2.246
15169SOL    HW360996   2.972   8.072   2.331
15169SOL    MW460997   2.992   8.157   2.322
15170SOL     OW60998   3.655   8.785   2.186
15170SOL    HW260999   3.611   8.826   2.261
15170SOL    HW361000   3.712   8.853   2.151
15170SOL    MW461001   3.657   8.799   2.191
15171SOL     OW61002   2.575   7.834   3.589
15171SOL    HW261003   2.585   7.760   3.529
15171SOL    HW361004   2.611   7.803   3.672
15171SOL    MW461005   2.581   7.820   3.591
15172SOL     OW61006   3.695   7.563   2.553
15172SOL    HW261007   3.749   7.514   2.615
15172SOL    HW361008   3.638   7.497   2.514
15172SOL    MW461009   3.695   7.547   2.555
15173SOL     OW61010   2.814   7.516   2.966
15173SOL    HW261011   2.773   7.594   2.928
15173SOL    HW361012   2.908   7.534   2.961
15173SOL    MW461013   2.820   7.528   2.961
15174SOL     OW61014   2.829   8.194   1.996
15174SOL    HW261015   2.831   8.141   1.917
15174SOL    HW361016   2.917   8.231   2.002
15174SOL    MW461017   2.841   8.193   1.985
15175SOL     OW61018   3.443   8.120   2.332
15175SOL    HW261019   3.482   8.120   2.419
15175SOL    HW361020   3.384   8.196   2.332
15175SOL    MW461021   3.440   8.131   2.343
15176SOL     OW61022   2.760   8.487   3.461
15176SOL    HW261023   2.737   8.467   3.551
15176SOL    HW361024   2.845   8.531   3.466
15176SOL    MW461025   2.767   8.490   3.473
15177SOL     OW61026   2.840   7.624   3.221
15177SOL    HW261027   2.846   7.586   3.134
15177SOL    HW361028   2.829   7.718   3.206
15177SOL    MW461029   2.841   7.632   3.209
15178SOL     OW61030   2.929   8.113   3.055
15178SOL    HW261031   3.004   8.142   3.002
15178SOL    HW361032   2.861   8.178   3.039
15178SOL    MW461033   2.930   8.125   3.045
15179SOL     OW61034   3.479   8.081   3.332
15179SOL    HW261035   3.460   7.990   3.311
15179SOL    HW361036   3.457   8.130   3.253
15179SOL    MW461037   3.474   8.074   3.319
15180SOL     OW61038   2.926   7.819   3.438
15180SOL    HW261039   2.892   7.858   3.357
15180SOL    HW361040   2.904   7.727   3.431
15180SOL    MW461041   2.919   7.812   3.428
15181SOL     OW61042   3.335   8.633   3.514
15181SOL    HW261043   3.417   8.674   3.544
15181SOL    HW361044   3.298   8.595   3.594
15181SOL    MW461045   3.341   8.634   3.529
15182SOL     OW61046   3.630   8.006   2.498
15182SOL    HW261047   3.719   7.975   2.515
15182SOL    HW361048   3.573   7.946   2.546
15182SOL    MW461049   3.633   7.994   2.507
15183SOL     OW61050   2.056   7.720   2.527
15183SOL    HW261051   2.047   7.660   2.453
15183SOL    HW361052   1.989   7.691   2.590
15183SOL    MW461053   2.046   7.707   2.525
15184SOL     OW61054   2.999   8.813   2.088
15184SOL    HW261055   2.949   8.815   2.170
15184SOL    HW361056   2.933   8.831   2.020
15184SOL    MW461057   2.985   8.815   2.090
15185SOL     OW61058   2.003   7.893   2.890
15185SOL    HW261059   1.975   7.984   2.899
15185SOL    HW361060   1.940   7.854   2.829
15185SOL    MW461061   1.990   7.899   2.884
15186SOL     OW61062   2.598   8.646   1.903
15186SOL    HW261063   2.520   8.592   1.890
15186SOL    HW361064   2.569   8.719   1.956
15186SOL    MW461065   2.584   8.648   1.908
15187SOL     OW61066   3.724   8.386   3.095
15187SOL    HW261067   3.740   8.424   3.008
15187SOL    HW361068   3.758   8.452   3.156
15187SOL    MW461069   3.731   8.399   3.091
15188SOL     OW61070   1.987   8.168   3.060
15188SOL    HW261071   2.049   8.198   3.126
15188SOL    HW361072   1.921   8.237   3.054
15188SOL    MW461073   1.986   8.181   3.067
15189SOL     OW61074   2.628   7.725   1.968
15189SOL    HW261075   2.576   7.645   1.956
15189SOL    HW361076   2.715   7.702   1.936
15189SOL    MW461077   2.631   7.711   1.962
15190SOL     OW61078   2.134   8.596   3.019
15190SOL    HW261079   2.187   8.671   3.044
15190SOL    HW361080   2.053   8.634   2.985
15190SOL    MW461081   2.130   8.611   3.019
15191SOL     OW61082   2.674   8.500   3.007
15191SOL    HW261083   2.702   8.409   3.019
15191SOL    HW361084   2.603   8.494   2.943
15191SOL    MW461085   2.667   8.488   3.002
15192SOL     OW61086   1.989   8.365   2.425
15192SOL    HW261087   2.080   8.380   2.452
15192SOL    HW361088   1.992   8.286   2.371
15192SOL    MW461089   2.001   8.357   2.423
15193SOL     OW61090   2.225   8.073   3.679
15193SOL    HW261091   2.172   8.153   3.686
15193SOL    HW361092   2.295   8.085   3.744
15193SOL    MW461093   2.227   8.086   3.687
15194SOL     OW61094   2.611   7.623   3.386
15194SOL    HW261095   2.588   7.531   3.388
15194SOL    HW361096   2.697   7.625   3.343
15194SOL    MW461097   2.618   7.613   3.382
15195SOL     OW61098   2.295   8.147   3.425
15195SOL    HW261099   2.375   8.197   3.411
15195SOL    HW361100   2.286   8.141   3.520
15195SOL    MW461101   2.304   8.153   3.435
15196SOL     OW61102   3.272   7.672   3.696
15196SOL    HW261103   3.328   7.599   3.722
15196SOL    HW361104   3.242   7.710   3.778
15196SOL    MW461105   3.276   7.667   3.709
15197SOL     OW61106   1.997   8.977   2.464
15197SOL    HW261107   1.969   9.016   2.546
15197SOL    HW361108   2.017   8.886   2.486
15197SOL    MW461109   1.995   8.969   2.477
15198SOL     OW61110   2.830   9.020   2.499
15198SOL    HW261111   2.913   8.974   2.483
15198SOL    HW361112   2.820   9.019   2.595
15198SOL    MW461113   2.840   9.013   2.509
15199SOL     OW61114   3.662   8.165   2.813
15199SOL    HW261115   3.751   8.195   2.795
15199SOL    HW361116   3.642   8.105   2.742
15199SOL    MW461117   3.671   8.162   2.802
15200SOL     OW61118   3.513   8.344   3.693
15200SOL    HW261119   3.568   8.268   3.674
15200SOL    HW361120   3.515   8.352   3.788
15200SOL    MW461121   3.521   8.335   3.701
15201SOL     OW61122   2.563   9.077   1.904
15201SOL    HW261123   2.503   9.146   1.874
15201SOL    HW361124   2.508   9.019   1.957
15201SOL    MW461125   2.547   9.079   1.906
15202SOL     OW61126   3.001   7.722   2.127
15202SOL    HW261127   2.934   7.698   2.064
15202SOL    HW361128   3.066   7.771   2.076
15202SOL    MW461129   3.001   7.724   2.112
15203SOL     OW61130   2.808   7.906   3.212
15203SOL    HW261131   2.727   7.947   3.240
15203SOL    HW361132   2.855   7.974   3.164
15203SOL    MW461133   2.803   7.921   3.210
15204SOL     OW61134   3.068   8.244   2.835
15204SOL    HW261135   3.081   8.338   2.845
15204SOL    HW361136   3.029   8.234   2.749
15204SOL    MW461137   3.064   8.255   2.825
15205SOL     OW61138   2.520   8.439   2.639
15205SOL    HW261139   2.431   8.430   2.672
15205SOL    HW361140   2.524   8.529   2.607
15205SOL    MW461141   2.509   8.450   2.639
15206SOL     OW61142   3.319   8.022   2.634
15206SOL    HW261143   3.264   7.943   2.633
15206SOL    HW361144   3.301   8.063   2.718
15206SOL    MW461145   3.309   8.017   2.643
15207SOL     OW61146   2.290   7.709   3.451
15207SOL    HW261147   2.211   7.727   3.503
15207SOL    HW361148   2.285   7.771   3.378
15207SOL    MW461149   2.280   7.719   3.448
15208SOL     OW61150   2.938   8.226   2.591
15208SOL    HW261151   2.875   8.158   2.615
15208SOL    HW361152   2.958   8.207   2.499
15208SOL    MW461153   2.932   8.213   2.583
15209SOL     OW61154   2.194   9.121   2.293
15209SOL    HW261155   2.155   9.168   2.219
15209SOL    HW361156   2.128   9.056   2.318
15209SOL    MW461157   2.181   9.119   2.287
15210SOL     OW61158   2.686   8.530   2.317
15210SOL    HW261159   2.688   8.504   2.224
15210SOL    HW361160   2.744   8.467   2.360
15210SOL    MW461161   2.694   8.519   2.311
15211SOL     OW61162   3.196   7.774   2.650
15211SOL    HW261163   3.224   7.706   2.711
15211SOL    HW361164   3.110   7.745   2.620
15211SOL    MW461165   3.189   7.761   2.654
15212SOL     OW61166   2.001   8.708   2.584
15212SOL    HW261167   2.065   8.740   2.647
15212SOL    HW361168   2.050   8.644   2.532
15212SOL    MW461169   2.016   8.704   2.585
15213SOL     OW61170   2.501   8.784   3.566
15213SOL    HW261171   2.549   8.867   3.553
15213SOL    HW361172   2.558   8.732   3.622
15213SOL    MW461173   2.515   8.788   3.572
15214SOL     OW61174   2.077   9.026   3.706
15214SOL    HW261175   2.133   8.950   3.721
15214SOL    HW361176   2.026   9.004   3.628
15214SOL    MW461177   2.077   9.013   3.697
15215SOL     OW61178   3.176   7.878   1.985
15215SOL    HW261179   3.149   7.944   1.921
15215SOL    HW361180   3.246   7.921   2.035
15215SOL    MW461181   3.181   7.891   1.982
15216SOL     OW61182   2.844   7.583   1.922
15216SOL    HW261183   2.900   7.575   1.844
15216SOL    HW361184   2.821   7.493   1.944
15216SOL    MW461185   2.849   7.570   1.915
15217SOL     OW61186   3.349   8.434   2.127
15217SOL    HW261187   3.316   8.523   2.117
15217SOL    HW361188   3.314   8.405   2.212
15217SOL    MW461189   3.339   8.443   2.138
15218SOL     OW61190   2.962   8.863   3.315
15218SOL    HW261191   2.873   8.869   3.283
15218SOL    HW361192   3.006   8.942   3.283
15218SOL    MW461193   2.957   8.873   3.307
15219SOL     OW61194   2.255   7.531   3.657
15219SOL    HW261195   2.183   7.496   3.605
15219SOL    HW361196   2.313   7.572   3.592
15219SOL    MW461197   2.253   7.532   3.642
15220SOL     OW61198   2.279   9.021   2.956
15220SOL    HW261199   2.324   9.083   3.013
15220SOL    HW361200   2.186   9.040   2.969
15220SOL    MW461201   2.272   9.031   2.963
15221SOL     OW61202   3.719   8.550   3.310
15221SOL    HW261203   3.634   8.563   3.269
15221SOL    HW361204   3.699   8.514   3.397
15221SOL    MW461205   3.706   8.546   3.315
15222SOL     OW61206   2.701   9.089   3.064
15222SOL    HW261207   2.725   9.078   2.973
15222SOL    HW361208   2.624   9.146   3.062
15222SOL    MW461209   2.693   9.094   3.053
15223SOL     OW61210   2.343   8.472   1.919
15223SOL    HW261211   2.266   8.485   1.975
15223SOL    HW361212   2.307   8.436   1.838
15223SOL    MW461213   2.329   8.468   1.916
15224SOL     OW61214   2.996   8.445   2.162
15224SOL    HW261215   2.906   8.466   2.137
15224SOL    HW361216   3.023   8.518   2.218
15224SOL    MW461217   2.988   8.457   2.165
15225SOL     OW61218   2.496   8.794   2.854
15225SOL    HW261219   2.489   8.773   2.948
15225SOL    HW361220   2.414   8.762   2.817
15225SOL    MW461221   2.484   8.788   2.861
15226SOL     OW61222   3.360   7.804   3.256
15226SOL    HW261223   3.307   7.806   3.336
15226SOL    HW361224   3.345   7.717   3.219
15226SOL    MW461225   3.352   7.794   3.261
15227SOL     OW61226   3.696   7.728   3.129
15227SOL    HW261227   3.677   7.795   3.064
15227SOL    HW361228   3.753   7.666   3.084
15227SOL    MW461229   3.700   7.729   3.115
15228SOL     OW61230   1.942   8.886   3.517
15228SOL    HW261231   1.986   8.819   3.463
15228SOL    HW361232   1.857   8.848   3.537
15228SOL    MW461233   1.937   8.872   3.513
15229SOL     OW61234   2.625   7.561   2.569
15229SOL    HW261235   2.554   7.622   2.551
15229SOL    HW361236   2.676   7.558   2.488
15229SOL    MW461237   2.621   7.567   2.556
15230SOL     OW61238   2.383   8.801   2.318
15230SOL    HW261239   2.376   8.833   2.408
15230SOL    HW361240   2.293   8.785   2.290
15230SOL    MW461241   2.371   8.803   2.325
15231SOL     OW61242   2.585   8.218   3.699
15231SOL    HW261243   2.655   8.160   3.671
15231SOL    HW361244   2.528   8.163   3.754
15231SOL    MW461245   2.587   8.205   3.703
15232SOL     OW61246   3.372   8.430   3.332
15232SOL    HW261247   3.377   8.483   3.412
15232SOL    HW361248   3.334   8.347   3.360
15232SOL    MW461249   3.368   8.425   3.347
15233SOL     OW61250   3.012   7.565   3.578
15233SOL    HW261251   3.007   7.472   3.559
15233SOL    HW361252   3.095   7.576   3.624
15233SOL    MW461253   3.020   7.554   3.582
15234SOL     OW61254   2.386   8.085   2.032
15234SOL    HW261255   2.352   8.141   2.102
15234SOL    HW361256   2.457   8.035   2.072
15234SOL    MW461257   2.392   8.086   2.046
15235SOL     OW61258   3.482   8.836   2.854
15235SOL    HW261259   3.517   8.818   2.767
15235SOL    HW361260   3.387   8.837   2.841
15235SOL    MW461261   3.474   8.833   2.841
15236SOL     OW61262   2.911   8.484   3.223
15236SOL    HW261263   2.954   8.519   3.301
15236SOL    HW361264   2.894   8.561   3.169
15236SOL    MW461265   2.914   8.499   3.226
15237SOL     OW61266   3.442   7.971   2.096
15237SOL    HW261267   3.434   8.042   2.033
15237SOL    HW361268   3.460   8.015   2.179
15237SOL    MW461269   3.443   7.985   2.098
15238SOL     OW61270   2.302   7.626   2.525
15238SOL    HW261271   2.352   7.669   2.456
15238SOL    HW361272   2.217   7.670   2.525
15238SOL    MW461273   2.299   7.639   2.516
15239SOL     OW61274   2.061   8.688   3.385
15239SOL    HW261275   2.089   8.641   3.463
15239SOL    HW361276   1.982   8.643   3.356
15239SOL    MW461277   2.054   8.677   3.391
15240SOL     OW61278   2.569   8.015   3.352
15240SOL    HW261279   2.541   8.103   3.376
15240SOL    HW361280   2.538   7.959   3.423
15240SOL    MW461281   2.561   8.018   3.364
15241SOL     OW61282   3.111   8.233   2.071
15241SOL    HW261283   3.158   8.251   1.990
15241SOL    HW361284   3.077   8.317   2.099
15241SOL    MW461285   3.113   8.247   2.064
15242SOL     OW61286   2.224   8.411   2.565
15242SOL    HW261287   2.282   8.467   2.513
15242SOL    HW361288   2.268   8.326   2.567
15242SOL    MW461289   2.237   8.408   2.558
15243SOL     OW61290   3.364   7.763   2.402
15243SOL    HW261291   3.286   7.713   2.427
15243SOL    HW361292   3.335   7.854   2.402
15243SOL    MW461293   3.350   7.767   2.405
15244SOL     OW61294   2.950   7.725   2.561
15244SOL    HW261295   2.970   7.800   2.505
15244SOL    HW361296   2.930   7.764   2.646
15244SOL    MW461297   2.951   7.741   2.565
15245SOL     OW61298   2.846   8.975   1.893
15245SOL    HW261299   2.873   9.053   1.845
15245SOL    HW361300   2.753   8.990   1.912
15245SOL    MW461301   2.837   8.988   1.889
15246SOL     OW61302   3.710   8.498   3.580
15246SOL    HW261303   3.623   8.478   3.616
15246SOL    HW361304   3.764   8.424   3.605
15246SOL    MW461305   3.705   8.487   3.588
15247SOL     OW61306   1.931   9.011   2.737
15247SOL    HW261307   1.963   9.015   2.828
15247SOL    HW361308   1.836   9.019   2.745
15247SOL    MW461309   1.923   9.014   2.750
15248SOL     OW61310   1.886   8.137   2.284
15248SOL    HW261311   1.826   8.109   2.354
15248SOL    HW361312   1.960   8.077   2.290
15248SOL    MW461313   1.888   8.126   2.293
15249SOL     OW61314   3.054   8.868   2.444
15249SOL    HW261315   3.077   8.819   2.522
15249SOL    HW361316   3.135   8.910   2.416
15249SOL    MW461317   3.067   8.868   2.451
15250SOL     OW61318   2.312   7.876   3.173
15250SOL    HW261319   2.345   7.957   3.213
15250SOL    HW361320   2.285   7.902   3.085
15250SOL    MW461321   2.311   7.890   3.167
15251SOL     OW61322   2.266   7.843   2.909
15251SOL    HW261323   2.296   7.757   2.880
15251SOL    HW361324   2.171   7.836   2.912
15251SOL    MW461325   2.258   7.832   2.907
15252SOL     OW61326   3.095   8.052   3.600
15252SOL    HW261327   3.147   7.987   3.553
15252SOL    HW361328   3.053   8.103   3.530
15252SOL    MW461329   3.096   8.049   3.583
15253SOL     OW61330   3.194   7.847   3.461
15253SOL    HW261331   3.101   7.831   3.448
15253SOL    HW361332   3.220   7.785   3.529
15253SOL    MW461333   3.184   7.837   3.468
15254SOL     OW61334   2.409   7.621   2.800
15254SOL    HW261335   2.419   7.530   2.826
15254SOL    HW361336   2.365   7.617   2.715
15254SOL    MW461337   2.405   7.609   2.792
15255SOL     OW61338   3.560   7.943   2.971
15255SOL    HW261339   3.493   7.976   3.031
15255SOL    HW361340   3.603   8.021   2.937
15255SOL    MW461341   3.558   7.958   2.975
15256SOL     OW61342   3.738   8.663   2.941
15256SOL    HW261343   3.731   8.603   2.866
15256SOL    HW361344   3.664   8.723   2.930
15256SOL    MW461345   3.728   8.663   2.930
15257SOL     OW61346   3.120   8.525   2.859
15257SOL    HW261347   3.134   8.497   2.950
15257SOL    HW361348   3.206   8.556   2.831
15257SOL    MW461349   3.133   8.526   2.868
15258SOL     OW61350   3.203   8.020   3.138
15258SOL    HW261351   3.224   8.021   3.045
15258SOL    HW361352   3.248   7.942   3.171
15258SOL    MW461353   3.210   8.010   3.130
15259SOL     OW61354   3.696   8.151   3.680
15259SOL    HW261355   3.733   8.096   3.749
15259SOL    HW361356   3.721   8.108   3.598
15259SOL    MW461357   3.703   8.139   3.679
15260SOL     OW61358   3.243   8.449   3.731
15260SOL    HW261359   3.309   8.397   3.685
15260SOL    HW361360   3.263   8.436   3.824
15260SOL    MW461361   3.254   8.440   3.738
15261SOL     OW61362   3.194   7.535   2.080
15261SOL    HW261363   3.268   7.579   2.123
15261SOL    HW361364   3.118   7.589   2.102
15261SOL    MW461365   3.194   7.547   2.088
15262SOL     OW61366   3.254   8.310   2.358
15262SOL    HW261367   3.169   8.280   2.328
15262SOL    HW361368   3.246   8.317   2.453
15262SOL    MW461369   3.242   8.308   2.367
15263SOL     OW61370   2.330   8.773   3.089
15263SOL    HW261371   2.342   8.800   3.180
15263SOL    HW361372   2.311   8.854   3.042
15263SOL    MW461373   2.329   8.788   3.094
15264SOL     OW61374   2.614   7.753   2.912
15264SOL    HW261375   2.587   7.755   3.003
15264SOL    HW361376   2.544   7.705   2.867
15264SOL    MW461377   2.602   7.749   2.919
15265SOL     OW61378   3.370   8.830   3.306
15265SOL    HW261379   3.355   8.759   3.369
15265SOL    HW361380   3.416   8.788   3.234
15265SOL    MW461381   3.376   8.814   3.306
15266SOL     OW61382   2.444   8.561   3.423
15266SOL    HW261383   2.481   8.566   3.335
15266SOL    HW361384   2.483   8.634   3.470
15266SOL    MW461385   2.454   8.571   3.418
15267SOL     OW61386   2.624   8.604   3.235
15267SOL    HW261387   2.683   8.550   3.288
15267SOL    HW361388   2.639   8.576   3.145
15267SOL    MW461389   2.634   8.593   3.231
15268SOL     OW61390   2.627   7.976   2.084
15268SOL    HW261391   2.700   8.025   2.047
15268SOL    HW361392   2.643   7.885   2.058
15268SOL    MW461393   2.639   7.971   2.077
15269SOL     OW61394   3.095   7.572   2.998
15269SOL    HW261395   3.150   7.581   2.920
15269SOL    HW361396   3.150   7.606   3.069
15269SOL    MW461397   3.109   7.577   2.997
15270SOL     OW61398   2.102   8.485   2.182
15270SOL    HW261399   2.039   8.501   2.111
15270SOL    HW361400   2.049   8.448   2.253
15270SOL    MW461401   2.087   8.482   2.182
15271SOL     OW61402   2.458   8.839   2.041
15271SOL    HW261403   2.473   8.815   2.133
15271SOL    HW361404   2.366   8.817   2.025
15271SOL    MW461405   2.448   8.832   2.051
15272SOL     OW61406   2.997   9.070   2.193
15272SOL    HW261407   3.005   8.988   2.144
15272SOL    HW361408   2.916   9.109   2.160
15272SOL    MW461409   2.987   9.065   2.183
15273SOL     OW61410   2.256   9.228   2.762
15273SOL    HW261411   2.260   9.139   2.797
15273SOL    HW361412   2.282   9.219   2.671
15273SOL    MW461413   2.259   9.216   2.754
15274SOL     OW61414   2.873   8.706   3.005
15274SOL    HW261415   2.805   8.640   3.021
15274SOL    HW361416   2.891   8.700   2.912
15274SOL    MW461417   2.866   8.697   2.996
15275SOL     OW61418   1.962   8.981   3.256
15275SOL    HW261419   1.952   8.939   3.342
15275SOL    HW361420   1.883   9.034   3.246
15275SOL    MW461421   1.951   8.982   3.267
15276SOL     OW61422   2.866   7.845   2.826
15276SOL    HW261423   2.796   7.797   2.871
15276SOL    HW361424   2.898   7.908   2.890
15276SOL    MW461425   2.861   7.847   2.840
15277SOL     OW61426   2.517   8.281   3.446
15277SOL    HW261427   2.510   8.376   3.434
15277SOL    HW361428   2.526   8.270   3.541
15277SOL    MW461429   2.518   8.293   3.456
15278SOL     OW61430   2.238   8.796   3.704
15278SOL    HW261431   2.310   8.798   3.641
15278SOL    HW361432   2.208   8.705   3.703
15278SOL    MW461433   2.243   8.785   3.696
15279SOL     OW61434   3.322   7.559   3.171
15279SOL    HW261435   3.393   7.505   3.135
15279SOL    HW361436   3.321   7.538   3.264
15279SOL    MW461437   3.331   7.550   3.179
15280SOL     OW61438   2.333   7.951   2.639
15280SOL    HW261439   2.404   7.899   2.602
15280SOL    HW361440   2.319   7.916   2.726
15280SOL    MW461441   2.341   7.940   2.646
15281SOL     OW61442   2.649   9.044   2.715
15281SOL    HW261443   2.577   8.981   2.728
15281SOL    HW361444   2.610   9.129   2.733
15281SOL    MW461445   2.633   9.047   2.718
15282SOL     OW61446   2.969   7.892   2.363
15282SOL    HW261447   2.991   7.829   2.295
15282SOL    HW361448   2.874   7.884   2.374
15282SOL    MW461449   2.959   7.883   2.355
15283SOL     OW61450   2.054   7.582   2.295
15283SOL    HW261451   2.125   7.603   2.234
15283SOL    HW361452   2.008   7.510   2.253
15283SOL    MW461453   2.058   7.576   2.281
15284SOL     OW61454   1.885   8.049   3.438
15284SOL    HW261455   1.949   8.115   3.413
15284SOL    HW361456   1.804   8.076   3.395
15284SOL    MW461457   1.883   8.061   3.430
15285SOL     OW61458   3.179   8.633   2.325
15285SOL    HW261459   3.151   8.719   2.358
15285SOL    HW361460   3.207   8.649   2.235
15285SOL    MW461461   3.179   8.647   2.317
15286SOL     OW61462   2.841   7.553   2.378
15286SOL    HW261463   2.878   7.612   2.443
15286SOL    HW361464   2.818   7.609   2.304
15286SOL    MW461465   2.842   7.568   2.377
15287SOL     OW61466   3.694   8.435   2.800
15287SOL    HW261467   3.685   8.467   2.711
15287SOL    HW361468   3.647   8.351   2.800
15287SOL    MW461469   3.687   8.428   2.790
15288SOL     OW61470   2.070   8.275   3.379
15288SOL    HW261471   2.091   8.344   3.317
15288SOL    HW361472   2.150   8.222   3.384
15288SOL    MW461473   2.083   8.276   3.373
15289SOL     OW61474   3.606   8.366   2.501
15289SOL    HW261475   3.700   8.355   2.489
15289SOL    HW361476   3.582   8.438   2.442
15289SOL    MW461477   3.616   8.374   2.492
15290SOL     OW61478   2.055   8.290   3.646
15290SOL    HW261479   1.981   8.234   3.672
15290SOL    HW361480   2.050   8.293   3.551
15290SOL    MW461481   2.044   8.283   3.636
15291SOL     OW61482   2.221   7.577   3.096
15291SOL    HW261483   2.264   7.661   3.116
15291SOL    HW361484   2.294   7.515   3.089
15291SOL    MW461485   2.236   7.580   3.097
15292SOL     OW61486   2.262   8.244   2.274
15292SOL    HW261487   2.262   8.339   2.259
15292SOL    HW361488   2.339   8.228   2.328
15292SOL    MW461489   2.272   8.255   2.279
15293SOL     OW61490   3.038   8.103   3.338
15293SOL    HW261491   3.074   8.076   3.254
15293SOL    HW361492   2.951   8.137   3.317
15293SOL    MW461493   3.032   8.104   3.325
15294SOL     OW61494   2.021   7.975   2.563
15294SOL    HW261495   2.083   7.982   2.636
15294SOL    HW361496   2.021   7.882   2.540
15294SOL    MW461497   2.029   7.964   2.570
15295SOL     OW61498   2.703   8.236   3.047
15295SOL    HW261499   2.661   8.154   3.023
15295SOL    HW361500   2.704   8.235   3.143
15295SOL    MW461501   2.696   8.225   3.056
15296SOL     OW61502   2.507   7.706   3.152
15296SOL    HW261503   2.438   7.769   3.173
15296SOL    HW361504   2.534   7.670   3.237
15296SOL    MW461505   2.501   7.709   3.165
15297SOL     OW61506   1.890   8.547   2.021
15297SOL    HW261507   1.859   8.612   2.084
15297SOL    HW361508   1.839   8.469   2.040
15297SOL    MW461509   1.880   8.544   2.031
15298SOL     OW61510   3.302   7.559   2.769
15298SOL    HW261511   3.390   7.568   2.806
15298SOL    HW361512   3.312   7.500   2.695
15298SOL    MW461513   3.316   7.553   2.763
15299SOL     OW61514   3.334   8.298   2.613
15299SOL    HW261515   3.414   8.313   2.562
15299SOL    HW361516   3.327   8.203   2.619
15299SOL    MW461517   3.343   8.287   2.608
15300SOL     OW61518   2.784   8.224   3.310
15300SOL    HW261519   2.853   8.291   3.307
15300SOL    HW361520   2.717   8.262   3.366
15300SOL    MW461521   2.785   8.237   3.317
15301SOL     OW61522   2.202   8.524   3.558
15301SOL    HW261523   2.156   8.440   3.560
15301SOL    HW361524   2.259   8.518   3.482
15301SOL    MW461525   2.204   8.512   3.550
15302SOL     OW61526   3.319   8.167   1.879
15302SOL    HW261527   3.247   8.143   1.821
15302SOL    HW361528   3.385   8.204   1.821
15302SOL    MW461529   3.318   8.169   1.864
15303SOL     OW61530   2.453   8.899   2.559
15303SOL    HW261531   2.518   8.832   2.580
15303SOL    HW361532   2.505   8.976   2.536
15303SOL    MW461533   2.468   8.901   2.558
15304SOL     OW61534   2.714   8.064   2.689
15304SOL    HW261535   2.654   8.082   2.761
15304SOL    HW361536   2.748   7.976   2.708
15304SOL    MW461537   2.710   8.054   2.702
15305SOL     OW61538   3.655   7.563   3.358
15305SOL    HW261539   3.576   7.609   3.386
15305SOL    HW361540   3.690   7.617   3.287
15305SOL    MW461541   3.649   7.576   3.352
15306SOL     OW61542   2.939   8.647   2.708
15306SOL    HW261543   3.031   8.628   2.726
15306SOL    HW361544   2.912   8.577   2.648
15306SOL    MW461545   2.947   8.635   2.702
15307SOL     OW61546   2.732   8.467   2.063
15307SOL    HW261547   2.718   8.379   2.028
15307SOL    HW361548   2.683   8.524   2.004
15307SOL    MW461549   2.724   8.462   2.051
15308SOL     OW61550   2.145   8.191   2.842
15308SOL    HW261551   2.095   8.190   2.923
15308SOL    HW361552   2.165   8.283   2.826
15308SOL    MW461553   2.141   8.203   2.850
15309SOL     OW61554   3.212   8.955   3.604
15309SOL    HW261555   3.212   9.049   3.620
15309SOL    HW361556   3.257   8.945   3.520
15309SOL    MW461557   3.218   8.965   3.595
15310SOL     OW61558   3.451   7.673   2.165
15310SOL    HW261559   3.444   7.677   2.260
15310SOL    HW361560   3.463   7.764   2.138
15310SOL    MW461561   3.452   7.686   2.173
15311SOL     OW61562   2.740   8.236   2.279
15311SOL    HW261563   2.720   8.222   2.186
15311SOL    HW361564   2.833   8.215   2.286
15311SOL    MW461565   2.750   8.231   2.268
15312SOL     OW61566   2.067   7.859   3.583
15312SOL    HW261567   2.024   7.918   3.520
15312SOL    HW361568   2.135   7.914   3.623
15312SOL    MW461569   2.071   7.874   3.580
15313SOL     OW61570   3.179   8.479   3.128
15313SOL    HW261571   3.242   8.476   3.201
15313SOL    HW361572   3.095   8.497   3.170
15313SOL    MW461573   3.175   8.481   3.143
15314SOL     OW61574   2.723   9.194   2.317
15314SOL    HW261575   2.781   9.265   2.344
15314SOL    HW361576   2.746   9.122   2.375
15314SOL    MW461577   2.734   9.194   2.328
15315SOL     OW61578   3.518   7.656   2.907
15315SOL    HW261579   3.563   7.574   2.926
15315SOL    HW361580   3.538   7.712   2.983
15315SOL    MW461581   3.528   7.652   2.919
15316SOL     OW61582   1.966   7.499   3.006
15316SOL    HW261583   1.957   7.500   2.911
15316SOL    HW361584   2.060   7.511   3.021
15316SOL    MW461585   1.978   7.502   2.997
15317SOL     OW61586   3.603   8.692   2.626
15317SOL    HW261587   3.582   8.638   2.549
15317SOL    HW361588   3.699   8.690   2.630
15317SOL    MW461589   3.612   8.685   2.615
15318SOL     OW61590   2.295   8.837   3.369
15318SOL    HW261591   2.216   8.787   3.392
15318SOL    HW361592   2.365   8.796   3.419
15318SOL    MW461593   2.293   8.825   3.379
15319SOL     OW61594   2.179   7.626   2.052
15319SOL    HW261595   2.108   7.681   2.020
15319SOL    HW361596   2.221   7.592   1.973
15319SOL    MW461597   2.175   7.628   2.038
15320SOL     OW61598   3.303   8.123   2.888
15320SOL    HW261599   3.226   8.169   2.854
15320SOL    HW361600   3.360   8.192   2.922
15320SOL    MW461601   3.300   8.138   2.888
15321SOL     OW61602   1.935   7.725   1.901
15321SOL    HW261603   1.902   7.804   1.945
15321SOL    HW361604   1.990   7.758   1.830
15321SOL    MW461605   1.938   7.739   1.898
15322SOL     OW61606   1.969   8.982   2.090
15322SOL    HW261607   1.986   9.066   2.132
15322SOL    HW361608   2.004   8.991   2.002
15322SOL    MW461609   1.974   8.995   2.084
15323SOL     OW61610   3.604   8.339   3.993
15323SOL    HW261611   3.645   8.281   4.058
15323SOL    HW361612   3.511   8.331   4.010
15323SOL    MW461613   3.598   8.331   4.003
15324SOL     OW61614   3.470   8.271   4.988
15324SOL    HW261615   3.425   8.338   5.039
15324SOL    HW361616   3.558   8.307   4.974
15324SOL    MW461617   3.476   8.284   4.992
15325SOL     OW61618   2.398   8.522   4.222
15325SOL    HW261619   2.488   8.497   4.206
15325SOL    HW361620   2.394   8.615   4.199
15325SOL    MW461621   2.410   8.531   4.217
15326SOL     OW61622   2.893   9.110   5.365
15326SOL    HW261623   2.934   9.146   5.286
15326SOL    HW361624   2.928   9.021   5.372
15326SOL    MW461625   2.904   9.103   5.356
15327SOL     OW61626   3.450   8.665   4.969
15327SOL    HW261627   3.371   8.630   4.927
15327SOL    HW361628   3.477   8.737   4.913
15327SOL    MW461629   3.443   8.670   4.956
15328SOL     OW61630   2.682   7.978   4.235
15328SOL    HW261631   2.657   8.066   4.263
15328SOL    HW361632   2.679   7.981   4.139
15328SOL    MW461633   2.678   7.990   4.227
15329SOL     OW61634   2.124   8.006   4.163
15329SOL    HW261635   2.156   8.094   4.145
15329SOL    HW361636   2.112   8.004   4.258
15329SOL    MW461637   2.127   8.018   4.175
15330SOL     OW61638   2.202   8.419   5.064
15330SOL    HW261639   2.265   8.366   5.015
15330SOL    HW361640   2.183   8.493   5.007
15330SOL    MW461641   2.208   8.421   5.051
15331SOL     OW61642   2.523   7.761   4.250
15331SOL    HW261643   2.581   7.837   4.252
15331SOL    HW361644   2.458   7.782   4.183
15331SOL    MW461645   2.522   7.773   4.241
15332SOL     OW61646   2.610   8.688   4.425
15332SOL    HW261647   2.690   8.691   4.477
15332SOL    HW361648   2.638   8.655   4.339
15332SOL    MW461649   2.624   8.684   4.420
15333SOL     OW61650   2.635   9.029   5.328
15333SOL    HW261651   2.719   9.055   5.367
15333SOL    HW361652   2.659   8.973   5.254
15333SOL    MW461653   2.649   9.025   5.323
15334SOL     OW61654   2.387   8.192   4.416
15334SOL    HW261655   2.372   8.112   4.467
15334SOL    HW361656   2.469   8.227   4.450
15334SOL    MW461657   2.395   8.184   4.428
15335SOL     OW61658   2.724   8.878   5.101
15335SOL    HW261659   2.688   8.944   5.041
15335SOL    HW361660   2.652   8.816   5.114
15335SOL    MW461661   2.710   8.878   5.095
15336SOL     OW61662   2.529   8.018   4.793
15336SOL    HW261663   2.435   8.014   4.811
15336SOL    HW361664   2.559   7.927   4.802
15336SOL    MW461665   2.520   8.006   4.796
15337SOL     OW61666   2.275   8.432   4.697
15337SOL    HW261667   2.230   8.439   4.613
15337SOL    HW361668   2.255   8.515   4.741
15337SOL    MW461669   2.267   8.444   4.691
15338SOL     OW61670   3.237   8.670   3.941
15338SOL    HW261671   3.155   8.706   3.907
15338SOL    HW361672   3.305   8.713   3.890
15338SOL    MW461673   3.235   8.680   3.929
15339SOL     OW61674   2.236   8.805   4.607
15339SOL    HW261675   2.212   8.858   4.683
15339SOL    HW361676   2.292   8.863   4.555
15339SOL    MW461677   2.240   8.820   4.610
15340SOL     OW61678   2.798   8.449   4.417
15340SOL    HW261679   2.712   8.436   4.457
15340SOL    HW361680   2.851   8.376   4.449
15340SOL    MW461681   2.794   8.438   4.426
15341SOL     OW61682   2.206   9.101   5.202
15341SOL    HW261683   2.114   9.077   5.187
15341SOL    HW361684   2.250   9.018   5.219
15341SOL    MW461685   2.200   9.086   5.201
15342SOL     OW61686   2.789   8.811   4.134
15342SOL    HW261687   2.766   8.873   4.202
15342SOL    HW361688   2.746   8.729   4.160
15342SOL    MW461689   2.781   8.807   4.145
15343SOL     OW61690   3.662   7.812   4.590
15343SOL    HW261691   3.599   7.792   4.659
15343SOL    HW361692   3.652   7.741   4.527
15343SOL    MW461693   3.652   7.799   4.591
15344SOL     OW61694   2.286   7.784   4.102
15344SOL    HW261695   2.260   7.746   4.018
15344SOL    HW361696   2.223   7.854   4.118
15344SOL    MW461697   2.275   7.787   4.093
15345SOL     OW61698   2.121   8.745   4.139
15345SOL    HW261699   2.069   8.813   4.095
15345SOL    HW361700   2.118   8.671   4.079
15345SOL    MW461701   2.113   8.744   4.126
15346SOL     OW61702   3.718   7.981   3.892
15346SOL    HW261703   3.627   7.983   3.920
15346SOL    HW361704   3.763   8.043   3.950
15346SOL    MW461705   3.711   7.989   3.902
15347SOL     OW61706   3.463   8.584   4.242
15347SOL    HW261707   3.373   8.584   4.277
15347SOL    HW361708   3.456   8.630   4.159
15347SOL    MW461709   3.450   8.590   4.236
15348SOL     OW61710   3.263   8.219   5.314
15348SOL    HW261711   3.332   8.157   5.291
15348SOL    HW361712   3.188   8.193   5.261
15348SOL    MW461713   3.263   8.206   5.305
15349SOL     OW61714   2.004   9.099   4.866
15349SOL    HW261715   1.987   9.045   4.943
15349SOL    HW361716   1.992   9.189   4.896
15349SOL    MW461717   2.001   9.103   4.880
15350SOL     OW61718   2.999   8.606   5.306
15350SOL    HW261719   2.984   8.699   5.291
15350SOL    HW361720   3.094   8.596   5.306
15350SOL    MW461721   3.008   8.616   5.303
15351SOL     OW61722   2.795   8.030   5.507
15351SOL    HW261723   2.885   8.031   5.474
15351SOL    HW361724   2.754   7.955   5.465
15351SOL    MW461725   2.801   8.020   5.498
15352SOL     OW61726   3.370   8.562   4.634
15352SOL    HW261727   3.373   8.496   4.565
15352SOL    HW361728   3.455   8.605   4.630
15352SOL    MW461729   3.382   8.558   4.625
15353SOL     OW61730   2.990   8.165   4.203
15353SOL    HW261731   3.016   8.189   4.114
15353SOL    HW361732   2.972   8.072   4.199
15353SOL    MW461733   2.992   8.157   4.190
15354SOL     OW61734   3.655   8.785   4.054
15354SOL    HW261735   3.611   8.826   4.129
15354SOL    HW361736   3.712   8.853   4.019
15354SOL    MW461737   3.657   8.799   4.059
15355SOL     OW61738   2.575   7.834   5.457
15355SOL    HW261739   2.585   7.760   5.397
15355SOL    HW361740   2.611   7.803   5.540
15355SOL    MW461741   2.581   7.820   5.459
15356SOL     OW61742   3.695   7.563   4.421
15356SOL    HW261743   3.749   7.514   4.483
15356SOL    HW361744   3.638   7.497   4.382
15356SOL    MW461745   3.695   7.547   4.423
15357SOL     OW61746   2.814   7.516   4.834
15357SOL    HW261747   2.773   7.594   4.796
15357SOL    HW361748   2.908   7.534   4.829
15357SOL    MW461749   2.820   7.528   4.829
15358SOL     OW61750   2.829   8.194   3.864
15358SOL    HW261751   2.831   8.141   3.785
15358SOL    HW361752   2.917   8.231   3.870
15358SOL    MW461753   2.841   8.193   3.853
15359SOL     OW61754   3.443   8.120   4.200
15359SOL    HW261755   3.482   8.120   4.287
15359SOL    HW361756   3.384   8.196   4.200
15359SOL    MW461757   3.440   8.131   4.211
15360SOL     OW61758   2.760   8.487   5.329
15360SOL    HW261759   2.737   8.467   5.419
15360SOL    HW361760   2.845   8.531   5.334
15360SOL    MW461761   2.767   8.490   5.341
15361SOL     OW61762   2.840   7.624   5.089
15361SOL    HW261763   2.846   7.586   5.002
15361SOL    HW361764   2.829   7.718   5.074
15361SOL    MW461765   2.841   7.632   5.077
15362SOL     OW61766   2.929   8.113   4.923
15362SOL    HW261767   3.004   8.142   4.870
15362SOL    HW361768   2.861   8.178   4.907
15362SOL    MW461769   2.930   8.125   4.913
15363SOL     OW61770   3.479   8.081   5.200
15363SOL    HW261771   3.460   7.990   5.179
15363SOL    HW361772   3.457   8.130   5.121
15363SOL    MW461773   3.474   8.074   5.187
15364SOL     OW61774   2.926   7.819   5.306
15364SOL    HW261775   2.892   7.858   5.225
15364SOL    HW361776   2.904   7.727   5.299
15364SOL    MW461777   2.919   7.812   5.296
15365SOL     OW61778   3.335   8.633   5.382
15365SOL    HW261779   3.417   8.674   5.412
15365SOL    HW361780   3.298   8.595   5.462
15365SOL    MW461781   3.341   8.634   5.397
15366SOL     OW61782   3.630   8.006   4.366
15366SOL    HW261783   3.719   7.975   4.383
15366SOL    HW361784   3.573   7.946   4.414
15366SOL    MW461785   3.633   7.994   4.375
15367SOL     OW61786   2.056   7.720   4.395
15367SOL    HW261787   2.047   7.660   4.321
15367SOL    HW361788   1.989   7.691   4.458
15367SOL    MW461789   2.046   7.707   4.393
15368SOL     OW61790   2.999   8.813   3.956
15368SOL    HW261791   2.949   8.815   4.038
15368SOL    HW361792   2.933   8.831   3.888
15368SOL    MW461793   2.985   8.815   3.958
15369SOL     OW61794   2.003   7.893   4.758
15369SOL    HW261795   1.975   7.984   4.767
15369SOL    HW361796   1.940   7.854   4.697
15369SOL    MW461797   1.990   7.899   4.752
15370SOL     OW61798   2.598   8.646   3.771
15370SOL    HW261799   2.520   8.592   3.758
15370SOL    HW361800   2.569   8.719   3.824
15370SOL    MW461801   2.584   8.648   3.776
15371SOL     OW61802   3.724   8.386   4.963
15371SOL    HW261803   3.740   8.424   4.876
15371SOL    HW361804   3.758   8.452   5.024
15371SOL    MW461805   3.731   8.399   4.959
15372SOL     OW61806   1.987   8.168   4.928
15372SOL    HW261807   2.049   8.198   4.994
15372SOL    HW361808   1.921   8.237   4.922
15372SOL    MW461809   1.986   8.181   4.935
15373SOL     OW61810   2.628   7.725   3.836
15373SOL    HW261811   2.576   7.645   3.824
15373SOL    HW361812   2.715   7.702   3.804
15373SOL    MW461813   2.631   7.711   3.830
15374SOL     OW61814   2.134   8.596   4.887
15374SOL    HW261815   2.187   8.671   4.912
15374SOL    HW361816   2.053   8.634   4.853
15374SOL    MW461817   2.130   8.611   4.887
15375SOL     OW61818   2.674   8.500   4.875
15375SOL    HW261819   2.702   8.409   4.887
15375SOL    HW361820   2.603   8.494   4.811
15375SOL    MW461821   2.667   8.488   4.870
15376SOL     OW61822   1.989   8.365   4.293
15376SOL    HW261823   2.080   8.380   4.320
15376SOL    HW361824   1.992   8.286   4.239
15376SOL    MW461825   2.001   8.357   4.291
15377SOL     OW61826   2.225   8.073   5.547
15377SOL    HW261827   2.172   8.153   5.554
15377SOL    HW361828   2.295   8.085   5.612
15377SOL    MW461829   2.227   8.086   5.555
15378SOL     OW61830   2.611   7.623   5.254
15378SOL    HW261831   2.588   7.531   5.256
15378SOL    HW361832   2.697   7.625   5.211
15378SOL    MW461833   2.618   7.613   5.250
15379SOL     OW61834   2.295   8.147   5.293
15379SOL    HW261835   2.375   8.197   5.279
15379SOL    HW361836   2.286   8.141   5.388
15379SOL    MW461837   2.304   8.153   5.303
15380SOL     OW61838   3.272   7.672   5.564
15380SOL    HW261839   3.328   7.599   5.590
15380SOL    HW361840   3.242   7.710   5.646
15380SOL    MW461841   3.276   7.667   5.577
15381SOL     OW61842   1.997   8.977   4.332
15381SOL    HW261843   1.969   9.016   4.414
15381SOL    HW361844   2.017   8.886   4.354
15381SOL    MW461845   1.995   8.969   4.345
15382SOL     OW61846   2.830   9.020   4.367
15382SOL    HW261847   2.913   8.974   4.351
15382SOL    HW361848   2.820   9.019   4.463
15382SOL    MW461849   2.840   9.013   4.377
15383SOL     OW61850   3.662   8.165   4.681
15383SOL    HW261851   3.751   8.195   4.663
15383SOL    HW361852   3.642   8.105   4.610
15383SOL    MW461853   3.671   8.162   4.670
15384SOL     OW61854   3.513   8.344   5.561
15384SOL    HW261855   3.568   8.268   5.542
15384SOL    HW361856   3.515   8.352   5.656
15384SOL    MW461857   3.521   8.335   5.569
15385SOL     OW61858   2.563   9.077   3.772
15385SOL    HW261859   2.503   9.146   3.742
15385SOL    HW361860   2.508   9.019   3.825
15385SOL    MW461861   2.547   9.079   3.774
15386SOL     OW61862   3.001   7.722   3.995
15386SOL    HW261863   2.934   7.698   3.932
15386SOL    HW361864   3.066   7.771   3.944
15386SOL    MW461865   3.001   7.724   3.980
15387SOL     OW61866   2.808   7.906   5.080
15387SOL    HW261867   2.727   7.947   5.108
15387SOL    HW361868   2.855   7.974   5.032
15387SOL    MW461869   2.803   7.921   5.078
15388SOL     OW61870   3.068   8.244   4.703
15388SOL    HW261871   3.081   8.338   4.713
15388SOL    HW361872   3.029   8.234   4.617
15388SOL    MW461873   3.064   8.255   4.693
15389SOL     OW61874   2.520   8.439   4.507
15389SOL    HW261875   2.431   8.430   4.540
15389SOL    HW361876   2.524   8.529   4.475
15389SOL    MW461877   2.509   8.450   4.507
15390SOL     OW61878   3.319   8.022   4.502
15390SOL    HW261879   3.264   7.943   4.501
15390SOL    HW361880   3.301   8.063   4.586
15390SOL    MW461881   3.309   8.017   4.511
15391SOL     OW61882   2.290   7.709   5.319
15391SOL    HW261883   2.211   7.727   5.371
15391SOL    HW361884   2.285   7.771   5.246
15391SOL    MW461885   2.280   7.719   5.316
15392SOL     OW61886   2.938   8.226   4.459
15392SOL    HW261887   2.875   8.158   4.483
15392SOL    HW361888   2.958   8.207   4.367
15392SOL    MW461889   2.932   8.213   4.451
15393SOL     OW61890   2.194   9.121   4.161
15393SOL    HW261891   2.155   9.168   4.087
15393SOL    HW361892   2.128   9.056   4.186
15393SOL    MW461893   2.181   9.119   4.155
15394SOL     OW61894   2.686   8.530   4.185
15394SOL    HW261895   2.688   8.504   4.092
15394SOL    HW361896   2.744   8.467   4.228
15394SOL    MW461897   2.694   8.519   4.179
15395SOL     OW61898   3.196   7.774   4.518
15395SOL    HW261899   3.224   7.706   4.579
15395SOL    HW361900   3.110   7.745   4.488
15395SOL    MW461901   3.189   7.761   4.522
15396SOL     OW61902   2.001   8.708   4.452
15396SOL    HW261903   2.065   8.740   4.515
15396SOL    HW361904   2.050   8.644   4.400
15396SOL    MW461905   2.016   8.704   4.453
15397SOL     OW61906   2.501   8.784   5.434
15397SOL    HW261907   2.549   8.867   5.421
15397SOL    HW361908   2.558   8.732   5.490
15397SOL    MW461909   2.515   8.788   5.440
15398SOL     OW61910   2.077   9.026   5.574
15398SOL    HW261911   2.133   8.950   5.589
15398SOL    HW361912   2.026   9.004   5.496
15398SOL    MW461913   2.077   9.013   5.565
15399SOL     OW61914   3.176   7.878   3.853
15399SOL    HW261915   3.149   7.944   3.789
15399SOL    HW361916   3.246   7.921   3.903
15399SOL    MW461917   3.181   7.891   3.850
15400SOL     OW61918   2.844   7.583   3.790
15400SOL    HW261919   2.900   7.575   3.712
15400SOL    HW361920   2.821   7.493   3.812
15400SOL    MW461921   2.849   7.570   3.783
15401SOL     OW61922   3.349   8.434   3.995
15401SOL    HW261923   3.316   8.523   3.985
15401SOL    HW361924   3.314   8.405   4.080
15401SOL    MW461925   3.339   8.443   4.006
15402SOL     OW61926   2.962   8.863   5.183
15402SOL    HW261927   2.873   8.869   5.151
15402SOL    HW361928   3.006   8.942   5.151
15402SOL    MW461929   2.957   8.873   5.175
15403SOL     OW61930   2.255   7.531   5.525
15403SOL    HW261931   2.183   7.496   5.473
15403SOL    HW361932   2.313   7.572   5.460
15403SOL    MW461933   2.253   7.532   5.510
15404SOL     OW61934   2.279   9.021   4.824
15404SOL    HW261935   2.324   9.083   4.881
15404SOL    HW361936   2.186   9.040   4.837
15404SOL    MW461937   2.272   9.031   4.831
15405SOL     OW61938   3.719   8.550   5.178
15405SOL    HW261939   3.634   8.563   5.137
15405SOL    HW361940   3.699   8.514   5.265
15405SOL    MW461941   3.706   8.546   5.183
15406SOL     OW61942   2.701   9.089   4.932
15406SOL    HW261943   2.725   9.078   4.841
15406SOL    HW361944   2.624   9.146   4.930
15406SOL    MW461945   2.693   9.094   4.921
15407SOL     OW61946   2.343   8.472   3.787
15407SOL    HW261947   2.266   8.485   3.843
15407SOL    HW361948   2.307   8.436   3.706
15407SOL    MW461949   2.329   8.468   3.784
15408SOL     OW61950   2.996   8.445   4.030
15408SOL    HW261951   2.906   8.466   4.005
15408SOL    HW361952   3.023   8.518   4.086
15408SOL    MW461953   2.988   8.457   4.033
15409SOL     OW61954   2.496   8.794   4.722
15409SOL    HW261955   2.489   8.773   4.816
15409SOL    HW361956   2.414   8.762   4.685
15409SOL    MW461957   2.484   8.788   4.729
15410SOL     OW61958   3.360   7.804   5.124
15410SOL    HW261959   3.307   7.806   5.204
15410SOL    HW361960   3.345   7.717   5.087
15410SOL    MW461961   3.352   7.794   5.129
15411SOL     OW61962   3.696   7.728   4.997
15411SOL    HW261963   3.677   7.795   4.932
15411SOL    HW361964   3.753   7.666   4.952
15411SOL    MW461965   3.700   7.729   4.983
15412SOL     OW61966   1.942   8.886   5.385
15412SOL    HW261967   1.986   8.819   5.331
15412SOL    HW361968   1.857   8.848   5.405
15412SOL    MW461969   1.937   8.872   5.381
15413SOL     OW61970   2.625   7.561   4.437
15413SOL    HW261971   2.554   7.622   4.419
15413SOL    HW361972   2.676   7.558   4.356
15413SOL    MW461973   2.621   7.567   4.424
15414SOL     OW61974   2.383   8.801   4.186
15414SOL    HW261975   2.376   8.833   4.276
15414SOL    HW361976   2.293   8.785   4.158
15414SOL    MW461977   2.371   8.803   4.193
15415SOL     OW61978   2.585   8.218   5.567
15415SOL    HW261979   2.655   8.160   5.539
15415SOL    HW361980   2.528   8.163   5.622
15415SOL    MW461981   2.587   8.205   5.571
15416SOL     OW61982   3.372   8.430   5.200
15416SOL    HW261983   3.377   8.483   5.280
15416SOL    HW361984   3.334   8.347   5.228
15416SOL    MW461985   3.368   8.425   5.215
15417SOL     OW61986   3.012   7.565   5.446
15417SOL    HW261987   3.007   7.472   5.427
15417SOL    HW361988   3.095   7.576   5.492
15417SOL    MW461989   3.020   7.554   5.450
15418SOL     OW61990   2.386   8.085   3.900
15418SOL    HW261991   2.352   8.141   3.970
15418SOL    HW361992   2.457   8.035   3.940
15418SOL    MW461993   2.392   8.086   3.914
15419SOL     OW61994   3.482   8.836   4.722
15419SOL    HW261995   3.517   8.818   4.635
15419SOL    HW361996   3.387   8.837   4.709
15419SOL    MW461997   3.474   8.833   4.709
15420SOL     OW61998   2.911   8.484   5.091
15420SOL    HW261999   2.954   8.519   5.169
15420SOL    HW362000   2.894   8.561   5.037
15420SOL    MW462001   2.914   8.499   5.094
15421SOL     OW62002   3.442   7.971   3.964
15421SOL    HW262003   3.434   8.042   3.901
15421SOL    HW362004   3.460   8.015   4.047
15421SOL    MW462005   3.443   7.985   3.966
15422SOL     OW62006   2.302   7.626   4.393
15422SOL    HW262007   2.352   7.669   4.324
15422SOL    HW362008   2.217   7.670   4.393
15422SOL    MW462009   2.299   7.639   4.384
15423SOL     OW62010   2.061   8.688   5.253
15423SOL    HW262011   2.089   8.641   5.331
15423SOL    HW362012   1.982   8.643   5.224
15423SOL    MW462013   2.054   8.677   5.259
15424SOL     OW62014   2.569   8.015   5.220
15424SOL    HW262015   2.541   8.103   5.244
15424SOL    HW362016   2.538   7.959   5.291
15424SOL    MW462017   2.561   8.018   5.232
15425SOL     OW62018   3.111   8.233   3.939
15425SOL    HW262019   3.158   8.251   3.858
15425SOL    HW362020   3.077   8.317   3.967
15425SOL    MW462021   3.113   8.247   3.932
15426SOL     OW62022   2.224   8.411   4.433
15426SOL    HW262023   2.282   8.467   4.381
15426SOL    HW362024   2.268   8.326   4.435
15426SOL    MW462025   2.237   8.408   4.426
15427SOL     OW62026   3.364   7.763   4.270
15427SOL    HW262027   3.286   7.713   4.295
15427SOL    HW362028   3.335   7.854   4.270
15427SOL    MW462029   3.350   7.767   4.273
15428SOL     OW62030   2.950   7.725   4.429
15428SOL    HW262031   2.970   7.800   4.373
15428SOL    HW362032   2.930   7.764   4.514
15428SOL    MW462033   2.951   7.741   4.433
15429SOL     OW62034   2.846   8.975   3.761
15429SOL    HW262035   2.873   9.053   3.713
15429SOL    HW362036   2.753   8.990   3.780
15429SOL    MW462037   2.837   8.988   3.757
15430SOL     OW62038   3.710   8.498   5.448
15430SOL    HW262039   3.623   8.478   5.484
15430SOL    HW362040   3.764   8.424   5.473
15430SOL    MW462041   3.705   8.487   5.456
15431SOL     OW62042   1.931   9.011   4.605
15431SOL    HW262043   1.963   9.015   4.696
15431SOL    HW362044   1.836   9.019   4.613
15431SOL    MW462045   1.923   9.014   4.618
15432SOL     OW62046   1.886   8.137   4.152
15432SOL    HW262047   1.826   8.109   4.222
15432SOL    HW362048   1.960   8.077   4.158
15432SOL    MW462049   1.888   8.126   4.161
15433SOL     OW62050   3.054   8.868   4.312
15433SOL    HW262051   3.077   8.819   4.390
15433SOL    HW362052   3.135   8.910   4.284
15433SOL    MW462053   3.067   8.868   4.319
15434SOL     OW62054   2.312   7.876   5.041
15434SOL    HW262055   2.345   7.957   5.081
15434SOL    HW362056   2.285   7.902   4.953
15434SOL    MW462057   2.311   7.890   5.035
15435SOL     OW62058   2.266   7.843   4.777
15435SOL    HW262059   2.296   7.757   4.748
15435SOL    HW362060   2.171   7.836   4.780
15435SOL    MW462061   2.258   7.832   4.775
15436SOL     OW62062   3.095   8.052   5.468
15436SOL    HW262063   3.147   7.987   5.421
15436SOL    HW362064   3.053   8.103   5.398
15436SOL    MW462065   3.096   8.049   5.451
15437SOL     OW62066   3.194   7.847   5.329
15437SOL    HW262067   3.101   7.831   5.316
15437SOL    HW362068   3.220   7.785   5.397
15437SOL    MW462069   3.184   7.837   5.336
15438SOL     OW62070   2.409   7.621   4.668
15438SOL    HW262071   2.419   7.530   4.694
15438SOL    HW362072   2.365   7.617   4.583
15438SOL    MW462073   2.405   7.609   4.660
15439SOL     OW62074   3.560   7.943   4.839
15439SOL    HW262075   3.493   7.976   4.899
15439SOL    HW362076   3.603   8.021   4.805
15439SOL    MW462077   3.558   7.958   4.843
15440SOL     OW62078   3.738   8.663   4.809
15440SOL    HW262079   3.731   8.603   4.734
15440SOL    HW362080   3.664   8.723   4.798
15440SOL    MW462081   3.728   8.663   4.798
15441SOL     OW62082   3.120   8.525   4.727
15441SOL    HW262083   3.134   8.497   4.818
15441SOL    HW362084   3.206   8.556   4.699
15441SOL    MW462085   3.133   8.526   4.736
15442SOL     OW62086   3.203   8.020   5.006
15442SOL    HW262087   3.224   8.021   4.913
15442SOL    HW362088   3.248   7.942   5.039
15442SOL    MW462089   3.210   8.010   4.998
15443SOL     OW62090   3.696   8.151   5.548
15443SOL    HW262091   3.733   8.096   5.617
15443SOL    HW362092   3.721   8.108   5.466
15443SOL    MW462093   3.703   8.139   5.547
15444SOL     OW62094   3.243   8.449   5.600
15444SOL    HW262095   3.309   8.397   5.554
15444SOL    HW362096   3.263   8.436   5.693
15444SOL    MW462097   3.254   8.440   5.607
15445SOL     OW62098   3.194   7.535   3.948
15445SOL    HW262099   3.268   7.579   3.991
15445SOL    HW362100   3.118   7.589   3.970
15445SOL    MW462101   3.194   7.547   3.956
15446SOL     OW62102   3.254   8.310   4.226
15446SOL    HW262103   3.169   8.280   4.196
15446SOL    HW362104   3.246   8.317   4.321
15446SOL    MW462105   3.242   8.308   4.235
15447SOL     OW62106   2.330   8.773   4.957
15447SOL    HW262107   2.342   8.800   5.048
15447SOL    HW362108   2.311   8.854   4.910
15447SOL    MW462109   2.329   8.788   4.962
15448SOL     OW62110   2.614   7.753   4.780
15448SOL    HW262111   2.587   7.755   4.871
15448SOL    HW362112   2.544   7.705   4.735
15448SOL    MW462113   2.602   7.749   4.787
15449SOL     OW62114   3.370   8.830   5.174
15449SOL    HW262115   3.355   8.759   5.237
15449SOL    HW362116   3.416   8.788   5.102
15449SOL    MW462117   3.376   8.814   5.174
15450SOL     OW62118   2.444   8.561   5.291
15450SOL    HW262119   2.481   8.566   5.203
15450SOL    HW362120   2.483   8.634   5.338
15450SOL    MW462121   2.454   8.571   5.286
15451SOL     OW62122   2.624   8.604   5.103
15451SOL    HW262123   2.683   8.550   5.156
15451SOL    HW362124   2.639   8.576   5.013
15451SOL    MW462125   2.634   8.593   5.099
15452SOL     OW62126   2.627   7.976   3.952
15452SOL    HW262127   2.700   8.025   3.915
15452SOL    HW362128   2.643   7.885   3.926
15452SOL    MW462129   2.639   7.971   3.945
15453SOL     OW62130   3.095   7.572   4.866
15453SOL    HW262131   3.150   7.581   4.788
15453SOL    HW362132   3.150   7.606   4.937
15453SOL    MW462133   3.109   7.577   4.865
15454SOL     OW62134   2.102   8.485   4.050
15454SOL    HW262135   2.039   8.501   3.979
15454SOL    HW362136   2.049   8.448   4.121
15454SOL    MW462137   2.087   8.482   4.050
15455SOL     OW62138   2.458   8.839   3.909
15455SOL    HW262139   2.473   8.815   4.001
15455SOL    HW362140   2.366   8.817   3.893
15455SOL    MW462141   2.448   8.832   3.919
15456SOL     OW62142   2.997   9.070   4.061
15456SOL    HW262143   3.005   8.988   4.012
15456SOL    HW362144   2.916   9.109   4.028
15456SOL    MW462145   2.987   9.065   4.051
15457SOL     OW62146   2.256   9.228   4.630
15457SOL    HW262147   2.260   9.139   4.665
15457SOL    HW362148   2.282   9.219   4.539
15457SOL    MW462149   2.259   9.216   4.622
15458SOL     OW62150   2.873   8.706   4.873
15458SOL    HW262151   2.805   8.640   4.889
15458SOL    HW362152   2.891   8.700   4.780
15458SOL    MW462153   2.866   8.697   4.864
15459SOL     OW62154   1.962   8.981   5.124
15459SOL    HW262155   1.952   8.939   5.210
15459SOL    HW362156   1.883   9.034   5.114
15459SOL    MW462157   1.951   8.982   5.135
15460SOL     OW62158   2.866   7.845   4.694
15460SOL    HW262159   2.796   7.797   4.739
15460SOL    HW362160   2.898   7.908   4.758
15460SOL    MW462161   2.861   7.847   4.708
15461SOL     OW62162   2.517   8.281   5.314
15461SOL    HW262163   2.510   8.376   5.302
15461SOL    HW362164   2.526   8.270   5.409
15461SOL    MW462165   2.518   8.293   5.324
15462SOL     OW62166   2.238   8.796   5.572
15462SOL    HW262167   2.310   8.798   5.509
15462SOL    HW362168   2.208   8.705   5.571
15462SOL    MW462169   2.243   8.785   5.564
15463SOL     OW62170   3.322   7.559   5.039
15463SOL    HW262171   3.393   7.505   5.003
15463SOL    HW362172   3.321   7.538   5.132
15463SOL    MW462173   3.331   7.550   5.047
15464SOL     OW62174   2.333   7.951   4.507
15464SOL    HW262175   2.404   7.899   4.470
15464SOL    HW362176   2.319   7.916   4.594
15464SOL    MW462177   2.341   7.940   4.514
15465SOL     OW62178   2.649   9.044   4.583
15465SOL    HW262179   2.577   8.981   4.596
15465SOL    HW362180   2.610   9.129   4.601
15465SOL    MW462181   2.633   9.047   4.586
15466SOL     OW62182   2.969   7.892   4.231
15466SOL    HW262183   2.991   7.829   4.163
15466SOL    HW362184   2.874   7.884   4.242
15466SOL    MW462185   2.959   7.883   4.223
15467SOL     OW62186   2.054   7.582   4.163
15467SOL    HW262187   2.125   7.603   4.102
15467SOL    HW362188   2.008   7.510   4.121
15467SOL    MW462189   2.058   7.576   4.149
15468SOL     OW62190   1.885   8.049   5.306
15468SOL    HW262191   1.949   8.115   5.281
15468SOL    HW362192   1.804   8.076   5.263
15468SOL    MW462193   1.883   8.061   5.298
15469SOL     OW62194   3.179   8.633   4.193
15469SOL    HW262195   3.151   8.719   4.226
15469SOL    HW362196   3.207   8.649   4.103
15469SOL    MW462197   3.179   8.647   4.185
15470SOL     OW62198   2.841   7.553   4.246
15470SOL    HW262199   2.878   7.612   4.311
15470SOL    HW362200   2.818   7.609   4.172
15470SOL    MW462201   2.842   7.568   4.245
15471SOL     OW62202   3.694   8.435   4.668
15471SOL    HW262203   3.685   8.467   4.579
15471SOL    HW362204   3.647   8.351   4.668
15471SOL    MW462205   3.687   8.428   4.658
15472SOL     OW62206   2.070   8.275   5.247
15472SOL    HW262207   2.091   8.344   5.185
15472SOL    HW362208   2.150   8.222   5.252
15472SOL    MW462209   2.083   8.276   5.241
15473SOL     OW62210   3.606   8.366   4.369
15473SOL    HW262211   3.700   8.355   4.357
15473SOL    HW362212   3.582   8.438   4.310
15473SOL    MW462213   3.616   8.374   4.360
15474SOL     OW62214   2.055   8.290   5.514
15474SOL    HW262215   1.981   8.234   5.540
15474SOL    HW362216   2.050   8.293   5.419
15474SOL    MW462217   2.044   8.283   5.504
15475SOL     OW62218   2.221   7.577   4.964
15475SOL    HW262219   2.264   7.661   4.984
15475SOL    HW362220   2.294   7.515   4.957
15475SOL    MW462221   2.236   7.580   4.965
15476SOL     OW62222   2.262   8.244   4.142
15476SOL    HW262223   2.262   8.339   4.127
15476SOL    HW362224   2.339   8.228   4.196
15476SOL    MW462225   2.272   8.255   4.147
15477SOL     OW62226   3.038   8.103   5.206
15477SOL    HW262227   3.074   8.076   5.122
15477SOL    HW362228   2.951   8.137   5.185
15477SOL    MW462229   3.032   8.104   5.193
15478SOL     OW62230   2.021   7.975   4.431
15478SOL    HW262231   2.083   7.982   4.504
15478SOL    HW362232   2.021   7.882   4.408
15478SOL    MW462233   2.029   7.964   4.438
15479SOL     OW62234   2.703   8.236   4.915
15479SOL    HW262235   2.661   8.154   4.891
15479SOL    HW362236   2.704   8.235   5.011
15479SOL    MW462237   2.696   8.225   4.924
15480SOL     OW62238   2.507   7.706   5.020
15480SOL    HW262239   2.438   7.769   5.041
15480SOL    HW362240   2.534   7.670   5.105
15480SOL    MW462241   2.501   7.709   5.033
15481SOL     OW62242   1.890   8.547   3.889
15481SOL    HW262243   1.859   8.612   3.952
15481SOL    HW362244   1.839   8.469   3.908
15481SOL    MW462245   1.880   8.544   3.899
15482SOL     OW62246   3.302   7.559   4.637
15482SOL    HW262247   3.390   7.568   4.674
15482SOL    HW362248   3.312   7.500   4.563
15482SOL    MW462249   3.316   7.553   4.631
15483SOL     OW62250   3.334   8.298   4.481
15483SOL    HW262251   3.414   8.313   4.430
15483SOL    HW362252   3.327   8.203   4.487
15483SOL    MW462253   3.343   8.287   4.476
15484SOL     OW62254   2.784   8.224   5.178
15484SOL    HW262255   2.853   8.291   5.175
15484SOL    HW362256   2.717   8.262   5.234
15484SOL    MW462257   2.785   8.237   5.185
15485SOL     OW62258   2.202   8.524   5.426
15485SOL    HW262259   2.156   8.440   5.428
15485SOL    HW362260   2.259   8.518   5.350
15485SOL    MW462261   2.204   8.512   5.418
15486SOL     OW62262   3.319   8.167   3.747
15486SOL    HW262263   3.247   8.143   3.689
15486SOL    HW362264   3.385   8.204   3.689
15486SOL    MW462265   3.318   8.169   3.732
15487SOL     OW62266   2.453   8.899   4.427
15487SOL    HW262267   2.518   8.832   4.448
15487SOL    HW362268   2.505   8.976   4.404
15487SOL    MW462269   2.468   8.901   4.426
15488SOL     OW62270   2.714   8.064   4.557
15488SOL    HW262271   2.654   8.082   4.629
15488SOL    HW362272   2.748   7.976   4.576
15488SOL    MW462273   2.710   8.054   4.570
15489SOL     OW62274   3.655   7.563   5.226
15489SOL    HW262275   3.576   7.609   5.254
15489SOL    HW362276   3.690   7.617   5.155
15489SOL    MW462277   3.649   7.576   5.220
15490SOL     OW62278   2.939   8.647   4.576
15490SOL    HW262279   3.031   8.628   4.594
15490SOL    HW362280   2.912   8.577   4.516
15490SOL    MW462281   2.947   8.635   4.570
15491SOL     OW62282   2.732   8.467   3.931
15491SOL    HW262283   2.718   8.379   3.896
15491SOL    HW362284   2.683   8.524   3.872
15491SOL    MW462285   2.724   8.462   3.919
15492SOL     OW62286   2.145   8.191   4.710
15492SOL    HW262287   2.095   8.190   4.791
15492SOL    HW362288   2.165   8.283   4.694
15492SOL    MW462289   2.141   8.203   4.718
15493SOL     OW62290   3.212   8.955   5.472
15493SOL    HW262291   3.212   9.049   5.488
15493SOL    HW362292   3.257   8.945   5.388
15493SOL    MW462293   3.218   8.965   5.463
15494SOL     OW62294   3.451   7.673   4.033
15494SOL    HW262295   3.444   7.677   4.128
15494SOL    HW362296   3.463   7.764   4.006
15494SOL    MW462297   3.452   7.686   4.041
15495SOL     OW62298   2.740   8.236   4.147
15495SOL    HW262299   2.720   8.222   4.054
15495SOL    HW362300   2.833   8.215   4.154
15495SOL    MW462301   2.750   8.231   4.136
15496SOL     OW62302   2.067   7.859   5.451
15496SOL    HW262303   2.024   7.918   5.388
15496SOL    HW362304   2.135   7.914   5.491
15496SOL    MW462305   2.071   7.874   5.448
15497SOL     OW62306   3.179   8.479   4.996
15497SOL    HW262307   3.242   8.476   5.069
15497SOL    HW362308   3.095   8.497   5.038
15497SOL    MW462309   3.175   8.481   5.011
15498SOL     OW62310   2.723   9.194   4.185
15498SOL    HW262311   2.781   9.265   4.212
15498SOL    HW362312   2.746   9.122   4.243
15498SOL    MW462313   2.734   9.194   4.196
15499SOL     OW62314   3.518   7.656   4.775
15499SOL    HW262315   3.563   7.574   4.794
15499SOL    HW362316   3.538   7.712   4.851
15499SOL    MW462317   3.528   7.652   4.787
15500SOL     OW62318   1.966   7.499   4.874
15500SOL    HW262319   1.957   7.500   4.779
15500SOL    HW362320   2.060   7.511   4.889
15500SOL    MW462321   1.978   7.502   4.865
15501SOL     OW62322   3.603   8.692   4.494
15501SOL    HW262323   3.582   8.638   4.417
15501SOL    HW362324   3.699   8.690   4.498
15501SOL    MW462325   3.612   8.685   4.483
15502SOL     OW62326   2.295   8.837   5.237
15502SOL    HW262327   2.216   8.787   5.260
15502SOL    HW362328   2.365   8.796   5.287
15502SOL    MW462329   2.293   8.825   5.247
15503SOL     OW62330   2.179   7.626   3.920
15503SOL    HW262331   2.108   7.681   3.888
15503SOL    HW362332   2.221   7.592   3.841
15503SOL    MW462333   2.175   7.628   3.906
15504SOL     OW62334   3.303   8.123   4.756
15504SOL    HW262335   3.226   8.169   4.722
15504SOL    HW362336   3.360   8.192   4.790
15504SOL    MW462337   3.300   8.138   4.756
15505SOL     OW62338   1.935   7.725   3.769
15505SOL    HW262339   1.902   7.804   3.813
15505SOL    HW362340   1.990   7.758   3.698
15505SOL    MW462341   1.938   7.739   3.766
15506SOL     OW62342   1.969   8.982   3.958
15506SOL    HW262343   1.986   9.066   4.000
15506SOL    HW362344   2.004   8.991   3.870
15506SOL    MW462345   1.974   8.995   3.952
15507SOL     OW62346   3.604   8.339   5.862
15507SOL    HW262347   3.645   8.281   5.927
15507SOL    HW362348   3.511   8.331   5.879
15507SOL    MW462349   3.598   8.331   5.872
15508SOL     OW62350   3.470   8.271   6.857
15508SOL    HW262351   3.425   8.338   6.908
15508SOL    HW362352   3.558   8.307   6.843
15508SOL    MW462353   3.476   8.284   6.861
15509SOL     OW62354   2.398   8.522   6.091
15509SOL    HW262355   2.488   8.497   6.075
15509SOL    HW362356   2.394   8.615   6.068
15509SOL    MW462357   2.410   8.531   6.086
15510SOL     OW62358   2.893   9.110   7.234
15510SOL    HW262359   2.934   9.146   7.155
15510SOL    HW362360   2.928   9.021   7.241
15510SOL    MW462361   2.904   9.103   7.225
15511SOL     OW62362   3.450   8.665   6.838
15511SOL    HW262363   3.371   8.630   6.796
15511SOL    HW362364   3.477   8.737   6.782
15511SOL    MW462365   3.443   8.670   6.825
15512SOL     OW62366   2.682   7.978   6.104
15512SOL    HW262367   2.657   8.066   6.132
15512SOL    HW362368   2.679   7.981   6.008
15512SOL    MW462369   2.678   7.990   6.096
15513SOL     OW62370   2.124   8.006   6.032
15513SOL    HW262371   2.156   8.094   6.014
15513SOL    HW362372   2.112   8.004   6.127
15513SOL    MW462373   2.127   8.018   6.044
15514SOL     OW62374   2.202   8.419   6.933
15514SOL    HW262375   2.265   8.366   6.884
15514SOL    HW362376   2.183   8.493   6.876
15514SOL    MW462377   2.208   8.421   6.920
15515SOL     OW62378   2.523   7.761   6.119
15515SOL    HW262379   2.581   7.837   6.121
15515SOL    HW362380   2.458   7.782   6.052
15515SOL    MW462381   2.522   7.773   6.110
15516SOL     OW62382   2.610   8.688   6.294
15516SOL    HW262383   2.690   8.691   6.346
15516SOL    HW362384   2.638   8.655   6.208
15516SOL    MW462385   2.624   8.684   6.289
15517SOL     OW62386   2.635   9.029   7.197
15517SOL    HW262387   2.719   9.055   7.236
15517SOL    HW362388   2.659   8.973   7.123
15517SOL    MW462389   2.649   9.025   7.192
15518SOL     OW62390   2.387   8.192   6.285
15518SOL    HW262391   2.372   8.112   6.336
15518SOL    HW362392   2.469   8.227   6.319
15518SOL    MW462393   2.395   8.184   6.297
15519SOL     OW62394   2.724   8.878   6.970
15519SOL    HW262395   2.688   8.944   6.910
15519SOL    HW362396   2.652   8.816   6.983
15519SOL    MW462397   2.710   8.878   6.964
15520SOL     OW62398   2.529   8.018   6.662
15520SOL    HW262399   2.435   8.014   6.680
15520SOL    HW362400   2.559   7.927   6.671
15520SOL    MW462401   2.520   8.006   6.665
15521SOL     OW62402   2.275   8.432   6.566
15521SOL    HW262403   2.230   8.439   6.482
15521SOL    HW362404   2.255   8.515   6.610
15521SOL    MW462405   2.267   8.444   6.560
15522SOL     OW62406   3.237   8.670   5.810
15522SOL    HW262407   3.155   8.706   5.776
15522SOL    HW362408   3.305   8.713   5.759
15522SOL    MW462409   3.235   8.680   5.798
15523SOL     OW62410   2.236   8.805   6.476
15523SOL    HW262411   2.212   8.858   6.552
15523SOL    HW362412   2.292   8.863   6.424
15523SOL    MW462413   2.240   8.820   6.479
15524SOL     OW62414   2.798   8.449   6.286
15524SOL    HW262415   2.712   8.436   6.326
15524SOL    HW362416   2.851   8.376   6.318
15524SOL    MW462417   2.794   8.438   6.295
15525SOL     OW62418   2.206   9.101   7.071
15525SOL    HW262419   2.114   9.077   7.056
15525SOL    HW362420   2.250   9.018   7.088
15525SOL    MW462421   2.200   9.086   7.070
15526SOL     OW62422   2.789   8.811   6.003
15526SOL    HW262423   2.766   8.873   6.071
15526SOL    HW362424   2.746   8.729   6.029
15526SOL    MW462425   2.781   8.807   6.014
15527SOL     OW62426   3.662   7.812   6.459
15527SOL    HW262427   3.599   7.792   6.528
15527SOL    HW362428   3.652   7.741   6.396
15527SOL    MW462429   3.652   7.799   6.460
15528SOL     OW62430   2.286   7.784   5.971
15528SOL    HW262431   2.260   7.746   5.887
15528SOL    HW362432   2.223   7.854   5.987
15528SOL    MW462433   2.275   7.787   5.962
15529SOL     OW62434   2.121   8.745   6.008
15529SOL    HW262435   2.069   8.813   5.964
15529SOL    HW362436   2.118   8.671   5.948
15529SOL    MW462437   2.113   8.744   5.995
15530SOL     OW62438   3.718   7.981   5.761
15530SOL    HW262439   3.627   7.983   5.789
15530SOL    HW362440   3.763   8.043   5.819
15530SOL    MW462441   3.711   7.989   5.771
15531SOL     OW62442   3.463   8.584   6.111
15531SOL    HW262443   3.373   8.584   6.146
15531SOL    HW362444   3.456   8.630   6.028
15531SOL    MW462445   3.450   8.590   6.105
15532SOL     OW62446   3.263   8.219   7.183
15532SOL    HW262447   3.332   8.157   7.160
15532SOL    HW362448   3.188   8.193   7.130
15532SOL    MW462449   3.263   8.206   7.174
15533SOL     OW62450   2.004   9.099   6.735
15533SOL    HW262451   1.987   9.045   6.812
15533SOL    HW362452   1.992   9.189   6.765
15533SOL    MW462453   2.001   9.103   6.749
15534SOL     OW62454   2.999   8.606   7.175
15534SOL    HW262455   2.984   8.699   7.160
15534SOL    HW362456   3.094   8.596   7.175
15534SOL    MW462457   3.008   8.616   7.172
15535SOL     OW62458   2.795   8.030   7.376
15535SOL    HW262459   2.885   8.031   7.343
15535SOL    HW362460   2.754   7.955   7.334
15535SOL    MW462461   2.801   8.020   7.367
15536SOL     OW62462   3.370   8.562   6.503
15536SOL    HW262463   3.373   8.496   6.434
15536SOL    HW362464   3.455   8.605   6.499
15536SOL    MW462465   3.382   8.558   6.494
15537SOL     OW62466   2.990   8.165   6.072
15537SOL    HW262467   3.016   8.189   5.983
15537SOL    HW362468   2.972   8.072   6.068
15537SOL    MW462469   2.992   8.157   6.059
15538SOL     OW62470   3.655   8.785   5.923
15538SOL    HW262471   3.611   8.826   5.998
15538SOL    HW362472   3.712   8.853   5.888
15538SOL    MW462473   3.657   8.799   5.928
15539SOL     OW62474   2.575   7.834   7.326
15539SOL    HW262475   2.585   7.760   7.266
15539SOL    HW362476   2.611   7.803   7.409
15539SOL    MW462477   2.581   7.820   7.328
15540SOL     OW62478   3.695   7.563   6.290
15540SOL    HW262479   3.749   7.514   6.352
15540SOL    HW362480   3.638   7.497   6.251
15540SOL    MW462481   3.695   7.547   6.292
15541SOL     OW62482   2.814   7.516   6.703
15541SOL    HW262483   2.773   7.594   6.665
15541SOL    HW362484   2.908   7.534   6.698
15541SOL    MW462485   2.820   7.528   6.698
15542SOL     OW62486   2.829   8.194   5.733
15542SOL    HW262487   2.831   8.141   5.654
15542SOL    HW362488   2.917   8.231   5.739
15542SOL    MW462489   2.841   8.193   5.722
15543SOL     OW62490   3.443   8.120   6.069
15543SOL    HW262491   3.482   8.120   6.156
15543SOL    HW362492   3.384   8.196   6.069
15543SOL    MW462493   3.440   8.131   6.080
15544SOL     OW62494   2.760   8.487   7.198
15544SOL    HW262495   2.737   8.467   7.288
15544SOL    HW362496   2.845   8.531   7.203
15544SOL    MW462497   2.767   8.490   7.210
15545SOL     OW62498   2.840   7.624   6.958
15545SOL    HW262499   2.846   7.586   6.871
15545SOL    HW362500   2.829   7.718   6.943
15545SOL    MW462501   2.841   7.632   6.946
15546SOL     OW62502   2.929   8.113   6.792
15546SOL    HW262503   3.004   8.142   6.739
15546SOL    HW362504   2.861   8.178   6.776
15546SOL    MW462505   2.930   8.125   6.782
15547SOL     OW62506   3.479   8.081   7.069
15547SOL    HW262507   3.460   7.990   7.048
15547SOL    HW362508   3.457   8.130   6.990
15547SOL    MW462509   3.474   8.074   7.056
15548SOL     OW62510   2.926   7.819   7.175
15548SOL    HW262511   2.892   7.858   7.094
15548SOL    HW362512   2.904   7.727   7.168
15548SOL    MW462513   2.919   7.812   7.165
15549SOL     OW62514   3.335   8.633   7.251
15549SOL    HW262515   3.417   8.674   7.281
15549SOL    HW362516   3.298   8.595   7.331
15549SOL    MW462517   3.341   8.634   7.266
15550SOL     OW62518   3.630   8.006   6.235
15550SOL    HW262519   3.719   7.975   6.252
15550SOL    HW362520   3.573   7.946   6.283
15550SOL    MW462521   3.633   7.994   6.244
15551SOL     OW62522   2.056   7.720   6.264
15551SOL    HW262523   2.047   7.660   6.190
15551SOL    HW362524   1.989   7.691   6.327
15551SOL    MW462525   2.046   7.707   6.262
15552SOL     OW62526   2.999   8.813   5.825
15552SOL    HW262527   2.949   8.815   5.907
15552SOL    HW362528   2.933   8.831   5.757
15552SOL    MW462529   2.985   8.815   5.827
15553SOL     OW62530   2.003   7.893   6.627
15553SOL    HW262531   1.975   7.984   6.636
15553SOL    HW362532   1.940   7.854   6.566
15553SOL    MW462533   1.990   7.899   6.621
15554SOL     OW62534   2.598   8.646   5.640
15554SOL    HW262535   2.520   8.592   5.627
15554SOL    HW362536   2.569   8.719   5.693
15554SOL    MW462537   2.584   8.648   5.645
15555SOL     OW62538   3.724   8.386   6.832
15555SOL    HW262539   3.740   8.424   6.745
15555SOL    HW362540   3.758   8.452   6.893
15555SOL    MW462541   3.731   8.399   6.828
15556SOL     OW62542   1.987   8.168   6.797
15556SOL    HW262543   2.049   8.198   6.863
15556SOL    HW362544   1.921   8.237   6.791
15556SOL    MW462545   1.986   8.181   6.804
15557SOL     OW62546   2.628   7.725   5.705
15557SOL    HW262547   2.576   7.645   5.693
15557SOL    HW362548   2.715   7.702   5.673
15557SOL    MW462549   2.631   7.711   5.699
15558SOL     OW62550   2.134   8.596   6.756
15558SOL    HW262551   2.187   8.671   6.781
15558SOL    HW362552   2.053   8.634   6.722
15558SOL    MW462553   2.130   8.611   6.756
15559SOL     OW62554   2.674   8.500   6.744
15559SOL    HW262555   2.702   8.409   6.756
15559SOL    HW362556   2.603   8.494   6.680
15559SOL    MW462557   2.667   8.488   6.739
15560SOL     OW62558   1.989   8.365   6.162
15560SOL    HW262559   2.080   8.380   6.189
15560SOL    HW362560   1.992   8.286   6.108
15560SOL    MW462561   2.001   8.357   6.160
15561SOL     OW62562   2.225   8.073   7.416
15561SOL    HW262563   2.172   8.153   7.423
15561SOL    HW362564   2.295   8.085   7.481
15561SOL    MW462565   2.227   8.086   7.424
15562SOL     OW62566   2.611   7.623   7.123
15562SOL    HW262567   2.588   7.531   7.125
15562SOL    HW362568   2.697   7.625   7.080
15562SOL    MW462569   2.618   7.613   7.119
15563SOL     OW62570   2.295   8.147   7.162
15563SOL    HW262571   2.375   8.197   7.148
15563SOL    HW362572   2.286   8.141   7.257
15563SOL    MW462573   2.304   8.153   7.172
15564SOL     OW62574   3.272   7.672   7.433
15564SOL    HW262575   3.328   7.599   7.459
15564SOL    HW362576   3.242   7.710   7.515
15564SOL    MW462577   3.276   7.667   7.446
15565SOL     OW62578   1.997   8.977   6.201
15565SOL    HW262579   1.969   9.016   6.283
15565SOL    HW362580   2.017   8.886   6.223
15565SOL    MW462581   1.995   8.969   6.214
15566SOL     OW62582   2.830   9.020   6.236
15566SOL    HW262583   2.913   8.974   6.220
15566SOL    HW362584   2.820   9.019   6.332
15566SOL    MW462585   2.840   9.013   6.246
15567SOL     OW62586   3.662   8.165   6.550
15567SOL    HW262587   3.751   8.195   6.532
15567SOL    HW362588   3.642   8.105   6.479
15567SOL    MW462589   3.671   8.162   6.539
15568SOL     OW62590   3.513   8.344   7.430
15568SOL    HW262591   3.568   8.268   7.411
15568SOL    HW362592   3.515   8.352   7.525
15568SOL    MW462593   3.521   8.335   7.438
15569SOL     OW62594   2.563   9.077   5.641
15569SOL    HW262595   2.503   9.146   5.611
15569SOL    HW362596   2.508   9.019   5.694
15569SOL    MW462597   2.547   9.079   5.643
15570SOL     OW62598   3.001   7.722   5.864
15570SOL    HW262599   2.934   7.698   5.801
15570SOL    HW362600   3.066   7.771   5.813
15570SOL    MW462601   3.001   7.724   5.849
15571SOL     OW62602   2.808   7.906   6.949
15571SOL    HW262603   2.727   7.947   6.977
15571SOL    HW362604   2.855   7.974   6.901
15571SOL    MW462605   2.803   7.921   6.947
15572SOL     OW62606   3.068   8.244   6.572
15572SOL    HW262607   3.081   8.338   6.582
15572SOL    HW362608   3.029   8.234   6.486
15572SOL    MW462609   3.064   8.255   6.562
15573SOL     OW62610   2.520   8.439   6.376
15573SOL    HW262611   2.431   8.430   6.409
15573SOL    HW362612   2.524   8.529   6.344
15573SOL    MW462613   2.509   8.450   6.376
15574SOL     OW62614   3.319   8.022   6.371
15574SOL    HW262615   3.264   7.943   6.370
15574SOL    HW362616   3.301   8.063   6.455
15574SOL    MW462617   3.309   8.017   6.380
15575SOL     OW62618   2.290   7.709   7.188
15575SOL    HW262619   2.211   7.727   7.240
15575SOL    HW362620   2.285   7.771   7.115
15575SOL    MW462621   2.280   7.719   7.185
15576SOL     OW62622   2.938   8.226   6.328
15576SOL    HW262623   2.875   8.158   6.352
15576SOL    HW362624   2.958   8.207   6.236
15576SOL    MW462625   2.932   8.213   6.320
15577SOL     OW62626   2.194   9.121   6.030
15577SOL    HW262627   2.155   9.168   5.956
15577SOL    HW362628   2.128   9.056   6.055
15577SOL    MW462629   2.181   9.119   6.024
15578SOL     OW62630   2.686   8.530   6.054
15578SOL    HW262631   2.688   8.504   5.961
15578SOL    HW362632   2.744   8.467   6.097
15578SOL    MW462633   2.694   8.519   6.048
15579SOL     OW62634   3.196   7.774   6.387
15579SOL    HW262635   3.224   7.706   6.448
15579SOL    HW362636   3.110   7.745   6.357
15579SOL    MW462637   3.189   7.761   6.391
15580SOL     OW62638   2.001   8.708   6.321
15580SOL    HW262639   2.065   8.740   6.384
15580SOL    HW362640   2.050   8.644   6.269
15580SOL    MW462641   2.016   8.704   6.322
15581SOL     OW62642   2.501   8.784   7.303
15581SOL    HW262643   2.549   8.867   7.290
15581SOL    HW362644   2.558   8.732   7.359
15581SOL    MW462645   2.515   8.788   7.309
15582SOL     OW62646   2.077   9.026   7.443
15582SOL    HW262647   2.133   8.950   7.458
15582SOL    HW362648   2.026   9.004   7.365
15582SOL    MW462649   2.077   9.013   7.434
15583SOL     OW62650   3.176   7.878   5.722
15583SOL    HW262651   3.149   7.944   5.658
15583SOL    HW362652   3.246   7.921   5.772
15583SOL    MW462653   3.181   7.891   5.719
15584SOL     OW62654   2.844   7.583   5.659
15584SOL    HW262655   2.900   7.575   5.581
15584SOL    HW362656   2.821   7.493   5.681
15584SOL    MW462657   2.849   7.570   5.652
15585SOL     OW62658   3.349   8.434   5.864
15585SOL    HW262659   3.316   8.523   5.854
15585SOL    HW362660   3.314   8.405   5.949
15585SOL    MW462661   3.339   8.443   5.875
15586SOL     OW62662   2.962   8.863   7.052
15586SOL    HW262663   2.873   8.869   7.020
15586SOL    HW362664   3.006   8.942   7.020
15586SOL    MW462665   2.957   8.873   7.044
15587SOL     OW62666   2.255   7.531   7.394
15587SOL    HW262667   2.183   7.496   7.342
15587SOL    HW362668   2.313   7.572   7.329
15587SOL    MW462669   2.253   7.532   7.379
15588SOL     OW62670   2.279   9.021   6.693
15588SOL    HW262671   2.324   9.083   6.750
15588SOL    HW362672   2.186   9.040   6.706
15588SOL    MW462673   2.272   9.031   6.700
15589SOL     OW62674   3.719   8.550   7.047
15589SOL    HW262675   3.634   8.563   7.006
15589SOL    HW362676   3.699   8.514   7.134
15589SOL    MW462677   3.706   8.546   7.052
15590SOL     OW62678   2.701   9.089   6.801
15590SOL    HW262679   2.725   9.078   6.710
15590SOL    HW362680   2.624   9.146   6.799
15590SOL    MW462681   2.693   9.094   6.790
15591SOL     OW62682   2.343   8.472   5.656
15591SOL    HW262683   2.266   8.485   5.712
15591SOL    HW362684   2.307   8.436   5.575
15591SOL    MW462685   2.329   8.468   5.653
15592SOL     OW62686   2.996   8.445   5.899
15592SOL    HW262687   2.906   8.466   5.874
15592SOL    HW362688   3.023   8.518   5.955
15592SOL    MW462689   2.988   8.457   5.902
15593SOL     OW62690   2.496   8.794   6.591
15593SOL    HW262691   2.489   8.773   6.685
15593SOL    HW362692   2.414   8.762   6.554
15593SOL    MW462693   2.484   8.788   6.598
15594SOL     OW62694   3.360   7.804   6.993
15594SOL    HW262695   3.307   7.806   7.073
15594SOL    HW362696   3.345   7.717   6.956
15594SOL    MW462697   3.352   7.794   6.998
15595SOL     OW62698   3.696   7.728   6.866
15595SOL    HW262699   3.677   7.795   6.801
15595SOL    HW362700   3.753   7.666   6.821
15595SOL    MW462701   3.700   7.729   6.852
15596SOL     OW62702   1.942   8.886   7.254
15596SOL    HW262703   1.986   8.819   7.200
15596SOL    HW362704   1.857   8.848   7.274
15596SOL    MW462705   1.937   8.872   7.250
15597SOL     OW62706   2.625   7.561   6.306
15597SOL    HW262707   2.554   7.622   6.288
15597SOL    HW362708   2.676   7.558   6.225
15597SOL    MW462709   2.621   7.567   6.293
15598SOL     OW62710   2.383   8.801   6.055
15598SOL    HW262711   2.376   8.833   6.145
15598SOL    HW362712   2.293   8.785   6.027
15598SOL    MW462713   2.371   8.803   6.062
15599SOL     OW62714   2.585   8.218   7.436
15599SOL    HW262715   2.655   8.160   7.408
15599SOL    HW362716   2.528   8.163   7.491
15599SOL    MW462717   2.587   8.205   7.440
15600SOL     OW62718   3.372   8.430   7.069
15600SOL    HW262719   3.377   8.483   7.149
15600SOL    HW362720   3.334   8.347   7.097
15600SOL    MW462721   3.368   8.425   7.084
15601SOL     OW62722   3.012   7.565   7.315
15601SOL    HW262723   3.007   7.472   7.296
15601SOL    HW362724   3.095   7.576   7.361
15601SOL    MW462725   3.020   7.554   7.319
15602SOL     OW62726   2.386   8.085   5.769
15602SOL    HW262727   2.352   8.141   5.839
15602SOL    HW362728   2.457   8.035   5.809
15602SOL    MW462729   2.392   8.086   5.783
15603SOL     OW62730   3.482   8.836   6.591
15603SOL    HW262731   3.517   8.818   6.504
15603SOL    HW362732   3.387   8.837   6.578
15603SOL    MW462733   3.474   8.833   6.578
15604SOL     OW62734   2.911   8.484   6.960
15604SOL    HW262735   2.954   8.519   7.038
15604SOL    HW362736   2.894   8.561   6.906
15604SOL    MW462737   2.914   8.499   6.963
15605SOL     OW62738   3.442   7.971   5.833
15605SOL    HW262739   3.434   8.042   5.770
15605SOL    HW362740   3.460   8.015   5.916
15605SOL    MW462741   3.443   7.985   5.835
15606SOL     OW62742   2.302   7.626   6.262
15606SOL    HW262743   2.352   7.669   6.193
15606SOL    HW362744   2.217   7.670   6.262
15606SOL    MW462745   2.299   7.639   6.253
15607SOL     OW62746   2.061   8.688   7.122
15607SOL    HW262747   2.089   8.641   7.200
15607SOL    HW362748   1.982   8.643   7.093
15607SOL    MW462749   2.054   8.677   7.128
15608SOL     OW62750   2.569   8.015   7.089
15608SOL    HW262751   2.541   8.103   7.113
15608SOL    HW362752   2.538   7.959   7.160
15608SOL    MW462753   2.561   8.018   7.101
15609SOL     OW62754   3.111   8.233   5.808
15609SOL    HW262755   3.158   8.251   5.727
15609SOL    HW362756   3.077   8.317   5.836
15609SOL    MW462757   3.113   8.247   5.801
15610SOL     OW62758   2.224   8.411   6.302
15610SOL    HW262759   2.282   8.467   6.250
15610SOL    HW362760   2.268   8.326   6.304
15610SOL    MW462761   2.237   8.408   6.295
15611SOL     OW62762   3.364   7.763   6.139
15611SOL    HW262763   3.286   7.713   6.164
15611SOL    HW362764   3.335   7.854   6.139
15611SOL    MW462765   3.350   7.767   6.142
15612SOL     OW62766   2.950   7.725   6.298
15612SOL    HW262767   2.970   7.800   6.242
15612SOL    HW362768   2.930   7.764   6.383
15612SOL    MW462769   2.951   7.741   6.302
15613SOL     OW62770   2.846   8.975   5.630
15613SOL    HW262771   2.873   9.053   5.582
15613SOL    HW362772   2.753   8.990   5.649
15613SOL    MW462773   2.837   8.988   5.626
15614SOL     OW62774   3.710   8.498   7.317
15614SOL    HW262775   3.623   8.478   7.353
15614SOL    HW362776   3.764   8.424   7.342
15614SOL    MW462777   3.705   8.487   7.325
15615SOL     OW62778   1.931   9.011   6.474
15615SOL    HW262779   1.963   9.015   6.565
15615SOL    HW362780   1.836   9.019   6.482
15615SOL    MW462781   1.923   9.014   6.487
15616SOL     OW62782   1.886   8.137   6.021
15616SOL    HW262783   1.826   8.109   6.091
15616SOL    HW362784   1.960   8.077   6.027
15616SOL    MW462785   1.888   8.126   6.030
15617SOL     OW62786   3.054   8.868   6.181
15617SOL    HW262787   3.077   8.819   6.259
15617SOL    HW362788   3.135   8.910   6.153
15617SOL    MW462789   3.067   8.868   6.188
15618SOL     OW62790   2.312   7.876   6.910
15618SOL    HW262791   2.345   7.957   6.950
15618SOL    HW362792   2.285   7.902   6.822
15618SOL    MW462793   2.311   7.890   6.904
15619SOL     OW62794   2.266   7.843   6.646
15619SOL    HW262795   2.296   7.757   6.617
15619SOL    HW362796   2.171   7.836   6.649
15619SOL    MW462797   2.258   7.832   6.644
15620SOL     OW62798   3.095   8.052   7.337
15620SOL    HW262799   3.147   7.987   7.290
15620SOL    HW362800   3.053   8.103   7.267
15620SOL    MW462801   3.096   8.049   7.320
15621SOL     OW62802   3.194   7.847   7.198
15621SOL    HW262803   3.101   7.831   7.185
15621SOL    HW362804   3.220   7.785   7.266
15621SOL    MW462805   3.184   7.837   7.205
15622SOL     OW62806   2.409   7.621   6.537
15622SOL    HW262807   2.419   7.530   6.563
15622SOL    HW362808   2.365   7.617   6.452
15622SOL    MW462809   2.405   7.609   6.529
15623SOL     OW62810   3.560   7.943   6.708
15623SOL    HW262811   3.493   7.976   6.768
15623SOL    HW362812   3.603   8.021   6.674
15623SOL    MW462813   3.558   7.958   6.712
15624SOL     OW62814   3.738   8.663   6.678
15624SOL    HW262815   3.731   8.603   6.603
15624SOL    HW362816   3.664   8.723   6.667
15624SOL    MW462817   3.728   8.663   6.667
15625SOL     OW62818   3.120   8.525   6.596
15625SOL    HW262819   3.134   8.497   6.687
15625SOL    HW362820   3.206   8.556   6.568
15625SOL    MW462821   3.133   8.526   6.605
15626SOL     OW62822   3.203   8.020   6.875
15626SOL    HW262823   3.224   8.021   6.782
15626SOL    HW362824   3.248   7.942   6.908
15626SOL    MW462825   3.210   8.010   6.867
15627SOL     OW62826   3.696   8.151   7.417
15627SOL    HW262827   3.733   8.096   7.486
15627SOL    HW362828   3.721   8.108   7.335
15627SOL    MW462829   3.703   8.139   7.416
15628SOL     OW62830   3.243   8.449   7.468
15628SOL    HW262831   3.309   8.397   7.422
15628SOL    HW362832   3.263   8.436   7.561
15628SOL    MW462833   3.254   8.440   7.475
15629SOL     OW62834   3.194   7.535   5.817
15629SOL    HW262835   3.268   7.579   5.860
15629SOL    HW362836   3.118   7.589   5.839
15629SOL    MW462837   3.194   7.547   5.825
15630SOL     OW62838   3.254   8.310   6.095
15630SOL    HW262839   3.169   8.280   6.065
15630SOL    HW362840   3.246   8.317   6.190
15630SOL    MW462841   3.242   8.308   6.104
15631SOL     OW62842   2.330   8.773   6.826
15631SOL    HW262843   2.342   8.800   6.917
15631SOL    HW362844   2.311   8.854   6.779
15631SOL    MW462845   2.329   8.788   6.831
15632SOL     OW62846   2.614   7.753   6.649
15632SOL    HW262847   2.587   7.755   6.740
15632SOL    HW362848   2.544   7.705   6.604
15632SOL    MW462849   2.602   7.749   6.656
15633SOL     OW62850   3.370   8.830   7.043
15633SOL    HW262851   3.355   8.759   7.106
15633SOL    HW362852   3.416   8.788   6.971
15633SOL    MW462853   3.376   8.814   7.043
15634SOL     OW62854   2.444   8.561   7.160
15634SOL    HW262855   2.481   8.566   7.072
15634SOL    HW362856   2.483   8.634   7.207
15634SOL    MW462857   2.454   8.571   7.155
15635SOL     OW62858   2.624   8.604   6.972
15635SOL    HW262859   2.683   8.550   7.025
15635SOL    HW362860   2.639   8.576   6.882
15635SOL    MW462861   2.634   8.593   6.968
15636SOL     OW62862   2.627   7.976   5.821
15636SOL    HW262863   2.700   8.025   5.784
15636SOL    HW362864   2.643   7.885   5.795
15636SOL    MW462865   2.639   7.971   5.814
15637SOL     OW62866   3.095   7.572   6.735
15637SOL    HW262867   3.150   7.581   6.657
15637SOL    HW362868   3.150   7.606   6.806
15637SOL    MW462869   3.109   7.577   6.734
15638SOL     OW62870   2.102   8.485   5.919
15638SOL    HW262871   2.039   8.501   5.848
15638SOL    HW362872   2.049   8.448   5.990
15638SOL    MW462873   2.087   8.482   5.919
15639SOL     OW62874   2.458   8.839   5.778
15639SOL    HW262875   2.473   8.815   5.870
15639SOL    HW362876   2.366   8.817   5.762
15639SOL    MW462877   2.448   8.832   5.788
15640SOL     OW62878   2.997   9.070   5.930
15640SOL    HW262879   3.005   8.988   5.881
15640SOL    HW362880   2.916   9.109   5.897
15640SOL    MW462881   2.987   9.065   5.920
15641SOL     OW62882   2.256   9.228   6.499
15641SOL    HW262883   2.260   9.139   6.534
15641SOL    HW362884   2.282   9.219   6.408
15641SOL    MW462885   2.259   9.216   6.491
15642SOL     OW62886   2.873   8.706   6.742
15642SOL    HW262887   2.805   8.640   6.758
15642SOL    HW362888   2.891   8.700   6.649
15642SOL    MW462889   2.866   8.697   6.733
15643SOL     OW62890   1.962   8.981   6.993
15643SOL    HW262891   1.952   8.939   7.079
15643SOL    HW362892   1.883   9.034   6.983
15643SOL    MW462893   1.951   8.982   7.004
15644SOL     OW62894   2.866   7.845   6.563
15644SOL    HW262895   2.796   7.797   6.608
15644SOL    HW362896   2.898   7.908   6.627
15644SOL    MW462897   2.861   7.847   6.577
15645SOL     OW62898   2.517   8.281   7.183
15645SOL    HW262899   2.510   8.376   7.171
15645SOL    HW362900   2.526   8.270   7.278
15645SOL    MW462901   2.518   8.293   7.193
15646SOL     OW62902   2.238   8.796   7.441
15646SOL    HW262903   2.310   8.798   7.378
15646SOL    HW362904   2.208   8.705   7.440
15646SOL    MW462905   2.243   8.785   7.433
15647SOL     OW62906   3.322   7.559   6.908
15647SOL    HW262907   3.393   7.505   6.872
15647SOL    HW362908   3.321   7.538   7.001
15647SOL    MW462909   3.331   7.550   6.916
15648SOL     OW62910   2.333   7.951   6.376
15648SOL    HW262911   2.404   7.899   6.339
15648SOL    HW362912   2.319   7.916   6.463
15648SOL    MW462913   2.341   7.940   6.383
15649SOL     OW62914   2.649   9.044   6.452
15649SOL    HW262915   2.577   8.981   6.465
15649SOL    HW362916   2.610   9.129   6.470
15649SOL    MW462917   2.633   9.047   6.455
15650SOL     OW62918   2.969   7.892   6.100
15650SOL    HW262919   2.991   7.829   6.032
15650SOL    HW362920   2.874   7.884   6.111
15650SOL    MW462921   2.959   7.883   6.092
15651SOL     OW62922   2.054   7.582   6.032
15651SOL    HW262923   2.125   7.603   5.971
15651SOL    HW362924   2.008   7.510   5.990
15651SOL    MW462925   2.058   7.576   6.018
15652SOL     OW62926   1.885   8.049   7.175
15652SOL    HW262927   1.949   8.115   7.150
15652SOL    HW362928   1.804   8.076   7.132
15652SOL    MW462929   1.883   8.061   7.167
15653SOL     OW62930   3.179   8.633   6.062
15653SOL    HW262931   3.151   8.719   6.095
15653SOL    HW362932   3.207   8.649   5.972
15653SOL    MW462933   3.179   8.647   6.054
15654SOL     OW62934   2.841   7.553   6.115
15654SOL    HW262935   2.878   7.612   6.180
15654SOL    HW362936   2.818   7.609   6.041
15654SOL    MW462937   2.842   7.568   6.114
15655SOL     OW62938   3.694   8.435   6.537
15655SOL    HW262939   3.685   8.467   6.448
15655SOL    HW362940   3.647   8.351   6.537
15655SOL    MW462941   3.687   8.428   6.527
15656SOL     OW62942   2.070   8.275   7.116
15656SOL    HW262943   2.091   8.344   7.054
15656SOL    HW362944   2.150   8.222   7.121
15656SOL    MW462945   2.083   8.276   7.110
15657SOL     OW62946   3.606   8.366   6.238
15657SOL    HW262947   3.700   8.355   6.226
15657SOL    HW362948   3.582   8.438   6.179
15657SOL    MW462949   3.616   8.374   6.229
15658SOL     OW62950   2.055   8.290   7.383
15658SOL    HW262951   1.981   8.234   7.409
15658SOL    HW362952   2.050   8.293   7.288
15658SOL    MW462953   2.044   8.283   7.373
15659SOL     OW62954   2.221   7.577   6.833
15659SOL    HW262955   2.264   7.661   6.853
15659SOL    HW362956   2.294   7.515   6.826
15659SOL    MW462957   2.236   7.580   6.834
15660SOL     OW62958   2.262   8.244   6.011
15660SOL    HW262959   2.262   8.339   5.996
15660SOL    HW362960   2.339   8.228   6.065
15660SOL    MW462961   2.272   8.255   6.016
15661SOL     OW62962   3.038   8.103   7.075
15661SOL    HW262963   3.074   8.076   6.991
15661SOL    HW362964   2.951   8.137   7.054
15661SOL    MW462965   3.032   8.104   7.062
15662SOL     OW62966   2.021   7.975   6.300
15662SOL    HW262967   2.083   7.982   6.373
15662SOL    HW362968   2.021   7.882   6.277
15662SOL    MW462969   2.029   7.964   6.307
15663SOL     OW62970   2.703   8.236   6.784
15663SOL    HW262971   2.661   8.154   6.760
15663SOL    HW362972   2.704   8.235   6.880
15663SOL    MW462973   2.696   8.225   6.793
15664SOL     OW62974   2.507   7.706   6.889
15664SOL    HW262975   2.438   7.769   6.910
15664SOL    HW362976   2.534   7.670   6.974
15664SOL    MW462977   2.501   7.709   6.902
15665SOL     OW62978   1.890   8.547   5.758
15665SOL    HW262979   1.859   8.612   5.821
15665SOL    HW362980   1.839   8.469   5.777
15665SOL    MW462981   1.880   8.544   5.768
15666SOL     OW62982   3.302   7.559   6.506
15666SOL    HW262983   3.390   7.568   6.543
15666SOL    HW362984   3.312   7.500   6.432
15666SOL    MW462985   3.316   7.553   6.500
15667SOL     OW62986   3.334   8.298   6.350
15667SOL    HW262987   3.414   8.313   6.299
15667SOL    HW362988   3.327   8.203   6.356
15667SOL    MW462989   3.343   8.287   6.345
15668SOL     OW62990   2.784   8.224   7.047
15668SOL    HW262991   2.853   8.291   7.044
15668SOL    HW362992   2.717   8.262   7.103
15668SOL    MW462993   2.785   8.237   7.054
15669SOL     OW62994   2.202   8.524   7.295
15669SOL    HW262995   2.156   8.440   7.297
15669SOL    HW362996   2.259   8.518   7.219
15669SOL    MW462997   2.204   8.512   7.287
15670SOL     OW62998   3.319   8.167   5.615
15670SOL    HW262999   3.247   8.143   5.557
15670SOL    HW363000   3.385   8.204   5.557
15670SOL    MW463001   3.318   8.169   5.600
15671SOL     OW63002   2.453   8.899   6.296
15671SOL    HW263003   2.518   8.832   6.317
15671SOL    HW363004   2.505   8.976   6.273
15671SOL    MW463005   2.468   8.901   6.295
15672SOL     OW63006   2.714   8.064   6.426
15672SOL    HW263007   2.654   8.082   6.498
15672SOL    HW363008   2.748   7.976   6.445
15672SOL    MW463009   2.710   8.054   6.439
15673SOL     OW63010   3.655   7.563   7.095
15673SOL    HW263011   3.576   7.609   7.123
15673SOL    HW363012   3.690   7.617   7.024
15673SOL    MW463013   3.649   7.576   7.089
15674SOL     OW63014   2.939   8.647   6.445
15674SOL    HW263015   3.031   8.628   6.463
15674SOL    HW363016   2.912   8.577   6.385
15674SOL    MW463017   2.947   8.635   6.439
15675SOL     OW63018   2.732   8.467   5.800
15675SOL    HW263019   2.718   8.379   5.765
15675SOL    HW363020   2.683   8.524   5.741
15675SOL    MW463021   2.724   8.462   5.788
15676SOL     OW63022   2.145   8.191   6.579
15676SOL    HW263023   2.095   8.190   6.660
15676SOL    HW363024   2.165   8.283   6.563
15676SOL    MW463025   2.141   8.203   6.587
15677SOL     OW63026   3.212   8.955   7.341
15677SOL    HW263027   3.212   9.049   7.357
15677SOL    HW363028   3.257   8.945   7.257
15677SOL    MW463029   3.218   8.965   7.332
15678SOL     OW63030   3.451   7.673   5.902
15678SOL    HW263031   3.444   7.677   5.997
15678SOL    HW363032   3.463   7.764   5.875
15678SOL    MW463033   3.452   7.686   5.910
15679SOL     OW63034   2.740   8.236   6.016
15679SOL    HW263035   2.720   8.222   5.923
15679SOL    HW363036   2.833   8.215   6.023
15679SOL    MW463037   2.750   8.231   6.005
15680SOL     OW63038   2.067   7.859   7.320
15680SOL    HW263039   2.024   7.918   7.257
15680SOL    HW363040   2.135   7.914   7.360
15680SOL    MW463041   2.071   7.874   7.317
15681SOL     OW63042   3.179   8.479   6.865
15681SOL    HW263043   3.242   8.476   6.938
15681SOL    HW363044   3.095   8.497   6.907
15681SOL    MW463045   3.175   8.481   6.880
15682SOL     OW63046   2.723   9.194   6.054
15682SOL    HW263047   2.781   9.265   6.081
15682SOL    HW363048   2.746   9.122   6.112
15682SOL    MW463049   2.734   9.194   6.065
15683SOL     OW63050   3.518   7.656   6.644
15683SOL    HW263051   3.563   7.574   6.663
15683SOL    HW363052   3.538   7.712   6.720
15683SOL    MW463053   3.528   7.652   6.656
15684SOL     OW63054   1.966   7.499   6.743
15684SOL    HW263055   1.957   7.500   6.648
15684SOL    HW363056   2.060   7.511   6.758
15684SOL    MW463057   1.978   7.502   6.734
15685SOL     OW63058   3.603   8.692   6.363
15685SOL    HW263059   3.582   8.638   6.286
15685SOL    HW363060   3.699   8.690   6.367
15685SOL    MW463061   3.612   8.685   6.352
15686SOL     OW63062   2.295   8.837   7.106
15686SOL    HW263063   2.216   8.787   7.129
15686SOL    HW363064   2.365   8.796   7.156
15686SOL    MW463065   2.293   8.825   7.116
15687SOL     OW63066   2.179   7.626   5.789
15687SOL    HW263067   2.108   7.681   5.757
15687SOL    HW363068   2.221   7.592   5.710
15687SOL    MW463069   2.175   7.628   5.775
15688SOL     OW63070   3.303   8.123   6.625
15688SOL    HW263071   3.226   8.169   6.591
15688SOL    HW363072   3.360   8.192   6.659
15688SOL    MW463073   3.300   8.138   6.625
15689SOL     OW63074   1.935   7.725   5.638
15689SOL    HW263075   1.902   7.804   5.682
15689SOL    HW363076   1.990   7.758   5.567
15689SOL    MW463077   1.938   7.739   5.635
15690SOL     OW63078   1.969   8.982   5.827
15690SOL    HW263079   1.986   9.066   5.869
15690SOL    HW363080   2.004   8.991   5.739
15690SOL    MW463081   1.974   8.995   5.821
15691SOL     OW63082   5.472   8.339   0.257
15691SOL    HW263083   5.513   8.281   0.322
15691SOL    HW363084   5.379   8.331   0.274
15691SOL    MW463085   5.466   8.331   0.267
15692SOL     OW63086   5.338   8.271   1.252
15692SOL    HW263087   5.293   8.338   1.303
15692SOL    HW363088   5.426   8.307   1.238
15692SOL    MW463089   5.344   8.284   1.256
15693SOL     OW63090   4.266   8.522   0.486
15693SOL    HW263091   4.356   8.497   0.470
15693SOL    HW363092   4.262   8.615   0.463
15693SOL    MW463093   4.278   8.531   0.481
15694SOL     OW63094   5.318   8.665   1.233
15694SOL    HW263095   5.239   8.630   1.191
15694SOL    HW363096   5.345   8.737   1.177
15694SOL    MW463097   5.311   8.670   1.220
15695SOL     OW63098   4.550   7.978   0.499
15695SOL    HW263099   4.525   8.066   0.527
15695SOL    HW363100   4.547   7.981   0.403
15695SOL    MW463101   4.546   7.990   0.491
15696SOL     OW63102   3.992   8.006   0.427
15696SOL    HW263103   4.024   8.094   0.409
15696SOL    HW363104   3.980   8.004   0.522
15696SOL    MW463105   3.995   8.018   0.439
15697SOL     OW63106   4.070   8.419   1.328
15697SOL    HW263107   4.133   8.366   1.279
15697SOL    HW363108   4.051   8.493   1.271
15697SOL    MW463109   4.076   8.421   1.315
15698SOL     OW63110   4.391   7.761   0.514
15698SOL    HW263111   4.449   7.837   0.516
15698SOL    HW363112   4.326   7.782   0.447
15698SOL    MW463113   4.390   7.773   0.505
15699SOL     OW63114   4.478   8.688   0.689
15699SOL    HW263115   4.558   8.691   0.741
15699SOL    HW363116   4.506   8.655   0.603
15699SOL    MW463117   4.492   8.684   0.684
15700SOL     OW63118   4.503   9.029   1.592
15700SOL    HW263119   4.587   9.055   1.631
15700SOL    HW363120   4.527   8.973   1.518
15700SOL    MW463121   4.517   9.025   1.587
15701SOL     OW63122   4.255   8.192   0.680
15701SOL    HW263123   4.240   8.112   0.731
15701SOL    HW363124   4.337   8.227   0.714
15701SOL    MW463125   4.263   8.184   0.692
15702SOL     OW63126   4.397   8.018   1.057
15702SOL    HW263127   4.303   8.014   1.075
15702SOL    HW363128   4.427   7.927   1.066
15702SOL    MW463129   4.388   8.006   1.060
15703SOL     OW63130   4.143   8.432   0.961
15703SOL    HW263131   4.098   8.439   0.877
15703SOL    HW363132   4.123   8.515   1.005
15703SOL    MW463133   4.135   8.444   0.955
15704SOL     OW63134   5.105   8.670   0.205
15704SOL    HW263135   5.023   8.706   0.171
15704SOL    HW363136   5.173   8.713   0.154
15704SOL    MW463137   5.103   8.680   0.193
15705SOL     OW63138   4.104   8.805   0.871
15705SOL    HW263139   4.080   8.858   0.947
15705SOL    HW363140   4.160   8.863   0.819
15705SOL    MW463141   4.108   8.820   0.874
15706SOL     OW63142   4.666   8.449   0.681
15706SOL    HW263143   4.580   8.436   0.721
15706SOL    HW363144   4.719   8.376   0.713
15706SOL    MW463145   4.662   8.438   0.690
15707SOL     OW63146   4.657   8.811   0.398
15707SOL    HW263147   4.634   8.873   0.466
15707SOL    HW363148   4.614   8.729   0.424
15707SOL    MW463149   4.649   8.807   0.409
15708SOL     OW63150   5.530   7.812   0.854
15708SOL    HW263151   5.467   7.792   0.923
15708SOL    HW363152   5.520   7.741   0.791
15708SOL    MW463153   5.520   7.799   0.855
15709SOL     OW63154   4.154   7.784   0.366
15709SOL    HW263155   4.128   7.746   0.282
15709SOL    HW363156   4.091   7.854   0.382
15709SOL    MW463157   4.143   7.787   0.357
15710SOL     OW63158   5.586   7.981   0.156
15710SOL    HW263159   5.495   7.983   0.184
15710SOL    HW363160   5.631   8.043   0.214
15710SOL    MW463161   5.579   7.989   0.166
15711SOL     OW63162   5.331   8.584   0.506
15711SOL    HW263163   5.241   8.584   0.541
15711SOL    HW363164   5.324   8.630   0.423
15711SOL    MW463165   5.318   8.590   0.500
15712SOL     OW63166   5.131   8.219   1.578
15712SOL    HW263167   5.200   8.157   1.555
15712SOL    HW363168   5.056   8.193   1.525
15712SOL    MW463169   5.131   8.206   1.569
15713SOL     OW63170   4.867   8.606   1.570
15713SOL    HW263171   4.852   8.699   1.555
15713SOL    HW363172   4.962   8.596   1.570
15713SOL    MW463173   4.876   8.616   1.567
15714SOL     OW63174   4.663   8.030   1.771
15714SOL    HW263175   4.753   8.031   1.738
15714SOL    HW363176   4.622   7.955   1.729
15714SOL    MW463177   4.669   8.020   1.762
15715SOL     OW63178   5.238   8.562   0.898
15715SOL    HW263179   5.241   8.496   0.829
15715SOL    HW363180   5.323   8.605   0.894
15715SOL    MW463181   5.250   8.558   0.889
15716SOL     OW63182   4.858   8.165   0.467
15716SOL    HW263183   4.884   8.189   0.378
15716SOL    HW363184   4.840   8.072   0.463
15716SOL    MW463185   4.860   8.157   0.454
15717SOL     OW63186   5.523   8.785   0.318
15717SOL    HW263187   5.479   8.826   0.393
15717SOL    HW363188   5.580   8.853   0.283
15717SOL    MW463189   5.525   8.799   0.323
15718SOL     OW63190   4.443   7.834   1.721
15718SOL    HW263191   4.453   7.760   1.661
15718SOL    HW363192   4.479   7.803   1.804
15718SOL    MW463193   4.449   7.820   1.723
15719SOL     OW63194   5.563   7.563   0.685
15719SOL    HW263195   5.617   7.514   0.747
15719SOL    HW363196   5.506   7.497   0.646
15719SOL    MW463197   5.563   7.547   0.687
15720SOL     OW63198   4.682   7.516   1.098
15720SOL    HW263199   4.641   7.594   1.060
15720SOL    HW363200   4.776   7.534   1.093
15720SOL    MW463201   4.688   7.528   1.093
15721SOL     OW63202   4.697   8.194   0.128
15721SOL    HW263203   4.699   8.141   0.049
15721SOL    HW363204   4.785   8.231   0.134
15721SOL    MW463205   4.709   8.193   0.117
15722SOL     OW63206   5.311   8.120   0.464
15722SOL    HW263207   5.350   8.120   0.551
15722SOL    HW363208   5.252   8.196   0.464
15722SOL    MW463209   5.308   8.131   0.475
15723SOL     OW63210   4.628   8.487   1.593
15723SOL    HW263211   4.605   8.467   1.683
15723SOL    HW363212   4.713   8.531   1.598
15723SOL    MW463213   4.635   8.490   1.605
15724SOL     OW63214   4.708   7.624   1.353
15724SOL    HW263215   4.714   7.586   1.266
15724SOL    HW363216   4.697   7.718   1.338
15724SOL    MW463217   4.709   7.632   1.341
15725SOL     OW63218   4.797   8.113   1.187
15725SOL    HW263219   4.872   8.142   1.134
15725SOL    HW363220   4.729   8.178   1.171
15725SOL    MW463221   4.798   8.125   1.177
15726SOL     OW63222   5.347   8.081   1.464
15726SOL    HW263223   5.328   7.990   1.443
15726SOL    HW363224   5.325   8.130   1.385
15726SOL    MW463225   5.342   8.074   1.451
15727SOL     OW63226   4.794   7.819   1.570
15727SOL    HW263227   4.760   7.858   1.489
15727SOL    HW363228   4.772   7.727   1.563
15727SOL    MW463229   4.787   7.812   1.560
15728SOL     OW63230   5.203   8.633   1.646
15728SOL    HW263231   5.285   8.674   1.676
15728SOL    HW363232   5.166   8.595   1.726
15728SOL    MW463233   5.209   8.634   1.661
15729SOL     OW63234   5.498   8.006   0.630
15729SOL    HW263235   5.587   7.975   0.647
15729SOL    HW363236   5.441   7.946   0.678
15729SOL    MW463237   5.501   7.994   0.639
15730SOL     OW63238   3.924   7.720   0.659
15730SOL    HW263239   3.915   7.660   0.585
15730SOL    HW363240   3.857   7.691   0.722
15730SOL    MW463241   3.914   7.707   0.657
15731SOL     OW63242   4.867   8.813   0.220
15731SOL    HW263243   4.817   8.815   0.302
15731SOL    HW363244   4.801   8.831   0.152
15731SOL    MW463245   4.853   8.815   0.222
15732SOL     OW63246   3.871   7.893   1.022
15732SOL    HW263247   3.843   7.984   1.031
15732SOL    HW363248   3.808   7.854   0.961
15732SOL    MW463249   3.858   7.899   1.016
15733SOL     OW63250   5.592   8.386   1.227
15733SOL    HW263251   5.608   8.424   1.140
15733SOL    HW363252   5.626   8.452   1.288
15733SOL    MW463253   5.599   8.399   1.223
15734SOL     OW63254   3.855   8.168   1.192
15734SOL    HW263255   3.917   8.198   1.258
15734SOL    HW363256   3.789   8.237   1.186
15734SOL    MW463257   3.854   8.181   1.199
15735SOL     OW63258   4.496   7.725   0.100
15735SOL    HW263259   4.444   7.645   0.088
15735SOL    HW363260   4.583   7.702   0.068
15735SOL    MW463261   4.499   7.711   0.094
15736SOL     OW63262   4.002   8.596   1.151
15736SOL    HW263263   4.055   8.671   1.176
15736SOL    HW363264   3.921   8.634   1.117
15736SOL    MW463265   3.998   8.611   1.151
15737SOL     OW63266   4.542   8.500   1.139
15737SOL    HW263267   4.570   8.409   1.151
15737SOL    HW363268   4.471   8.494   1.075
15737SOL    MW463269   4.535   8.488   1.134
15738SOL     OW63270   3.857   8.365   0.557
15738SOL    HW263271   3.948   8.380   0.584
15738SOL    HW363272   3.860   8.286   0.503
15738SOL    MW463273   3.869   8.357   0.555
15739SOL     OW63274   4.093   8.073   1.811
15739SOL    HW263275   4.040   8.153   1.818
15739SOL    HW363276   4.163   8.085   1.876
15739SOL    MW463277   4.095   8.086   1.819
15740SOL     OW63278   4.479   7.623   1.518
15740SOL    HW263279   4.456   7.531   1.520
15740SOL    HW363280   4.565   7.625   1.475
15740SOL    MW463281   4.486   7.613   1.514
15741SOL     OW63282   4.163   8.147   1.557
15741SOL    HW263283   4.243   8.197   1.543
15741SOL    HW363284   4.154   8.141   1.652
15741SOL    MW463285   4.172   8.153   1.567
15742SOL     OW63286   5.140   7.672   1.828
15742SOL    HW263287   5.196   7.599   1.854
15742SOL    HW363288   5.110   7.710   1.910
15742SOL    MW463289   5.144   7.667   1.841
15743SOL     OW63290   4.698   9.020   0.631
15743SOL    HW263291   4.781   8.974   0.615
15743SOL    HW363292   4.688   9.019   0.727
15743SOL    MW463293   4.708   9.013   0.641
15744SOL     OW63294   5.530   8.165   0.945
15744SOL    HW263295   5.619   8.195   0.927
15744SOL    HW363296   5.510   8.105   0.874
15744SOL    MW463297   5.539   8.162   0.934
15745SOL     OW63298   5.381   8.344   1.825
15745SOL    HW263299   5.436   8.268   1.806
15745SOL    HW363300   5.383   8.352   1.920
15745SOL    MW463301   5.389   8.335   1.833
15746SOL     OW63302   4.431   9.077   0.036
15746SOL    HW263303   4.371   9.146   0.006
15746SOL    HW363304   4.376   9.019   0.089
15746SOL    MW463305   4.415   9.079   0.038
15747SOL     OW63306   4.869   7.722   0.259
15747SOL    HW263307   4.802   7.698   0.196
15747SOL    HW363308   4.934   7.771   0.208
15747SOL    MW463309   4.869   7.724   0.244
15748SOL     OW63310   4.676   7.906   1.344
15748SOL    HW263311   4.595   7.947   1.372
15748SOL    HW363312   4.723   7.974   1.296
15748SOL    MW463313   4.671   7.921   1.342
15749SOL     OW63314   4.936   8.244   0.967
15749SOL    HW263315   4.949   8.338   0.977
15749SOL    HW363316   4.897   8.234   0.881
15749SOL    MW463317   4.932   8.255   0.957
15750SOL     OW63318   4.388   8.439   0.771
15750SOL    HW263319   4.299   8.430   0.804
15750SOL    HW363320   4.392   8.529   0.739
15750SOL    MW463321   4.377   8.450   0.771
15751SOL     OW63322   5.187   8.022   0.766
15751SOL    HW263323   5.132   7.943   0.765
15751SOL    HW363324   5.169   8.063   0.850
15751SOL    MW463325   5.177   8.017   0.775
15752SOL     OW63326   4.158   7.709   1.583
15752SOL    HW263327   4.079   7.727   1.635
15752SOL    HW363328   4.153   7.771   1.510
15752SOL    MW463329   4.148   7.719   1.580
15753SOL     OW63330   4.806   8.226   0.723
15753SOL    HW263331   4.743   8.158   0.747
15753SOL    HW363332   4.826   8.207   0.631
15753SOL    MW463333   4.800   8.213   0.715
15754SOL     OW63334   4.554   8.530   0.449
15754SOL    HW263335   4.556   8.504   0.356
15754SOL    HW363336   4.612   8.467   0.492
15754SOL    MW463337   4.562   8.519   0.443
15755SOL     OW63338   5.064   7.774   0.782
15755SOL    HW263339   5.092   7.706   0.843
15755SOL    HW363340   4.978   7.745   0.752
15755SOL    MW463341   5.057   7.761   0.786
15756SOL     OW63342   3.869   8.708   0.716
15756SOL    HW263343   3.933   8.740   0.779
15756SOL    HW363344   3.918   8.644   0.664
15756SOL    MW463345   3.884   8.704   0.717
15757SOL     OW63346   5.044   7.878   0.117
15757SOL    HW263347   5.017   7.944   0.053
15757SOL    HW363348   5.114   7.921   0.167
15757SOL    MW463349   5.049   7.891   0.114
15758SOL     OW63350   4.712   7.583   0.054
15758SOL    HW263351   4.768   7.575  -0.024
15758SOL    HW363352   4.689   7.493   0.076
15758SOL    MW463353   4.717   7.570   0.047
15759SOL     OW63354   5.217   8.434   0.259
15759SOL    HW263355   5.184   8.523   0.249
15759SOL    HW363356   5.182   8.405   0.344
15759SOL    MW463357   5.207   8.443   0.270
15760SOL     OW63358   4.123   7.531   1.789
15760SOL    HW263359   4.051   7.496   1.737
15760SOL    HW363360   4.181   7.572   1.724
15760SOL    MW463361   4.121   7.532   1.774
15761SOL     OW63362   5.587   8.550   1.442
15761SOL    HW263363   5.502   8.563   1.401
15761SOL    HW363364   5.567   8.514   1.529
15761SOL    MW463365   5.574   8.546   1.447
15762SOL     OW63366   4.864   8.445   0.294
15762SOL    HW263367   4.774   8.466   0.269
15762SOL    HW363368   4.891   8.518   0.350
15762SOL    MW463369   4.856   8.457   0.297
15763SOL     OW63370   4.364   8.794   0.986
15763SOL    HW263371   4.357   8.773   1.080
15763SOL    HW363372   4.282   8.762   0.949
15763SOL    MW463373   4.352   8.788   0.993
15764SOL     OW63374   5.228   7.804   1.388
15764SOL    HW263375   5.175   7.806   1.468
15764SOL    HW363376   5.213   7.717   1.351
15764SOL    MW463377   5.220   7.794   1.393
15765SOL     OW63378   5.564   7.728   1.261
15765SOL    HW263379   5.545   7.795   1.196
15765SOL    HW363380   5.621   7.666   1.216
15765SOL    MW463381   5.568   7.729   1.247
15766SOL     OW63382   4.493   7.561   0.701
15766SOL    HW263383   4.422   7.622   0.683
15766SOL    HW363384   4.544   7.558   0.620
15766SOL    MW463385   4.489   7.567   0.688
15767SOL     OW63386   4.453   8.218   1.831
15767SOL    HW263387   4.523   8.160   1.803
15767SOL    HW363388   4.396   8.163   1.886
15767SOL    MW463389   4.455   8.205   1.835
15768SOL     OW63390   5.240   8.430   1.464
15768SOL    HW263391   5.245   8.483   1.544
15768SOL    HW363392   5.202   8.347   1.492
15768SOL    MW463393   5.236   8.425   1.479
15769SOL     OW63394   4.880   7.565   1.710
15769SOL    HW263395   4.875   7.472   1.691
15769SOL    HW363396   4.963   7.576   1.756
15769SOL    MW463397   4.888   7.554   1.714
15770SOL     OW63398   4.254   8.085   0.164
15770SOL    HW263399   4.220   8.141   0.234
15770SOL    HW363400   4.325   8.035   0.204
15770SOL    MW463401   4.260   8.086   0.178
15771SOL     OW63402   5.350   8.836   0.986
15771SOL    HW263403   5.385   8.818   0.899
15771SOL    HW363404   5.255   8.837   0.973
15771SOL    MW463405   5.342   8.833   0.973
15772SOL     OW63406   4.779   8.484   1.355
15772SOL    HW263407   4.822   8.519   1.433
15772SOL    HW363408   4.762   8.561   1.301
15772SOL    MW463409   4.782   8.499   1.358
15773SOL     OW63410   5.310   7.971   0.228
15773SOL    HW263411   5.302   8.042   0.165
15773SOL    HW363412   5.328   8.015   0.311
15773SOL    MW463413   5.311   7.985   0.230
15774SOL     OW63414   4.170   7.626   0.657
15774SOL    HW263415   4.220   7.669   0.588
15774SOL    HW363416   4.085   7.670   0.657
15774SOL    MW463417   4.167   7.639   0.648
15775SOL     OW63418   3.929   8.688   1.517
15775SOL    HW263419   3.957   8.641   1.595
15775SOL    HW363420   3.850   8.643   1.488
15775SOL    MW463421   3.922   8.677   1.523
15776SOL     OW63422   4.437   8.015   1.484
15776SOL    HW263423   4.409   8.103   1.508
15776SOL    HW363424   4.406   7.959   1.555
15776SOL    MW463425   4.429   8.018   1.496
15777SOL     OW63426   4.979   8.233   0.203
15777SOL    HW263427   5.026   8.251   0.122
15777SOL    HW363428   4.945   8.317   0.231
15777SOL    MW463429   4.981   8.247   0.196
15778SOL     OW63430   4.092   8.411   0.697
15778SOL    HW263431   4.150   8.467   0.645
15778SOL    HW363432   4.136   8.326   0.699
15778SOL    MW463433   4.105   8.408   0.690
15779SOL     OW63434   5.232   7.763   0.534
15779SOL    HW263435   5.154   7.713   0.559
15779SOL    HW363436   5.203   7.854   0.534
15779SOL    MW463437   5.218   7.767   0.537
15780SOL     OW63438   4.818   7.725   0.693
15780SOL    HW263439   4.838   7.800   0.637
15780SOL    HW363440   4.798   7.764   0.778
15780SOL    MW463441   4.819   7.741   0.697
15781SOL     OW63442   4.714   8.975   0.025
15781SOL    HW263443   4.741   9.053  -0.023
15781SOL    HW363444   4.621   8.990   0.044
15781SOL    MW463445   4.705   8.988   0.021
15782SOL     OW63446   5.578   8.498   1.712
15782SOL    HW263447   5.491   8.478   1.748
15782SOL    HW363448   5.632   8.424   1.737
15782SOL    MW463449   5.573   8.487   1.720
15783SOL     OW63450   3.754   8.137   0.416
15783SOL    HW263451   3.694   8.109   0.486
15783SOL    HW363452   3.828   8.077   0.422
15783SOL    MW463453   3.756   8.126   0.425
15784SOL     OW63454   4.180   7.876   1.305
15784SOL    HW263455   4.213   7.957   1.345
15784SOL    HW363456   4.153   7.902   1.217
15784SOL    MW463457   4.179   7.890   1.299
15785SOL     OW63458   4.134   7.843   1.041
15785SOL    HW263459   4.164   7.757   1.012
15785SOL    HW363460   4.039   7.836   1.044
15785SOL    MW463461   4.126   7.832   1.039
15786SOL     OW63462   4.963   8.052   1.732
15786SOL    HW263463   5.015   7.987   1.685
15786SOL    HW363464   4.921   8.103   1.662
15786SOL    MW463465   4.964   8.049   1.715
15787SOL     OW63466   5.062   7.847   1.593
15787SOL    HW263467   4.969   7.831   1.580
15787SOL    HW363468   5.088   7.785   1.661
15787SOL    MW463469   5.052   7.837   1.600
15788SOL     OW63470   4.277   7.621   0.932
15788SOL    HW263471   4.287   7.530   0.958
15788SOL    HW363472   4.233   7.617   0.847
15788SOL    MW463473   4.273   7.609   0.924
15789SOL     OW63474   5.428   7.943   1.103
15789SOL    HW263475   5.361   7.976   1.163
15789SOL    HW363476   5.471   8.021   1.069
15789SOL    MW463477   5.426   7.958   1.107
15790SOL     OW63478   5.606   8.663   1.073
15790SOL    HW263479   5.599   8.603   0.998
15790SOL    HW363480   5.532   8.723   1.062
15790SOL    MW463481   5.596   8.663   1.062
15791SOL     OW63482   4.988   8.525   0.991
15791SOL    HW263483   5.002   8.497   1.082
15791SOL    HW363484   5.074   8.556   0.963
15791SOL    MW463485   5.001   8.526   1.000
15792SOL     OW63486   5.071   8.020   1.270
15792SOL    HW263487   5.092   8.021   1.177
15792SOL    HW363488   5.116   7.942   1.303
15792SOL    MW463489   5.078   8.010   1.262
15793SOL     OW63490   5.564   8.151   1.812
15793SOL    HW263491   5.601   8.096   1.881
15793SOL    HW363492   5.589   8.108   1.730
15793SOL    MW463493   5.571   8.139   1.811
15794SOL     OW63494   5.111   8.449   1.863
15794SOL    HW263495   5.177   8.397   1.817
15794SOL    HW363496   5.131   8.436   1.956
15794SOL    MW463497   5.122   8.440   1.870
15795SOL     OW63498   5.062   7.535   0.212
15795SOL    HW263499   5.136   7.579   0.255
15795SOL    HW363500   4.986   7.589   0.234
15795SOL    MW463501   5.062   7.547   0.220
15796SOL     OW63502   5.122   8.310   0.490
15796SOL    HW263503   5.037   8.280   0.460
15796SOL    HW363504   5.114   8.317   0.585
15796SOL    MW463505   5.110   8.308   0.499
15797SOL     OW63506   4.482   7.753   1.044
15797SOL    HW263507   4.455   7.755   1.135
15797SOL    HW363508   4.412   7.705   0.999
15797SOL    MW463509   4.470   7.749   1.051
15798SOL     OW63510   5.238   8.830   1.438
15798SOL    HW263511   5.223   8.759   1.501
15798SOL    HW363512   5.284   8.788   1.366
15798SOL    MW463513   5.244   8.814   1.438
15799SOL     OW63514   4.312   8.561   1.555
15799SOL    HW263515   4.349   8.566   1.467
15799SOL    HW363516   4.351   8.634   1.602
15799SOL    MW463517   4.322   8.571   1.550
15800SOL     OW63518   4.492   8.604   1.367
15800SOL    HW263519   4.551   8.550   1.420
15800SOL    HW363520   4.507   8.576   1.277
15800SOL    MW463521   4.502   8.593   1.363
15801SOL     OW63522   4.495   7.976   0.216
15801SOL    HW263523   4.568   8.025   0.179
15801SOL    HW363524   4.511   7.885   0.190
15801SOL    MW463525   4.507   7.971   0.209
15802SOL     OW63526   4.963   7.572   1.130
15802SOL    HW263527   5.018   7.581   1.052
15802SOL    HW363528   5.018   7.606   1.201
15802SOL    MW463529   4.977   7.577   1.129
15803SOL     OW63530   3.970   8.485   0.314
15803SOL    HW263531   3.907   8.501   0.243
15803SOL    HW363532   3.917   8.448   0.385
15803SOL    MW463533   3.955   8.482   0.314
15804SOL     OW63534   4.326   8.839   0.173
15804SOL    HW263535   4.341   8.815   0.265
15804SOL    HW363536   4.234   8.817   0.157
15804SOL    MW463537   4.316   8.832   0.183
15805SOL     OW63538   4.741   8.706   1.137
15805SOL    HW263539   4.673   8.640   1.153
15805SOL    HW363540   4.759   8.700   1.044
15805SOL    MW463541   4.734   8.697   1.128
15806SOL     OW63542   4.734   7.845   0.958
15806SOL    HW263543   4.664   7.797   1.003
15806SOL    HW363544   4.766   7.908   1.022
15806SOL    MW463545   4.729   7.847   0.972
15807SOL     OW63546   4.385   8.281   1.578
15807SOL    HW263547   4.378   8.376   1.566
15807SOL    HW363548   4.394   8.270   1.673
15807SOL    MW463549   4.386   8.293   1.588
15808SOL     OW63550   5.190   7.559   1.303
15808SOL    HW263551   5.261   7.505   1.267
15808SOL    HW363552   5.189   7.538   1.396
15808SOL    MW463553   5.199   7.550   1.311
15809SOL     OW63554   4.201   7.951   0.771
15809SOL    HW263555   4.272   7.899   0.734
15809SOL    HW363556   4.187   7.916   0.858
15809SOL    MW463557   4.209   7.940   0.778
15810SOL     OW63558   4.837   7.892   0.495
15810SOL    HW263559   4.859   7.829   0.427
15810SOL    HW363560   4.742   7.884   0.506
15810SOL    MW463561   4.827   7.883   0.487
15811SOL     OW63562   3.922   7.582   0.427
15811SOL    HW263563   3.993   7.603   0.366
15811SOL    HW363564   3.876   7.510   0.385
15811SOL    MW463565   3.926   7.576   0.413
15812SOL     OW63566   3.753   8.049   1.570
15812SOL    HW263567   3.817   8.115   1.545
15812SOL    HW363568   3.672   8.076   1.527
15812SOL    MW463569   3.751   8.061   1.562
15813SOL     OW63570   5.047   8.633   0.457
15813SOL    HW263571   5.019   8.719   0.490
15813SOL    HW363572   5.075   8.649   0.367
15813SOL    MW463573   5.047   8.647   0.449
15814SOL     OW63574   4.709   7.553   0.510
15814SOL    HW263575   4.746   7.612   0.575
15814SOL    HW363576   4.686   7.609   0.436
15814SOL    MW463577   4.710   7.568   0.509
15815SOL     OW63578   5.562   8.435   0.932
15815SOL    HW263579   5.553   8.467   0.843
15815SOL    HW363580   5.515   8.351   0.932
15815SOL    MW463581   5.555   8.428   0.922
15816SOL     OW63582   3.938   8.275   1.511
15816SOL    HW263583   3.959   8.344   1.449
15816SOL    HW363584   4.018   8.222   1.516
15816SOL    MW463585   3.951   8.276   1.505
15817SOL     OW63586   5.474   8.366   0.633
15817SOL    HW263587   5.568   8.355   0.621
15817SOL    HW363588   5.450   8.438   0.574
15817SOL    MW463589   5.484   8.374   0.624
15818SOL     OW63590   3.923   8.290   1.778
15818SOL    HW263591   3.849   8.234   1.804
15818SOL    HW363592   3.918   8.293   1.683
15818SOL    MW463593   3.912   8.283   1.768
15819SOL     OW63594   4.089   7.577   1.228
15819SOL    HW263595   4.132   7.661   1.248
15819SOL    HW363596   4.162   7.515   1.221
15819SOL    MW463597   4.104   7.580   1.229
15820SOL     OW63598   4.130   8.244   0.406
15820SOL    HW263599   4.130   8.339   0.391
15820SOL    HW363600   4.207   8.228   0.460
15820SOL    MW463601   4.140   8.255   0.411
15821SOL     OW63602   4.906   8.103   1.470
15821SOL    HW263603   4.942   8.076   1.386
15821SOL    HW363604   4.819   8.137   1.449
15821SOL    MW463605   4.900   8.104   1.457
15822SOL     OW63606   3.889   7.975   0.695
15822SOL    HW263607   3.951   7.982   0.768
15822SOL    HW363608   3.889   7.882   0.672
15822SOL    MW463609   3.897   7.964   0.702
15823SOL     OW63610   4.571   8.236   1.179
15823SOL    HW263611   4.529   8.154   1.155
15823SOL    HW363612   4.572   8.235   1.275
15823SOL    MW463613   4.564   8.225   1.188
15824SOL     OW63614   4.375   7.706   1.284
15824SOL    HW263615   4.306   7.769   1.305
15824SOL    HW363616   4.402   7.670   1.369
15824SOL    MW463617   4.369   7.709   1.297
15825SOL     OW63618   3.758   8.547   0.153
15825SOL    HW263619   3.727   8.612   0.216
15825SOL    HW363620   3.707   8.469   0.172
15825SOL    MW463621   3.748   8.544   0.163
15826SOL     OW63622   5.170   7.559   0.901
15826SOL    HW263623   5.258   7.568   0.938
15826SOL    HW363624   5.180   7.500   0.827
15826SOL    MW463625   5.184   7.553   0.895
15827SOL     OW63626   5.202   8.298   0.745
15827SOL    HW263627   5.282   8.313   0.694
15827SOL    HW363628   5.195   8.203   0.751
15827SOL    MW463629   5.211   8.287   0.740
15828SOL     OW63630   4.652   8.224   1.442
15828SOL    HW263631   4.721   8.291   1.439
15828SOL    HW363632   4.585   8.262   1.498
15828SOL    MW463633   4.653   8.237   1.449
15829SOL     OW63634   4.070   8.524   1.690
15829SOL    HW263635   4.024   8.440   1.692
15829SOL    HW363636   4.127   8.518   1.614
15829SOL    MW463637   4.072   8.512   1.682
15830SOL     OW63638   5.187   8.167   0.011
15830SOL    HW263639   5.115   8.143  -0.047
15830SOL    HW363640   5.253   8.204  -0.047
15830SOL    MW463641   5.186   8.169  -0.004
15831SOL     OW63642   4.321   8.899   0.691
15831SOL    HW263643   4.386   8.832   0.712
15831SOL    HW363644   4.373   8.976   0.668
15831SOL    MW463645   4.336   8.901   0.690
15832SOL     OW63646   4.582   8.064   0.821
15832SOL    HW263647   4.522   8.082   0.893
15832SOL    HW363648   4.616   7.976   0.840
15832SOL    MW463649   4.578   8.054   0.834
15833SOL     OW63650   5.523   7.563   1.490
15833SOL    HW263651   5.444   7.609   1.518
15833SOL    HW363652   5.558   7.617   1.419
15833SOL    MW463653   5.517   7.576   1.484
15834SOL     OW63654   4.807   8.647   0.840
15834SOL    HW263655   4.899   8.628   0.858
15834SOL    HW363656   4.780   8.577   0.780
15834SOL    MW463657   4.815   8.635   0.834
15835SOL     OW63658   4.600   8.467   0.195
15835SOL    HW263659   4.586   8.379   0.160
15835SOL    HW363660   4.551   8.524   0.136
15835SOL    MW463661   4.592   8.462   0.183
15836SOL     OW63662   4.013   8.191   0.974
15836SOL    HW263663   3.963   8.190   1.055
15836SOL    HW363664   4.033   8.283   0.958
15836SOL    MW463665   4.009   8.203   0.982
15837SOL     OW63666   5.080   8.955   1.736
15837SOL    HW263667   5.080   9.049   1.752
15837SOL    HW363668   5.125   8.945   1.652
15837SOL    MW463669   5.086   8.965   1.727
15838SOL     OW63670   5.319   7.673   0.297
15838SOL    HW263671   5.312   7.677   0.392
15838SOL    HW363672   5.331   7.764   0.270
15838SOL    MW463673   5.320   7.686   0.305
15839SOL     OW63674   4.608   8.236   0.411
15839SOL    HW263675   4.588   8.222   0.318
15839SOL    HW363676   4.701   8.215   0.418
15839SOL    MW463677   4.618   8.231   0.400
15840SOL     OW63678   3.935   7.859   1.715
15840SOL    HW263679   3.892   7.918   1.652
15840SOL    HW363680   4.003   7.914   1.755
15840SOL    MW463681   3.939   7.874   1.712
15841SOL     OW63682   5.047   8.479   1.260
15841SOL    HW263683   5.110   8.476   1.333
15841SOL    HW363684   4.963   8.497   1.302
15841SOL    MW463685   5.043   8.481   1.275
15842SOL     OW63686   5.386   7.656   1.039
15842SOL    HW263687   5.431   7.574   1.058
15842SOL    HW363688   5.406   7.712   1.115
15842SOL    MW463689   5.396   7.652   1.051
15843SOL     OW63690   3.834   7.499   1.138
15843SOL    HW263691   3.825   7.500   1.043
15843SOL    HW363692   3.928   7.511   1.153
15843SOL    MW463693   3.846   7.502   1.129
15844SOL     OW63694   5.471   8.692   0.758
15844SOL    HW263695   5.450   8.638   0.681
15844SOL    HW363696   5.567   8.690   0.762
15844SOL    MW463697   5.480   8.685   0.747
15845SOL     OW63698   4.163   8.837   1.501
15845SOL    HW263699   4.084   8.787   1.524
15845SOL    HW363700   4.233   8.796   1.551
15845SOL    MW463701   4.161   8.825   1.511
15846SOL     OW63702   4.047   7.626   0.184
15846SOL    HW263703   3.976   7.681   0.152
15846SOL    HW363704   4.089   7.592   0.105
15846SOL    MW463705   4.043   7.628   0.170
15847SOL     OW63706   5.171   8.123   1.020
15847SOL    HW263707   5.094   8.169   0.986
15847SOL    HW363708   5.228   8.192   1.054
15847SOL    MW463709   5.168   8.138   1.020
15848SOL     OW63710   3.803   7.725   0.033
15848SOL    HW263711   3.770   7.804   0.077
15848SOL    HW363712   3.858   7.758  -0.038
15848SOL    MW463713   3.806   7.739   0.030
15849SOL     OW63714   5.472   8.339   2.125
15849SOL    HW263715   5.513   8.281   2.190
15849SOL    HW363716   5.379   8.331   2.142
15849SOL    MW463717   5.466   8.331   2.135
15850SOL     OW63718   5.338   8.271   3.120
15850SOL    HW263719   5.293   8.338   3.171
15850SOL    HW363720   5.426   8.307   3.106
15850SOL    MW463721   5.344   8.284   3.124
15851SOL     OW63722   4.266   8.522   2.354
15851SOL    HW263723   4.356   8.497   2.338
15851SOL    HW363724   4.262   8.615   2.331
15851SOL    MW463725   4.278   8.531   2.349
15852SOL     OW63726   5.318   8.665   3.101
15852SOL    HW263727   5.239   8.630   3.059
15852SOL    HW363728   5.345   8.737   3.045
15852SOL    MW463729   5.311   8.670   3.088
15853SOL     OW63730   4.550   7.978   2.367
15853SOL    HW263731   4.525   8.066   2.395
15853SOL    HW363732   4.547   7.981   2.271
15853SOL    MW463733   4.546   7.990   2.359
15854SOL     OW63734   3.992   8.006   2.295
15854SOL    HW263735   4.024   8.094   2.277
15854SOL    HW363736   3.980   8.004   2.390
15854SOL    MW463737   3.995   8.018   2.307
15855SOL     OW63738   4.070   8.419   3.196
15855SOL    HW263739   4.133   8.366   3.147
15855SOL    HW363740   4.051   8.493   3.139
15855SOL    MW463741   4.076   8.421   3.183
15856SOL     OW63742   4.391   7.761   2.382
15856SOL    HW263743   4.449   7.837   2.384
15856SOL    HW363744   4.326   7.782   2.315
15856SOL    MW463745   4.390   7.773   2.373
15857SOL     OW63746   4.478   8.688   2.557
15857SOL    HW263747   4.558   8.691   2.609
15857SOL    HW363748   4.506   8.655   2.471
15857SOL    MW463749   4.492   8.684   2.552
15858SOL     OW63750   4.503   9.029   3.460
15858SOL    HW263751   4.587   9.055   3.499
15858SOL    HW363752   4.527   8.973   3.386
15858SOL    MW463753   4.517   9.025   3.455
15859SOL     OW63754   4.255   8.192   2.548
15859SOL    HW263755   4.240   8.112   2.599
15859SOL    HW363756   4.337   8.227   2.582
15859SOL    MW463757   4.263   8.184   2.560
15860SOL     OW63758   4.397   8.018   2.925
15860SOL    HW263759   4.303   8.014   2.943
15860SOL    HW363760   4.427   7.927   2.934
15860SOL    MW463761   4.388   8.006   2.928
15861SOL     OW63762   4.143   8.432   2.829
15861SOL    HW263763   4.098   8.439   2.745
15861SOL    HW363764   4.123   8.515   2.873
15861SOL    MW463765   4.135   8.444   2.823
15862SOL     OW63766   5.105   8.670   2.073
15862SOL    HW263767   5.023   8.706   2.039
15862SOL    HW363768   5.173   8.713   2.022
15862SOL    MW463769   5.103   8.680   2.061
15863SOL     OW63770   4.104   8.805   2.739
15863SOL    HW263771   4.080   8.858   2.815
15863SOL    HW363772   4.160   8.863   2.687
15863SOL    MW463773   4.108   8.820   2.742
15864SOL     OW63774   4.666   8.449   2.549
15864SOL    HW263775   4.580   8.436   2.589
15864SOL    HW363776   4.719   8.376   2.581
15864SOL    MW463777   4.662   8.438   2.558
15865SOL     OW63778   4.657   8.811   2.266
15865SOL    HW263779   4.634   8.873   2.334
15865SOL    HW363780   4.614   8.729   2.292
15865SOL    MW463781   4.649   8.807   2.277
15866SOL     OW63782   5.530   7.812   2.722
15866SOL    HW263783   5.467   7.792   2.791
15866SOL    HW363784   5.520   7.741   2.659
15866SOL    MW463785   5.520   7.799   2.723
15867SOL     OW63786   4.154   7.784   2.234
15867SOL    HW263787   4.128   7.746   2.150
15867SOL    HW363788   4.091   7.854   2.250
15867SOL    MW463789   4.143   7.787   2.225
15868SOL     OW63790   3.989   8.745   2.271
15868SOL    HW263791   3.937   8.813   2.227
15868SOL    HW363792   3.986   8.671   2.211
15868SOL    MW463793   3.981   8.744   2.258
15869SOL     OW63794   5.586   7.981   2.024
15869SOL    HW263795   5.495   7.983   2.052
15869SOL    HW363796   5.631   8.043   2.082
15869SOL    MW463797   5.579   7.989   2.034
15870SOL     OW63798   5.331   8.584   2.374
15870SOL    HW263799   5.241   8.584   2.409
15870SOL    HW363800   5.324   8.630   2.291
15870SOL    MW463801   5.318   8.590   2.368
15871SOL     OW63802   5.131   8.219   3.446
15871SOL    HW263803   5.200   8.157   3.423
15871SOL    HW363804   5.056   8.193   3.393
15871SOL    MW463805   5.131   8.206   3.437
15872SOL     OW63806   4.867   8.606   3.438
15872SOL    HW263807   4.852   8.699   3.423
15872SOL    HW363808   4.962   8.596   3.438
15872SOL    MW463809   4.876   8.616   3.435
15873SOL     OW63810   4.663   8.030   3.639
15873SOL    HW263811   4.753   8.031   3.606
15873SOL    HW363812   4.622   7.955   3.597
15873SOL    MW463813   4.669   8.020   3.630
15874SOL     OW63814   5.238   8.562   2.766
15874SOL    HW263815   5.241   8.496   2.697
15874SOL    HW363816   5.323   8.605   2.762
15874SOL    MW463817   5.250   8.558   2.757
15875SOL     OW63818   4.858   8.165   2.335
15875SOL    HW263819   4.884   8.189   2.246
15875SOL    HW363820   4.840   8.072   2.331
15875SOL    MW463821   4.860   8.157   2.322
15876SOL     OW63822   5.523   8.785   2.186
15876SOL    HW263823   5.479   8.826   2.261
15876SOL    HW363824   5.580   8.853   2.151
15876SOL    MW463825   5.525   8.799   2.191
15877SOL     OW63826   4.443   7.834   3.589
15877SOL    HW263827   4.453   7.760   3.529
15877SOL    HW363828   4.479   7.803   3.672
15877SOL    MW463829   4.449   7.820   3.591
15878SOL     OW63830   5.563   7.563   2.553
15878SOL    HW263831   5.617   7.514   2.615
15878SOL    HW363832   5.506   7.497   2.514
15878SOL    MW463833   5.563   7.547   2.555
15879SOL     OW63834   4.682   7.516   2.966
15879SOL    HW263835   4.641   7.594   2.928
15879SOL    HW363836   4.776   7.534   2.961
15879SOL    MW463837   4.688   7.528   2.961
15880SOL     OW63838   4.697   8.194   1.996
15880SOL    HW263839   4.699   8.141   1.917
15880SOL    HW363840   4.785   8.231   2.002
15880SOL    MW463841   4.709   8.193   1.985
15881SOL     OW63842   5.311   8.120   2.332
15881SOL    HW263843   5.350   8.120   2.419
15881SOL    HW363844   5.252   8.196   2.332
15881SOL    MW463845   5.308   8.131   2.343
15882SOL     OW63846   4.628   8.487   3.461
15882SOL    HW263847   4.605   8.467   3.551
15882SOL    HW363848   4.713   8.531   3.466
15882SOL    MW463849   4.635   8.490   3.473
15883SOL     OW63850   4.708   7.624   3.221
15883SOL    HW263851   4.714   7.586   3.134
15883SOL    HW363852   4.697   7.718   3.206
15883SOL    MW463853   4.709   7.632   3.209
15884SOL     OW63854   4.797   8.113   3.055
15884SOL    HW263855   4.872   8.142   3.002
15884SOL    HW363856   4.729   8.178   3.039
15884SOL    MW463857   4.798   8.125   3.045
15885SOL     OW63858   5.347   8.081   3.332
15885SOL    HW263859   5.328   7.990   3.311
15885SOL    HW363860   5.325   8.130   3.253
15885SOL    MW463861   5.342   8.074   3.319
15886SOL     OW63862   4.794   7.819   3.438
15886SOL    HW263863   4.760   7.858   3.357
15886SOL    HW363864   4.772   7.727   3.431
15886SOL    MW463865   4.787   7.812   3.428
15887SOL     OW63866   5.203   8.633   3.514
15887SOL    HW263867   5.285   8.674   3.544
15887SOL    HW363868   5.166   8.595   3.594
15887SOL    MW463869   5.209   8.634   3.529
15888SOL     OW63870   5.498   8.006   2.498
15888SOL    HW263871   5.587   7.975   2.515
15888SOL    HW363872   5.441   7.946   2.546
15888SOL    MW463873   5.501   7.994   2.507
15889SOL     OW63874   3.924   7.720   2.527
15889SOL    HW263875   3.915   7.660   2.453
15889SOL    HW363876   3.857   7.691   2.590
15889SOL    MW463877   3.914   7.707   2.525
15890SOL     OW63878   4.867   8.813   2.088
15890SOL    HW263879   4.817   8.815   2.170
15890SOL    HW363880   4.801   8.831   2.020
15890SOL    MW463881   4.853   8.815   2.090
15891SOL     OW63882   3.871   7.893   2.890
15891SOL    HW263883   3.843   7.984   2.899
15891SOL    HW363884   3.808   7.854   2.829
15891SOL    MW463885   3.858   7.899   2.884
15892SOL     OW63886   4.466   8.646   1.903
15892SOL    HW263887   4.388   8.592   1.890
15892SOL    HW363888   4.437   8.719   1.956
15892SOL    MW463889   4.452   8.648   1.908
15893SOL     OW63890   5.592   8.386   3.095
15893SOL    HW263891   5.608   8.424   3.008
15893SOL    HW363892   5.626   8.452   3.156
15893SOL    MW463893   5.599   8.399   3.091
15894SOL     OW63894   3.855   8.168   3.060
15894SOL    HW263895   3.917   8.198   3.126
15894SOL    HW363896   3.789   8.237   3.054
15894SOL    MW463897   3.854   8.181   3.067
15895SOL     OW63898   4.496   7.725   1.968
15895SOL    HW263899   4.444   7.645   1.956
15895SOL    HW363900   4.583   7.702   1.936
15895SOL    MW463901   4.499   7.711   1.962
15896SOL     OW63902   4.002   8.596   3.019
15896SOL    HW263903   4.055   8.671   3.044
15896SOL    HW363904   3.921   8.634   2.985
15896SOL    MW463905   3.998   8.611   3.019
15897SOL     OW63906   4.542   8.500   3.007
15897SOL    HW263907   4.570   8.409   3.019
15897SOL    HW363908   4.471   8.494   2.943
15897SOL    MW463909   4.535   8.488   3.002
15898SOL     OW63910   3.857   8.365   2.425
15898SOL    HW263911   3.948   8.380   2.452
15898SOL    HW363912   3.860   8.286   2.371
15898SOL    MW463913   3.869   8.357   2.423
15899SOL     OW63914   4.093   8.073   3.679
15899SOL    HW263915   4.040   8.153   3.686
15899SOL    HW363916   4.163   8.085   3.744
15899SOL    MW463917   4.095   8.086   3.687
15900SOL     OW63918   4.479   7.623   3.386
15900SOL    HW263919   4.456   7.531   3.388
15900SOL    HW363920   4.565   7.625   3.343
15900SOL    MW463921   4.486   7.613   3.382
15901SOL     OW63922   4.163   8.147   3.425
15901SOL    HW263923   4.243   8.197   3.411
15901SOL    HW363924   4.154   8.141   3.520
15901SOL    MW463925   4.172   8.153   3.435
15902SOL     OW63926   5.140   7.672   3.696
15902SOL    HW263927   5.196   7.599   3.722
15902SOL    HW363928   5.110   7.710   3.778
15902SOL    MW463929   5.144   7.667   3.709
15903SOL     OW63930   4.698   9.020   2.499
15903SOL    HW263931   4.781   8.974   2.483
15903SOL    HW363932   4.688   9.019   2.595
15903SOL    MW463933   4.708   9.013   2.509
15904SOL     OW63934   5.530   8.165   2.813
15904SOL    HW263935   5.619   8.195   2.795
15904SOL    HW363936   5.510   8.105   2.742
15904SOL    MW463937   5.539   8.162   2.802
15905SOL     OW63938   5.381   8.344   3.693
15905SOL    HW263939   5.436   8.268   3.674
15905SOL    HW363940   5.383   8.352   3.788
15905SOL    MW463941   5.389   8.335   3.701
15906SOL     OW63942   4.869   7.722   2.127
15906SOL    HW263943   4.802   7.698   2.064
15906SOL    HW363944   4.934   7.771   2.076
15906SOL    MW463945   4.869   7.724   2.112
15907SOL     OW63946   4.676   7.906   3.212
15907SOL    HW263947   4.595   7.947   3.240
15907SOL    HW363948   4.723   7.974   3.164
15907SOL    MW463949   4.671   7.921   3.210
15908SOL     OW63950   4.936   8.244   2.835
15908SOL    HW263951   4.949   8.338   2.845
15908SOL    HW363952   4.897   8.234   2.749
15908SOL    MW463953   4.932   8.255   2.825
15909SOL     OW63954   4.388   8.439   2.639
15909SOL    HW263955   4.299   8.430   2.672
15909SOL    HW363956   4.392   8.529   2.607
15909SOL    MW463957   4.377   8.450   2.639
15910SOL     OW63958   5.187   8.022   2.634
15910SOL    HW263959   5.132   7.943   2.633
15910SOL    HW363960   5.169   8.063   2.718
15910SOL    MW463961   5.177   8.017   2.643
15911SOL     OW63962   4.158   7.709   3.451
15911SOL    HW263963   4.079   7.727   3.503
15911SOL    HW363964   4.153   7.771   3.378
15911SOL    MW463965   4.148   7.719   3.448
15912SOL     OW63966   4.806   8.226   2.591
15912SOL    HW263967   4.743   8.158   2.615
15912SOL    HW363968   4.826   8.207   2.499
15912SOL    MW463969   4.800   8.213   2.583
15913SOL     OW63970   4.554   8.530   2.317
15913SOL    HW263971   4.556   8.504   2.224
15913SOL    HW363972   4.612   8.467   2.360
15913SOL    MW463973   4.562   8.519   2.311
15914SOL     OW63974   5.064   7.774   2.650
15914SOL    HW263975   5.092   7.706   2.711
15914SOL    HW363976   4.978   7.745   2.620
15914SOL    MW463977   5.057   7.761   2.654
15915SOL     OW63978   3.869   8.708   2.584
15915SOL    HW263979   3.933   8.740   2.647
15915SOL    HW363980   3.918   8.644   2.532
15915SOL    MW463981   3.884   8.704   2.585
15916SOL     OW63982   5.044   7.878   1.985
15916SOL    HW263983   5.017   7.944   1.921
15916SOL    HW363984   5.114   7.921   2.035
15916SOL    MW463985   5.049   7.891   1.982
15917SOL     OW63986   4.712   7.583   1.922
15917SOL    HW263987   4.768   7.575   1.844
15917SOL    HW363988   4.689   7.493   1.944
15917SOL    MW463989   4.717   7.570   1.915
15918SOL     OW63990   5.217   8.434   2.127
15918SOL    HW263991   5.184   8.523   2.117
15918SOL    HW363992   5.182   8.405   2.212
15918SOL    MW463993   5.207   8.443   2.138
15919SOL     OW63994   4.123   7.531   3.657
15919SOL    HW263995   4.051   7.496   3.605
15919SOL    HW363996   4.181   7.572   3.592
15919SOL    MW463997   4.121   7.532   3.642
15920SOL     OW63998   5.587   8.550   3.310
15920SOL    HW263999   5.502   8.563   3.269
15920SOL    HW364000   5.567   8.514   3.397
15920SOL    MW464001   5.574   8.546   3.315
15921SOL     OW64002   4.211   8.472   1.919
15921SOL    HW264003   4.134   8.485   1.975
15921SOL    HW364004   4.175   8.436   1.838
15921SOL    MW464005   4.197   8.468   1.916
15922SOL     OW64006   4.864   8.445   2.162
15922SOL    HW264007   4.774   8.466   2.137
15922SOL    HW364008   4.891   8.518   2.218
15922SOL    MW464009   4.856   8.457   2.165
15923SOL     OW64010   4.364   8.794   2.854
15923SOL    HW264011   4.357   8.773   2.948
15923SOL    HW364012   4.282   8.762   2.817
15923SOL    MW464013   4.352   8.788   2.861
15924SOL     OW64014   5.228   7.804   3.256
15924SOL    HW264015   5.175   7.806   3.336
15924SOL    HW364016   5.213   7.717   3.219
15924SOL    MW464017   5.220   7.794   3.261
15925SOL     OW64018   5.564   7.728   3.129
15925SOL    HW264019   5.545   7.795   3.064
15925SOL    HW364020   5.621   7.666   3.084
15925SOL    MW464021   5.568   7.729   3.115
15926SOL     OW64022   4.493   7.561   2.569
15926SOL    HW264023   4.422   7.622   2.551
15926SOL    HW364024   4.544   7.558   2.488
15926SOL    MW464025   4.489   7.567   2.556
15927SOL     OW64026   4.251   8.801   2.318
15927SOL    HW264027   4.244   8.833   2.408
15927SOL    HW364028   4.161   8.785   2.290
15927SOL    MW464029   4.239   8.803   2.325
15928SOL     OW64030   4.453   8.218   3.699
15928SOL    HW264031   4.523   8.160   3.671
15928SOL    HW364032   4.396   8.163   3.754
15928SOL    MW464033   4.455   8.205   3.703
15929SOL     OW64034   5.240   8.430   3.332
15929SOL    HW264035   5.245   8.483   3.412
15929SOL    HW364036   5.202   8.347   3.360
15929SOL    MW464037   5.236   8.425   3.347
15930SOL     OW64038   4.880   7.565   3.578
15930SOL    HW264039   4.875   7.472   3.559
15930SOL    HW364040   4.963   7.576   3.624
15930SOL    MW464041   4.888   7.554   3.582
15931SOL     OW64042   4.254   8.085   2.032
15931SOL    HW264043   4.220   8.141   2.102
15931SOL    HW364044   4.325   8.035   2.072
15931SOL    MW464045   4.260   8.086   2.046
15932SOL     OW64046   5.350   8.836   2.854
15932SOL    HW264047   5.385   8.818   2.767
15932SOL    HW364048   5.255   8.837   2.841
15932SOL    MW464049   5.342   8.833   2.841
15933SOL     OW64050   4.779   8.484   3.223
15933SOL    HW264051   4.822   8.519   3.301
15933SOL    HW364052   4.762   8.561   3.169
15933SOL    MW464053   4.782   8.499   3.226
15934SOL     OW64054   5.310   7.971   2.096
15934SOL    HW264055   5.302   8.042   2.033
15934SOL    HW364056   5.328   8.015   2.179
15934SOL    MW464057   5.311   7.985   2.098
15935SOL     OW64058   4.170   7.626   2.525
15935SOL    HW264059   4.220   7.669   2.456
15935SOL    HW364060   4.085   7.670   2.525
15935SOL    MW464061   4.167   7.639   2.516
15936SOL     OW64062   3.929   8.688   3.385
15936SOL    HW264063   3.957   8.641   3.463
15936SOL    HW364064   3.850   8.643   3.356
15936SOL    MW464065   3.922   8.677   3.391
15937SOL     OW64066   4.437   8.015   3.352
15937SOL    HW264067   4.409   8.103   3.376
15937SOL    HW364068   4.406   7.959   3.423
15937SOL    MW464069   4.429   8.018   3.364
15938SOL     OW64070   4.979   8.233   2.071
15938SOL    HW264071   5.026   8.251   1.990
15938SOL    HW364072   4.945   8.317   2.099
15938SOL    MW464073   4.981   8.247   2.064
15939SOL     OW64074   4.092   8.411   2.565
15939SOL    HW264075   4.150   8.467   2.513
15939SOL    HW364076   4.136   8.326   2.567
15939SOL    MW464077   4.105   8.408   2.558
15940SOL     OW64078   5.232   7.763   2.402
15940SOL    HW264079   5.154   7.713   2.427
15940SOL    HW364080   5.203   7.854   2.402
15940SOL    MW464081   5.218   7.767   2.405
15941SOL     OW64082   4.818   7.725   2.561
15941SOL    HW264083   4.838   7.800   2.505
15941SOL    HW364084   4.798   7.764   2.646
15941SOL    MW464085   4.819   7.741   2.565
15942SOL     OW64086   5.578   8.498   3.580
15942SOL    HW264087   5.491   8.478   3.616
15942SOL    HW364088   5.632   8.424   3.605
15942SOL    MW464089   5.573   8.487   3.588
15943SOL     OW64090   3.754   8.137   2.284
15943SOL    HW264091   3.694   8.109   2.354
15943SOL    HW364092   3.828   8.077   2.290
15943SOL    MW464093   3.756   8.126   2.293
15944SOL     OW64094   4.180   7.876   3.173
15944SOL    HW264095   4.213   7.957   3.213
15944SOL    HW364096   4.153   7.902   3.085
15944SOL    MW464097   4.179   7.890   3.167
15945SOL     OW64098   4.134   7.843   2.909
15945SOL    HW264099   4.164   7.757   2.880
15945SOL    HW364100   4.039   7.836   2.912
15945SOL    MW464101   4.126   7.832   2.907
15946SOL     OW64102   4.963   8.052   3.600
15946SOL    HW264103   5.015   7.987   3.553
15946SOL    HW364104   4.921   8.103   3.530
15946SOL    MW464105   4.964   8.049   3.583
15947SOL     OW64106   5.062   7.847   3.461
15947SOL    HW264107   4.969   7.831   3.448
15947SOL    HW364108   5.088   7.785   3.529
15947SOL    MW464109   5.052   7.837   3.468
15948SOL     OW64110   4.277   7.621   2.800
15948SOL    HW264111   4.287   7.530   2.826
15948SOL    HW364112   4.233   7.617   2.715
15948SOL    MW464113   4.273   7.609   2.792
15949SOL     OW64114   5.428   7.943   2.971
15949SOL    HW264115   5.361   7.976   3.031
15949SOL    HW364116   5.471   8.021   2.937
15949SOL    MW464117   5.426   7.958   2.975
15950SOL     OW64118   5.606   8.663   2.941
15950SOL    HW264119   5.599   8.603   2.866
15950SOL    HW364120   5.532   8.723   2.930
15950SOL    MW464121   5.596   8.663   2.930
15951SOL     OW64122   4.988   8.525   2.859
15951SOL    HW264123   5.002   8.497   2.950
15951SOL    HW364124   5.074   8.556   2.831
15951SOL    MW464125   5.001   8.526   2.868
15952SOL     OW64126   5.071   8.020   3.138
15952SOL    HW264127   5.092   8.021   3.045
15952SOL    HW364128   5.116   7.942   3.171
15952SOL    MW464129   5.078   8.010   3.130
15953SOL     OW64130   5.564   8.151   3.680
15953SOL    HW264131   5.601   8.096   3.749
15953SOL    HW364132   5.589   8.108   3.598
15953SOL    MW464133   5.571   8.139   3.679
15954SOL     OW64134   5.111   8.449   3.731
15954SOL    HW264135   5.177   8.397   3.685
15954SOL    HW364136   5.131   8.436   3.824
15954SOL    MW464137   5.122   8.440   3.738
15955SOL     OW64138   5.062   7.535   2.080
15955SOL    HW264139   5.136   7.579   2.123
15955SOL    HW364140   4.986   7.589   2.102
15955SOL    MW464141   5.062   7.547   2.088
15956SOL     OW64142   5.122   8.310   2.358
15956SOL    HW264143   5.037   8.280   2.328
15956SOL    HW364144   5.114   8.317   2.453
15956SOL    MW464145   5.110   8.308   2.367
15957SOL     OW64146   4.482   7.753   2.912
15957SOL    HW264147   4.455   7.755   3.003
15957SOL    HW364148   4.412   7.705   2.867
15957SOL    MW464149   4.470   7.749   2.919
15958SOL     OW64150   5.238   8.830   3.306
15958SOL    HW264151   5.223   8.759   3.369
15958SOL    HW364152   5.284   8.788   3.234
15958SOL    MW464153   5.244   8.814   3.306
15959SOL     OW64154   4.312   8.561   3.423
15959SOL    HW264155   4.349   8.566   3.335
15959SOL    HW364156   4.351   8.634   3.470
15959SOL    MW464157   4.322   8.571   3.418
15960SOL     OW64158   4.492   8.604   3.235
15960SOL    HW264159   4.551   8.550   3.288
15960SOL    HW364160   4.507   8.576   3.145
15960SOL    MW464161   4.502   8.593   3.231
15961SOL     OW64162   4.495   7.976   2.084
15961SOL    HW264163   4.568   8.025   2.047
15961SOL    HW364164   4.511   7.885   2.058
15961SOL    MW464165   4.507   7.971   2.077
15962SOL     OW64166   4.963   7.572   2.998
15962SOL    HW264167   5.018   7.581   2.920
15962SOL    HW364168   5.018   7.606   3.069
15962SOL    MW464169   4.977   7.577   2.997
15963SOL     OW64170   3.970   8.485   2.182
15963SOL    HW264171   3.907   8.501   2.111
15963SOL    HW364172   3.917   8.448   2.253
15963SOL    MW464173   3.955   8.482   2.182
15964SOL     OW64174   4.326   8.839   2.041
15964SOL    HW264175   4.341   8.815   2.133
15964SOL    HW364176   4.234   8.817   2.025
15964SOL    MW464177   4.316   8.832   2.051
15965SOL     OW64178   4.741   8.706   3.005
15965SOL    HW264179   4.673   8.640   3.021
15965SOL    HW364180   4.759   8.700   2.912
15965SOL    MW464181   4.734   8.697   2.996
15966SOL     OW64182   4.734   7.845   2.826
15966SOL    HW264183   4.664   7.797   2.871
15966SOL    HW364184   4.766   7.908   2.890
15966SOL    MW464185   4.729   7.847   2.840
15967SOL     OW64186   4.385   8.281   3.446
15967SOL    HW264187   4.378   8.376   3.434
15967SOL    HW364188   4.394   8.270   3.541
15967SOL    MW464189   4.386   8.293   3.456
15968SOL     OW64190   5.190   7.559   3.171
15968SOL    HW264191   5.261   7.505   3.135
15968SOL    HW364192   5.189   7.538   3.264
15968SOL    MW464193   5.199   7.550   3.179
15969SOL     OW64194   4.201   7.951   2.639
15969SOL    HW264195   4.272   7.899   2.602
15969SOL    HW364196   4.187   7.916   2.726
15969SOL    MW464197   4.209   7.940   2.646
15970SOL     OW64198   4.837   7.892   2.363
15970SOL    HW264199   4.859   7.829   2.295
15970SOL    HW364200   4.742   7.884   2.374
15970SOL    MW464201   4.827   7.883   2.355
15971SOL     OW64202   3.922   7.582   2.295
15971SOL    HW264203   3.993   7.603   2.234
15971SOL    HW364204   3.876   7.510   2.253
15971SOL    MW464205   3.926   7.576   2.281
15972SOL     OW64206   3.753   8.049   3.438
15972SOL    HW264207   3.817   8.115   3.413
15972SOL    HW364208   3.672   8.076   3.395
15972SOL    MW464209   3.751   8.061   3.430
15973SOL     OW64210   5.047   8.633   2.325
15973SOL    HW264211   5.019   8.719   2.358
15973SOL    HW364212   5.075   8.649   2.235
15973SOL    MW464213   5.047   8.647   2.317
15974SOL     OW64214   4.709   7.553   2.378
15974SOL    HW264215   4.746   7.612   2.443
15974SOL    HW364216   4.686   7.609   2.304
15974SOL    MW464217   4.710   7.568   2.377
15975SOL     OW64218   5.562   8.435   2.800
15975SOL    HW264219   5.553   8.467   2.711
15975SOL    HW364220   5.515   8.351   2.800
15975SOL    MW464221   5.555   8.428   2.790
15976SOL     OW64222   3.938   8.275   3.379
15976SOL    HW264223   3.959   8.344   3.317
15976SOL    HW364224   4.018   8.222   3.384
15976SOL    MW464225   3.951   8.276   3.373
15977SOL     OW64226   5.474   8.366   2.501
15977SOL    HW264227   5.568   8.355   2.489
15977SOL    HW364228   5.450   8.438   2.442
15977SOL    MW464229   5.484   8.374   2.492
15978SOL     OW64230   3.923   8.290   3.646
15978SOL    HW264231   3.849   8.234   3.672
15978SOL    HW364232   3.918   8.293   3.551
15978SOL    MW464233   3.912   8.283   3.636
15979SOL     OW64234   4.089   7.577   3.096
15979SOL    HW264235   4.132   7.661   3.116
15979SOL    HW364236   4.162   7.515   3.089
15979SOL    MW464237   4.104   7.580   3.097
15980SOL     OW64238   4.130   8.244   2.274
15980SOL    HW264239   4.130   8.339   2.259
15980SOL    HW364240   4.207   8.228   2.328
15980SOL    MW464241   4.140   8.255   2.279
15981SOL     OW64242   4.906   8.103   3.338
15981SOL    HW264243   4.942   8.076   3.254
15981SOL    HW364244   4.819   8.137   3.317
15981SOL    MW464245   4.900   8.104   3.325
15982SOL     OW64246   3.889   7.975   2.563
15982SOL    HW264247   3.951   7.982   2.636
15982SOL    HW364248   3.889   7.882   2.540
15982SOL    MW464249   3.897   7.964   2.570
15983SOL     OW64250   4.571   8.236   3.047
15983SOL    HW264251   4.529   8.154   3.023
15983SOL    HW364252   4.572   8.235   3.143
15983SOL    MW464253   4.564   8.225   3.056
15984SOL     OW64254   4.375   7.706   3.152
15984SOL    HW264255   4.306   7.769   3.173
15984SOL    HW364256   4.402   7.670   3.237
15984SOL    MW464257   4.369   7.709   3.165
15985SOL     OW64258   3.758   8.547   2.021
15985SOL    HW264259   3.727   8.612   2.084
15985SOL    HW364260   3.707   8.469   2.040
15985SOL    MW464261   3.748   8.544   2.031
15986SOL     OW64262   5.170   7.559   2.769
15986SOL    HW264263   5.258   7.568   2.806
15986SOL    HW364264   5.180   7.500   2.695
15986SOL    MW464265   5.184   7.553   2.763
15987SOL     OW64266   5.202   8.298   2.613
15987SOL    HW264267   5.282   8.313   2.562
15987SOL    HW364268   5.195   8.203   2.619
15987SOL    MW464269   5.211   8.287   2.608
15988SOL     OW64270   4.652   8.224   3.310
15988SOL    HW264271   4.721   8.291   3.307
15988SOL    HW364272   4.585   8.262   3.366
15988SOL    MW464273   4.653   8.237   3.317
15989SOL     OW64274   4.070   8.524   3.558
15989SOL    HW264275   4.024   8.440   3.560
15989SOL    HW364276   4.127   8.518   3.482
15989SOL    MW464277   4.072   8.512   3.550
15990SOL     OW64278   5.187   8.167   1.879
15990SOL    HW264279   5.115   8.143   1.821
15990SOL    HW364280   5.253   8.204   1.821
15990SOL    MW464281   5.186   8.169   1.864
15991SOL     OW64282   4.321   8.899   2.559
15991SOL    HW264283   4.386   8.832   2.580
15991SOL    HW364284   4.373   8.976   2.536
15991SOL    MW464285   4.336   8.901   2.558
15992SOL     OW64286   4.582   8.064   2.689
15992SOL    HW264287   4.522   8.082   2.761
15992SOL    HW364288   4.616   7.976   2.708
15992SOL    MW464289   4.578   8.054   2.702
15993SOL     OW64290   5.523   7.563   3.358
15993SOL    HW264291   5.444   7.609   3.386
15993SOL    HW364292   5.558   7.617   3.287
15993SOL    MW464293   5.517   7.576   3.352
15994SOL     OW64294   4.807   8.647   2.708
15994SOL    HW264295   4.899   8.628   2.726
15994SOL    HW364296   4.780   8.577   2.648
15994SOL    MW464297   4.815   8.635   2.702
15995SOL     OW64298   4.600   8.467   2.063
15995SOL    HW264299   4.586   8.379   2.028
15995SOL    HW364300   4.551   8.524   2.004
15995SOL    MW464301   4.592   8.462   2.051
15996SOL     OW64302   4.013   8.191   2.842
15996SOL    HW264303   3.963   8.190   2.923
15996SOL    HW364304   4.033   8.283   2.826
15996SOL    MW464305   4.009   8.203   2.850
15997SOL     OW64306   5.080   8.955   3.604
15997SOL    HW264307   5.080   9.049   3.620
15997SOL    HW364308   5.125   8.945   3.520
15997SOL    MW464309   5.086   8.965   3.595
15998SOL     OW64310   5.319   7.673   2.165
15998SOL    HW264311   5.312   7.677   2.260
15998SOL    HW364312   5.331   7.764   2.138
15998SOL    MW464313   5.320   7.686   2.173
15999SOL     OW64314   4.608   8.236   2.279
15999SOL    HW264315   4.588   8.222   2.186
15999SOL    HW364316   4.701   8.215   2.286
15999SOL    MW464317   4.618   8.231   2.268
16000SOL     OW64318   3.935   7.859   3.583
16000SOL    HW264319   3.892   7.918   3.520
16000SOL    HW364320   4.003   7.914   3.623
16000SOL    MW464321   3.939   7.874   3.580
16001SOL     OW64322   5.047   8.479   3.128
16001SOL    HW264323   5.110   8.476   3.201
16001SOL    HW364324   4.963   8.497   3.170
16001SOL    MW464325   5.043   8.481   3.143
16002SOL     OW64326   5.386   7.656   2.907
16002SOL    HW264327   5.431   7.574   2.926
16002SOL    HW364328   5.406   7.712   2.983
16002SOL    MW464329   5.396   7.652   2.919
16003SOL     OW64330   3.834   7.499   3.006
16003SOL    HW264331   3.825   7.500   2.911
16003SOL    HW364332   3.928   7.511   3.021
16003SOL    MW464333   3.846   7.502   2.997
16004SOL     OW64334   5.471   8.692   2.626
16004SOL    HW264335   5.450   8.638   2.549
16004SOL    HW364336   5.567   8.690   2.630
16004SOL    MW464337   5.480   8.685   2.615
16005SOL     OW64338   4.163   8.837   3.369
16005SOL    HW264339   4.084   8.787   3.392
16005SOL    HW364340   4.233   8.796   3.419
16005SOL    MW464341   4.161   8.825   3.379
16006SOL     OW64342   4.047   7.626   2.052
16006SOL    HW264343   3.976   7.681   2.020
16006SOL    HW364344   4.089   7.592   1.973
16006SOL    MW464345   4.043   7.628   2.038
16007SOL     OW64346   5.171   8.123   2.888
16007SOL    HW264347   5.094   8.169   2.854
16007SOL    HW364348   5.228   8.192   2.922
16007SOL    MW464349   5.168   8.138   2.888
16008SOL     OW64350   3.803   7.725   1.901
16008SOL    HW264351   3.770   7.804   1.945
16008SOL    HW364352   3.858   7.758   1.830
16008SOL    MW464353   3.806   7.739   1.898
16009SOL     OW64354   5.472   8.339   3.993
16009SOL    HW264355   5.513   8.281   4.058
16009SOL    HW364356   5.379   8.331   4.010
16009SOL    MW464357   5.466   8.331   4.003
16010SOL     OW64358   5.338   8.271   4.988
16010SOL    HW264359   5.293   8.338   5.039
16010SOL    HW364360   5.426   8.307   4.974
16010SOL    MW464361   5.344   8.284   4.992
16011SOL     OW64362   4.266   8.522   4.222
16011SOL    HW264363   4.356   8.497   4.206
16011SOL    HW364364   4.262   8.615   4.199
16011SOL    MW464365   4.278   8.531   4.217
16012SOL     OW64366   5.318   8.665   4.969
16012SOL    HW264367   5.239   8.630   4.927
16012SOL    HW364368   5.345   8.737   4.913
16012SOL    MW464369   5.311   8.670   4.956
16013SOL     OW64370   4.550   7.978   4.235
16013SOL    HW264371   4.525   8.066   4.263
16013SOL    HW364372   4.547   7.981   4.139
16013SOL    MW464373   4.546   7.990   4.227
16014SOL     OW64374   3.992   8.006   4.163
16014SOL    HW264375   4.024   8.094   4.145
16014SOL    HW364376   3.980   8.004   4.258
16014SOL    MW464377   3.995   8.018   4.175
16015SOL     OW64378   4.070   8.419   5.064
16015SOL    HW264379   4.133   8.366   5.015
16015SOL    HW364380   4.051   8.493   5.007
16015SOL    MW464381   4.076   8.421   5.051
16016SOL     OW64382   4.391   7.761   4.250
16016SOL    HW264383   4.449   7.837   4.252
16016SOL    HW364384   4.326   7.782   4.183
16016SOL    MW464385   4.390   7.773   4.241
16017SOL     OW64386   4.478   8.688   4.425
16017SOL    HW264387   4.558   8.691   4.477
16017SOL    HW364388   4.506   8.655   4.339
16017SOL    MW464389   4.492   8.684   4.420
16018SOL     OW64390   4.503   9.029   5.328
16018SOL    HW264391   4.587   9.055   5.367
16018SOL    HW364392   4.527   8.973   5.254
16018SOL    MW464393   4.517   9.025   5.323
16019SOL     OW64394   4.255   8.192   4.416
16019SOL    HW264395   4.240   8.112   4.467
16019SOL    HW364396   4.337   8.227   4.450
16019SOL    MW464397   4.263   8.184   4.428
16020SOL     OW64398   4.397   8.018   4.793
16020SOL    HW264399   4.303   8.014   4.811
16020SOL    HW364400   4.427   7.927   4.802
16020SOL    MW464401   4.388   8.006   4.796
16021SOL     OW64402   4.143   8.432   4.697
16021SOL    HW264403   4.098   8.439   4.613
16021SOL    HW364404   4.123   8.515   4.741
16021SOL    MW464405   4.135   8.444   4.691
16022SOL     OW64406   5.105   8.670   3.941
16022SOL    HW264407   5.023   8.706   3.907
16022SOL    HW364408   5.173   8.713   3.890
16022SOL    MW464409   5.103   8.680   3.929
16023SOL     OW64410   4.104   8.805   4.607
16023SOL    HW264411   4.080   8.858   4.683
16023SOL    HW364412   4.160   8.863   4.555
16023SOL    MW464413   4.108   8.820   4.610
16024SOL     OW64414   4.666   8.449   4.417
16024SOL    HW264415   4.580   8.436   4.457
16024SOL    HW364416   4.719   8.376   4.449
16024SOL    MW464417   4.662   8.438   4.426
16025SOL     OW64418   4.657   8.811   4.134
16025SOL    HW264419   4.634   8.873   4.202
16025SOL    HW364420   4.614   8.729   4.160
16025SOL    MW464421   4.649   8.807   4.145
16026SOL     OW64422   5.530   7.812   4.590
16026SOL    HW264423   5.467   7.792   4.659
16026SOL    HW364424   5.520   7.741   4.527
16026SOL    MW464425   5.520   7.799   4.591
16027SOL     OW64426   4.154   7.784   4.102
16027SOL    HW264427   4.128   7.746   4.018
16027SOL    HW364428   4.091   7.854   4.118
16027SOL    MW464429   4.143   7.787   4.093
16028SOL     OW64430   3.989   8.745   4.139
16028SOL    HW264431   3.937   8.813   4.095
16028SOL    HW364432   3.986   8.671   4.079
16028SOL    MW464433   3.981   8.744   4.126
16029SOL     OW64434   5.586   7.981   3.892
16029SOL    HW264435   5.495   7.983   3.920
16029SOL    HW364436   5.631   8.043   3.950
16029SOL    MW464437   5.579   7.989   3.902
16030SOL     OW64438   5.331   8.584   4.242
16030SOL    HW264439   5.241   8.584   4.277
16030SOL    HW364440   5.324   8.630   4.159
16030SOL    MW464441   5.318   8.590   4.236
16031SOL     OW64442   5.131   8.219   5.314
16031SOL    HW264443   5.200   8.157   5.291
16031SOL    HW364444   5.056   8.193   5.261
16031SOL    MW464445   5.131   8.206   5.305
16032SOL     OW64446   4.867   8.606   5.306
16032SOL    HW264447   4.852   8.699   5.291
16032SOL    HW364448   4.962   8.596   5.306
16032SOL    MW464449   4.876   8.616   5.303
16033SOL     OW64450   4.663   8.030   5.507
16033SOL    HW264451   4.753   8.031   5.474
16033SOL    HW364452   4.622   7.955   5.465
16033SOL    MW464453   4.669   8.020   5.498
16034SOL     OW64454   5.238   8.562   4.634
16034SOL    HW264455   5.241   8.496   4.565
16034SOL    HW364456   5.323   8.605   4.630
16034SOL    MW464457   5.250   8.558   4.625
16035SOL     OW64458   4.858   8.165   4.203
16035SOL    HW264459   4.884   8.189   4.114
16035SOL    HW364460   4.840   8.072   4.199
16035SOL    MW464461   4.860   8.157   4.190
16036SOL     OW64462   5.523   8.785   4.054
16036SOL    HW264463   5.479   8.826   4.129
16036SOL    HW364464   5.580   8.853   4.019
16036SOL    MW464465   5.525   8.799   4.059
16037SOL     OW64466   4.443   7.834   5.457
16037SOL    HW264467   4.453   7.760   5.397
16037SOL    HW364468   4.479   7.803   5.540
16037SOL    MW464469   4.449   7.820   5.459
16038SOL     OW64470   5.563   7.563   4.421
16038SOL    HW264471   5.617   7.514   4.483
16038SOL    HW364472   5.506   7.497   4.382
16038SOL    MW464473   5.563   7.547   4.423
16039SOL     OW64474   4.682   7.516   4.834
16039SOL    HW264475   4.641   7.594   4.796
16039SOL    HW364476   4.776   7.534   4.829
16039SOL    MW464477   4.688   7.528   4.829
16040SOL     OW64478   4.697   8.194   3.864
16040SOL    HW264479   4.699   8.141   3.785
16040SOL    HW364480   4.785   8.231   3.870
16040SOL    MW464481   4.709   8.193   3.853
16041SOL     OW64482   5.311   8.120   4.200
16041SOL    HW264483   5.350   8.120   4.287
16041SOL    HW364484   5.252   8.196   4.200
16041SOL    MW464485   5.308   8.131   4.211
16042SOL     OW64486   4.628   8.487   5.329
16042SOL    HW264487   4.605   8.467   5.419
16042SOL    HW364488   4.713   8.531   5.334
16042SOL    MW464489   4.635   8.490   5.341
16043SOL     OW64490   4.708   7.624   5.089
16043SOL    HW264491   4.714   7.586   5.002
16043SOL    HW364492   4.697   7.718   5.074
16043SOL    MW464493   4.709   7.632   5.077
16044SOL     OW64494   4.797   8.113   4.923
16044SOL    HW264495   4.872   8.142   4.870
16044SOL    HW364496   4.729   8.178   4.907
16044SOL    MW464497   4.798   8.125   4.913
16045SOL     OW64498   5.347   8.081   5.200
16045SOL    HW264499   5.328   7.990   5.179
16045SOL    HW364500   5.325   8.130   5.121
16045SOL    MW464501   5.342   8.074   5.187
16046SOL     OW64502   4.794   7.819   5.306
16046SOL    HW264503   4.760   7.858   5.225
16046SOL    HW364504   4.772   7.727   5.299
16046SOL    MW464505   4.787   7.812   5.296
16047SOL     OW64506   5.203   8.633   5.382
16047SOL    HW264507   5.285   8.674   5.412
16047SOL    HW364508   5.166   8.595   5.462
16047SOL    MW464509   5.209   8.634   5.397
16048SOL     OW64510   5.498   8.006   4.366
16048SOL    HW264511   5.587   7.975   4.383
16048SOL    HW364512   5.441   7.946   4.414
16048SOL    MW464513   5.501   7.994   4.375
16049SOL     OW64514   3.924   7.720   4.395
16049SOL    HW264515   3.915   7.660   4.321
16049SOL    HW364516   3.857   7.691   4.458
16049SOL    MW464517   3.914   7.707   4.393
16050SOL     OW64518   4.867   8.813   3.956
16050SOL    HW264519   4.817   8.815   4.038
16050SOL    HW364520   4.801   8.831   3.888
16050SOL    MW464521   4.853   8.815   3.958
16051SOL     OW64522   3.871   7.893   4.758
16051SOL    HW264523   3.843   7.984   4.767
16051SOL    HW364524   3.808   7.854   4.697
16051SOL    MW464525   3.858   7.899   4.752
16052SOL     OW64526   4.466   8.646   3.771
16052SOL    HW264527   4.388   8.592   3.758
16052SOL    HW364528   4.437   8.719   3.824
16052SOL    MW464529   4.452   8.648   3.776
16053SOL     OW64530   5.592   8.386   4.963
16053SOL    HW264531   5.608   8.424   4.876
16053SOL    HW364532   5.626   8.452   5.024
16053SOL    MW464533   5.599   8.399   4.959
16054SOL     OW64534   3.855   8.168   4.928
16054SOL    HW264535   3.917   8.198   4.994
16054SOL    HW364536   3.789   8.237   4.922
16054SOL    MW464537   3.854   8.181   4.935
16055SOL     OW64538   4.496   7.725   3.836
16055SOL    HW264539   4.444   7.645   3.824
16055SOL    HW364540   4.583   7.702   3.804
16055SOL    MW464541   4.499   7.711   3.830
16056SOL     OW64542   4.002   8.596   4.887
16056SOL    HW264543   4.055   8.671   4.912
16056SOL    HW364544   3.921   8.634   4.853
16056SOL    MW464545   3.998   8.611   4.887
16057SOL     OW64546   4.542   8.500   4.875
16057SOL    HW264547   4.570   8.409   4.887
16057SOL    HW364548   4.471   8.494   4.811
16057SOL    MW464549   4.535   8.488   4.870
16058SOL     OW64550   3.857   8.365   4.293
16058SOL    HW264551   3.948   8.380   4.320
16058SOL    HW364552   3.860   8.286   4.239
16058SOL    MW464553   3.869   8.357   4.291
16059SOL     OW64554   4.093   8.073   5.547
16059SOL    HW264555   4.040   8.153   5.554
16059SOL    HW364556   4.163   8.085   5.612
16059SOL    MW464557   4.095   8.086   5.555
16060SOL     OW64558   4.479   7.623   5.254
16060SOL    HW264559   4.456   7.531   5.256
16060SOL    HW364560   4.565   7.625   5.211
16060SOL    MW464561   4.486   7.613   5.250
16061SOL     OW64562   4.163   8.147   5.293
16061SOL    HW264563   4.243   8.197   5.279
16061SOL    HW364564   4.154   8.141   5.388
16061SOL    MW464565   4.172   8.153   5.303
16062SOL     OW64566   5.140   7.672   5.564
16062SOL    HW264567   5.196   7.599   5.590
16062SOL    HW364568   5.110   7.710   5.646
16062SOL    MW464569   5.144   7.667   5.577
16063SOL     OW64570   4.698   9.020   4.367
16063SOL    HW264571   4.781   8.974   4.351
16063SOL    HW364572   4.688   9.019   4.463
16063SOL    MW464573   4.708   9.013   4.377
16064SOL     OW64574   5.530   8.165   4.681
16064SOL    HW264575   5.619   8.195   4.663
16064SOL    HW364576   5.510   8.105   4.610
16064SOL    MW464577   5.539   8.162   4.670
16065SOL     OW64578   5.381   8.344   5.561
16065SOL    HW264579   5.436   8.268   5.542
16065SOL    HW364580   5.383   8.352   5.656
16065SOL    MW464581   5.389   8.335   5.569
16066SOL     OW64582   4.869   7.722   3.995
16066SOL    HW264583   4.802   7.698   3.932
16066SOL    HW364584   4.934   7.771   3.944
16066SOL    MW464585   4.869   7.724   3.980
16067SOL     OW64586   4.676   7.906   5.080
16067SOL    HW264587   4.595   7.947   5.108
16067SOL    HW364588   4.723   7.974   5.032
16067SOL    MW464589   4.671   7.921   5.078
16068SOL     OW64590   4.936   8.244   4.703
16068SOL    HW264591   4.949   8.338   4.713
16068SOL    HW364592   4.897   8.234   4.617
16068SOL    MW464593   4.932   8.255   4.693
16069SOL     OW64594   4.388   8.439   4.507
16069SOL    HW264595   4.299   8.430   4.540
16069SOL    HW364596   4.392   8.529   4.475
16069SOL    MW464597   4.377   8.450   4.507
16070SOL     OW64598   5.187   8.022   4.502
16070SOL    HW264599   5.132   7.943   4.501
16070SOL    HW364600   5.169   8.063   4.586
16070SOL    MW464601   5.177   8.017   4.511
16071SOL     OW64602   4.158   7.709   5.319
16071SOL    HW264603   4.079   7.727   5.371
16071SOL    HW364604   4.153   7.771   5.246
16071SOL    MW464605   4.148   7.719   5.316
16072SOL     OW64606   4.806   8.226   4.459
16072SOL    HW264607   4.743   8.158   4.483
16072SOL    HW364608   4.826   8.207   4.367
16072SOL    MW464609   4.800   8.213   4.451
16073SOL     OW64610   4.554   8.530   4.185
16073SOL    HW264611   4.556   8.504   4.092
16073SOL    HW364612   4.612   8.467   4.228
16073SOL    MW464613   4.562   8.519   4.179
16074SOL     OW64614   5.064   7.774   4.518
16074SOL    HW264615   5.092   7.706   4.579
16074SOL    HW364616   4.978   7.745   4.488
16074SOL    MW464617   5.057   7.761   4.522
16075SOL     OW64618   3.869   8.708   4.452
16075SOL    HW264619   3.933   8.740   4.515
16075SOL    HW364620   3.918   8.644   4.400
16075SOL    MW464621   3.884   8.704   4.453
16076SOL     OW64622   5.044   7.878   3.853
16076SOL    HW264623   5.017   7.944   3.789
16076SOL    HW364624   5.114   7.921   3.903
16076SOL    MW464625   5.049   7.891   3.850
16077SOL     OW64626   5.217   8.434   3.995
16077SOL    HW264627   5.184   8.523   3.985
16077SOL    HW364628   5.182   8.405   4.080
16077SOL    MW464629   5.207   8.443   4.006
16078SOL     OW64630   4.123   7.531   5.525
16078SOL    HW264631   4.051   7.496   5.473
16078SOL    HW364632   4.181   7.572   5.460
16078SOL    MW464633   4.121   7.532   5.510
16079SOL     OW64634   5.587   8.550   5.178
16079SOL    HW264635   5.502   8.563   5.137
16079SOL    HW364636   5.567   8.514   5.265
16079SOL    MW464637   5.574   8.546   5.183
16080SOL     OW64638   4.211   8.472   3.787
16080SOL    HW264639   4.134   8.485   3.843
16080SOL    HW364640   4.175   8.436   3.706
16080SOL    MW464641   4.197   8.468   3.784
16081SOL     OW64642   4.864   8.445   4.030
16081SOL    HW264643   4.774   8.466   4.005
16081SOL    HW364644   4.891   8.518   4.086
16081SOL    MW464645   4.856   8.457   4.033
16082SOL     OW64646   4.364   8.794   4.722
16082SOL    HW264647   4.357   8.773   4.816
16082SOL    HW364648   4.282   8.762   4.685
16082SOL    MW464649   4.352   8.788   4.729
16083SOL     OW64650   5.228   7.804   5.124
16083SOL    HW264651   5.175   7.806   5.204
16083SOL    HW364652   5.213   7.717   5.087
16083SOL    MW464653   5.220   7.794   5.129
16084SOL     OW64654   5.564   7.728   4.997
16084SOL    HW264655   5.545   7.795   4.932
16084SOL    HW364656   5.621   7.666   4.952
16084SOL    MW464657   5.568   7.729   4.983
16085SOL     OW64658   4.493   7.561   4.437
16085SOL    HW264659   4.422   7.622   4.419
16085SOL    HW364660   4.544   7.558   4.356
16085SOL    MW464661   4.489   7.567   4.424
16086SOL     OW64662   4.251   8.801   4.186
16086SOL    HW264663   4.244   8.833   4.276
16086SOL    HW364664   4.161   8.785   4.158
16086SOL    MW464665   4.239   8.803   4.193
16087SOL     OW64666   4.453   8.218   5.567
16087SOL    HW264667   4.523   8.160   5.539
16087SOL    HW364668   4.396   8.163   5.622
16087SOL    MW464669   4.455   8.205   5.571
16088SOL     OW64670   5.240   8.430   5.200
16088SOL    HW264671   5.245   8.483   5.280
16088SOL    HW364672   5.202   8.347   5.228
16088SOL    MW464673   5.236   8.425   5.215
16089SOL     OW64674   4.880   7.565   5.446
16089SOL    HW264675   4.875   7.472   5.427
16089SOL    HW364676   4.963   7.576   5.492
16089SOL    MW464677   4.888   7.554   5.450
16090SOL     OW64678   4.254   8.085   3.900
16090SOL    HW264679   4.220   8.141   3.970
16090SOL    HW364680   4.325   8.035   3.940
16090SOL    MW464681   4.260   8.086   3.914
16091SOL     OW64682   5.350   8.836   4.722
16091SOL    HW264683   5.385   8.818   4.635
16091SOL    HW364684   5.255   8.837   4.709
16091SOL    MW464685   5.342   8.833   4.709
16092SOL     OW64686   4.779   8.484   5.091
16092SOL    HW264687   4.822   8.519   5.169
16092SOL    HW364688   4.762   8.561   5.037
16092SOL    MW464689   4.782   8.499   5.094
16093SOL     OW64690   5.310   7.971   3.964
16093SOL    HW264691   5.302   8.042   3.901
16093SOL    HW364692   5.328   8.015   4.047
16093SOL    MW464693   5.311   7.985   3.966
16094SOL     OW64694   4.170   7.626   4.393
16094SOL    HW264695   4.220   7.669   4.324
16094SOL    HW364696   4.085   7.670   4.393
16094SOL    MW464697   4.167   7.639   4.384
16095SOL     OW64698   3.929   8.688   5.253
16095SOL    HW264699   3.957   8.641   5.331
16095SOL    HW364700   3.850   8.643   5.224
16095SOL    MW464701   3.922   8.677   5.259
16096SOL     OW64702   4.437   8.015   5.220
16096SOL    HW264703   4.409   8.103   5.244
16096SOL    HW364704   4.406   7.959   5.291
16096SOL    MW464705   4.429   8.018   5.232
16097SOL     OW64706   4.979   8.233   3.939
16097SOL    HW264707   5.026   8.251   3.858
16097SOL    HW364708   4.945   8.317   3.967
16097SOL    MW464709   4.981   8.247   3.932
16098SOL     OW64710   4.092   8.411   4.433
16098SOL    HW264711   4.150   8.467   4.381
16098SOL    HW364712   4.136   8.326   4.435
16098SOL    MW464713   4.105   8.408   4.426
16099SOL     OW64714   5.232   7.763   4.270
16099SOL    HW264715   5.154   7.713   4.295
16099SOL    HW364716   5.203   7.854   4.270
16099SOL    MW464717   5.218   7.767   4.273
16100SOL     OW64718   4.818   7.725   4.429
16100SOL    HW264719   4.838   7.800   4.373
16100SOL    HW364720   4.798   7.764   4.514
16100SOL    MW464721   4.819   7.741   4.433
16101SOL     OW64722   5.578   8.498   5.448
16101SOL    HW264723   5.491   8.478   5.484
16101SOL    HW364724   5.632   8.424   5.473
16101SOL    MW464725   5.573   8.487   5.456
16102SOL     OW64726   3.754   8.137   4.152
16102SOL    HW264727   3.694   8.109   4.222
16102SOL    HW364728   3.828   8.077   4.158
16102SOL    MW464729   3.756   8.126   4.161
16103SOL     OW64730   4.180   7.876   5.041
16103SOL    HW264731   4.213   7.957   5.081
16103SOL    HW364732   4.153   7.902   4.953
16103SOL    MW464733   4.179   7.890   5.035
16104SOL     OW64734   4.134   7.843   4.777
16104SOL    HW264735   4.164   7.757   4.748
16104SOL    HW364736   4.039   7.836   4.780
16104SOL    MW464737   4.126   7.832   4.775
16105SOL     OW64738   4.963   8.052   5.468
16105SOL    HW264739   5.015   7.987   5.421
16105SOL    HW364740   4.921   8.103   5.398
16105SOL    MW464741   4.964   8.049   5.451
16106SOL     OW64742   5.062   7.847   5.329
16106SOL    HW264743   4.969   7.831   5.316
16106SOL    HW364744   5.088   7.785   5.397
16106SOL    MW464745   5.052   7.837   5.336
16107SOL     OW64746   4.277   7.621   4.668
16107SOL    HW264747   4.287   7.530   4.694
16107SOL    HW364748   4.233   7.617   4.583
16107SOL    MW464749   4.273   7.609   4.660
16108SOL     OW64750   5.428   7.943   4.839
16108SOL    HW264751   5.361   7.976   4.899
16108SOL    HW364752   5.471   8.021   4.805
16108SOL    MW464753   5.426   7.958   4.843
16109SOL     OW64754   5.606   8.663   4.809
16109SOL    HW264755   5.599   8.603   4.734
16109SOL    HW364756   5.532   8.723   4.798
16109SOL    MW464757   5.596   8.663   4.798
16110SOL     OW64758   4.988   8.525   4.727
16110SOL    HW264759   5.002   8.497   4.818
16110SOL    HW364760   5.074   8.556   4.699
16110SOL    MW464761   5.001   8.526   4.736
16111SOL     OW64762   5.071   8.020   5.006
16111SOL    HW264763   5.092   8.021   4.913
16111SOL    HW364764   5.116   7.942   5.039
16111SOL    MW464765   5.078   8.010   4.998
16112SOL     OW64766   5.564   8.151   5.548
16112SOL    HW264767   5.601   8.096   5.617
16112SOL    HW364768   5.589   8.108   5.466
16112SOL    MW464769   5.571   8.139   5.547
16113SOL     OW64770   5.111   8.449   5.600
16113SOL    HW264771   5.177   8.397   5.554
16113SOL    HW364772   5.131   8.436   5.693
16113SOL    MW464773   5.122   8.440   5.607
16114SOL     OW64774   5.062   7.535   3.948
16114SOL    HW264775   5.136   7.579   3.991
16114SOL    HW364776   4.986   7.589   3.970
16114SOL    MW464777   5.062   7.547   3.956
16115SOL     OW64778   5.122   8.310   4.226
16115SOL    HW264779   5.037   8.280   4.196
16115SOL    HW364780   5.114   8.317   4.321
16115SOL    MW464781   5.110   8.308   4.235
16116SOL     OW64782   4.482   7.753   4.780
16116SOL    HW264783   4.455   7.755   4.871
16116SOL    HW364784   4.412   7.705   4.735
16116SOL    MW464785   4.470   7.749   4.787
16117SOL     OW64786   5.238   8.830   5.174
16117SOL    HW264787   5.223   8.759   5.237
16117SOL    HW364788   5.284   8.788   5.102
16117SOL    MW464789   5.244   8.814   5.174
16118SOL     OW64790   4.312   8.561   5.291
16118SOL    HW264791   4.349   8.566   5.203
16118SOL    HW364792   4.351   8.634   5.338
16118SOL    MW464793   4.322   8.571   5.286
16119SOL     OW64794   4.492   8.604   5.103
16119SOL    HW264795   4.551   8.550   5.156
16119SOL    HW364796   4.507   8.576   5.013
16119SOL    MW464797   4.502   8.593   5.099
16120SOL     OW64798   4.495   7.976   3.952
16120SOL    HW264799   4.568   8.025   3.915
16120SOL    HW364800   4.511   7.885   3.926
16120SOL    MW464801   4.507   7.971   3.945
16121SOL     OW64802   4.963   7.572   4.866
16121SOL    HW264803   5.018   7.581   4.788
16121SOL    HW364804   5.018   7.606   4.937
16121SOL    MW464805   4.977   7.577   4.865
16122SOL     OW64806   3.970   8.485   4.050
16122SOL    HW264807   3.907   8.501   3.979
16122SOL    HW364808   3.917   8.448   4.121
16122SOL    MW464809   3.955   8.482   4.050
16123SOL     OW64810   4.326   8.839   3.909
16123SOL    HW264811   4.341   8.815   4.001
16123SOL    HW364812   4.234   8.817   3.893
16123SOL    MW464813   4.316   8.832   3.919
16124SOL     OW64814   4.741   8.706   4.873
16124SOL    HW264815   4.673   8.640   4.889
16124SOL    HW364816   4.759   8.700   4.780
16124SOL    MW464817   4.734   8.697   4.864
16125SOL     OW64818   4.734   7.845   4.694
16125SOL    HW264819   4.664   7.797   4.739
16125SOL    HW364820   4.766   7.908   4.758
16125SOL    MW464821   4.729   7.847   4.708
16126SOL     OW64822   4.385   8.281   5.314
16126SOL    HW264823   4.378   8.376   5.302
16126SOL    HW364824   4.394   8.270   5.409
16126SOL    MW464825   4.386   8.293   5.324
16127SOL     OW64826   5.190   7.559   5.039
16127SOL    HW264827   5.261   7.505   5.003
16127SOL    HW364828   5.189   7.538   5.132
16127SOL    MW464829   5.199   7.550   5.047
16128SOL     OW64830   4.201   7.951   4.507
16128SOL    HW264831   4.272   7.899   4.470
16128SOL    HW364832   4.187   7.916   4.594
16128SOL    MW464833   4.209   7.940   4.514
16129SOL     OW64834   4.837   7.892   4.231
16129SOL    HW264835   4.859   7.829   4.163
16129SOL    HW364836   4.742   7.884   4.242
16129SOL    MW464837   4.827   7.883   4.223
16130SOL     OW64838   3.922   7.582   4.163
16130SOL    HW264839   3.993   7.603   4.102
16130SOL    HW364840   3.876   7.510   4.121
16130SOL    MW464841   3.926   7.576   4.149
16131SOL     OW64842   3.753   8.049   5.306
16131SOL    HW264843   3.817   8.115   5.281
16131SOL    HW364844   3.672   8.076   5.263
16131SOL    MW464845   3.751   8.061   5.298
16132SOL     OW64846   5.047   8.633   4.193
16132SOL    HW264847   5.019   8.719   4.226
16132SOL    HW364848   5.075   8.649   4.103
16132SOL    MW464849   5.047   8.647   4.185
16133SOL     OW64850   4.709   7.553   4.246
16133SOL    HW264851   4.746   7.612   4.311
16133SOL    HW364852   4.686   7.609   4.172
16133SOL    MW464853   4.710   7.568   4.245
16134SOL     OW64854   5.562   8.435   4.668
16134SOL    HW264855   5.553   8.467   4.579
16134SOL    HW364856   5.515   8.351   4.668
16134SOL    MW464857   5.555   8.428   4.658
16135SOL     OW64858   3.938   8.275   5.247
16135SOL    HW264859   3.959   8.344   5.185
16135SOL    HW364860   4.018   8.222   5.252
16135SOL    MW464861   3.951   8.276   5.241
16136SOL     OW64862   5.474   8.366   4.369
16136SOL    HW264863   5.568   8.355   4.357
16136SOL    HW364864   5.450   8.438   4.310
16136SOL    MW464865   5.484   8.374   4.360
16137SOL     OW64866   3.923   8.290   5.514
16137SOL    HW264867   3.849   8.234   5.540
16137SOL    HW364868   3.918   8.293   5.419
16137SOL    MW464869   3.912   8.283   5.504
16138SOL     OW64870   4.089   7.577   4.964
16138SOL    HW264871   4.132   7.661   4.984
16138SOL    HW364872   4.162   7.515   4.957
16138SOL    MW464873   4.104   7.580   4.965
16139SOL     OW64874   4.130   8.244   4.142
16139SOL    HW264875   4.130   8.339   4.127
16139SOL    HW364876   4.207   8.228   4.196
16139SOL    MW464877   4.140   8.255   4.147
16140SOL     OW64878   4.906   8.103   5.206
16140SOL    HW264879   4.942   8.076   5.122
16140SOL    HW364880   4.819   8.137   5.185
16140SOL    MW464881   4.900   8.104   5.193
16141SOL     OW64882   3.889   7.975   4.431
16141SOL    HW264883   3.951   7.982   4.504
16141SOL    HW364884   3.889   7.882   4.408
16141SOL    MW464885   3.897   7.964   4.438
16142SOL     OW64886   4.571   8.236   4.915
16142SOL    HW264887   4.529   8.154   4.891
16142SOL    HW364888   4.572   8.235   5.011
16142SOL    MW464889   4.564   8.225   4.924
16143SOL     OW64890   4.375   7.706   5.020
16143SOL    HW264891   4.306   7.769   5.041
16143SOL    HW364892   4.402   7.670   5.105
16143SOL    MW464893   4.369   7.709   5.033
16144SOL     OW64894   3.758   8.547   3.889
16144SOL    HW264895   3.727   8.612   3.952
16144SOL    HW364896   3.707   8.469   3.908
16144SOL    MW464897   3.748   8.544   3.899
16145SOL     OW64898   5.170   7.559   4.637
16145SOL    HW264899   5.258   7.568   4.674
16145SOL    HW364900   5.180   7.500   4.563
16145SOL    MW464901   5.184   7.553   4.631
16146SOL     OW64902   5.202   8.298   4.481
16146SOL    HW264903   5.282   8.313   4.430
16146SOL    HW364904   5.195   8.203   4.487
16146SOL    MW464905   5.211   8.287   4.476
16147SOL     OW64906   4.652   8.224   5.178
16147SOL    HW264907   4.721   8.291   5.175
16147SOL    HW364908   4.585   8.262   5.234
16147SOL    MW464909   4.653   8.237   5.185
16148SOL     OW64910   4.070   8.524   5.426
16148SOL    HW264911   4.024   8.440   5.428
16148SOL    HW364912   4.127   8.518   5.350
16148SOL    MW464913   4.072   8.512   5.418
16149SOL     OW64914   5.187   8.167   3.747
16149SOL    HW264915   5.115   8.143   3.689
16149SOL    HW364916   5.253   8.204   3.689
16149SOL    MW464917   5.186   8.169   3.732
16150SOL     OW64918   4.321   8.899   4.427
16150SOL    HW264919   4.386   8.832   4.448
16150SOL    HW364920   4.373   8.976   4.404
16150SOL    MW464921   4.336   8.901   4.426
16151SOL     OW64922   4.582   8.064   4.557
16151SOL    HW264923   4.522   8.082   4.629
16151SOL    HW364924   4.616   7.976   4.576
16151SOL    MW464925   4.578   8.054   4.570
16152SOL     OW64926   5.523   7.563   5.226
16152SOL    HW264927   5.444   7.609   5.254
16152SOL    HW364928   5.558   7.617   5.155
16152SOL    MW464929   5.517   7.576   5.220
16153SOL     OW64930   4.807   8.647   4.576
16153SOL    HW264931   4.899   8.628   4.594
16153SOL    HW364932   4.780   8.577   4.516
16153SOL    MW464933   4.815   8.635   4.570
16154SOL     OW64934   4.600   8.467   3.931
16154SOL    HW264935   4.586   8.379   3.896
16154SOL    HW364936   4.551   8.524   3.872
16154SOL    MW464937   4.592   8.462   3.919
16155SOL     OW64938   4.013   8.191   4.710
16155SOL    HW264939   3.963   8.190   4.791
16155SOL    HW364940   4.033   8.283   4.694
16155SOL    MW464941   4.009   8.203   4.718
16156SOL     OW64942   5.080   8.955   5.472
16156SOL    HW264943   5.080   9.049   5.488
16156SOL    HW364944   5.125   8.945   5.388
16156SOL    MW464945   5.086   8.965   5.463
16157SOL     OW64946   5.319   7.673   4.033
16157SOL    HW264947   5.312   7.677   4.128
16157SOL    HW364948   5.331   7.764   4.006
16157SOL    MW464949   5.320   7.686   4.041
16158SOL     OW64950   4.608   8.236   4.147
16158SOL    HW264951   4.588   8.222   4.054
16158SOL    HW364952   4.701   8.215   4.154
16158SOL    MW464953   4.618   8.231   4.136
16159SOL     OW64954   3.935   7.859   5.451
16159SOL    HW264955   3.892   7.918   5.388
16159SOL    HW364956   4.003   7.914   5.491
16159SOL    MW464957   3.939   7.874   5.448
16160SOL     OW64958   5.047   8.479   4.996
16160SOL    HW264959   5.110   8.476   5.069
16160SOL    HW364960   4.963   8.497   5.038
16160SOL    MW464961   5.043   8.481   5.011
16161SOL     OW64962   5.386   7.656   4.775
16161SOL    HW264963   5.431   7.574   4.794
16161SOL    HW364964   5.406   7.712   4.851
16161SOL    MW464965   5.396   7.652   4.787
16162SOL     OW64966   5.471   8.692   4.494
16162SOL    HW264967   5.450   8.638   4.417
16162SOL    HW364968   5.567   8.690   4.498
16162SOL    MW464969   5.480   8.685   4.483
16163SOL     OW64970   4.163   8.837   5.237
16163SOL    HW264971   4.084   8.787   5.260
16163SOL    HW364972   4.233   8.796   5.287
16163SOL    MW464973   4.161   8.825   5.247
16164SOL     OW64974   4.047   7.626   3.920
16164SOL    HW264975   3.976   7.681   3.888
16164SOL    HW364976   4.089   7.592   3.841
16164SOL    MW464977   4.043   7.628   3.906
16165SOL     OW64978   5.171   8.123   4.756
16165SOL    HW264979   5.094   8.169   4.722
16165SOL    HW364980   5.228   8.192   4.790
16165SOL    MW464981   5.168   8.138   4.756
16166SOL     OW64982   3.803   7.725   3.769
16166SOL    HW264983   3.770   7.804   3.813
16166SOL    HW364984   3.858   7.758   3.698
16166SOL    MW464985   3.806   7.739   3.766
16167SOL     OW64986   5.472   8.339   5.862
16167SOL    HW264987   5.513   8.281   5.927
16167SOL    HW364988   5.379   8.331   5.879
16167SOL    MW464989   5.466   8.331   5.872
16168SOL     OW64990   5.338   8.271   6.857
16168SOL    HW264991   5.293   8.338   6.908
16168SOL    HW364992   5.426   8.307   6.843
16168SOL    MW464993   5.344   8.284   6.861
16169SOL     OW64994   4.266   8.522   6.091
16169SOL    HW264995   4.356   8.497   6.075
16169SOL    HW364996   4.262   8.615   6.068
16169SOL    MW464997   4.278   8.531   6.086
16170SOL     OW64998   5.318   8.665   6.838
16170SOL    HW264999   5.239   8.630   6.796
16170SOL    HW365000   5.345   8.737   6.782
16170SOL    MW465001   5.311   8.670   6.825
16171SOL     OW65002   4.550   7.978   6.104
16171SOL    HW265003   4.525   8.066   6.132
16171SOL    HW365004   4.547   7.981   6.008
16171SOL    MW465005   4.546   7.990   6.096
16172SOL     OW65006   3.992   8.006   6.032
16172SOL    HW265007   4.024   8.094   6.014
16172SOL    HW365008   3.980   8.004   6.127
16172SOL    MW465009   3.995   8.018   6.044
16173SOL     OW65010   4.070   8.419   6.933
16173SOL    HW265011   4.133   8.366   6.884
16173SOL    HW365012   4.051   8.493   6.876
16173SOL    MW465013   4.076   8.421   6.920
16174SOL     OW65014   4.391   7.761   6.119
16174SOL    HW265015   4.449   7.837   6.121
16174SOL    HW365016   4.326   7.782   6.052
16174SOL    MW465017   4.390   7.773   6.110
16175SOL     OW65018   4.478   8.688   6.294
16175SOL    HW265019   4.558   8.691   6.346
16175SOL    HW365020   4.506   8.655   6.208
16175SOL    MW465021   4.492   8.684   6.289
16176SOL     OW65022   4.503   9.029   7.197
16176SOL    HW265023   4.587   9.055   7.236
16176SOL    HW365024   4.527   8.973   7.123
16176SOL    MW465025   4.517   9.025   7.192
16177SOL     OW65026   4.255   8.192   6.285
16177SOL    HW265027   4.240   8.112   6.336
16177SOL    HW365028   4.337   8.227   6.319
16177SOL    MW465029   4.263   8.184   6.297
16178SOL     OW65030   4.397   8.018   6.662
16178SOL    HW265031   4.303   8.014   6.680
16178SOL    HW365032   4.427   7.927   6.671
16178SOL    MW465033   4.388   8.006   6.665
16179SOL     OW65034   4.143   8.432   6.566
16179SOL    HW265035   4.098   8.439   6.482
16179SOL    HW365036   4.123   8.515   6.610
16179SOL    MW465037   4.135   8.444   6.560
16180SOL     OW65038   5.105   8.670   5.810
16180SOL    HW265039   5.023   8.706   5.776
16180SOL    HW365040   5.173   8.713   5.759
16180SOL    MW465041   5.103   8.680   5.798
16181SOL     OW65042   4.104   8.805   6.476
16181SOL    HW265043   4.080   8.858   6.552
16181SOL    HW365044   4.160   8.863   6.424
16181SOL    MW465045   4.108   8.820   6.479
16182SOL     OW65046   4.666   8.449   6.286
16182SOL    HW265047   4.580   8.436   6.326
16182SOL    HW365048   4.719   8.376   6.318
16182SOL    MW465049   4.662   8.438   6.295
16183SOL     OW65050   4.657   8.811   6.003
16183SOL    HW265051   4.634   8.873   6.071
16183SOL    HW365052   4.614   8.729   6.029
16183SOL    MW465053   4.649   8.807   6.014
16184SOL     OW65054   5.530   7.812   6.459
16184SOL    HW265055   5.467   7.792   6.528
16184SOL    HW365056   5.520   7.741   6.396
16184SOL    MW465057   5.520   7.799   6.460
16185SOL     OW65058   4.154   7.784   5.971
16185SOL    HW265059   4.128   7.746   5.887
16185SOL    HW365060   4.091   7.854   5.987
16185SOL    MW465061   4.143   7.787   5.962
16186SOL     OW65062   3.989   8.745   6.008
16186SOL    HW265063   3.937   8.813   5.964
16186SOL    HW365064   3.986   8.671   5.948
16186SOL    MW465065   3.981   8.744   5.995
16187SOL     OW65066   5.586   7.981   5.761
16187SOL    HW265067   5.495   7.983   5.789
16187SOL    HW365068   5.631   8.043   5.819
16187SOL    MW465069   5.579   7.989   5.771
16188SOL     OW65070   5.331   8.584   6.111
16188SOL    HW265071   5.241   8.584   6.146
16188SOL    HW365072   5.324   8.630   6.028
16188SOL    MW465073   5.318   8.590   6.105
16189SOL     OW65074   5.131   8.219   7.183
16189SOL    HW265075   5.200   8.157   7.160
16189SOL    HW365076   5.056   8.193   7.130
16189SOL    MW465077   5.131   8.206   7.174
16190SOL     OW65078   4.867   8.606   7.175
16190SOL    HW265079   4.852   8.699   7.160
16190SOL    HW365080   4.962   8.596   7.175
16190SOL    MW465081   4.876   8.616   7.172
16191SOL     OW65082   4.663   8.030   7.376
16191SOL    HW265083   4.753   8.031   7.343
16191SOL    HW365084   4.622   7.955   7.334
16191SOL    MW465085   4.669   8.020   7.367
16192SOL     OW65086   5.238   8.562   6.503
16192SOL    HW265087   5.241   8.496   6.434
16192SOL    HW365088   5.323   8.605   6.499
16192SOL    MW465089   5.250   8.558   6.494
16193SOL     OW65090   4.858   8.165   6.072
16193SOL    HW265091   4.884   8.189   5.983
16193SOL    HW365092   4.840   8.072   6.068
16193SOL    MW465093   4.860   8.157   6.059
16194SOL     OW65094   5.523   8.785   5.923
16194SOL    HW265095   5.479   8.826   5.998
16194SOL    HW365096   5.580   8.853   5.888
16194SOL    MW465097   5.525   8.799   5.928
16195SOL     OW65098   4.443   7.834   7.326
16195SOL    HW265099   4.453   7.760   7.266
16195SOL    HW365100   4.479   7.803   7.409
16195SOL    MW465101   4.449   7.820   7.328
16196SOL     OW65102   5.563   7.563   6.290
16196SOL    HW265103   5.617   7.514   6.352
16196SOL    HW365104   5.506   7.497   6.251
16196SOL    MW465105   5.563   7.547   6.292
16197SOL     OW65106   4.682   7.516   6.703
16197SOL    HW265107   4.641   7.594   6.665
16197SOL    HW365108   4.776   7.534   6.698
16197SOL    MW465109   4.688   7.528   6.698
16198SOL     OW65110   4.697   8.194   5.733
16198SOL    HW265111   4.699   8.141   5.654
16198SOL    HW365112   4.785   8.231   5.739
16198SOL    MW465113   4.709   8.193   5.722
16199SOL     OW65114   5.311   8.120   6.069
16199SOL    HW265115   5.350   8.120   6.156
16199SOL    HW365116   5.252   8.196   6.069
16199SOL    MW465117   5.308   8.131   6.080
16200SOL     OW65118   4.628   8.487   7.198
16200SOL    HW265119   4.605   8.467   7.288
16200SOL    HW365120   4.713   8.531   7.203
16200SOL    MW465121   4.635   8.490   7.210
16201SOL     OW65122   4.708   7.624   6.958
16201SOL    HW265123   4.714   7.586   6.871
16201SOL    HW365124   4.697   7.718   6.943
16201SOL    MW465125   4.709   7.632   6.946
16202SOL     OW65126   4.797   8.113   6.792
16202SOL    HW265127   4.872   8.142   6.739
16202SOL    HW365128   4.729   8.178   6.776
16202SOL    MW465129   4.798   8.125   6.782
16203SOL     OW65130   5.347   8.081   7.069
16203SOL    HW265131   5.328   7.990   7.048
16203SOL    HW365132   5.325   8.130   6.990
16203SOL    MW465133   5.342   8.074   7.056
16204SOL     OW65134   4.794   7.819   7.175
16204SOL    HW265135   4.760   7.858   7.094
16204SOL    HW365136   4.772   7.727   7.168
16204SOL    MW465137   4.787   7.812   7.165
16205SOL     OW65138   5.203   8.633   7.251
16205SOL    HW265139   5.285   8.674   7.281
16205SOL    HW365140   5.166   8.595   7.331
16205SOL    MW465141   5.209   8.634   7.266
16206SOL     OW65142   5.498   8.006   6.235
16206SOL    HW265143   5.587   7.975   6.252
16206SOL    HW365144   5.441   7.946   6.283
16206SOL    MW465145   5.501   7.994   6.244
16207SOL     OW65146   3.924   7.720   6.264
16207SOL    HW265147   3.915   7.660   6.190
16207SOL    HW365148   3.857   7.691   6.327
16207SOL    MW465149   3.914   7.707   6.262
16208SOL     OW65150   4.867   8.813   5.825
16208SOL    HW265151   4.817   8.815   5.907
16208SOL    HW365152   4.801   8.831   5.757
16208SOL    MW465153   4.853   8.815   5.827
16209SOL     OW65154   3.871   7.893   6.627
16209SOL    HW265155   3.843   7.984   6.636
16209SOL    HW365156   3.808   7.854   6.566
16209SOL    MW465157   3.858   7.899   6.621
16210SOL     OW65158   4.466   8.646   5.640
16210SOL    HW265159   4.388   8.592   5.627
16210SOL    HW365160   4.437   8.719   5.693
16210SOL    MW465161   4.452   8.648   5.645
16211SOL     OW65162   5.592   8.386   6.832
16211SOL    HW265163   5.608   8.424   6.745
16211SOL    HW365164   5.626   8.452   6.893
16211SOL    MW465165   5.599   8.399   6.828
16212SOL     OW65166   3.855   8.168   6.797
16212SOL    HW265167   3.917   8.198   6.863
16212SOL    HW365168   3.789   8.237   6.791
16212SOL    MW465169   3.854   8.181   6.804
16213SOL     OW65170   4.496   7.725   5.705
16213SOL    HW265171   4.444   7.645   5.693
16213SOL    HW365172   4.583   7.702   5.673
16213SOL    MW465173   4.499   7.711   5.699
16214SOL     OW65174   4.002   8.596   6.756
16214SOL    HW265175   4.055   8.671   6.781
16214SOL    HW365176   3.921   8.634   6.722
16214SOL    MW465177   3.998   8.611   6.756
16215SOL     OW65178   4.542   8.500   6.744
16215SOL    HW265179   4.570   8.409   6.756
16215SOL    HW365180   4.471   8.494   6.680
16215SOL    MW465181   4.535   8.488   6.739
16216SOL     OW65182   3.857   8.365   6.162
16216SOL    HW265183   3.948   8.380   6.189
16216SOL    HW365184   3.860   8.286   6.108
16216SOL    MW465185   3.869   8.357   6.160
16217SOL     OW65186   4.093   8.073   7.416
16217SOL    HW265187   4.040   8.153   7.423
16217SOL    HW365188   4.163   8.085   7.481
16217SOL    MW465189   4.095   8.086   7.424
16218SOL     OW65190   4.479   7.623   7.123
16218SOL    HW265191   4.456   7.531   7.125
16218SOL    HW365192   4.565   7.625   7.080
16218SOL    MW465193   4.486   7.613   7.119
16219SOL     OW65194   4.163   8.147   7.162
16219SOL    HW265195   4.243   8.197   7.148
16219SOL    HW365196   4.154   8.141   7.257
16219SOL    MW465197   4.172   8.153   7.172
16220SOL     OW65198   5.140   7.672   7.433
16220SOL    HW265199   5.196   7.599   7.459
16220SOL    HW365200   5.110   7.710   7.515
16220SOL    MW465201   5.144   7.667   7.446
16221SOL     OW65202   4.698   9.020   6.236
16221SOL    HW265203   4.781   8.974   6.220
16221SOL    HW365204   4.688   9.019   6.332
16221SOL    MW465205   4.708   9.013   6.246
16222SOL     OW65206   5.530   8.165   6.550
16222SOL    HW265207   5.619   8.195   6.532
16222SOL    HW365208   5.510   8.105   6.479
16222SOL    MW465209   5.539   8.162   6.539
16223SOL     OW65210   5.381   8.344   7.430
16223SOL    HW265211   5.436   8.268   7.411
16223SOL    HW365212   5.383   8.352   7.525
16223SOL    MW465213   5.389   8.335   7.438
16224SOL     OW65214   4.869   7.722   5.864
16224SOL    HW265215   4.802   7.698   5.801
16224SOL    HW365216   4.934   7.771   5.813
16224SOL    MW465217   4.869   7.724   5.849
16225SOL     OW65218   4.676   7.906   6.949
16225SOL    HW265219   4.595   7.947   6.977
16225SOL    HW365220   4.723   7.974   6.901
16225SOL    MW465221   4.671   7.921   6.947
16226SOL     OW65222   4.936   8.244   6.572
16226SOL    HW265223   4.949   8.338   6.582
16226SOL    HW365224   4.897   8.234   6.486
16226SOL    MW465225   4.932   8.255   6.562
16227SOL     OW65226   4.388   8.439   6.376
16227SOL    HW265227   4.299   8.430   6.409
16227SOL    HW365228   4.392   8.529   6.344
16227SOL    MW465229   4.377   8.450   6.376
16228SOL     OW65230   5.187   8.022   6.371
16228SOL    HW265231   5.132   7.943   6.370
16228SOL    HW365232   5.169   8.063   6.455
16228SOL    MW465233   5.177   8.017   6.380
16229SOL     OW65234   4.158   7.709   7.188
16229SOL    HW265235   4.079   7.727   7.240
16229SOL    HW365236   4.153   7.771   7.115
16229SOL    MW465237   4.148   7.719   7.185
16230SOL     OW65238   4.806   8.226   6.328
16230SOL    HW265239   4.743   8.158   6.352
16230SOL    HW365240   4.826   8.207   6.236
16230SOL    MW465241   4.800   8.213   6.320
16231SOL     OW65242   4.554   8.530   6.054
16231SOL    HW265243   4.556   8.504   5.961
16231SOL    HW365244   4.612   8.467   6.097
16231SOL    MW465245   4.562   8.519   6.048
16232SOL     OW65246   5.064   7.774   6.387
16232SOL    HW265247   5.092   7.706   6.448
16232SOL    HW365248   4.978   7.745   6.357
16232SOL    MW465249   5.057   7.761   6.391
16233SOL     OW65250   3.869   8.708   6.321
16233SOL    HW265251   3.933   8.740   6.384
16233SOL    HW365252   3.918   8.644   6.269
16233SOL    MW465253   3.884   8.704   6.322
16234SOL     OW65254   5.044   7.878   5.722
16234SOL    HW265255   5.017   7.944   5.658
16234SOL    HW365256   5.114   7.921   5.772
16234SOL    MW465257   5.049   7.891   5.719
16235SOL     OW65258   4.712   7.583   5.659
16235SOL    HW265259   4.768   7.575   5.581
16235SOL    HW365260   4.689   7.493   5.681
16235SOL    MW465261   4.717   7.570   5.652
16236SOL     OW65262   5.217   8.434   5.864
16236SOL    HW265263   5.184   8.523   5.854
16236SOL    HW365264   5.182   8.405   5.949
16236SOL    MW465265   5.207   8.443   5.875
16237SOL     OW65266   4.123   7.531   7.394
16237SOL    HW265267   4.051   7.496   7.342
16237SOL    HW365268   4.181   7.572   7.329
16237SOL    MW465269   4.121   7.532   7.379
16238SOL     OW65270   5.587   8.550   7.047
16238SOL    HW265271   5.502   8.563   7.006
16238SOL    HW365272   5.567   8.514   7.134
16238SOL    MW465273   5.574   8.546   7.052
16239SOL     OW65274   4.211   8.472   5.656
16239SOL    HW265275   4.134   8.485   5.712
16239SOL    HW365276   4.175   8.436   5.575
16239SOL    MW465277   4.197   8.468   5.653
16240SOL     OW65278   4.864   8.445   5.899
16240SOL    HW265279   4.774   8.466   5.874
16240SOL    HW365280   4.891   8.518   5.955
16240SOL    MW465281   4.856   8.457   5.902
16241SOL     OW65282   4.364   8.794   6.591
16241SOL    HW265283   4.357   8.773   6.685
16241SOL    HW365284   4.282   8.762   6.554
16241SOL    MW465285   4.352   8.788   6.598
16242SOL     OW65286   5.228   7.804   6.993
16242SOL    HW265287   5.175   7.806   7.073
16242SOL    HW365288   5.213   7.717   6.956
16242SOL    MW465289   5.220   7.794   6.998
16243SOL     OW65290   5.564   7.728   6.866
16243SOL    HW265291   5.545   7.795   6.801
16243SOL    HW365292   5.621   7.666   6.821
16243SOL    MW465293   5.568   7.729   6.852
16244SOL     OW65294   4.493   7.561   6.306
16244SOL    HW265295   4.422   7.622   6.288
16244SOL    HW365296   4.544   7.558   6.225
16244SOL    MW465297   4.489   7.567   6.293
16245SOL     OW65298   4.251   8.801   6.055
16245SOL    HW265299   4.244   8.833   6.145
16245SOL    HW365300   4.161   8.785   6.027
16245SOL    MW465301   4.239   8.803   6.062
16246SOL     OW65302   4.453   8.218   7.436
16246SOL    HW265303   4.523   8.160   7.408
16246SOL    HW365304   4.396   8.163   7.491
16246SOL    MW465305   4.455   8.205   7.440
16247SOL     OW65306   5.240   8.430   7.069
16247SOL    HW265307   5.245   8.483   7.149
16247SOL    HW365308   5.202   8.347   7.097
16247SOL    MW465309   5.236   8.425   7.084
16248SOL     OW65310   4.880   7.565   7.315
16248SOL    HW265311   4.875   7.472   7.296
16248SOL    HW365312   4.963   7.576   7.361
16248SOL    MW465313   4.888   7.554   7.319
16249SOL     OW65314   4.254   8.085   5.769
16249SOL    HW265315   4.220   8.141   5.839
16249SOL    HW365316   4.325   8.035   5.809
16249SOL    MW465317   4.260   8.086   5.783
16250SOL     OW65318   5.350   8.836   6.591
16250SOL    HW265319   5.385   8.818   6.504
16250SOL    HW365320   5.255   8.837   6.578
16250SOL    MW465321   5.342   8.833   6.578
16251SOL     OW65322   4.779   8.484   6.960
16251SOL    HW265323   4.822   8.519   7.038
16251SOL    HW365324   4.762   8.561   6.906
16251SOL    MW465325   4.782   8.499   6.963
16252SOL     OW65326   5.310   7.971   5.833
16252SOL    HW265327   5.302   8.042   5.770
16252SOL    HW365328   5.328   8.015   5.916
16252SOL    MW465329   5.311   7.985   5.835
16253SOL     OW65330   4.170   7.626   6.262
16253SOL    HW265331   4.220   7.669   6.193
16253SOL    HW365332   4.085   7.670   6.262
16253SOL    MW465333   4.167   7.639   6.253
16254SOL     OW65334   3.929   8.688   7.122
16254SOL    HW265335   3.957   8.641   7.200
16254SOL    HW365336   3.850   8.643   7.093
16254SOL    MW465337   3.922   8.677   7.128
16255SOL     OW65338   4.437   8.015   7.089
16255SOL    HW265339   4.409   8.103   7.113
16255SOL    HW365340   4.406   7.959   7.160
16255SOL    MW465341   4.429   8.018   7.101
16256SOL     OW65342   4.979   8.233   5.808
16256SOL    HW265343   5.026   8.251   5.727
16256SOL    HW365344   4.945   8.317   5.836
16256SOL    MW465345   4.981   8.247   5.801
16257SOL     OW65346   4.092   8.411   6.302
16257SOL    HW265347   4.150   8.467   6.250
16257SOL    HW365348   4.136   8.326   6.304
16257SOL    MW465349   4.105   8.408   6.295
16258SOL     OW65350   5.232   7.763   6.139
16258SOL    HW265351   5.154   7.713   6.164
16258SOL    HW365352   5.203   7.854   6.139
16258SOL    MW465353   5.218   7.767   6.142
16259SOL     OW65354   4.818   7.725   6.298
16259SOL    HW265355   4.838   7.800   6.242
16259SOL    HW365356   4.798   7.764   6.383
16259SOL    MW465357   4.819   7.741   6.302
16260SOL     OW65358   5.578   8.498   7.317
16260SOL    HW265359   5.491   8.478   7.353
16260SOL    HW365360   5.632   8.424   7.342
16260SOL    MW465361   5.573   8.487   7.325
16261SOL     OW65362   3.754   8.137   6.021
16261SOL    HW265363   3.694   8.109   6.091
16261SOL    HW365364   3.828   8.077   6.027
16261SOL    MW465365   3.756   8.126   6.030
16262SOL     OW65366   4.180   7.876   6.910
16262SOL    HW265367   4.213   7.957   6.950
16262SOL    HW365368   4.153   7.902   6.822
16262SOL    MW465369   4.179   7.890   6.904
16263SOL     OW65370   4.134   7.843   6.646
16263SOL    HW265371   4.164   7.757   6.617
16263SOL    HW365372   4.039   7.836   6.649
16263SOL    MW465373   4.126   7.832   6.644
16264SOL     OW65374   4.963   8.052   7.337
16264SOL    HW265375   5.015   7.987   7.290
16264SOL    HW365376   4.921   8.103   7.267
16264SOL    MW465377   4.964   8.049   7.320
16265SOL     OW65378   5.062   7.847   7.198
16265SOL    HW265379   4.969   7.831   7.185
16265SOL    HW365380   5.088   7.785   7.266
16265SOL    MW465381   5.052   7.837   7.205
16266SOL     OW65382   4.277   7.621   6.537
16266SOL    HW265383   4.287   7.530   6.563
16266SOL    HW365384   4.233   7.617   6.452
16266SOL    MW465385   4.273   7.609   6.529
16267SOL     OW65386   5.428   7.943   6.708
16267SOL    HW265387   5.361   7.976   6.768
16267SOL    HW365388   5.471   8.021   6.674
16267SOL    MW465389   5.426   7.958   6.712
16268SOL     OW65390   5.606   8.663   6.678
16268SOL    HW265391   5.599   8.603   6.603
16268SOL    HW365392   5.532   8.723   6.667
16268SOL    MW465393   5.596   8.663   6.667
16269SOL     OW65394   4.988   8.525   6.596
16269SOL    HW265395   5.002   8.497   6.687
16269SOL    HW365396   5.074   8.556   6.568
16269SOL    MW465397   5.001   8.526   6.605
16270SOL     OW65398   5.071   8.020   6.875
16270SOL    HW265399   5.092   8.021   6.782
16270SOL    HW365400   5.116   7.942   6.908
16270SOL    MW465401   5.078   8.010   6.867
16271SOL     OW65402   5.564   8.151   7.417
16271SOL    HW265403   5.601   8.096   7.486
16271SOL    HW365404   5.589   8.108   7.335
16271SOL    MW465405   5.571   8.139   7.416
16272SOL     OW65406   5.111   8.449   7.468
16272SOL    HW265407   5.177   8.397   7.422
16272SOL    HW365408   5.131   8.436   7.561
16272SOL    MW465409   5.122   8.440   7.475
16273SOL     OW65410   5.062   7.535   5.817
16273SOL    HW265411   5.136   7.579   5.860
16273SOL    HW365412   4.986   7.589   5.839
16273SOL    MW465413   5.062   7.547   5.825
16274SOL     OW65414   5.122   8.310   6.095
16274SOL    HW265415   5.037   8.280   6.065
16274SOL    HW365416   5.114   8.317   6.190
16274SOL    MW465417   5.110   8.308   6.104
16275SOL     OW65418   4.482   7.753   6.649
16275SOL    HW265419   4.455   7.755   6.740
16275SOL    HW365420   4.412   7.705   6.604
16275SOL    MW465421   4.470   7.749   6.656
16276SOL     OW65422   5.238   8.830   7.043
16276SOL    HW265423   5.223   8.759   7.106
16276SOL    HW365424   5.284   8.788   6.971
16276SOL    MW465425   5.244   8.814   7.043
16277SOL     OW65426   4.312   8.561   7.160
16277SOL    HW265427   4.349   8.566   7.072
16277SOL    HW365428   4.351   8.634   7.207
16277SOL    MW465429   4.322   8.571   7.155
16278SOL     OW65430   4.492   8.604   6.972
16278SOL    HW265431   4.551   8.550   7.025
16278SOL    HW365432   4.507   8.576   6.882
16278SOL    MW465433   4.502   8.593   6.968
16279SOL     OW65434   4.495   7.976   5.821
16279SOL    HW265435   4.568   8.025   5.784
16279SOL    HW365436   4.511   7.885   5.795
16279SOL    MW465437   4.507   7.971   5.814
16280SOL     OW65438   4.963   7.572   6.735
16280SOL    HW265439   5.018   7.581   6.657
16280SOL    HW365440   5.018   7.606   6.806
16280SOL    MW465441   4.977   7.577   6.734
16281SOL     OW65442   3.970   8.485   5.919
16281SOL    HW265443   3.907   8.501   5.848
16281SOL    HW365444   3.917   8.448   5.990
16281SOL    MW465445   3.955   8.482   5.919
16282SOL     OW65446   4.326   8.839   5.778
16282SOL    HW265447   4.341   8.815   5.870
16282SOL    HW365448   4.234   8.817   5.762
16282SOL    MW465449   4.316   8.832   5.788
16283SOL     OW65450   4.741   8.706   6.742
16283SOL    HW265451   4.673   8.640   6.758
16283SOL    HW365452   4.759   8.700   6.649
16283SOL    MW465453   4.734   8.697   6.733
16284SOL     OW65454   4.734   7.845   6.563
16284SOL    HW265455   4.664   7.797   6.608
16284SOL    HW365456   4.766   7.908   6.627
16284SOL    MW465457   4.729   7.847   6.577
16285SOL     OW65458   4.385   8.281   7.183
16285SOL    HW265459   4.378   8.376   7.171
16285SOL    HW365460   4.394   8.270   7.278
16285SOL    MW465461   4.386   8.293   7.193
16286SOL     OW65462   4.106   8.796   7.441
16286SOL    HW265463   4.178   8.798   7.378
16286SOL    HW365464   4.076   8.705   7.440
16286SOL    MW465465   4.111   8.785   7.433
16287SOL     OW65466   5.190   7.559   6.908
16287SOL    HW265467   5.261   7.505   6.872
16287SOL    HW365468   5.189   7.538   7.001
16287SOL    MW465469   5.199   7.550   6.916
16288SOL     OW65470   4.201   7.951   6.376
16288SOL    HW265471   4.272   7.899   6.339
16288SOL    HW365472   4.187   7.916   6.463
16288SOL    MW465473   4.209   7.940   6.383
16289SOL     OW65474   4.837   7.892   6.100
16289SOL    HW265475   4.859   7.829   6.032
16289SOL    HW365476   4.742   7.884   6.111
16289SOL    MW465477   4.827   7.883   6.092
16290SOL     OW65478   3.922   7.582   6.032
16290SOL    HW265479   3.993   7.603   5.971
16290SOL    HW365480   3.876   7.510   5.990
16290SOL    MW465481   3.926   7.576   6.018
16291SOL     OW65482   3.753   8.049   7.175
16291SOL    HW265483   3.817   8.115   7.150
16291SOL    HW365484   3.672   8.076   7.132
16291SOL    MW465485   3.751   8.061   7.167
16292SOL     OW65486   5.047   8.633   6.062
16292SOL    HW265487   5.019   8.719   6.095
16292SOL    HW365488   5.075   8.649   5.972
16292SOL    MW465489   5.047   8.647   6.054
16293SOL     OW65490   4.709   7.553   6.115
16293SOL    HW265491   4.746   7.612   6.180
16293SOL    HW365492   4.686   7.609   6.041
16293SOL    MW465493   4.710   7.568   6.114
16294SOL     OW65494   5.562   8.435   6.537
16294SOL    HW265495   5.553   8.467   6.448
16294SOL    HW365496   5.515   8.351   6.537
16294SOL    MW465497   5.555   8.428   6.527
16295SOL     OW65498   3.938   8.275   7.116
16295SOL    HW265499   3.959   8.344   7.054
16295SOL    HW365500   4.018   8.222   7.121
16295SOL    MW465501   3.951   8.276   7.110
16296SOL     OW65502   5.474   8.366   6.238
16296SOL    HW265503   5.568   8.355   6.226
16296SOL    HW365504   5.450   8.438   6.179
16296SOL    MW465505   5.484   8.374   6.229
16297SOL     OW65506   3.923   8.290   7.383
16297SOL    HW265507   3.849   8.234   7.409
16297SOL    HW365508   3.918   8.293   7.288
16297SOL    MW465509   3.912   8.283   7.373
16298SOL     OW65510   4.089   7.577   6.833
16298SOL    HW265511   4.132   7.661   6.853
16298SOL    HW365512   4.162   7.515   6.826
16298SOL    MW465513   4.104   7.580   6.834
16299SOL     OW65514   4.130   8.244   6.011
16299SOL    HW265515   4.130   8.339   5.996
16299SOL    HW365516   4.207   8.228   6.065
16299SOL    MW465517   4.140   8.255   6.016
16300SOL     OW65518   4.906   8.103   7.075
16300SOL    HW265519   4.942   8.076   6.991
16300SOL    HW365520   4.819   8.137   7.054
16300SOL    MW465521   4.900   8.104   7.062
16301SOL     OW65522   3.889   7.975   6.300
16301SOL    HW265523   3.951   7.982   6.373
16301SOL    HW365524   3.889   7.882   6.277
16301SOL    MW465525   3.897   7.964   6.307
16302SOL     OW65526   4.571   8.236   6.784
16302SOL    HW265527   4.529   8.154   6.760
16302SOL    HW365528   4.572   8.235   6.880
16302SOL    MW465529   4.564   8.225   6.793
16303SOL     OW65530   4.375   7.706   6.889
16303SOL    HW265531   4.306   7.769   6.910
16303SOL    HW365532   4.402   7.670   6.974
16303SOL    MW465533   4.369   7.709   6.902
16304SOL     OW65534   3.758   8.547   5.758
16304SOL    HW265535   3.727   8.612   5.821
16304SOL    HW365536   3.707   8.469   5.777
16304SOL    MW465537   3.748   8.544   5.768
16305SOL     OW65538   5.170   7.559   6.506
16305SOL    HW265539   5.258   7.568   6.543
16305SOL    HW365540   5.180   7.500   6.432
16305SOL    MW465541   5.184   7.553   6.500
16306SOL     OW65542   5.202   8.298   6.350
16306SOL    HW265543   5.282   8.313   6.299
16306SOL    HW365544   5.195   8.203   6.356
16306SOL    MW465545   5.211   8.287   6.345
16307SOL     OW65546   4.652   8.224   7.047
16307SOL    HW265547   4.721   8.291   7.044
16307SOL    HW365548   4.585   8.262   7.103
16307SOL    MW465549   4.653   8.237   7.054
16308SOL     OW65550   4.070   8.524   7.295
16308SOL    HW265551   4.024   8.440   7.297
16308SOL    HW365552   4.127   8.518   7.219
16308SOL    MW465553   4.072   8.512   7.287
16309SOL     OW65554   5.187   8.167   5.615
16309SOL    HW265555   5.115   8.143   5.557
16309SOL    HW365556   5.253   8.204   5.557
16309SOL    MW465557   5.186   8.169   5.600
16310SOL     OW65558   4.321   8.899   6.296
16310SOL    HW265559   4.386   8.832   6.317
16310SOL    HW365560   4.373   8.976   6.273
16310SOL    MW465561   4.336   8.901   6.295
16311SOL     OW65562   4.582   8.064   6.426
16311SOL    HW265563   4.522   8.082   6.498
16311SOL    HW365564   4.616   7.976   6.445
16311SOL    MW465565   4.578   8.054   6.439
16312SOL     OW65566   5.523   7.563   7.095
16312SOL    HW265567   5.444   7.609   7.123
16312SOL    HW365568   5.558   7.617   7.024
16312SOL    MW465569   5.517   7.576   7.089
16313SOL     OW65570   4.807   8.647   6.445
16313SOL    HW265571   4.899   8.628   6.463
16313SOL    HW365572   4.780   8.577   6.385
16313SOL    MW465573   4.815   8.635   6.439
16314SOL     OW65574   4.600   8.467   5.800
16314SOL    HW265575   4.586   8.379   5.765
16314SOL    HW365576   4.551   8.524   5.741
16314SOL    MW465577   4.592   8.462   5.788
16315SOL     OW65578   4.013   8.191   6.579
16315SOL    HW265579   3.963   8.190   6.660
16315SOL    HW365580   4.033   8.283   6.563
16315SOL    MW465581   4.009   8.203   6.587
16316SOL     OW65582   5.080   8.955   7.341
16316SOL    HW265583   5.080   9.049   7.357
16316SOL    HW365584   5.125   8.945   7.257
16316SOL    MW465585   5.086   8.965   7.332
16317SOL     OW65586   5.319   7.673   5.902
16317SOL    HW265587   5.312   7.677   5.997
16317SOL    HW365588   5.331   7.764   5.875
16317SOL    MW465589   5.320   7.686   5.910
16318SOL     OW65590   4.608   8.236   6.016
16318SOL    HW265591   4.588   8.222   5.923
16318SOL    HW365592   4.701   8.215   6.023
16318SOL    MW465593   4.618   8.231   6.005
16319SOL     OW65594   3.935   7.859   7.320
16319SOL    HW265595   3.892   7.918   7.257
16319SOL    HW365596   4.003   7.914   7.360
16319SOL    MW465597   3.939   7.874   7.317
16320SOL     OW65598   5.047   8.479   6.865
16320SOL    HW265599   5.110   8.476   6.938
16320SOL    HW365600   4.963   8.497   6.907
16320SOL    MW465601   5.043   8.481   6.880
16321SOL     OW65602   5.386   7.656   6.644
16321SOL    HW265603   5.431   7.574   6.663
16321SOL    HW365604   5.406   7.712   6.720
16321SOL    MW465605   5.396   7.652   6.656
16322SOL     OW65606   3.834   7.499   6.743
16322SOL    HW265607   3.825   7.500   6.648
16322SOL    HW365608   3.928   7.511   6.758
16322SOL    MW465609   3.846   7.502   6.734
16323SOL     OW65610   5.471   8.692   6.363
16323SOL    HW265611   5.450   8.638   6.286
16323SOL    HW365612   5.567   8.690   6.367
16323SOL    MW465613   5.480   8.685   6.352
16324SOL     OW65614   4.163   8.837   7.106
16324SOL    HW265615   4.084   8.787   7.129
16324SOL    HW365616   4.233   8.796   7.156
16324SOL    MW465617   4.161   8.825   7.116
16325SOL     OW65618   4.047   7.626   5.789
16325SOL    HW265619   3.976   7.681   5.757
16325SOL    HW365620   4.089   7.592   5.710
16325SOL    MW465621   4.043   7.628   5.775
16326SOL     OW65622   5.171   8.123   6.625
16326SOL    HW265623   5.094   8.169   6.591
16326SOL    HW365624   5.228   8.192   6.659
16326SOL    MW465625   5.168   8.138   6.625
16327SOL     OW65626   3.803   7.725   5.638
16327SOL    HW265627   3.770   7.804   5.682
16327SOL    HW365628   3.858   7.758   5.567
16327SOL    MW465629   3.806   7.739   5.635
16328SOL     OW65630   7.207   8.271   1.252
16328SOL    HW265631   7.162   8.338   1.303
16328SOL    HW365632   7.295   8.307   1.238
16328SOL    MW465633   7.213   8.284   1.256
16329SOL     OW65634   6.135   8.522   0.486
16329SOL    HW265635   6.225   8.497   0.470
16329SOL    HW365636   6.131   8.615   0.463
16329SOL    MW465637   6.147   8.531   0.481
16330SOL     OW65638   7.187   8.665   1.233
16330SOL    HW265639   7.108   8.630   1.191
16330SOL    HW365640   7.214   8.737   1.177
16330SOL    MW465641   7.180   8.670   1.220
16331SOL     OW65642   6.419   7.978   0.499
16331SOL    HW265643   6.394   8.066   0.527
16331SOL    HW365644   6.416   7.981   0.403
16331SOL    MW465645   6.415   7.990   0.491
16332SOL     OW65646   5.861   8.006   0.427
16332SOL    HW265647   5.893   8.094   0.409
16332SOL    HW365648   5.849   8.004   0.522
16332SOL    MW465649   5.864   8.018   0.439
16333SOL     OW65650   5.939   8.419   1.328
16333SOL    HW265651   6.002   8.366   1.279
16333SOL    HW365652   5.920   8.493   1.271
16333SOL    MW465653   5.945   8.421   1.315
16334SOL     OW65654   6.260   7.761   0.514
16334SOL    HW265655   6.318   7.837   0.516
16334SOL    HW365656   6.195   7.782   0.447
16334SOL    MW465657   6.259   7.773   0.505
16335SOL     OW65658   6.347   8.688   0.689
16335SOL    HW265659   6.427   8.691   0.741
16335SOL    HW365660   6.375   8.655   0.603
16335SOL    MW465661   6.361   8.684   0.684
16336SOL     OW65662   6.372   9.029   1.592
16336SOL    HW265663   6.456   9.055   1.631
16336SOL    HW365664   6.396   8.973   1.518
16336SOL    MW465665   6.386   9.025   1.587
16337SOL     OW65666   6.124   8.192   0.680
16337SOL    HW265667   6.109   8.112   0.731
16337SOL    HW365668   6.206   8.227   0.714
16337SOL    MW465669   6.132   8.184   0.692
16338SOL     OW65670   6.266   8.018   1.057
16338SOL    HW265671   6.172   8.014   1.075
16338SOL    HW365672   6.296   7.927   1.066
16338SOL    MW465673   6.257   8.006   1.060
16339SOL     OW65674   6.012   8.432   0.961
16339SOL    HW265675   5.967   8.439   0.877
16339SOL    HW365676   5.992   8.515   1.005
16339SOL    MW465677   6.004   8.444   0.955
16340SOL     OW65678   5.973   8.805   0.871
16340SOL    HW265679   5.949   8.858   0.947
16340SOL    HW365680   6.029   8.863   0.819
16340SOL    MW465681   5.977   8.820   0.874
16341SOL     OW65682   6.535   8.449   0.681
16341SOL    HW265683   6.449   8.436   0.721
16341SOL    HW365684   6.588   8.376   0.713
16341SOL    MW465685   6.531   8.438   0.690
16342SOL     OW65686   7.399   7.812   0.854
16342SOL    HW265687   7.336   7.792   0.923
16342SOL    HW365688   7.389   7.741   0.791
16342SOL    MW465689   7.389   7.799   0.855
16343SOL     OW65690   6.023   7.784   0.366
16343SOL    HW265691   5.997   7.746   0.282
16343SOL    HW365692   5.960   7.854   0.382
16343SOL    MW465693   6.012   7.787   0.357
16344SOL     OW65694   5.858   8.745   0.403
16344SOL    HW265695   5.806   8.813   0.359
16344SOL    HW365696   5.855   8.671   0.343
16344SOL    MW465697   5.850   8.744   0.390
16345SOL     OW65698   7.200   8.584   0.506
16345SOL    HW265699   7.110   8.584   0.541
16345SOL    HW365700   7.193   8.630   0.423
16345SOL    MW465701   7.187   8.590   0.500
16346SOL     OW65702   7.000   8.219   1.578
16346SOL    HW265703   7.069   8.157   1.555
16346SOL    HW365704   6.925   8.193   1.525
16346SOL    MW465705   7.000   8.206   1.569
16347SOL     OW65706   6.736   8.606   1.570
16347SOL    HW265707   6.721   8.699   1.555
16347SOL    HW365708   6.831   8.596   1.570
16347SOL    MW465709   6.745   8.616   1.567
16348SOL     OW65710   6.532   8.030   1.771
16348SOL    HW265711   6.622   8.031   1.738
16348SOL    HW365712   6.491   7.955   1.729
16348SOL    MW465713   6.538   8.020   1.762
16349SOL     OW65714   7.107   8.562   0.898
16349SOL    HW265715   7.110   8.496   0.829
16349SOL    HW365716   7.192   8.605   0.894
16349SOL    MW465717   7.119   8.558   0.889
16350SOL     OW65718   6.727   8.165   0.467
16350SOL    HW265719   6.753   8.189   0.378
16350SOL    HW365720   6.709   8.072   0.463
16350SOL    MW465721   6.729   8.157   0.454
16351SOL     OW65722   6.312   7.834   1.721
16351SOL    HW265723   6.322   7.760   1.661
16351SOL    HW365724   6.348   7.803   1.804
16351SOL    MW465725   6.318   7.820   1.723
16352SOL     OW65726   7.432   7.563   0.685
16352SOL    HW265727   7.486   7.514   0.747
16352SOL    HW365728   7.375   7.497   0.646
16352SOL    MW465729   7.432   7.547   0.687
16353SOL     OW65730   6.551   7.516   1.098
16353SOL    HW265731   6.510   7.594   1.060
16353SOL    HW365732   6.645   7.534   1.093
16353SOL    MW465733   6.557   7.528   1.093
16354SOL     OW65734   7.180   8.120   0.464
16354SOL    HW265735   7.219   8.120   0.551
16354SOL    HW365736   7.121   8.196   0.464
16354SOL    MW465737   7.177   8.131   0.475
16355SOL     OW65738   6.497   8.487   1.593
16355SOL    HW265739   6.474   8.467   1.683
16355SOL    HW365740   6.582   8.531   1.598
16355SOL    MW465741   6.504   8.490   1.605
16356SOL     OW65742   6.577   7.624   1.353
16356SOL    HW265743   6.583   7.586   1.266
16356SOL    HW365744   6.566   7.718   1.338
16356SOL    MW465745   6.578   7.632   1.341
16357SOL     OW65746   6.666   8.113   1.187
16357SOL    HW265747   6.741   8.142   1.134
16357SOL    HW365748   6.598   8.178   1.171
16357SOL    MW465749   6.667   8.125   1.177
16358SOL     OW65750   7.216   8.081   1.464
16358SOL    HW265751   7.197   7.990   1.443
16358SOL    HW365752   7.194   8.130   1.385
16358SOL    MW465753   7.211   8.074   1.451
16359SOL     OW65754   6.663   7.819   1.570
16359SOL    HW265755   6.629   7.858   1.489
16359SOL    HW365756   6.641   7.727   1.563
16359SOL    MW465757   6.656   7.812   1.560
16360SOL     OW65758   7.072   8.633   1.646
16360SOL    HW265759   7.154   8.674   1.676
16360SOL    HW365760   7.035   8.595   1.726
16360SOL    MW465761   7.078   8.634   1.661
16361SOL     OW65762   7.367   8.006   0.630
16361SOL    HW265763   7.456   7.975   0.647
16361SOL    HW365764   7.310   7.946   0.678
16361SOL    MW465765   7.370   7.994   0.639
16362SOL     OW65766   5.793   7.720   0.659
16362SOL    HW265767   5.784   7.660   0.585
16362SOL    HW365768   5.726   7.691   0.722
16362SOL    MW465769   5.783   7.707   0.657
16363SOL     OW65770   5.740   7.893   1.022
16363SOL    HW265771   5.712   7.984   1.031
16363SOL    HW365772   5.677   7.854   0.961
16363SOL    MW465773   5.727   7.899   1.016
16364SOL     OW65774   6.335   8.646   0.035
16364SOL    HW265775   6.257   8.592   0.022
16364SOL    HW365776   6.306   8.719   0.088
16364SOL    MW465777   6.321   8.648   0.040
16365SOL     OW65778   7.461   8.386   1.227
16365SOL    HW265779   7.477   8.424   1.140
16365SOL    HW365780   7.495   8.452   1.288
16365SOL    MW465781   7.468   8.399   1.223
16366SOL     OW65782   5.724   8.168   1.192
16366SOL    HW265783   5.786   8.198   1.258
16366SOL    HW365784   5.658   8.237   1.186
16366SOL    MW465785   5.723   8.181   1.199
16367SOL     OW65786   5.871   8.596   1.151
16367SOL    HW265787   5.924   8.671   1.176
16367SOL    HW365788   5.790   8.634   1.117
16367SOL    MW465789   5.867   8.611   1.151
16368SOL     OW65790   6.411   8.500   1.139
16368SOL    HW265791   6.439   8.409   1.151
16368SOL    HW365792   6.340   8.494   1.075
16368SOL    MW465793   6.404   8.488   1.134
16369SOL     OW65794   5.726   8.365   0.557
16369SOL    HW265795   5.817   8.380   0.584
16369SOL    HW365796   5.729   8.286   0.503
16369SOL    MW465797   5.738   8.357   0.555
16370SOL     OW65798   5.962   8.073   1.811
16370SOL    HW265799   5.909   8.153   1.818
16370SOL    HW365800   6.032   8.085   1.876
16370SOL    MW465801   5.964   8.086   1.819
16371SOL     OW65802   6.348   7.623   1.518
16371SOL    HW265803   6.325   7.531   1.520
16371SOL    HW365804   6.434   7.625   1.475
16371SOL    MW465805   6.355   7.613   1.514
16372SOL     OW65806   6.032   8.147   1.557
16372SOL    HW265807   6.112   8.197   1.543
16372SOL    HW365808   6.023   8.141   1.652
16372SOL    MW465809   6.041   8.153   1.567
16373SOL     OW65810   7.009   7.672   1.828
16373SOL    HW265811   7.065   7.599   1.854
16373SOL    HW365812   6.979   7.710   1.910
16373SOL    MW465813   7.013   7.667   1.841
16374SOL     OW65814   6.567   9.020   0.631
16374SOL    HW265815   6.650   8.974   0.615
16374SOL    HW365816   6.557   9.019   0.727
16374SOL    MW465817   6.577   9.013   0.641
16375SOL     OW65818   7.399   8.165   0.945
16375SOL    HW265819   7.488   8.195   0.927
16375SOL    HW365820   7.379   8.105   0.874
16375SOL    MW465821   7.408   8.162   0.934
16376SOL     OW65822   7.250   8.344   1.825
16376SOL    HW265823   7.305   8.268   1.806
16376SOL    HW365824   7.252   8.352   1.920
16376SOL    MW465825   7.258   8.335   1.833
16377SOL     OW65826   6.300   9.077   0.036
16377SOL    HW265827   6.240   9.146   0.006
16377SOL    HW365828   6.245   9.019   0.089
16377SOL    MW465829   6.284   9.079   0.038
16378SOL     OW65830   6.545   7.906   1.344
16378SOL    HW265831   6.464   7.947   1.372
16378SOL    HW365832   6.592   7.974   1.296
16378SOL    MW465833   6.540   7.921   1.342
16379SOL     OW65834   6.805   8.244   0.967
16379SOL    HW265835   6.818   8.338   0.977
16379SOL    HW365836   6.766   8.234   0.881
16379SOL    MW465837   6.801   8.255   0.957
16380SOL     OW65838   6.257   8.439   0.771
16380SOL    HW265839   6.168   8.430   0.804
16380SOL    HW365840   6.261   8.529   0.739
16380SOL    MW465841   6.246   8.450   0.771
16381SOL     OW65842   7.056   8.022   0.766
16381SOL    HW265843   7.001   7.943   0.765
16381SOL    HW365844   7.038   8.063   0.850
16381SOL    MW465845   7.046   8.017   0.775
16382SOL     OW65846   6.027   7.709   1.583
16382SOL    HW265847   5.948   7.727   1.635
16382SOL    HW365848   6.022   7.771   1.510
16382SOL    MW465849   6.017   7.719   1.580
16383SOL     OW65850   6.675   8.226   0.723
16383SOL    HW265851   6.612   8.158   0.747
16383SOL    HW365852   6.695   8.207   0.631
16383SOL    MW465853   6.669   8.213   0.715
16384SOL     OW65854   6.423   8.530   0.449
16384SOL    HW265855   6.425   8.504   0.356
16384SOL    HW365856   6.481   8.467   0.492
16384SOL    MW465857   6.431   8.519   0.443
16385SOL     OW65858   6.933   7.774   0.782
16385SOL    HW265859   6.961   7.706   0.843
16385SOL    HW365860   6.847   7.745   0.752
16385SOL    MW465861   6.926   7.761   0.786
16386SOL     OW65862   5.738   8.708   0.716
16386SOL    HW265863   5.802   8.740   0.779
16386SOL    HW365864   5.787   8.644   0.664
16386SOL    MW465865   5.753   8.704   0.717
16387SOL     OW65866   5.992   7.531   1.789
16387SOL    HW265867   5.920   7.496   1.737
16387SOL    HW365868   6.050   7.572   1.724
16387SOL    MW465869   5.990   7.532   1.774
16388SOL     OW65870   7.456   8.550   1.442
16388SOL    HW265871   7.371   8.563   1.401
16388SOL    HW365872   7.436   8.514   1.529
16388SOL    MW465873   7.443   8.546   1.447
16389SOL     OW65874   6.080   8.472   0.051
16389SOL    HW265875   6.003   8.485   0.107
16389SOL    HW365876   6.044   8.436  -0.030
16389SOL    MW465877   6.066   8.468   0.048
16390SOL     OW65878   6.233   8.794   0.986
16390SOL    HW265879   6.226   8.773   1.080
16390SOL    HW365880   6.151   8.762   0.949
16390SOL    MW465881   6.221   8.788   0.993
16391SOL     OW65882   7.097   7.804   1.388
16391SOL    HW265883   7.044   7.806   1.468
16391SOL    HW365884   7.082   7.717   1.351
16391SOL    MW465885   7.089   7.794   1.393
16392SOL     OW65886   7.433   7.728   1.261
16392SOL    HW265887   7.414   7.795   1.196
16392SOL    HW365888   7.490   7.666   1.216
16392SOL    MW465889   7.437   7.729   1.247
16393SOL     OW65890   6.362   7.561   0.701
16393SOL    HW265891   6.291   7.622   0.683
16393SOL    HW365892   6.413   7.558   0.620
16393SOL    MW465893   6.358   7.567   0.688
16394SOL     OW65894   6.120   8.801   0.450
16394SOL    HW265895   6.113   8.833   0.540
16394SOL    HW365896   6.030   8.785   0.422
16394SOL    MW465897   6.108   8.803   0.457
16395SOL     OW65898   6.322   8.218   1.831
16395SOL    HW265899   6.392   8.160   1.803
16395SOL    HW365900   6.265   8.163   1.886
16395SOL    MW465901   6.324   8.205   1.835
16396SOL     OW65902   7.109   8.430   1.464
16396SOL    HW265903   7.114   8.483   1.544
16396SOL    HW365904   7.071   8.347   1.492
16396SOL    MW465905   7.105   8.425   1.479
16397SOL     OW65906   6.749   7.565   1.710
16397SOL    HW265907   6.744   7.472   1.691
16397SOL    HW365908   6.832   7.576   1.756
16397SOL    MW465909   6.757   7.554   1.714
16398SOL     OW65910   6.123   8.085   0.164
16398SOL    HW265911   6.089   8.141   0.234
16398SOL    HW365912   6.194   8.035   0.204
16398SOL    MW465913   6.129   8.086   0.178
16399SOL     OW65914   7.219   8.836   0.986
16399SOL    HW265915   7.254   8.818   0.899
16399SOL    HW365916   7.124   8.837   0.973
16399SOL    MW465917   7.211   8.833   0.973
16400SOL     OW65918   6.648   8.484   1.355
16400SOL    HW265919   6.691   8.519   1.433
16400SOL    HW365920   6.631   8.561   1.301
16400SOL    MW465921   6.651   8.499   1.358
16401SOL     OW65922   6.039   7.626   0.657
16401SOL    HW265923   6.089   7.669   0.588
16401SOL    HW365924   5.954   7.670   0.657
16401SOL    MW465925   6.036   7.639   0.648
16402SOL     OW65926   5.798   8.688   1.517
16402SOL    HW265927   5.826   8.641   1.595
16402SOL    HW365928   5.719   8.643   1.488
16402SOL    MW465929   5.791   8.677   1.523
16403SOL     OW65930   6.306   8.015   1.484
16403SOL    HW265931   6.278   8.103   1.508
16403SOL    HW365932   6.275   7.959   1.555
16403SOL    MW465933   6.298   8.018   1.496
16404SOL     OW65934   6.848   8.233   0.203
16404SOL    HW265935   6.895   8.251   0.122
16404SOL    HW365936   6.814   8.317   0.231
16404SOL    MW465937   6.850   8.247   0.196
16405SOL     OW65938   5.961   8.411   0.697
16405SOL    HW265939   6.019   8.467   0.645
16405SOL    HW365940   6.005   8.326   0.699
16405SOL    MW465941   5.974   8.408   0.690
16406SOL     OW65942   7.101   7.763   0.534
16406SOL    HW265943   7.023   7.713   0.559
16406SOL    HW365944   7.072   7.854   0.534
16406SOL    MW465945   7.087   7.767   0.537
16407SOL     OW65946   6.687   7.725   0.693
16407SOL    HW265947   6.707   7.800   0.637
16407SOL    HW365948   6.667   7.764   0.778
16407SOL    MW465949   6.688   7.741   0.697
16408SOL     OW65950   6.583   8.975   0.025
16408SOL    HW265951   6.610   9.053  -0.023
16408SOL    HW365952   6.490   8.990   0.044
16408SOL    MW465953   6.574   8.988   0.021
16409SOL     OW65954   7.447   8.498   1.712
16409SOL    HW265955   7.360   8.478   1.748
16409SOL    HW365956   7.501   8.424   1.737
16409SOL    MW465957   7.442   8.487   1.720
16410SOL     OW65958   5.623   8.137   0.416
16410SOL    HW265959   5.563   8.109   0.486
16410SOL    HW365960   5.697   8.077   0.422
16410SOL    MW465961   5.625   8.126   0.425
16411SOL     OW65962   6.049   7.876   1.305
16411SOL    HW265963   6.082   7.957   1.345
16411SOL    HW365964   6.022   7.902   1.217
16411SOL    MW465965   6.048   7.890   1.299
16412SOL     OW65966   6.003   7.843   1.041
16412SOL    HW265967   6.033   7.757   1.012
16412SOL    HW365968   5.908   7.836   1.044
16412SOL    MW465969   5.995   7.832   1.039
16413SOL     OW65970   6.832   8.052   1.732
16413SOL    HW265971   6.884   7.987   1.685
16413SOL    HW365972   6.790   8.103   1.662
16413SOL    MW465973   6.833   8.049   1.715
16414SOL     OW65974   6.931   7.847   1.593
16414SOL    HW265975   6.838   7.831   1.580
16414SOL    HW365976   6.957   7.785   1.661
16414SOL    MW465977   6.921   7.837   1.600
16415SOL     OW65978   6.146   7.621   0.932
16415SOL    HW265979   6.156   7.530   0.958
16415SOL    HW365980   6.102   7.617   0.847
16415SOL    MW465981   6.142   7.609   0.924
16416SOL     OW65982   7.297   7.943   1.103
16416SOL    HW265983   7.230   7.976   1.163
16416SOL    HW365984   7.340   8.021   1.069
16416SOL    MW465985   7.295   7.958   1.107
16417SOL     OW65986   7.475   8.663   1.073
16417SOL    HW265987   7.468   8.603   0.998
16417SOL    HW365988   7.401   8.723   1.062
16417SOL    MW465989   7.465   8.663   1.062
16418SOL     OW65990   6.857   8.525   0.991
16418SOL    HW265991   6.871   8.497   1.082
16418SOL    HW365992   6.943   8.556   0.963
16418SOL    MW465993   6.870   8.526   1.000
16419SOL     OW65994   6.940   8.020   1.270
16419SOL    HW265995   6.961   8.021   1.177
16419SOL    HW365996   6.985   7.942   1.303
16419SOL    MW465997   6.947   8.010   1.262
16420SOL     OW65998   7.433   8.151   1.812
16420SOL    HW265999   7.470   8.096   1.881
16420SOL    HW366000   7.458   8.108   1.730
16420SOL    MW466001   7.440   8.139   1.811
16421SOL     OW66002   6.980   8.449   1.863
16421SOL    HW266003   7.046   8.397   1.817
16421SOL    HW366004   7.000   8.436   1.956
16421SOL    MW466005   6.991   8.440   1.870
16422SOL     OW66006   6.991   8.310   0.490
16422SOL    HW266007   6.906   8.280   0.460
16422SOL    HW366008   6.983   8.317   0.585
16422SOL    MW466009   6.979   8.308   0.499
16423SOL     OW66010   6.351   7.753   1.044
16423SOL    HW266011   6.324   7.755   1.135
16423SOL    HW366012   6.281   7.705   0.999
16423SOL    MW466013   6.339   7.749   1.051
16424SOL     OW66014   7.107   8.830   1.438
16424SOL    HW266015   7.092   8.759   1.501
16424SOL    HW366016   7.153   8.788   1.366
16424SOL    MW466017   7.113   8.814   1.438
16425SOL     OW66018   6.181   8.561   1.555
16425SOL    HW266019   6.218   8.566   1.467
16425SOL    HW366020   6.220   8.634   1.602
16425SOL    MW466021   6.191   8.571   1.550
16426SOL     OW66022   6.361   8.604   1.367
16426SOL    HW266023   6.420   8.550   1.420
16426SOL    HW366024   6.376   8.576   1.277
16426SOL    MW466025   6.371   8.593   1.363
16427SOL     OW66026   6.832   7.572   1.130
16427SOL    HW266027   6.887   7.581   1.052
16427SOL    HW366028   6.887   7.606   1.201
16427SOL    MW466029   6.846   7.577   1.129
16428SOL     OW66030   5.839   8.485   0.314
16428SOL    HW266031   5.776   8.501   0.243
16428SOL    HW366032   5.786   8.448   0.385
16428SOL    MW466033   5.824   8.482   0.314
16429SOL     OW66034   6.195   8.839   0.173
16429SOL    HW266035   6.210   8.815   0.265
16429SOL    HW366036   6.103   8.817   0.157
16429SOL    MW466037   6.185   8.832   0.183
16430SOL     OW66038   6.610   8.706   1.137
16430SOL    HW266039   6.542   8.640   1.153
16430SOL    HW366040   6.628   8.700   1.044
16430SOL    MW466041   6.603   8.697   1.128
16431SOL     OW66042   6.603   7.845   0.958
16431SOL    HW266043   6.533   7.797   1.003
16431SOL    HW366044   6.635   7.908   1.022
16431SOL    MW466045   6.598   7.847   0.972
16432SOL     OW66046   6.254   8.281   1.578
16432SOL    HW266047   6.247   8.376   1.566
16432SOL    HW366048   6.263   8.270   1.673
16432SOL    MW466049   6.255   8.293   1.588
16433SOL     OW66050   7.059   7.559   1.303
16433SOL    HW266051   7.130   7.505   1.267
16433SOL    HW366052   7.058   7.538   1.396
16433SOL    MW466053   7.068   7.550   1.311
16434SOL     OW66054   6.070   7.951   0.771
16434SOL    HW266055   6.141   7.899   0.734
16434SOL    HW366056   6.056   7.916   0.858
16434SOL    MW466057   6.078   7.940   0.778
16435SOL     OW66058   6.706   7.892   0.495
16435SOL    HW266059   6.728   7.829   0.427
16435SOL    HW366060   6.611   7.884   0.506
16435SOL    MW466061   6.696   7.883   0.487
16436SOL     OW66062   5.791   7.582   0.427
16436SOL    HW266063   5.862   7.603   0.366
16436SOL    HW366064   5.745   7.510   0.385
16436SOL    MW466065   5.795   7.576   0.413
16437SOL     OW66066   5.622   8.049   1.570
16437SOL    HW266067   5.686   8.115   1.545
16437SOL    HW366068   5.541   8.076   1.527
16437SOL    MW466069   5.620   8.061   1.562
16438SOL     OW66070   6.916   8.633   0.457
16438SOL    HW266071   6.888   8.719   0.490
16438SOL    HW366072   6.944   8.649   0.367
16438SOL    MW466073   6.916   8.647   0.449
16439SOL     OW66074   6.578   7.553   0.510
16439SOL    HW266075   6.615   7.612   0.575
16439SOL    HW366076   6.555   7.609   0.436
16439SOL    MW466077   6.579   7.568   0.509
16440SOL     OW66078   7.431   8.435   0.932
16440SOL    HW266079   7.422   8.467   0.843
16440SOL    HW366080   7.384   8.351   0.932
16440SOL    MW466081   7.424   8.428   0.922
16441SOL     OW66082   5.807   8.275   1.511
16441SOL    HW266083   5.828   8.344   1.449
16441SOL    HW366084   5.887   8.222   1.516
16441SOL    MW466085   5.820   8.276   1.505
16442SOL     OW66086   7.343   8.366   0.633
16442SOL    HW266087   7.437   8.355   0.621
16442SOL    HW366088   7.319   8.438   0.574
16442SOL    MW466089   7.353   8.374   0.624
16443SOL     OW66090   5.792   8.290   1.778
16443SOL    HW266091   5.718   8.234   1.804
16443SOL    HW366092   5.787   8.293   1.683
16443SOL    MW466093   5.781   8.283   1.768
16444SOL     OW66094   5.958   7.577   1.228
16444SOL    HW266095   6.001   7.661   1.248
16444SOL    HW366096   6.031   7.515   1.221
16444SOL    MW466097   5.973   7.580   1.229
16445SOL     OW66098   5.999   8.244   0.406
16445SOL    HW266099   5.999   8.339   0.391
16445SOL    HW366100   6.076   8.228   0.460
16445SOL    MW466101   6.009   8.255   0.411
16446SOL     OW66102   6.775   8.103   1.470
16446SOL    HW266103   6.811   8.076   1.386
16446SOL    HW366104   6.688   8.137   1.449
16446SOL    MW466105   6.769   8.104   1.457
16447SOL     OW66106   5.758   7.975   0.695
16447SOL    HW266107   5.820   7.982   0.768
16447SOL    HW366108   5.758   7.882   0.672
16447SOL    MW466109   5.766   7.964   0.702
16448SOL     OW66110   6.440   8.236   1.179
16448SOL    HW266111   6.398   8.154   1.155
16448SOL    HW366112   6.441   8.235   1.275
16448SOL    MW466113   6.433   8.225   1.188
16449SOL     OW66114   6.244   7.706   1.284
16449SOL    HW266115   6.175   7.769   1.305
16449SOL    HW366116   6.271   7.670   1.369
16449SOL    MW466117   6.238   7.709   1.297
16450SOL     OW66118   5.627   8.547   0.153
16450SOL    HW266119   5.596   8.612   0.216
16450SOL    HW366120   5.576   8.469   0.172
16450SOL    MW466121   5.617   8.544   0.163
16451SOL     OW66122   7.039   7.559   0.901
16451SOL    HW266123   7.127   7.568   0.938
16451SOL    HW366124   7.049   7.500   0.827
16451SOL    MW466125   7.053   7.553   0.895
16452SOL     OW66126   7.071   8.298   0.745
16452SOL    HW266127   7.151   8.313   0.694
16452SOL    HW366128   7.064   8.203   0.751
16452SOL    MW466129   7.080   8.287   0.740
16453SOL     OW66130   6.521   8.224   1.442
16453SOL    HW266131   6.590   8.291   1.439
16453SOL    HW366132   6.454   8.262   1.498
16453SOL    MW466133   6.522   8.237   1.449
16454SOL     OW66134   5.939   8.524   1.690
16454SOL    HW266135   5.893   8.440   1.692
16454SOL    HW366136   5.996   8.518   1.614
16454SOL    MW466137   5.941   8.512   1.682
16455SOL     OW66138   6.190   8.899   0.691
16455SOL    HW266139   6.255   8.832   0.712
16455SOL    HW366140   6.242   8.976   0.668
16455SOL    MW466141   6.205   8.901   0.690
16456SOL     OW66142   6.451   8.064   0.821
16456SOL    HW266143   6.391   8.082   0.893
16456SOL    HW366144   6.485   7.976   0.840
16456SOL    MW466145   6.447   8.054   0.834
16457SOL     OW66146   7.392   7.563   1.490
16457SOL    HW266147   7.313   7.609   1.518
16457SOL    HW366148   7.427   7.617   1.419
16457SOL    MW466149   7.386   7.576   1.484
16458SOL     OW66150   6.676   8.647   0.840
16458SOL    HW266151   6.768   8.628   0.858
16458SOL    HW366152   6.649   8.577   0.780
16458SOL    MW466153   6.684   8.635   0.834
16459SOL     OW66154   5.882   8.191   0.974
16459SOL    HW266155   5.832   8.190   1.055
16459SOL    HW366156   5.902   8.283   0.958
16459SOL    MW466157   5.878   8.203   0.982
16460SOL     OW66158   6.949   8.955   1.736
16460SOL    HW266159   6.949   9.049   1.752
16460SOL    HW366160   6.994   8.945   1.652
16460SOL    MW466161   6.955   8.965   1.727
16461SOL     OW66162   7.188   7.673   0.297
16461SOL    HW266163   7.181   7.677   0.392
16461SOL    HW366164   7.200   7.764   0.270
16461SOL    MW466165   7.189   7.686   0.305
16462SOL     OW66166   5.804   7.859   1.715
16462SOL    HW266167   5.761   7.918   1.652
16462SOL    HW366168   5.872   7.914   1.755
16462SOL    MW466169   5.808   7.874   1.712
16463SOL     OW66170   6.916   8.479   1.260
16463SOL    HW266171   6.979   8.476   1.333
16463SOL    HW366172   6.832   8.497   1.302
16463SOL    MW466173   6.912   8.481   1.275
16464SOL     OW66174   7.255   7.656   1.039
16464SOL    HW266175   7.300   7.574   1.058
16464SOL    HW366176   7.275   7.712   1.115
16464SOL    MW466177   7.265   7.652   1.051
16465SOL     OW66178   5.703   7.499   1.138
16465SOL    HW266179   5.694   7.500   1.043
16465SOL    HW366180   5.797   7.511   1.153
16465SOL    MW466181   5.715   7.502   1.129
16466SOL     OW66182   7.340   8.692   0.758
16466SOL    HW266183   7.319   8.638   0.681
16466SOL    HW366184   7.436   8.690   0.762
16466SOL    MW466185   7.349   8.685   0.747
16467SOL     OW66186   6.032   8.837   1.501
16467SOL    HW266187   5.953   8.787   1.524
16467SOL    HW366188   6.102   8.796   1.551
16467SOL    MW466189   6.030   8.825   1.511
16468SOL     OW66190   5.916   7.626   0.184
16468SOL    HW266191   5.845   7.681   0.152
16468SOL    HW366192   5.958   7.592   0.105
16468SOL    MW466193   5.912   7.628   0.170
16469SOL     OW66194   7.040   8.123   1.020
16469SOL    HW266195   6.963   8.169   0.986
16469SOL    HW366196   7.097   8.192   1.054
16469SOL    MW466197   7.037   8.138   1.020
16470SOL     OW66198   5.672   7.725   0.033
16470SOL    HW266199   5.639   7.804   0.077
16470SOL    HW366200   5.727   7.758  -0.038
16470SOL    MW466201   5.675   7.739   0.030
16471SOL     OW66202   7.341   8.339   2.125
16471SOL    HW266203   7.382   8.281   2.190
16471SOL    HW366204   7.248   8.331   2.142
16471SOL    MW466205   7.335   8.331   2.135
16472SOL     OW66206   7.207   8.271   3.120
16472SOL    HW266207   7.162   8.338   3.171
16472SOL    HW366208   7.295   8.307   3.106
16472SOL    MW466209   7.213   8.284   3.124
16473SOL     OW66210   6.135   8.522   2.354
16473SOL    HW266211   6.225   8.497   2.338
16473SOL    HW366212   6.131   8.615   2.331
16473SOL    MW466213   6.147   8.531   2.349
16474SOL     OW66214   7.187   8.665   3.101
16474SOL    HW266215   7.108   8.630   3.059
16474SOL    HW366216   7.214   8.737   3.045
16474SOL    MW466217   7.180   8.670   3.088
16475SOL     OW66218   6.419   7.978   2.367
16475SOL    HW266219   6.394   8.066   2.395
16475SOL    HW366220   6.416   7.981   2.271
16475SOL    MW466221   6.415   7.990   2.359
16476SOL     OW66222   5.861   8.006   2.295
16476SOL    HW266223   5.893   8.094   2.277
16476SOL    HW366224   5.849   8.004   2.390
16476SOL    MW466225   5.864   8.018   2.307
16477SOL     OW66226   5.939   8.419   3.196
16477SOL    HW266227   6.002   8.366   3.147
16477SOL    HW366228   5.920   8.493   3.139
16477SOL    MW466229   5.945   8.421   3.183
16478SOL     OW66230   6.260   7.761   2.382
16478SOL    HW266231   6.318   7.837   2.384
16478SOL    HW366232   6.195   7.782   2.315
16478SOL    MW466233   6.259   7.773   2.373
16479SOL     OW66234   6.347   8.688   2.557
16479SOL    HW266235   6.427   8.691   2.609
16479SOL    HW366236   6.375   8.655   2.471
16479SOL    MW466237   6.361   8.684   2.552
16480SOL     OW66238   6.372   9.029   3.460
16480SOL    HW266239   6.456   9.055   3.499
16480SOL    HW366240   6.396   8.973   3.386
16480SOL    MW466241   6.386   9.025   3.455
16481SOL     OW66242   6.124   8.192   2.548
16481SOL    HW266243   6.109   8.112   2.599
16481SOL    HW366244   6.206   8.227   2.582
16481SOL    MW466245   6.132   8.184   2.560
16482SOL     OW66246   6.266   8.018   2.925
16482SOL    HW266247   6.172   8.014   2.943
16482SOL    HW366248   6.296   7.927   2.934
16482SOL    MW466249   6.257   8.006   2.928
16483SOL     OW66250   6.012   8.432   2.829
16483SOL    HW266251   5.967   8.439   2.745
16483SOL    HW366252   5.992   8.515   2.873
16483SOL    MW466253   6.004   8.444   2.823
16484SOL     OW66254   6.974   8.670   2.073
16484SOL    HW266255   6.892   8.706   2.039
16484SOL    HW366256   7.042   8.713   2.022
16484SOL    MW466257   6.972   8.680   2.061
16485SOL     OW66258   5.973   8.805   2.739
16485SOL    HW266259   5.949   8.858   2.815
16485SOL    HW366260   6.029   8.863   2.687
16485SOL    MW466261   5.977   8.820   2.742
16486SOL     OW66262   6.535   8.449   2.549
16486SOL    HW266263   6.449   8.436   2.589
16486SOL    HW366264   6.588   8.376   2.581
16486SOL    MW466265   6.531   8.438   2.558
16487SOL     OW66266   6.526   8.811   2.266
16487SOL    HW266267   6.503   8.873   2.334
16487SOL    HW366268   6.483   8.729   2.292
16487SOL    MW466269   6.518   8.807   2.277
16488SOL     OW66270   7.399   7.812   2.722
16488SOL    HW266271   7.336   7.792   2.791
16488SOL    HW366272   7.389   7.741   2.659
16488SOL    MW466273   7.389   7.799   2.723
16489SOL     OW66274   6.023   7.784   2.234
16489SOL    HW266275   5.997   7.746   2.150
16489SOL    HW366276   5.960   7.854   2.250
16489SOL    MW466277   6.012   7.787   2.225
16490SOL     OW66278   5.858   8.745   2.271
16490SOL    HW266279   5.806   8.813   2.227
16490SOL    HW366280   5.855   8.671   2.211
16490SOL    MW466281   5.850   8.744   2.258
16491SOL     OW66282   7.455   7.981   2.024
16491SOL    HW266283   7.364   7.983   2.052
16491SOL    HW366284   7.500   8.043   2.082
16491SOL    MW466285   7.448   7.989   2.034
16492SOL     OW66286   7.200   8.584   2.374
16492SOL    HW266287   7.110   8.584   2.409
16492SOL    HW366288   7.193   8.630   2.291
16492SOL    MW466289   7.187   8.590   2.368
16493SOL     OW66290   7.000   8.219   3.446
16493SOL    HW266291   7.069   8.157   3.423
16493SOL    HW366292   6.925   8.193   3.393
16493SOL    MW466293   7.000   8.206   3.437
16494SOL     OW66294   6.736   8.606   3.438
16494SOL    HW266295   6.721   8.699   3.423
16494SOL    HW366296   6.831   8.596   3.438
16494SOL    MW466297   6.745   8.616   3.435
16495SOL     OW66298   6.532   8.030   3.639
16495SOL    HW266299   6.622   8.031   3.606
16495SOL    HW366300   6.491   7.955   3.597
16495SOL    MW466301   6.538   8.020   3.630
16496SOL     OW66302   7.107   8.562   2.766
16496SOL    HW266303   7.110   8.496   2.697
16496SOL    HW366304   7.192   8.605   2.762
16496SOL    MW466305   7.119   8.558   2.757
16497SOL     OW66306   6.727   8.165   2.335
16497SOL    HW266307   6.753   8.189   2.246
16497SOL    HW366308   6.709   8.072   2.331
16497SOL    MW466309   6.729   8.157   2.322
16498SOL     OW66310   7.392   8.785   2.186
16498SOL    HW266311   7.348   8.826   2.261
16498SOL    HW366312   7.449   8.853   2.151
16498SOL    MW466313   7.394   8.799   2.191
16499SOL     OW66314   6.312   7.834   3.589
16499SOL    HW266315   6.322   7.760   3.529
16499SOL    HW366316   6.348   7.803   3.672
16499SOL    MW466317   6.318   7.820   3.591
16500SOL     OW66318   7.432   7.563   2.553
16500SOL    HW266319   7.486   7.514   2.615
16500SOL    HW366320   7.375   7.497   2.514
16500SOL    MW466321   7.432   7.547   2.555
16501SOL     OW66322   6.551   7.516   2.966
16501SOL    HW266323   6.510   7.594   2.928
16501SOL    HW366324   6.645   7.534   2.961
16501SOL    MW466325   6.557   7.528   2.961
16502SOL     OW66326   6.566   8.194   1.996
16502SOL    HW266327   6.568   8.141   1.917
16502SOL    HW366328   6.654   8.231   2.002
16502SOL    MW466329   6.578   8.193   1.985
16503SOL     OW66330   7.180   8.120   2.332
16503SOL    HW266331   7.219   8.120   2.419
16503SOL    HW366332   7.121   8.196   2.332
16503SOL    MW466333   7.177   8.131   2.343
16504SOL     OW66334   6.497   8.487   3.461
16504SOL    HW266335   6.474   8.467   3.551
16504SOL    HW366336   6.582   8.531   3.466
16504SOL    MW466337   6.504   8.490   3.473
16505SOL     OW66338   6.577   7.624   3.221
16505SOL    HW266339   6.583   7.586   3.134
16505SOL    HW366340   6.566   7.718   3.206
16505SOL    MW466341   6.578   7.632   3.209
16506SOL     OW66342   6.666   8.113   3.055
16506SOL    HW266343   6.741   8.142   3.002
16506SOL    HW366344   6.598   8.178   3.039
16506SOL    MW466345   6.667   8.125   3.045
16507SOL     OW66346   7.216   8.081   3.332
16507SOL    HW266347   7.197   7.990   3.311
16507SOL    HW366348   7.194   8.130   3.253
16507SOL    MW466349   7.211   8.074   3.319
16508SOL     OW66350   6.663   7.819   3.438
16508SOL    HW266351   6.629   7.858   3.357
16508SOL    HW366352   6.641   7.727   3.431
16508SOL    MW466353   6.656   7.812   3.428
16509SOL     OW66354   7.072   8.633   3.514
16509SOL    HW266355   7.154   8.674   3.544
16509SOL    HW366356   7.035   8.595   3.594
16509SOL    MW466357   7.078   8.634   3.529
16510SOL     OW66358   7.367   8.006   2.498
16510SOL    HW266359   7.456   7.975   2.515
16510SOL    HW366360   7.310   7.946   2.546
16510SOL    MW466361   7.370   7.994   2.507
16511SOL     OW66362   5.793   7.720   2.527
16511SOL    HW266363   5.784   7.660   2.453
16511SOL    HW366364   5.726   7.691   2.590
16511SOL    MW466365   5.783   7.707   2.525
16512SOL     OW66366   6.736   8.813   2.088
16512SOL    HW266367   6.686   8.815   2.170
16512SOL    HW366368   6.670   8.831   2.020
16512SOL    MW466369   6.722   8.815   2.090
16513SOL     OW66370   5.740   7.893   2.890
16513SOL    HW266371   5.712   7.984   2.899
16513SOL    HW366372   5.677   7.854   2.829
16513SOL    MW466373   5.727   7.899   2.884
16514SOL     OW66374   6.335   8.646   1.903
16514SOL    HW266375   6.257   8.592   1.890
16514SOL    HW366376   6.306   8.719   1.956
16514SOL    MW466377   6.321   8.648   1.908
16515SOL     OW66378   7.461   8.386   3.095
16515SOL    HW266379   7.477   8.424   3.008
16515SOL    HW366380   7.495   8.452   3.156
16515SOL    MW466381   7.468   8.399   3.091
16516SOL     OW66382   5.724   8.168   3.060
16516SOL    HW266383   5.786   8.198   3.126
16516SOL    HW366384   5.658   8.237   3.054
16516SOL    MW466385   5.723   8.181   3.067
16517SOL     OW66386   6.365   7.725   1.968
16517SOL    HW266387   6.313   7.645   1.956
16517SOL    HW366388   6.452   7.702   1.936
16517SOL    MW466389   6.368   7.711   1.962
16518SOL     OW66390   5.871   8.596   3.019
16518SOL    HW266391   5.924   8.671   3.044
16518SOL    HW366392   5.790   8.634   2.985
16518SOL    MW466393   5.867   8.611   3.019
16519SOL     OW66394   6.411   8.500   3.007
16519SOL    HW266395   6.439   8.409   3.019
16519SOL    HW366396   6.340   8.494   2.943
16519SOL    MW466397   6.404   8.488   3.002
16520SOL     OW66398   5.726   8.365   2.425
16520SOL    HW266399   5.817   8.380   2.452
16520SOL    HW366400   5.729   8.286   2.371
16520SOL    MW466401   5.738   8.357   2.423
16521SOL     OW66402   5.962   8.073   3.679
16521SOL    HW266403   5.909   8.153   3.686
16521SOL    HW366404   6.032   8.085   3.744
16521SOL    MW466405   5.964   8.086   3.687
16522SOL     OW66406   6.348   7.623   3.386
16522SOL    HW266407   6.325   7.531   3.388
16522SOL    HW366408   6.434   7.625   3.343
16522SOL    MW466409   6.355   7.613   3.382
16523SOL     OW66410   6.032   8.147   3.425
16523SOL    HW266411   6.112   8.197   3.411
16523SOL    HW366412   6.023   8.141   3.520
16523SOL    MW466413   6.041   8.153   3.435
16524SOL     OW66414   7.009   7.672   3.696
16524SOL    HW266415   7.065   7.599   3.722
16524SOL    HW366416   6.979   7.710   3.778
16524SOL    MW466417   7.013   7.667   3.709
16525SOL     OW66418   6.567   9.020   2.499
16525SOL    HW266419   6.650   8.974   2.483
16525SOL    HW366420   6.557   9.019   2.595
16525SOL    MW466421   6.577   9.013   2.509
16526SOL     OW66422   7.399   8.165   2.813
16526SOL    HW266423   7.488   8.195   2.795
16526SOL    HW366424   7.379   8.105   2.742
16526SOL    MW466425   7.408   8.162   2.802
16527SOL     OW66426   7.250   8.344   3.693
16527SOL    HW266427   7.305   8.268   3.674
16527SOL    HW366428   7.252   8.352   3.788
16527SOL    MW466429   7.258   8.335   3.701
16528SOL     OW66430   6.738   7.722   2.127
16528SOL    HW266431   6.671   7.698   2.064
16528SOL    HW366432   6.803   7.771   2.076
16528SOL    MW466433   6.738   7.724   2.112
16529SOL     OW66434   6.545   7.906   3.212
16529SOL    HW266435   6.464   7.947   3.240
16529SOL    HW366436   6.592   7.974   3.164
16529SOL    MW466437   6.540   7.921   3.210
16530SOL     OW66438   6.805   8.244   2.835
16530SOL    HW266439   6.818   8.338   2.845
16530SOL    HW366440   6.766   8.234   2.749
16530SOL    MW466441   6.801   8.255   2.825
16531SOL     OW66442   6.257   8.439   2.639
16531SOL    HW266443   6.168   8.430   2.672
16531SOL    HW366444   6.261   8.529   2.607
16531SOL    MW466445   6.246   8.450   2.639
16532SOL     OW66446   7.056   8.022   2.634
16532SOL    HW266447   7.001   7.943   2.633
16532SOL    HW366448   7.038   8.063   2.718
16532SOL    MW466449   7.046   8.017   2.643
16533SOL     OW66450   6.027   7.709   3.451
16533SOL    HW266451   5.948   7.727   3.503
16533SOL    HW366452   6.022   7.771   3.378
16533SOL    MW466453   6.017   7.719   3.448
16534SOL     OW66454   6.675   8.226   2.591
16534SOL    HW266455   6.612   8.158   2.615
16534SOL    HW366456   6.695   8.207   2.499
16534SOL    MW466457   6.669   8.213   2.583
16535SOL     OW66458   6.423   8.530   2.317
16535SOL    HW266459   6.425   8.504   2.224
16535SOL    HW366460   6.481   8.467   2.360
16535SOL    MW466461   6.431   8.519   2.311
16536SOL     OW66462   6.933   7.774   2.650
16536SOL    HW266463   6.961   7.706   2.711
16536SOL    HW366464   6.847   7.745   2.620
16536SOL    MW466465   6.926   7.761   2.654
16537SOL     OW66466   5.738   8.708   2.584
16537SOL    HW266467   5.802   8.740   2.647
16537SOL    HW366468   5.787   8.644   2.532
16537SOL    MW466469   5.753   8.704   2.585
16538SOL     OW66470   6.913   7.878   1.985
16538SOL    HW266471   6.886   7.944   1.921
16538SOL    HW366472   6.983   7.921   2.035
16538SOL    MW466473   6.918   7.891   1.982
16539SOL     OW66474   6.581   7.583   1.922
16539SOL    HW266475   6.637   7.575   1.844
16539SOL    HW366476   6.558   7.493   1.944
16539SOL    MW466477   6.586   7.570   1.915
16540SOL     OW66478   7.086   8.434   2.127
16540SOL    HW266479   7.053   8.523   2.117
16540SOL    HW366480   7.051   8.405   2.212
16540SOL    MW466481   7.076   8.443   2.138
16541SOL     OW66482   5.992   7.531   3.657
16541SOL    HW266483   5.920   7.496   3.605
16541SOL    HW366484   6.050   7.572   3.592
16541SOL    MW466485   5.990   7.532   3.642
16542SOL     OW66486   7.456   8.550   3.310
16542SOL    HW266487   7.371   8.563   3.269
16542SOL    HW366488   7.436   8.514   3.397
16542SOL    MW466489   7.443   8.546   3.315
16543SOL     OW66490   6.080   8.472   1.919
16543SOL    HW266491   6.003   8.485   1.975
16543SOL    HW366492   6.044   8.436   1.838
16543SOL    MW466493   6.066   8.468   1.916
16544SOL     OW66494   6.733   8.445   2.162
16544SOL    HW266495   6.643   8.466   2.137
16544SOL    HW366496   6.760   8.518   2.218
16544SOL    MW466497   6.725   8.457   2.165
16545SOL     OW66498   6.233   8.794   2.854
16545SOL    HW266499   6.226   8.773   2.948
16545SOL    HW366500   6.151   8.762   2.817
16545SOL    MW466501   6.221   8.788   2.861
16546SOL     OW66502   7.097   7.804   3.256
16546SOL    HW266503   7.044   7.806   3.336
16546SOL    HW366504   7.082   7.717   3.219
16546SOL    MW466505   7.089   7.794   3.261
16547SOL     OW66506   7.433   7.728   3.129
16547SOL    HW266507   7.414   7.795   3.064
16547SOL    HW366508   7.490   7.666   3.084
16547SOL    MW466509   7.437   7.729   3.115
16548SOL     OW66510   6.362   7.561   2.569
16548SOL    HW266511   6.291   7.622   2.551
16548SOL    HW366512   6.413   7.558   2.488
16548SOL    MW466513   6.358   7.567   2.556
16549SOL     OW66514   6.120   8.801   2.318
16549SOL    HW266515   6.113   8.833   2.408
16549SOL    HW366516   6.030   8.785   2.290
16549SOL    MW466517   6.108   8.803   2.325
16550SOL     OW66518   6.322   8.218   3.699
16550SOL    HW266519   6.392   8.160   3.671
16550SOL    HW366520   6.265   8.163   3.754
16550SOL    MW466521   6.324   8.205   3.703
16551SOL     OW66522   7.109   8.430   3.332
16551SOL    HW266523   7.114   8.483   3.412
16551SOL    HW366524   7.071   8.347   3.360
16551SOL    MW466525   7.105   8.425   3.347
16552SOL     OW66526   6.749   7.565   3.578
16552SOL    HW266527   6.744   7.472   3.559
16552SOL    HW366528   6.832   7.576   3.624
16552SOL    MW466529   6.757   7.554   3.582
16553SOL     OW66530   6.123   8.085   2.032
16553SOL    HW266531   6.089   8.141   2.102
16553SOL    HW366532   6.194   8.035   2.072
16553SOL    MW466533   6.129   8.086   2.046
16554SOL     OW66534   7.219   8.836   2.854
16554SOL    HW266535   7.254   8.818   2.767
16554SOL    HW366536   7.124   8.837   2.841
16554SOL    MW466537   7.211   8.833   2.841
16555SOL     OW66538   6.648   8.484   3.223
16555SOL    HW266539   6.691   8.519   3.301
16555SOL    HW366540   6.631   8.561   3.169
16555SOL    MW466541   6.651   8.499   3.226
16556SOL     OW66542   7.179   7.971   2.096
16556SOL    HW266543   7.171   8.042   2.033
16556SOL    HW366544   7.197   8.015   2.179
16556SOL    MW466545   7.180   7.985   2.098
16557SOL     OW66546   6.039   7.626   2.525
16557SOL    HW266547   6.089   7.669   2.456
16557SOL    HW366548   5.954   7.670   2.525
16557SOL    MW466549   6.036   7.639   2.516
16558SOL     OW66550   5.798   8.688   3.385
16558SOL    HW266551   5.826   8.641   3.463
16558SOL    HW366552   5.719   8.643   3.356
16558SOL    MW466553   5.791   8.677   3.391
16559SOL     OW66554   6.306   8.015   3.352
16559SOL    HW266555   6.278   8.103   3.376
16559SOL    HW366556   6.275   7.959   3.423
16559SOL    MW466557   6.298   8.018   3.364
16560SOL     OW66558   6.848   8.233   2.071
16560SOL    HW266559   6.895   8.251   1.990
16560SOL    HW366560   6.814   8.317   2.099
16560SOL    MW466561   6.850   8.247   2.064
16561SOL     OW66562   5.961   8.411   2.565
16561SOL    HW266563   6.019   8.467   2.513
16561SOL    HW366564   6.005   8.326   2.567
16561SOL    MW466565   5.974   8.408   2.558
16562SOL     OW66566   7.101   7.763   2.402
16562SOL    HW266567   7.023   7.713   2.427
16562SOL    HW366568   7.072   7.854   2.402
16562SOL    MW466569   7.087   7.767   2.405
16563SOL     OW66570   6.687   7.725   2.561
16563SOL    HW266571   6.707   7.800   2.505
16563SOL    HW366572   6.667   7.764   2.646
16563SOL    MW466573   6.688   7.741   2.565
16564SOL     OW66574   7.447   8.498   3.580
16564SOL    HW266575   7.360   8.478   3.616
16564SOL    HW366576   7.501   8.424   3.605
16564SOL    MW466577   7.442   8.487   3.588
16565SOL     OW66578   5.623   8.137   2.284
16565SOL    HW266579   5.563   8.109   2.354
16565SOL    HW366580   5.697   8.077   2.290
16565SOL    MW466581   5.625   8.126   2.293
16566SOL     OW66582   6.049   7.876   3.173
16566SOL    HW266583   6.082   7.957   3.213
16566SOL    HW366584   6.022   7.902   3.085
16566SOL    MW466585   6.048   7.890   3.167
16567SOL     OW66586   6.003   7.843   2.909
16567SOL    HW266587   6.033   7.757   2.880
16567SOL    HW366588   5.908   7.836   2.912
16567SOL    MW466589   5.995   7.832   2.907
16568SOL     OW66590   6.832   8.052   3.600
16568SOL    HW266591   6.884   7.987   3.553
16568SOL    HW366592   6.790   8.103   3.530
16568SOL    MW466593   6.833   8.049   3.583
16569SOL     OW66594   6.931   7.847   3.461
16569SOL    HW266595   6.838   7.831   3.448
16569SOL    HW366596   6.957   7.785   3.529
16569SOL    MW466597   6.921   7.837   3.468
16570SOL     OW66598   6.146   7.621   2.800
16570SOL    HW266599   6.156   7.530   2.826
16570SOL    HW366600   6.102   7.617   2.715
16570SOL    MW466601   6.142   7.609   2.792
16571SOL     OW66602   7.297   7.943   2.971
16571SOL    HW266603   7.230   7.976   3.031
16571SOL    HW366604   7.340   8.021   2.937
16571SOL    MW466605   7.295   7.958   2.975
16572SOL     OW66606   7.475   8.663   2.941
16572SOL    HW266607   7.468   8.603   2.866
16572SOL    HW366608   7.401   8.723   2.930
16572SOL    MW466609   7.465   8.663   2.930
16573SOL     OW66610   6.857   8.525   2.859
16573SOL    HW266611   6.871   8.497   2.950
16573SOL    HW366612   6.943   8.556   2.831
16573SOL    MW466613   6.870   8.526   2.868
16574SOL     OW66614   6.940   8.020   3.138
16574SOL    HW266615   6.961   8.021   3.045
16574SOL    HW366616   6.985   7.942   3.171
16574SOL    MW466617   6.947   8.010   3.130
16575SOL     OW66618   7.433   8.151   3.680
16575SOL    HW266619   7.470   8.096   3.749
16575SOL    HW366620   7.458   8.108   3.598
16575SOL    MW466621   7.440   8.139   3.679
16576SOL     OW66622   6.980   8.449   3.731
16576SOL    HW266623   7.046   8.397   3.685
16576SOL    HW366624   7.000   8.436   3.824
16576SOL    MW466625   6.991   8.440   3.738
16577SOL     OW66626   6.931   7.535   2.080
16577SOL    HW266627   7.005   7.579   2.123
16577SOL    HW366628   6.855   7.589   2.102
16577SOL    MW466629   6.931   7.547   2.088
16578SOL     OW66630   6.991   8.310   2.358
16578SOL    HW266631   6.906   8.280   2.328
16578SOL    HW366632   6.983   8.317   2.453
16578SOL    MW466633   6.979   8.308   2.367
16579SOL     OW66634   6.351   7.753   2.912
16579SOL    HW266635   6.324   7.755   3.003
16579SOL    HW366636   6.281   7.705   2.867
16579SOL    MW466637   6.339   7.749   2.919
16580SOL     OW66638   7.107   8.830   3.306
16580SOL    HW266639   7.092   8.759   3.369
16580SOL    HW366640   7.153   8.788   3.234
16580SOL    MW466641   7.113   8.814   3.306
16581SOL     OW66642   6.181   8.561   3.423
16581SOL    HW266643   6.218   8.566   3.335
16581SOL    HW366644   6.220   8.634   3.470
16581SOL    MW466645   6.191   8.571   3.418
16582SOL     OW66646   6.361   8.604   3.235
16582SOL    HW266647   6.420   8.550   3.288
16582SOL    HW366648   6.376   8.576   3.145
16582SOL    MW466649   6.371   8.593   3.231
16583SOL     OW66650   6.364   7.976   2.084
16583SOL    HW266651   6.437   8.025   2.047
16583SOL    HW366652   6.380   7.885   2.058
16583SOL    MW466653   6.376   7.971   2.077
16584SOL     OW66654   6.832   7.572   2.998
16584SOL    HW266655   6.887   7.581   2.920
16584SOL    HW366656   6.887   7.606   3.069
16584SOL    MW466657   6.846   7.577   2.997
16585SOL     OW66658   5.839   8.485   2.182
16585SOL    HW266659   5.776   8.501   2.111
16585SOL    HW366660   5.786   8.448   2.253
16585SOL    MW466661   5.824   8.482   2.182
16586SOL     OW66662   6.195   8.839   2.041
16586SOL    HW266663   6.210   8.815   2.133
16586SOL    HW366664   6.103   8.817   2.025
16586SOL    MW466665   6.185   8.832   2.051
16587SOL     OW66666   6.610   8.706   3.005
16587SOL    HW266667   6.542   8.640   3.021
16587SOL    HW366668   6.628   8.700   2.912
16587SOL    MW466669   6.603   8.697   2.996
16588SOL     OW66670   6.603   7.845   2.826
16588SOL    HW266671   6.533   7.797   2.871
16588SOL    HW366672   6.635   7.908   2.890
16588SOL    MW466673   6.598   7.847   2.840
16589SOL     OW66674   6.254   8.281   3.446
16589SOL    HW266675   6.247   8.376   3.434
16589SOL    HW366676   6.263   8.270   3.541
16589SOL    MW466677   6.255   8.293   3.456
16590SOL     OW66678   7.059   7.559   3.171
16590SOL    HW266679   7.130   7.505   3.135
16590SOL    HW366680   7.058   7.538   3.264
16590SOL    MW466681   7.068   7.550   3.179
16591SOL     OW66682   6.070   7.951   2.639
16591SOL    HW266683   6.141   7.899   2.602
16591SOL    HW366684   6.056   7.916   2.726
16591SOL    MW466685   6.078   7.940   2.646
16592SOL     OW66686   6.706   7.892   2.363
16592SOL    HW266687   6.728   7.829   2.295
16592SOL    HW366688   6.611   7.884   2.374
16592SOL    MW466689   6.696   7.883   2.355
16593SOL     OW66690   5.791   7.582   2.295
16593SOL    HW266691   5.862   7.603   2.234
16593SOL    HW366692   5.745   7.510   2.253
16593SOL    MW466693   5.795   7.576   2.281
16594SOL     OW66694   5.622   8.049   3.438
16594SOL    HW266695   5.686   8.115   3.413
16594SOL    HW366696   5.541   8.076   3.395
16594SOL    MW466697   5.620   8.061   3.430
16595SOL     OW66698   6.916   8.633   2.325
16595SOL    HW266699   6.888   8.719   2.358
16595SOL    HW366700   6.944   8.649   2.235
16595SOL    MW466701   6.916   8.647   2.317
16596SOL     OW66702   6.578   7.553   2.378
16596SOL    HW266703   6.615   7.612   2.443
16596SOL    HW366704   6.555   7.609   2.304
16596SOL    MW466705   6.579   7.568   2.377
16597SOL     OW66706   7.431   8.435   2.800
16597SOL    HW266707   7.422   8.467   2.711
16597SOL    HW366708   7.384   8.351   2.800
16597SOL    MW466709   7.424   8.428   2.790
16598SOL     OW66710   5.807   8.275   3.379
16598SOL    HW266711   5.828   8.344   3.317
16598SOL    HW366712   5.887   8.222   3.384
16598SOL    MW466713   5.820   8.276   3.373
16599SOL     OW66714   7.343   8.366   2.501
16599SOL    HW266715   7.437   8.355   2.489
16599SOL    HW366716   7.319   8.438   2.442
16599SOL    MW466717   7.353   8.374   2.492
16600SOL     OW66718   5.792   8.290   3.646
16600SOL    HW266719   5.718   8.234   3.672
16600SOL    HW366720   5.787   8.293   3.551
16600SOL    MW466721   5.781   8.283   3.636
16601SOL     OW66722   5.958   7.577   3.096
16601SOL    HW266723   6.001   7.661   3.116
16601SOL    HW366724   6.031   7.515   3.089
16601SOL    MW466725   5.973   7.580   3.097
16602SOL     OW66726   5.999   8.244   2.274
16602SOL    HW266727   5.999   8.339   2.259
16602SOL    HW366728   6.076   8.228   2.328
16602SOL    MW466729   6.009   8.255   2.279
16603SOL     OW66730   6.775   8.103   3.338
16603SOL    HW266731   6.811   8.076   3.254
16603SOL    HW366732   6.688   8.137   3.317
16603SOL    MW466733   6.769   8.104   3.325
16604SOL     OW66734   5.758   7.975   2.563
16604SOL    HW266735   5.820   7.982   2.636
16604SOL    HW366736   5.758   7.882   2.540
16604SOL    MW466737   5.766   7.964   2.570
16605SOL     OW66738   6.440   8.236   3.047
16605SOL    HW266739   6.398   8.154   3.023
16605SOL    HW366740   6.441   8.235   3.143
16605SOL    MW466741   6.433   8.225   3.056
16606SOL     OW66742   6.244   7.706   3.152
16606SOL    HW266743   6.175   7.769   3.173
16606SOL    HW366744   6.271   7.670   3.237
16606SOL    MW466745   6.238   7.709   3.165
16607SOL     OW66746   5.627   8.547   2.021
16607SOL    HW266747   5.596   8.612   2.084
16607SOL    HW366748   5.576   8.469   2.040
16607SOL    MW466749   5.617   8.544   2.031
16608SOL     OW66750   7.039   7.559   2.769
16608SOL    HW266751   7.127   7.568   2.806
16608SOL    HW366752   7.049   7.500   2.695
16608SOL    MW466753   7.053   7.553   2.763
16609SOL     OW66754   7.071   8.298   2.613
16609SOL    HW266755   7.151   8.313   2.562
16609SOL    HW366756   7.064   8.203   2.619
16609SOL    MW466757   7.080   8.287   2.608
16610SOL     OW66758   6.521   8.224   3.310
16610SOL    HW266759   6.590   8.291   3.307
16610SOL    HW366760   6.454   8.262   3.366
16610SOL    MW466761   6.522   8.237   3.317
16611SOL     OW66762   5.939   8.524   3.558
16611SOL    HW266763   5.893   8.440   3.560
16611SOL    HW366764   5.996   8.518   3.482
16611SOL    MW466765   5.941   8.512   3.550
16612SOL     OW66766   7.056   8.167   1.879
16612SOL    HW266767   6.984   8.143   1.821
16612SOL    HW366768   7.122   8.204   1.821
16612SOL    MW466769   7.055   8.169   1.864
16613SOL     OW66770   6.190   8.899   2.559
16613SOL    HW266771   6.255   8.832   2.580
16613SOL    HW366772   6.242   8.976   2.536
16613SOL    MW466773   6.205   8.901   2.558
16614SOL     OW66774   6.451   8.064   2.689
16614SOL    HW266775   6.391   8.082   2.761
16614SOL    HW366776   6.485   7.976   2.708
16614SOL    MW466777   6.447   8.054   2.702
16615SOL     OW66778   7.392   7.563   3.358
16615SOL    HW266779   7.313   7.609   3.386
16615SOL    HW366780   7.427   7.617   3.287
16615SOL    MW466781   7.386   7.576   3.352
16616SOL     OW66782   6.676   8.647   2.708
16616SOL    HW266783   6.768   8.628   2.726
16616SOL    HW366784   6.649   8.577   2.648
16616SOL    MW466785   6.684   8.635   2.702
16617SOL     OW66786   6.469   8.467   2.063
16617SOL    HW266787   6.455   8.379   2.028
16617SOL    HW366788   6.420   8.524   2.004
16617SOL    MW466789   6.461   8.462   2.051
16618SOL     OW66790   5.882   8.191   2.842
16618SOL    HW266791   5.832   8.190   2.923
16618SOL    HW366792   5.902   8.283   2.826
16618SOL    MW466793   5.878   8.203   2.850
16619SOL     OW66794   6.949   8.955   3.604
16619SOL    HW266795   6.949   9.049   3.620
16619SOL    HW366796   6.994   8.945   3.520
16619SOL    MW466797   6.955   8.965   3.595
16620SOL     OW66798   7.188   7.673   2.165
16620SOL    HW266799   7.181   7.677   2.260
16620SOL    HW366800   7.200   7.764   2.138
16620SOL    MW466801   7.189   7.686   2.173
16621SOL     OW66802   6.477   8.236   2.279
16621SOL    HW266803   6.457   8.222   2.186
16621SOL    HW366804   6.570   8.215   2.286
16621SOL    MW466805   6.487   8.231   2.268
16622SOL     OW66806   5.804   7.859   3.583
16622SOL    HW266807   5.761   7.918   3.520
16622SOL    HW366808   5.872   7.914   3.623
16622SOL    MW466809   5.808   7.874   3.580
16623SOL     OW66810   6.916   8.479   3.128
16623SOL    HW266811   6.979   8.476   3.201
16623SOL    HW366812   6.832   8.497   3.170
16623SOL    MW466813   6.912   8.481   3.143
16624SOL     OW66814   7.255   7.656   2.907
16624SOL    HW266815   7.300   7.574   2.926
16624SOL    HW366816   7.275   7.712   2.983
16624SOL    MW466817   7.265   7.652   2.919
16625SOL     OW66818   5.703   7.499   3.006
16625SOL    HW266819   5.694   7.500   2.911
16625SOL    HW366820   5.797   7.511   3.021
16625SOL    MW466821   5.715   7.502   2.997
16626SOL     OW66822   7.340   8.692   2.626
16626SOL    HW266823   7.319   8.638   2.549
16626SOL    HW366824   7.436   8.690   2.630
16626SOL    MW466825   7.349   8.685   2.615
16627SOL     OW66826   6.032   8.837   3.369
16627SOL    HW266827   5.953   8.787   3.392
16627SOL    HW366828   6.102   8.796   3.419
16627SOL    MW466829   6.030   8.825   3.379
16628SOL     OW66830   5.916   7.626   2.052
16628SOL    HW266831   5.845   7.681   2.020
16628SOL    HW366832   5.958   7.592   1.973
16628SOL    MW466833   5.912   7.628   2.038
16629SOL     OW66834   7.040   8.123   2.888
16629SOL    HW266835   6.963   8.169   2.854
16629SOL    HW366836   7.097   8.192   2.922
16629SOL    MW466837   7.037   8.138   2.888
16630SOL     OW66838   5.672   7.725   1.901
16630SOL    HW266839   5.639   7.804   1.945
16630SOL    HW366840   5.727   7.758   1.830
16630SOL    MW466841   5.675   7.739   1.898
16631SOL     OW66842   7.341   8.339   3.993
16631SOL    HW266843   7.382   8.281   4.058
16631SOL    HW366844   7.248   8.331   4.010
16631SOL    MW466845   7.335   8.331   4.003
16632SOL     OW66846   7.207   8.271   4.988
16632SOL    HW266847   7.162   8.338   5.039
16632SOL    HW366848   7.295   8.307   4.974
16632SOL    MW466849   7.213   8.284   4.992
16633SOL     OW66850   6.135   8.522   4.222
16633SOL    HW266851   6.225   8.497   4.206
16633SOL    HW366852   6.131   8.615   4.199
16633SOL    MW466853   6.147   8.531   4.217
16634SOL     OW66854   7.187   8.665   4.969
16634SOL    HW266855   7.108   8.630   4.927
16634SOL    HW366856   7.214   8.737   4.913
16634SOL    MW466857   7.180   8.670   4.956
16635SOL     OW66858   6.419   7.978   4.235
16635SOL    HW266859   6.394   8.066   4.263
16635SOL    HW366860   6.416   7.981   4.139
16635SOL    MW466861   6.415   7.990   4.227
16636SOL     OW66862   5.861   8.006   4.163
16636SOL    HW266863   5.893   8.094   4.145
16636SOL    HW366864   5.849   8.004   4.258
16636SOL    MW466865   5.864   8.018   4.175
16637SOL     OW66866   5.939   8.419   5.064
16637SOL    HW266867   6.002   8.366   5.015
16637SOL    HW366868   5.920   8.493   5.007
16637SOL    MW466869   5.945   8.421   5.051
16638SOL     OW66870   6.260   7.761   4.250
16638SOL    HW266871   6.318   7.837   4.252
16638SOL    HW366872   6.195   7.782   4.183
16638SOL    MW466873   6.259   7.773   4.241
16639SOL     OW66874   6.347   8.688   4.425
16639SOL    HW266875   6.427   8.691   4.477
16639SOL    HW366876   6.375   8.655   4.339
16639SOL    MW466877   6.361   8.684   4.420
16640SOL     OW66878   6.372   9.029   5.328
16640SOL    HW266879   6.456   9.055   5.367
16640SOL    HW366880   6.396   8.973   5.254
16640SOL    MW466881   6.386   9.025   5.323
16641SOL     OW66882   6.124   8.192   4.416
16641SOL    HW266883   6.109   8.112   4.467
16641SOL    HW366884   6.206   8.227   4.450
16641SOL    MW466885   6.132   8.184   4.428
16642SOL     OW66886   6.266   8.018   4.793
16642SOL    HW266887   6.172   8.014   4.811
16642SOL    HW366888   6.296   7.927   4.802
16642SOL    MW466889   6.257   8.006   4.796
16643SOL     OW66890   6.012   8.432   4.697
16643SOL    HW266891   5.967   8.439   4.613
16643SOL    HW366892   5.992   8.515   4.741
16643SOL    MW466893   6.004   8.444   4.691
16644SOL     OW66894   6.974   8.670   3.941
16644SOL    HW266895   6.892   8.706   3.907
16644SOL    HW366896   7.042   8.713   3.890
16644SOL    MW466897   6.972   8.680   3.929
16645SOL     OW66898   5.973   8.805   4.607
16645SOL    HW266899   5.949   8.858   4.683
16645SOL    HW366900   6.029   8.863   4.555
16645SOL    MW466901   5.977   8.820   4.610
16646SOL     OW66902   6.535   8.449   4.417
16646SOL    HW266903   6.449   8.436   4.457
16646SOL    HW366904   6.588   8.376   4.449
16646SOL    MW466905   6.531   8.438   4.426
16647SOL     OW66906   6.526   8.811   4.134
16647SOL    HW266907   6.503   8.873   4.202
16647SOL    HW366908   6.483   8.729   4.160
16647SOL    MW466909   6.518   8.807   4.145
16648SOL     OW66910   7.399   7.812   4.590
16648SOL    HW266911   7.336   7.792   4.659
16648SOL    HW366912   7.389   7.741   4.527
16648SOL    MW466913   7.389   7.799   4.591
16649SOL     OW66914   6.023   7.784   4.102
16649SOL    HW266915   5.997   7.746   4.018
16649SOL    HW366916   5.960   7.854   4.118
16649SOL    MW466917   6.012   7.787   4.093
16650SOL     OW66918   5.858   8.745   4.139
16650SOL    HW266919   5.806   8.813   4.095
16650SOL    HW366920   5.855   8.671   4.079
16650SOL    MW466921   5.850   8.744   4.126
16651SOL     OW66922   7.455   7.981   3.892
16651SOL    HW266923   7.364   7.983   3.920
16651SOL    HW366924   7.500   8.043   3.950
16651SOL    MW466925   7.448   7.989   3.902
16652SOL     OW66926   7.200   8.584   4.242
16652SOL    HW266927   7.110   8.584   4.277
16652SOL    HW366928   7.193   8.630   4.159
16652SOL    MW466929   7.187   8.590   4.236
16653SOL     OW66930   7.000   8.219   5.314
16653SOL    HW266931   7.069   8.157   5.291
16653SOL    HW366932   6.925   8.193   5.261
16653SOL    MW466933   7.000   8.206   5.305
16654SOL     OW66934   6.736   8.606   5.306
16654SOL    HW266935   6.721   8.699   5.291
16654SOL    HW366936   6.831   8.596   5.306
16654SOL    MW466937   6.745   8.616   5.303
16655SOL     OW66938   6.532   8.030   5.507
16655SOL    HW266939   6.622   8.031   5.474
16655SOL    HW366940   6.491   7.955   5.465
16655SOL    MW466941   6.538   8.020   5.498
16656SOL     OW66942   7.107   8.562   4.634
16656SOL    HW266943   7.110   8.496   4.565
16656SOL    HW366944   7.192   8.605   4.630
16656SOL    MW466945   7.119   8.558   4.625
16657SOL     OW66946   6.727   8.165   4.203
16657SOL    HW266947   6.753   8.189   4.114
16657SOL    HW366948   6.709   8.072   4.199
16657SOL    MW466949   6.729   8.157   4.190
16658SOL     OW66950   7.392   8.785   4.054
16658SOL    HW266951   7.348   8.826   4.129
16658SOL    HW366952   7.449   8.853   4.019
16658SOL    MW466953   7.394   8.799   4.059
16659SOL     OW66954   6.312   7.834   5.457
16659SOL    HW266955   6.322   7.760   5.397
16659SOL    HW366956   6.348   7.803   5.540
16659SOL    MW466957   6.318   7.820   5.459
16660SOL     OW66958   7.432   7.563   4.421
16660SOL    HW266959   7.486   7.514   4.483
16660SOL    HW366960   7.375   7.497   4.382
16660SOL    MW466961   7.432   7.547   4.423
16661SOL     OW66962   6.551   7.516   4.834
16661SOL    HW266963   6.510   7.594   4.796
16661SOL    HW366964   6.645   7.534   4.829
16661SOL    MW466965   6.557   7.528   4.829
16662SOL     OW66966   6.566   8.194   3.864
16662SOL    HW266967   6.568   8.141   3.785
16662SOL    HW366968   6.654   8.231   3.870
16662SOL    MW466969   6.578   8.193   3.853
16663SOL     OW66970   7.180   8.120   4.200
16663SOL    HW266971   7.219   8.120   4.287
16663SOL    HW366972   7.121   8.196   4.200
16663SOL    MW466973   7.177   8.131   4.211
16664SOL     OW66974   6.497   8.487   5.329
16664SOL    HW266975   6.474   8.467   5.419
16664SOL    HW366976   6.582   8.531   5.334
16664SOL    MW466977   6.504   8.490   5.341
16665SOL     OW66978   6.577   7.624   5.089
16665SOL    HW266979   6.583   7.586   5.002
16665SOL    HW366980   6.566   7.718   5.074
16665SOL    MW466981   6.578   7.632   5.077
16666SOL     OW66982   6.666   8.113   4.923
16666SOL    HW266983   6.741   8.142   4.870
16666SOL    HW366984   6.598   8.178   4.907
16666SOL    MW466985   6.667   8.125   4.913
16667SOL     OW66986   7.216   8.081   5.200
16667SOL    HW266987   7.197   7.990   5.179
16667SOL    HW366988   7.194   8.130   5.121
16667SOL    MW466989   7.211   8.074   5.187
16668SOL     OW66990   6.663   7.819   5.306
16668SOL    HW266991   6.629   7.858   5.225
16668SOL    HW366992   6.641   7.727   5.299
16668SOL    MW466993   6.656   7.812   5.296
16669SOL     OW66994   7.072   8.633   5.382
16669SOL    HW266995   7.154   8.674   5.412
16669SOL    HW366996   7.035   8.595   5.462
16669SOL    MW466997   7.078   8.634   5.397
16670SOL     OW66998   7.367   8.006   4.366
16670SOL    HW266999   7.456   7.975   4.383
16670SOL    HW367000   7.310   7.946   4.414
16670SOL    MW467001   7.370   7.994   4.375
16671SOL     OW67002   5.793   7.720   4.395
16671SOL    HW267003   5.784   7.660   4.321
16671SOL    HW367004   5.726   7.691   4.458
16671SOL    MW467005   5.783   7.707   4.393
16672SOL     OW67006   6.736   8.813   3.956
16672SOL    HW267007   6.686   8.815   4.038
16672SOL    HW367008   6.670   8.831   3.888
16672SOL    MW467009   6.722   8.815   3.958
16673SOL     OW67010   5.740   7.893   4.758
16673SOL    HW267011   5.712   7.984   4.767
16673SOL    HW367012   5.677   7.854   4.697
16673SOL    MW467013   5.727   7.899   4.752
16674SOL     OW67014   6.335   8.646   3.771
16674SOL    HW267015   6.257   8.592   3.758
16674SOL    HW367016   6.306   8.719   3.824
16674SOL    MW467017   6.321   8.648   3.776
16675SOL     OW67018   7.461   8.386   4.963
16675SOL    HW267019   7.477   8.424   4.876
16675SOL    HW367020   7.495   8.452   5.024
16675SOL    MW467021   7.468   8.399   4.959
16676SOL     OW67022   5.724   8.168   4.928
16676SOL    HW267023   5.786   8.198   4.994
16676SOL    HW367024   5.658   8.237   4.922
16676SOL    MW467025   5.723   8.181   4.935
16677SOL     OW67026   6.365   7.725   3.836
16677SOL    HW267027   6.313   7.645   3.824
16677SOL    HW367028   6.452   7.702   3.804
16677SOL    MW467029   6.368   7.711   3.830
16678SOL     OW67030   5.871   8.596   4.887
16678SOL    HW267031   5.924   8.671   4.912
16678SOL    HW367032   5.790   8.634   4.853
16678SOL    MW467033   5.867   8.611   4.887
16679SOL     OW67034   6.411   8.500   4.875
16679SOL    HW267035   6.439   8.409   4.887
16679SOL    HW367036   6.340   8.494   4.811
16679SOL    MW467037   6.404   8.488   4.870
16680SOL     OW67038   5.726   8.365   4.293
16680SOL    HW267039   5.817   8.380   4.320
16680SOL    HW367040   5.729   8.286   4.239
16680SOL    MW467041   5.738   8.357   4.291
16681SOL     OW67042   5.962   8.073   5.547
16681SOL    HW267043   5.909   8.153   5.554
16681SOL    HW367044   6.032   8.085   5.612
16681SOL    MW467045   5.964   8.086   5.555
16682SOL     OW67046   6.348   7.623   5.254
16682SOL    HW267047   6.325   7.531   5.256
16682SOL    HW367048   6.434   7.625   5.211
16682SOL    MW467049   6.355   7.613   5.250
16683SOL     OW67050   6.032   8.147   5.293
16683SOL    HW267051   6.112   8.197   5.279
16683SOL    HW367052   6.023   8.141   5.388
16683SOL    MW467053   6.041   8.153   5.303
16684SOL     OW67054   7.009   7.672   5.564
16684SOL    HW267055   7.065   7.599   5.590
16684SOL    HW367056   6.979   7.710   5.646
16684SOL    MW467057   7.013   7.667   5.577
16685SOL     OW67058   6.567   9.020   4.367
16685SOL    HW267059   6.650   8.974   4.351
16685SOL    HW367060   6.557   9.019   4.463
16685SOL    MW467061   6.577   9.013   4.377
16686SOL     OW67062   7.399   8.165   4.681
16686SOL    HW267063   7.488   8.195   4.663
16686SOL    HW367064   7.379   8.105   4.610
16686SOL    MW467065   7.408   8.162   4.670
16687SOL     OW67066   7.250   8.344   5.561
16687SOL    HW267067   7.305   8.268   5.542
16687SOL    HW367068   7.252   8.352   5.656
16687SOL    MW467069   7.258   8.335   5.569
16688SOL     OW67070   6.738   7.722   3.995
16688SOL    HW267071   6.671   7.698   3.932
16688SOL    HW367072   6.803   7.771   3.944
16688SOL    MW467073   6.738   7.724   3.980
16689SOL     OW67074   6.545   7.906   5.080
16689SOL    HW267075   6.464   7.947   5.108
16689SOL    HW367076   6.592   7.974   5.032
16689SOL    MW467077   6.540   7.921   5.078
16690SOL     OW67078   6.805   8.244   4.703
16690SOL    HW267079   6.818   8.338   4.713
16690SOL    HW367080   6.766   8.234   4.617
16690SOL    MW467081   6.801   8.255   4.693
16691SOL     OW67082   6.257   8.439   4.507
16691SOL    HW267083   6.168   8.430   4.540
16691SOL    HW367084   6.261   8.529   4.475
16691SOL    MW467085   6.246   8.450   4.507
16692SOL     OW67086   7.056   8.022   4.502
16692SOL    HW267087   7.001   7.943   4.501
16692SOL    HW367088   7.038   8.063   4.586
16692SOL    MW467089   7.046   8.017   4.511
16693SOL     OW67090   6.027   7.709   5.319
16693SOL    HW267091   5.948   7.727   5.371
16693SOL    HW367092   6.022   7.771   5.246
16693SOL    MW467093   6.017   7.719   5.316
16694SOL     OW67094   6.675   8.226   4.459
16694SOL    HW267095   6.612   8.158   4.483
16694SOL    HW367096   6.695   8.207   4.367
16694SOL    MW467097   6.669   8.213   4.451
16695SOL     OW67098   6.423   8.530   4.185
16695SOL    HW267099   6.425   8.504   4.092
16695SOL    HW367100   6.481   8.467   4.228
16695SOL    MW467101   6.431   8.519   4.179
16696SOL     OW67102   6.933   7.774   4.518
16696SOL    HW267103   6.961   7.706   4.579
16696SOL    HW367104   6.847   7.745   4.488
16696SOL    MW467105   6.926   7.761   4.522
16697SOL     OW67106   5.738   8.708   4.452
16697SOL    HW267107   5.802   8.740   4.515
16697SOL    HW367108   5.787   8.644   4.400
16697SOL    MW467109   5.753   8.704   4.453
16698SOL     OW67110   6.913   7.878   3.853
16698SOL    HW267111   6.886   7.944   3.789
16698SOL    HW367112   6.983   7.921   3.903
16698SOL    MW467113   6.918   7.891   3.850
16699SOL     OW67114   6.581   7.583   3.790
16699SOL    HW267115   6.637   7.575   3.712
16699SOL    HW367116   6.558   7.493   3.812
16699SOL    MW467117   6.586   7.570   3.783
16700SOL     OW67118   7.086   8.434   3.995
16700SOL    HW267119   7.053   8.523   3.985
16700SOL    HW367120   7.051   8.405   4.080
16700SOL    MW467121   7.076   8.443   4.006
16701SOL     OW67122   5.992   7.531   5.525
16701SOL    HW267123   5.920   7.496   5.473
16701SOL    HW367124   6.050   7.572   5.460
16701SOL    MW467125   5.990   7.532   5.510
16702SOL     OW67126   7.456   8.550   5.178
16702SOL    HW267127   7.371   8.563   5.137
16702SOL    HW367128   7.436   8.514   5.265
16702SOL    MW467129   7.443   8.546   5.183
16703SOL     OW67130   6.080   8.472   3.787
16703SOL    HW267131   6.003   8.485   3.843
16703SOL    HW367132   6.044   8.436   3.706
16703SOL    MW467133   6.066   8.468   3.784
16704SOL     OW67134   6.733   8.445   4.030
16704SOL    HW267135   6.643   8.466   4.005
16704SOL    HW367136   6.760   8.518   4.086
16704SOL    MW467137   6.725   8.457   4.033
16705SOL     OW67138   6.233   8.794   4.722
16705SOL    HW267139   6.226   8.773   4.816
16705SOL    HW367140   6.151   8.762   4.685
16705SOL    MW467141   6.221   8.788   4.729
16706SOL     OW67142   7.097   7.804   5.124
16706SOL    HW267143   7.044   7.806   5.204
16706SOL    HW367144   7.082   7.717   5.087
16706SOL    MW467145   7.089   7.794   5.129
16707SOL     OW67146   7.433   7.728   4.997
16707SOL    HW267147   7.414   7.795   4.932
16707SOL    HW367148   7.490   7.666   4.952
16707SOL    MW467149   7.437   7.729   4.983
16708SOL     OW67150   6.362   7.561   4.437
16708SOL    HW267151   6.291   7.622   4.419
16708SOL    HW367152   6.413   7.558   4.356
16708SOL    MW467153   6.358   7.567   4.424
16709SOL     OW67154   6.120   8.801   4.186
16709SOL    HW267155   6.113   8.833   4.276
16709SOL    HW367156   6.030   8.785   4.158
16709SOL    MW467157   6.108   8.803   4.193
16710SOL     OW67158   6.322   8.218   5.567
16710SOL    HW267159   6.392   8.160   5.539
16710SOL    HW367160   6.265   8.163   5.622
16710SOL    MW467161   6.324   8.205   5.571
16711SOL     OW67162   7.109   8.430   5.200
16711SOL    HW267163   7.114   8.483   5.280
16711SOL    HW367164   7.071   8.347   5.228
16711SOL    MW467165   7.105   8.425   5.215
16712SOL     OW67166   6.749   7.565   5.446
16712SOL    HW267167   6.744   7.472   5.427
16712SOL    HW367168   6.832   7.576   5.492
16712SOL    MW467169   6.757   7.554   5.450
16713SOL     OW67170   6.123   8.085   3.900
16713SOL    HW267171   6.089   8.141   3.970
16713SOL    HW367172   6.194   8.035   3.940
16713SOL    MW467173   6.129   8.086   3.914
16714SOL     OW67174   7.219   8.836   4.722
16714SOL    HW267175   7.254   8.818   4.635
16714SOL    HW367176   7.124   8.837   4.709
16714SOL    MW467177   7.211   8.833   4.709
16715SOL     OW67178   6.648   8.484   5.091
16715SOL    HW267179   6.691   8.519   5.169
16715SOL    HW367180   6.631   8.561   5.037
16715SOL    MW467181   6.651   8.499   5.094
16716SOL     OW67182   7.179   7.971   3.964
16716SOL    HW267183   7.171   8.042   3.901
16716SOL    HW367184   7.197   8.015   4.047
16716SOL    MW467185   7.180   7.985   3.966
16717SOL     OW67186   6.039   7.626   4.393
16717SOL    HW267187   6.089   7.669   4.324
16717SOL    HW367188   5.954   7.670   4.393
16717SOL    MW467189   6.036   7.639   4.384
16718SOL     OW67190   5.798   8.688   5.253
16718SOL    HW267191   5.826   8.641   5.331
16718SOL    HW367192   5.719   8.643   5.224
16718SOL    MW467193   5.791   8.677   5.259
16719SOL     OW67194   6.306   8.015   5.220
16719SOL    HW267195   6.278   8.103   5.244
16719SOL    HW367196   6.275   7.959   5.291
16719SOL    MW467197   6.298   8.018   5.232
16720SOL     OW67198   6.848   8.233   3.939
16720SOL    HW267199   6.895   8.251   3.858
16720SOL    HW367200   6.814   8.317   3.967
16720SOL    MW467201   6.850   8.247   3.932
16721SOL     OW67202   5.961   8.411   4.433
16721SOL    HW267203   6.019   8.467   4.381
16721SOL    HW367204   6.005   8.326   4.435
16721SOL    MW467205   5.974   8.408   4.426
16722SOL     OW67206   7.101   7.763   4.270
16722SOL    HW267207   7.023   7.713   4.295
16722SOL    HW367208   7.072   7.854   4.270
16722SOL    MW467209   7.087   7.767   4.273
16723SOL     OW67210   6.687   7.725   4.429
16723SOL    HW267211   6.707   7.800   4.373
16723SOL    HW367212   6.667   7.764   4.514
16723SOL    MW467213   6.688   7.741   4.433
16724SOL     OW67214   7.447   8.498   5.448
16724SOL    HW267215   7.360   8.478   5.484
16724SOL    HW367216   7.501   8.424   5.473
16724SOL    MW467217   7.442   8.487   5.456
16725SOL     OW67218   5.623   8.137   4.152
16725SOL    HW267219   5.563   8.109   4.222
16725SOL    HW367220   5.697   8.077   4.158
16725SOL    MW467221   5.625   8.126   4.161
16726SOL     OW67222   6.049   7.876   5.041
16726SOL    HW267223   6.082   7.957   5.081
16726SOL    HW367224   6.022   7.902   4.953
16726SOL    MW467225   6.048   7.890   5.035
16727SOL     OW67226   6.003   7.843   4.777
16727SOL    HW267227   6.033   7.757   4.748
16727SOL    HW367228   5.908   7.836   4.780
16727SOL    MW467229   5.995   7.832   4.775
16728SOL     OW67230   6.832   8.052   5.468
16728SOL    HW267231   6.884   7.987   5.421
16728SOL    HW367232   6.790   8.103   5.398
16728SOL    MW467233   6.833   8.049   5.451
16729SOL     OW67234   6.931   7.847   5.329
16729SOL    HW267235   6.838   7.831   5.316
16729SOL    HW367236   6.957   7.785   5.397
16729SOL    MW467237   6.921   7.837   5.336
16730SOL     OW67238   6.146   7.621   4.668
16730SOL    HW267239   6.156   7.530   4.694
16730SOL    HW367240   6.102   7.617   4.583
16730SOL    MW467241   6.142   7.609   4.660
16731SOL     OW67242   7.297   7.943   4.839
16731SOL    HW267243   7.230   7.976   4.899
16731SOL    HW367244   7.340   8.021   4.805
16731SOL    MW467245   7.295   7.958   4.843
16732SOL     OW67246   7.475   8.663   4.809
16732SOL    HW267247   7.468   8.603   4.734
16732SOL    HW367248   7.401   8.723   4.798
16732SOL    MW467249   7.465   8.663   4.798
16733SOL     OW67250   6.857   8.525   4.727
16733SOL    HW267251   6.871   8.497   4.818
16733SOL    HW367252   6.943   8.556   4.699
16733SOL    MW467253   6.870   8.526   4.736
16734SOL     OW67254   6.940   8.020   5.006
16734SOL    HW267255   6.961   8.021   4.913
16734SOL    HW367256   6.985   7.942   5.039
16734SOL    MW467257   6.947   8.010   4.998
16735SOL     OW67258   7.433   8.151   5.548
16735SOL    HW267259   7.470   8.096   5.617
16735SOL    HW367260   7.458   8.108   5.466
16735SOL    MW467261   7.440   8.139   5.547
16736SOL     OW67262   6.980   8.449   5.600
16736SOL    HW267263   7.046   8.397   5.554
16736SOL    HW367264   7.000   8.436   5.693
16736SOL    MW467265   6.991   8.440   5.607
16737SOL     OW67266   6.931   7.535   3.948
16737SOL    HW267267   7.005   7.579   3.991
16737SOL    HW367268   6.855   7.589   3.970
16737SOL    MW467269   6.931   7.547   3.956
16738SOL     OW67270   6.991   8.310   4.226
16738SOL    HW267271   6.906   8.280   4.196
16738SOL    HW367272   6.983   8.317   4.321
16738SOL    MW467273   6.979   8.308   4.235
16739SOL     OW67274   6.351   7.753   4.780
16739SOL    HW267275   6.324   7.755   4.871
16739SOL    HW367276   6.281   7.705   4.735
16739SOL    MW467277   6.339   7.749   4.787
16740SOL     OW67278   7.107   8.830   5.174
16740SOL    HW267279   7.092   8.759   5.237
16740SOL    HW367280   7.153   8.788   5.102
16740SOL    MW467281   7.113   8.814   5.174
16741SOL     OW67282   6.181   8.561   5.291
16741SOL    HW267283   6.218   8.566   5.203
16741SOL    HW367284   6.220   8.634   5.338
16741SOL    MW467285   6.191   8.571   5.286
16742SOL     OW67286   6.361   8.604   5.103
16742SOL    HW267287   6.420   8.550   5.156
16742SOL    HW367288   6.376   8.576   5.013
16742SOL    MW467289   6.371   8.593   5.099
16743SOL     OW67290   6.364   7.976   3.952
16743SOL    HW267291   6.437   8.025   3.915
16743SOL    HW367292   6.380   7.885   3.926
16743SOL    MW467293   6.376   7.971   3.945
16744SOL     OW67294   6.832   7.572   4.866
16744SOL    HW267295   6.887   7.581   4.788
16744SOL    HW367296   6.887   7.606   4.937
16744SOL    MW467297   6.846   7.577   4.865
16745SOL     OW67298   5.839   8.485   4.050
16745SOL    HW267299   5.776   8.501   3.979
16745SOL    HW367300   5.786   8.448   4.121
16745SOL    MW467301   5.824   8.482   4.050
16746SOL     OW67302   6.195   8.839   3.909
16746SOL    HW267303   6.210   8.815   4.001
16746SOL    HW367304   6.103   8.817   3.893
16746SOL    MW467305   6.185   8.832   3.919
16747SOL     OW67306   6.610   8.706   4.873
16747SOL    HW267307   6.542   8.640   4.889
16747SOL    HW367308   6.628   8.700   4.780
16747SOL    MW467309   6.603   8.697   4.864
16748SOL     OW67310   6.603   7.845   4.694
16748SOL    HW267311   6.533   7.797   4.739
16748SOL    HW367312   6.635   7.908   4.758
16748SOL    MW467313   6.598   7.847   4.708
16749SOL     OW67314   6.254   8.281   5.314
16749SOL    HW267315   6.247   8.376   5.302
16749SOL    HW367316   6.263   8.270   5.409
16749SOL    MW467317   6.255   8.293   5.324
16750SOL     OW67318   7.059   7.559   5.039
16750SOL    HW267319   7.130   7.505   5.003
16750SOL    HW367320   7.058   7.538   5.132
16750SOL    MW467321   7.068   7.550   5.047
16751SOL     OW67322   6.070   7.951   4.507
16751SOL    HW267323   6.141   7.899   4.470
16751SOL    HW367324   6.056   7.916   4.594
16751SOL    MW467325   6.078   7.940   4.514
16752SOL     OW67326   6.706   7.892   4.231
16752SOL    HW267327   6.728   7.829   4.163
16752SOL    HW367328   6.611   7.884   4.242
16752SOL    MW467329   6.696   7.883   4.223
16753SOL     OW67330   5.791   7.582   4.163
16753SOL    HW267331   5.862   7.603   4.102
16753SOL    HW367332   5.745   7.510   4.121
16753SOL    MW467333   5.795   7.576   4.149
16754SOL     OW67334   5.622   8.049   5.306
16754SOL    HW267335   5.686   8.115   5.281
16754SOL    HW367336   5.541   8.076   5.263
16754SOL    MW467337   5.620   8.061   5.298
16755SOL     OW67338   6.916   8.633   4.193
16755SOL    HW267339   6.888   8.719   4.226
16755SOL    HW367340   6.944   8.649   4.103
16755SOL    MW467341   6.916   8.647   4.185
16756SOL     OW67342   6.578   7.553   4.246
16756SOL    HW267343   6.615   7.612   4.311
16756SOL    HW367344   6.555   7.609   4.172
16756SOL    MW467345   6.579   7.568   4.245
16757SOL     OW67346   7.431   8.435   4.668
16757SOL    HW267347   7.422   8.467   4.579
16757SOL    HW367348   7.384   8.351   4.668
16757SOL    MW467349   7.424   8.428   4.658
16758SOL     OW67350   5.807   8.275   5.247
16758SOL    HW267351   5.828   8.344   5.185
16758SOL    HW367352   5.887   8.222   5.252
16758SOL    MW467353   5.820   8.276   5.241
16759SOL     OW67354   7.343   8.366   4.369
16759SOL    HW267355   7.437   8.355   4.357
16759SOL    HW367356   7.319   8.438   4.310
16759SOL    MW467357   7.353   8.374   4.360
16760SOL     OW67358   5.792   8.290   5.514
16760SOL    HW267359   5.718   8.234   5.540
16760SOL    HW367360   5.787   8.293   5.419
16760SOL    MW467361   5.781   8.283   5.504
16761SOL     OW67362   5.958   7.577   4.964
16761SOL    HW267363   6.001   7.661   4.984
16761SOL    HW367364   6.031   7.515   4.957
16761SOL    MW467365   5.973   7.580   4.965
16762SOL     OW67366   5.999   8.244   4.142
16762SOL    HW267367   5.999   8.339   4.127
16762SOL    HW367368   6.076   8.228   4.196
16762SOL    MW467369   6.009   8.255   4.147
16763SOL     OW67370   6.775   8.103   5.206
16763SOL    HW267371   6.811   8.076   5.122
16763SOL    HW367372   6.688   8.137   5.185
16763SOL    MW467373   6.769   8.104   5.193
16764SOL     OW67374   5.758   7.975   4.431
16764SOL    HW267375   5.820   7.982   4.504
16764SOL    HW367376   5.758   7.882   4.408
16764SOL    MW467377   5.766   7.964   4.438
16765SOL     OW67378   6.440   8.236   4.915
16765SOL    HW267379   6.398   8.154   4.891
16765SOL    HW367380   6.441   8.235   5.011
16765SOL    MW467381   6.433   8.225   4.924
16766SOL     OW67382   6.244   7.706   5.020
16766SOL    HW267383   6.175   7.769   5.041
16766SOL    HW367384   6.271   7.670   5.105
16766SOL    MW467385   6.238   7.709   5.033
16767SOL     OW67386   5.627   8.547   3.889
16767SOL    HW267387   5.596   8.612   3.952
16767SOL    HW367388   5.576   8.469   3.908
16767SOL    MW467389   5.617   8.544   3.899
16768SOL     OW67390   7.039   7.559   4.637
16768SOL    HW267391   7.127   7.568   4.674
16768SOL    HW367392   7.049   7.500   4.563
16768SOL    MW467393   7.053   7.553   4.631
16769SOL     OW67394   7.071   8.298   4.481
16769SOL    HW267395   7.151   8.313   4.430
16769SOL    HW367396   7.064   8.203   4.487
16769SOL    MW467397   7.080   8.287   4.476
16770SOL     OW67398   6.521   8.224   5.178
16770SOL    HW267399   6.590   8.291   5.175
16770SOL    HW367400   6.454   8.262   5.234
16770SOL    MW467401   6.522   8.237   5.185
16771SOL     OW67402   5.939   8.524   5.426
16771SOL    HW267403   5.893   8.440   5.428
16771SOL    HW367404   5.996   8.518   5.350
16771SOL    MW467405   5.941   8.512   5.418
16772SOL     OW67406   7.056   8.167   3.747
16772SOL    HW267407   6.984   8.143   3.689
16772SOL    HW367408   7.122   8.204   3.689
16772SOL    MW467409   7.055   8.169   3.732
16773SOL     OW67410   6.190   8.899   4.427
16773SOL    HW267411   6.255   8.832   4.448
16773SOL    HW367412   6.242   8.976   4.404
16773SOL    MW467413   6.205   8.901   4.426
16774SOL     OW67414   6.451   8.064   4.557
16774SOL    HW267415   6.391   8.082   4.629
16774SOL    HW367416   6.485   7.976   4.576
16774SOL    MW467417   6.447   8.054   4.570
16775SOL     OW67418   7.392   7.563   5.226
16775SOL    HW267419   7.313   7.609   5.254
16775SOL    HW367420   7.427   7.617   5.155
16775SOL    MW467421   7.386   7.576   5.220
16776SOL     OW67422   6.676   8.647   4.576
16776SOL    HW267423   6.768   8.628   4.594
16776SOL    HW367424   6.649   8.577   4.516
16776SOL    MW467425   6.684   8.635   4.570
16777SOL     OW67426   6.469   8.467   3.931
16777SOL    HW267427   6.455   8.379   3.896
16777SOL    HW367428   6.420   8.524   3.872
16777SOL    MW467429   6.461   8.462   3.919
16778SOL     OW67430   5.882   8.191   4.710
16778SOL    HW267431   5.832   8.190   4.791
16778SOL    HW367432   5.902   8.283   4.694
16778SOL    MW467433   5.878   8.203   4.718
16779SOL     OW67434   6.949   8.955   5.472
16779SOL    HW267435   6.949   9.049   5.488
16779SOL    HW367436   6.994   8.945   5.388
16779SOL    MW467437   6.955   8.965   5.463
16780SOL     OW67438   7.188   7.673   4.033
16780SOL    HW267439   7.181   7.677   4.128
16780SOL    HW367440   7.200   7.764   4.006
16780SOL    MW467441   7.189   7.686   4.041
16781SOL     OW67442   6.477   8.236   4.147
16781SOL    HW267443   6.457   8.222   4.054
16781SOL    HW367444   6.570   8.215   4.154
16781SOL    MW467445   6.487   8.231   4.136
16782SOL     OW67446   5.804   7.859   5.451
16782SOL    HW267447   5.761   7.918   5.388
16782SOL    HW367448   5.872   7.914   5.491
16782SOL    MW467449   5.808   7.874   5.448
16783SOL     OW67450   6.916   8.479   4.996
16783SOL    HW267451   6.979   8.476   5.069
16783SOL    HW367452   6.832   8.497   5.038
16783SOL    MW467453   6.912   8.481   5.011
16784SOL     OW67454   7.255   7.656   4.775
16784SOL    HW267455   7.300   7.574   4.794
16784SOL    HW367456   7.275   7.712   4.851
16784SOL    MW467457   7.265   7.652   4.787
16785SOL     OW67458   5.703   7.499   4.874
16785SOL    HW267459   5.694   7.500   4.779
16785SOL    HW367460   5.797   7.511   4.889
16785SOL    MW467461   5.715   7.502   4.865
16786SOL     OW67462   7.340   8.692   4.494
16786SOL    HW267463   7.319   8.638   4.417
16786SOL    HW367464   7.436   8.690   4.498
16786SOL    MW467465   7.349   8.685   4.483
16787SOL     OW67466   6.032   8.837   5.237
16787SOL    HW267467   5.953   8.787   5.260
16787SOL    HW367468   6.102   8.796   5.287
16787SOL    MW467469   6.030   8.825   5.247
16788SOL     OW67470   5.916   7.626   3.920
16788SOL    HW267471   5.845   7.681   3.888
16788SOL    HW367472   5.958   7.592   3.841
16788SOL    MW467473   5.912   7.628   3.906
16789SOL     OW67474   7.040   8.123   4.756
16789SOL    HW267475   6.963   8.169   4.722
16789SOL    HW367476   7.097   8.192   4.790
16789SOL    MW467477   7.037   8.138   4.756
16790SOL     OW67478   5.672   7.725   3.769
16790SOL    HW267479   5.639   7.804   3.813
16790SOL    HW367480   5.727   7.758   3.698
16790SOL    MW467481   5.675   7.739   3.766
16791SOL     OW67482   7.341   8.339   5.862
16791SOL    HW267483   7.382   8.281   5.927
16791SOL    HW367484   7.248   8.331   5.879
16791SOL    MW467485   7.335   8.331   5.872
16792SOL     OW67486   7.207   8.271   6.857
16792SOL    HW267487   7.162   8.338   6.908
16792SOL    HW367488   7.295   8.307   6.843
16792SOL    MW467489   7.213   8.284   6.861
16793SOL     OW67490   6.135   8.522   6.091
16793SOL    HW267491   6.225   8.497   6.075
16793SOL    HW367492   6.131   8.615   6.068
16793SOL    MW467493   6.147   8.531   6.086
16794SOL     OW67494   7.187   8.665   6.838
16794SOL    HW267495   7.108   8.630   6.796
16794SOL    HW367496   7.214   8.737   6.782
16794SOL    MW467497   7.180   8.670   6.825
16795SOL     OW67498   6.419   7.978   6.104
16795SOL    HW267499   6.394   8.066   6.132
16795SOL    HW367500   6.416   7.981   6.008
16795SOL    MW467501   6.415   7.990   6.096
16796SOL     OW67502   5.861   8.006   6.032
16796SOL    HW267503   5.893   8.094   6.014
16796SOL    HW367504   5.849   8.004   6.127
16796SOL    MW467505   5.864   8.018   6.044
16797SOL     OW67506   5.939   8.419   6.933
16797SOL    HW267507   6.002   8.366   6.884
16797SOL    HW367508   5.920   8.493   6.876
16797SOL    MW467509   5.945   8.421   6.920
16798SOL     OW67510   6.260   7.761   6.119
16798SOL    HW267511   6.318   7.837   6.121
16798SOL    HW367512   6.195   7.782   6.052
16798SOL    MW467513   6.259   7.773   6.110
16799SOL     OW67514   6.347   8.688   6.294
16799SOL    HW267515   6.427   8.691   6.346
16799SOL    HW367516   6.375   8.655   6.208
16799SOL    MW467517   6.361   8.684   6.289
16800SOL     OW67518   6.372   9.029   7.197
16800SOL    HW267519   6.456   9.055   7.236
16800SOL    HW367520   6.396   8.973   7.123
16800SOL    MW467521   6.386   9.025   7.192
16801SOL     OW67522   6.124   8.192   6.285
16801SOL    HW267523   6.109   8.112   6.336
16801SOL    HW367524   6.206   8.227   6.319
16801SOL    MW467525   6.132   8.184   6.297
16802SOL     OW67526   6.266   8.018   6.662
16802SOL    HW267527   6.172   8.014   6.680
16802SOL    HW367528   6.296   7.927   6.671
16802SOL    MW467529   6.257   8.006   6.665
16803SOL     OW67530   6.012   8.432   6.566
16803SOL    HW267531   5.967   8.439   6.482
16803SOL    HW367532   5.992   8.515   6.610
16803SOL    MW467533   6.004   8.444   6.560
16804SOL     OW67534   6.974   8.670   5.810
16804SOL    HW267535   6.892   8.706   5.776
16804SOL    HW367536   7.042   8.713   5.759
16804SOL    MW467537   6.972   8.680   5.798
16805SOL     OW67538   5.973   8.805   6.476
16805SOL    HW267539   5.949   8.858   6.552
16805SOL    HW367540   6.029   8.863   6.424
16805SOL    MW467541   5.977   8.820   6.479
16806SOL     OW67542   6.535   8.449   6.286
16806SOL    HW267543   6.449   8.436   6.326
16806SOL    HW367544   6.588   8.376   6.318
16806SOL    MW467545   6.531   8.438   6.295
16807SOL     OW67546   6.526   8.811   6.003
16807SOL    HW267547   6.503   8.873   6.071
16807SOL    HW367548   6.483   8.729   6.029
16807SOL    MW467549   6.518   8.807   6.014
16808SOL     OW67550   7.399   7.812   6.459
16808SOL    HW267551   7.336   7.792   6.528
16808SOL    HW367552   7.389   7.741   6.396
16808SOL    MW467553   7.389   7.799   6.460
16809SOL     OW67554   6.023   7.784   5.971
16809SOL    HW267555   5.997   7.746   5.887
16809SOL    HW367556   5.960   7.854   5.987
16809SOL    MW467557   6.012   7.787   5.962
16810SOL     OW67558   5.858   8.745   6.008
16810SOL    HW267559   5.806   8.813   5.964
16810SOL    HW367560   5.855   8.671   5.948
16810SOL    MW467561   5.850   8.744   5.995
16811SOL     OW67562   7.455   7.981   5.761
16811SOL    HW267563   7.364   7.983   5.789
16811SOL    HW367564   7.500   8.043   5.819
16811SOL    MW467565   7.448   7.989   5.771
16812SOL     OW67566   7.200   8.584   6.111
16812SOL    HW267567   7.110   8.584   6.146
16812SOL    HW367568   7.193   8.630   6.028
16812SOL    MW467569   7.187   8.590   6.105
16813SOL     OW67570   7.000   8.219   7.183
16813SOL    HW267571   7.069   8.157   7.160
16813SOL    HW367572   6.925   8.193   7.130
16813SOL    MW467573   7.000   8.206   7.174
16814SOL     OW67574   6.736   8.606   7.175
16814SOL    HW267575   6.721   8.699   7.160
16814SOL    HW367576   6.831   8.596   7.175
16814SOL    MW467577   6.745   8.616   7.172
16815SOL     OW67578   6.532   8.030   7.376
16815SOL    HW267579   6.622   8.031   7.343
16815SOL    HW367580   6.491   7.955   7.334
16815SOL    MW467581   6.538   8.020   7.367
16816SOL     OW67582   7.107   8.562   6.503
16816SOL    HW267583   7.110   8.496   6.434
16816SOL    HW367584   7.192   8.605   6.499
16816SOL    MW467585   7.119   8.558   6.494
16817SOL     OW67586   6.727   8.165   6.072
16817SOL    HW267587   6.753   8.189   5.983
16817SOL    HW367588   6.709   8.072   6.068
16817SOL    MW467589   6.729   8.157   6.059
16818SOL     OW67590   7.392   8.785   5.923
16818SOL    HW267591   7.348   8.826   5.998
16818SOL    HW367592   7.449   8.853   5.888
16818SOL    MW467593   7.394   8.799   5.928
16819SOL     OW67594   6.312   7.834   7.326
16819SOL    HW267595   6.322   7.760   7.266
16819SOL    HW367596   6.348   7.803   7.409
16819SOL    MW467597   6.318   7.820   7.328
16820SOL     OW67598   7.432   7.563   6.290
16820SOL    HW267599   7.486   7.514   6.352
16820SOL    HW367600   7.375   7.497   6.251
16820SOL    MW467601   7.432   7.547   6.292
16821SOL     OW67602   6.551   7.516   6.703
16821SOL    HW267603   6.510   7.594   6.665
16821SOL    HW367604   6.645   7.534   6.698
16821SOL    MW467605   6.557   7.528   6.698
16822SOL     OW67606   6.566   8.194   5.733
16822SOL    HW267607   6.568   8.141   5.654
16822SOL    HW367608   6.654   8.231   5.739
16822SOL    MW467609   6.578   8.193   5.722
16823SOL     OW67610   7.180   8.120   6.069
16823SOL    HW267611   7.219   8.120   6.156
16823SOL    HW367612   7.121   8.196   6.069
16823SOL    MW467613   7.177   8.131   6.080
16824SOL     OW67614   6.497   8.487   7.198
16824SOL    HW267615   6.474   8.467   7.288
16824SOL    HW367616   6.582   8.531   7.203
16824SOL    MW467617   6.504   8.490   7.210
16825SOL     OW67618   6.577   7.624   6.958
16825SOL    HW267619   6.583   7.586   6.871
16825SOL    HW367620   6.566   7.718   6.943
16825SOL    MW467621   6.578   7.632   6.946
16826SOL     OW67622   6.666   8.113   6.792
16826SOL    HW267623   6.741   8.142   6.739
16826SOL    HW367624   6.598   8.178   6.776
16826SOL    MW467625   6.667   8.125   6.782
16827SOL     OW67626   7.216   8.081   7.069
16827SOL    HW267627   7.197   7.990   7.048
16827SOL    HW367628   7.194   8.130   6.990
16827SOL    MW467629   7.211   8.074   7.056
16828SOL     OW67630   6.663   7.819   7.175
16828SOL    HW267631   6.629   7.858   7.094
16828SOL    HW367632   6.641   7.727   7.168
16828SOL    MW467633   6.656   7.812   7.165
16829SOL     OW67634   7.072   8.633   7.251
16829SOL    HW267635   7.154   8.674   7.281
16829SOL    HW367636   7.035   8.595   7.331
16829SOL    MW467637   7.078   8.634   7.266
16830SOL     OW67638   7.367   8.006   6.235
16830SOL    HW267639   7.456   7.975   6.252
16830SOL    HW367640   7.310   7.946   6.283
16830SOL    MW467641   7.370   7.994   6.244
16831SOL     OW67642   5.793   7.720   6.264
16831SOL    HW267643   5.784   7.660   6.190
16831SOL    HW367644   5.726   7.691   6.327
16831SOL    MW467645   5.783   7.707   6.262
16832SOL     OW67646   6.736   8.813   5.825
16832SOL    HW267647   6.686   8.815   5.907
16832SOL    HW367648   6.670   8.831   5.757
16832SOL    MW467649   6.722   8.815   5.827
16833SOL     OW67650   5.740   7.893   6.627
16833SOL    HW267651   5.712   7.984   6.636
16833SOL    HW367652   5.677   7.854   6.566
16833SOL    MW467653   5.727   7.899   6.621
16834SOL     OW67654   6.335   8.646   5.640
16834SOL    HW267655   6.257   8.592   5.627
16834SOL    HW367656   6.306   8.719   5.693
16834SOL    MW467657   6.321   8.648   5.645
16835SOL     OW67658   7.461   8.386   6.832
16835SOL    HW267659   7.477   8.424   6.745
16835SOL    HW367660   7.495   8.452   6.893
16835SOL    MW467661   7.468   8.399   6.828
16836SOL     OW67662   5.724   8.168   6.797
16836SOL    HW267663   5.786   8.198   6.863
16836SOL    HW367664   5.658   8.237   6.791
16836SOL    MW467665   5.723   8.181   6.804
16837SOL     OW67666   6.365   7.725   5.705
16837SOL    HW267667   6.313   7.645   5.693
16837SOL    HW367668   6.452   7.702   5.673
16837SOL    MW467669   6.368   7.711   5.699
16838SOL     OW67670   5.871   8.596   6.756
16838SOL    HW267671   5.924   8.671   6.781
16838SOL    HW367672   5.790   8.634   6.722
16838SOL    MW467673   5.867   8.611   6.756
16839SOL     OW67674   6.411   8.500   6.744
16839SOL    HW267675   6.439   8.409   6.756
16839SOL    HW367676   6.340   8.494   6.680
16839SOL    MW467677   6.404   8.488   6.739
16840SOL     OW67678   5.726   8.365   6.162
16840SOL    HW267679   5.817   8.380   6.189
16840SOL    HW367680   5.729   8.286   6.108
16840SOL    MW467681   5.738   8.357   6.160
16841SOL     OW67682   5.962   8.073   7.416
16841SOL    HW267683   5.909   8.153   7.423
16841SOL    HW367684   6.032   8.085   7.481
16841SOL    MW467685   5.964   8.086   7.424
16842SOL     OW67686   6.348   7.623   7.123
16842SOL    HW267687   6.325   7.531   7.125
16842SOL    HW367688   6.434   7.625   7.080
16842SOL    MW467689   6.355   7.613   7.119
16843SOL     OW67690   6.032   8.147   7.162
16843SOL    HW267691   6.112   8.197   7.148
16843SOL    HW367692   6.023   8.141   7.257
16843SOL    MW467693   6.041   8.153   7.172
16844SOL     OW67694   7.009   7.672   7.433
16844SOL    HW267695   7.065   7.599   7.459
16844SOL    HW367696   6.979   7.710   7.515
16844SOL    MW467697   7.013   7.667   7.446
16845SOL     OW67698   6.567   9.020   6.236
16845SOL    HW267699   6.650   8.974   6.220
16845SOL    HW367700   6.557   9.019   6.332
16845SOL    MW467701   6.577   9.013   6.246
16846SOL     OW67702   7.399   8.165   6.550
16846SOL    HW267703   7.488   8.195   6.532
16846SOL    HW367704   7.379   8.105   6.479
16846SOL    MW467705   7.408   8.162   6.539
16847SOL     OW67706   7.250   8.344   7.430
16847SOL    HW267707   7.305   8.268   7.411
16847SOL    HW367708   7.252   8.352   7.525
16847SOL    MW467709   7.258   8.335   7.438
16848SOL     OW67710   6.738   7.722   5.864
16848SOL    HW267711   6.671   7.698   5.801
16848SOL    HW367712   6.803   7.771   5.813
16848SOL    MW467713   6.738   7.724   5.849
16849SOL     OW67714   6.545   7.906   6.949
16849SOL    HW267715   6.464   7.947   6.977
16849SOL    HW367716   6.592   7.974   6.901
16849SOL    MW467717   6.540   7.921   6.947
16850SOL     OW67718   6.805   8.244   6.572
16850SOL    HW267719   6.818   8.338   6.582
16850SOL    HW367720   6.766   8.234   6.486
16850SOL    MW467721   6.801   8.255   6.562
16851SOL     OW67722   6.257   8.439   6.376
16851SOL    HW267723   6.168   8.430   6.409
16851SOL    HW367724   6.261   8.529   6.344
16851SOL    MW467725   6.246   8.450   6.376
16852SOL     OW67726   7.056   8.022   6.371
16852SOL    HW267727   7.001   7.943   6.370
16852SOL    HW367728   7.038   8.063   6.455
16852SOL    MW467729   7.046   8.017   6.380
16853SOL     OW67730   6.027   7.709   7.188
16853SOL    HW267731   5.948   7.727   7.240
16853SOL    HW367732   6.022   7.771   7.115
16853SOL    MW467733   6.017   7.719   7.185
16854SOL     OW67734   6.675   8.226   6.328
16854SOL    HW267735   6.612   8.158   6.352
16854SOL    HW367736   6.695   8.207   6.236
16854SOL    MW467737   6.669   8.213   6.320
16855SOL     OW67738   6.423   8.530   6.054
16855SOL    HW267739   6.425   8.504   5.961
16855SOL    HW367740   6.481   8.467   6.097
16855SOL    MW467741   6.431   8.519   6.048
16856SOL     OW67742   6.933   7.774   6.387
16856SOL    HW267743   6.961   7.706   6.448
16856SOL    HW367744   6.847   7.745   6.357
16856SOL    MW467745   6.926   7.761   6.391
16857SOL     OW67746   5.738   8.708   6.321
16857SOL    HW267747   5.802   8.740   6.384
16857SOL    HW367748   5.787   8.644   6.269
16857SOL    MW467749   5.753   8.704   6.322
16858SOL     OW67750   6.913   7.878   5.722
16858SOL    HW267751   6.886   7.944   5.658
16858SOL    HW367752   6.983   7.921   5.772
16858SOL    MW467753   6.918   7.891   5.719
16859SOL     OW67754   6.581   7.583   5.659
16859SOL    HW267755   6.637   7.575   5.581
16859SOL    HW367756   6.558   7.493   5.681
16859SOL    MW467757   6.586   7.570   5.652
16860SOL     OW67758   7.086   8.434   5.864
16860SOL    HW267759   7.053   8.523   5.854
16860SOL    HW367760   7.051   8.405   5.949
16860SOL    MW467761   7.076   8.443   5.875
16861SOL     OW67762   5.992   7.531   7.394
16861SOL    HW267763   5.920   7.496   7.342
16861SOL    HW367764   6.050   7.572   7.329
16861SOL    MW467765   5.990   7.532   7.379
16862SOL     OW67766   7.456   8.550   7.047
16862SOL    HW267767   7.371   8.563   7.006
16862SOL    HW367768   7.436   8.514   7.134
16862SOL    MW467769   7.443   8.546   7.052
16863SOL     OW67770   6.080   8.472   5.656
16863SOL    HW267771   6.003   8.485   5.712
16863SOL    HW367772   6.044   8.436   5.575
16863SOL    MW467773   6.066   8.468   5.653
16864SOL     OW67774   6.733   8.445   5.899
16864SOL    HW267775   6.643   8.466   5.874
16864SOL    HW367776   6.760   8.518   5.955
16864SOL    MW467777   6.725   8.457   5.902
16865SOL     OW67778   6.233   8.794   6.591
16865SOL    HW267779   6.226   8.773   6.685
16865SOL    HW367780   6.151   8.762   6.554
16865SOL    MW467781   6.221   8.788   6.598
16866SOL     OW67782   7.097   7.804   6.993
16866SOL    HW267783   7.044   7.806   7.073
16866SOL    HW367784   7.082   7.717   6.956
16866SOL    MW467785   7.089   7.794   6.998
16867SOL     OW67786   7.433   7.728   6.866
16867SOL    HW267787   7.414   7.795   6.801
16867SOL    HW367788   7.490   7.666   6.821
16867SOL    MW467789   7.437   7.729   6.852
16868SOL     OW67790   6.362   7.561   6.306
16868SOL    HW267791   6.291   7.622   6.288
16868SOL    HW367792   6.413   7.558   6.225
16868SOL    MW467793   6.358   7.567   6.293
16869SOL     OW67794   6.120   8.801   6.055
16869SOL    HW267795   6.113   8.833   6.145
16869SOL    HW367796   6.030   8.785   6.027
16869SOL    MW467797   6.108   8.803   6.062
16870SOL     OW67798   6.322   8.218   7.436
16870SOL    HW267799   6.392   8.160   7.408
16870SOL    HW367800   6.265   8.163   7.491
16870SOL    MW467801   6.324   8.205   7.440
16871SOL     OW67802   7.109   8.430   7.069
16871SOL    HW267803   7.114   8.483   7.149
16871SOL    HW367804   7.071   8.347   7.097
16871SOL    MW467805   7.105   8.425   7.084
16872SOL     OW67806   6.749   7.565   7.315
16872SOL    HW267807   6.744   7.472   7.296
16872SOL    HW367808   6.832   7.576   7.361
16872SOL    MW467809   6.757   7.554   7.319
16873SOL     OW67810   6.123   8.085   5.769
16873SOL    HW267811   6.089   8.141   5.839
16873SOL    HW367812   6.194   8.035   5.809
16873SOL    MW467813   6.129   8.086   5.783
16874SOL     OW67814   7.219   8.836   6.591
16874SOL    HW267815   7.254   8.818   6.504
16874SOL    HW367816   7.124   8.837   6.578
16874SOL    MW467817   7.211   8.833   6.578
16875SOL     OW67818   6.648   8.484   6.960
16875SOL    HW267819   6.691   8.519   7.038
16875SOL    HW367820   6.631   8.561   6.906
16875SOL    MW467821   6.651   8.499   6.963
16876SOL     OW67822   7.179   7.971   5.833
16876SOL    HW267823   7.171   8.042   5.770
16876SOL    HW367824   7.197   8.015   5.916
16876SOL    MW467825   7.180   7.985   5.835
16877SOL     OW67826   6.039   7.626   6.262
16877SOL    HW267827   6.089   7.669   6.193
16877SOL    HW367828   5.954   7.670   6.262
16877SOL    MW467829   6.036   7.639   6.253
16878SOL     OW67830   5.798   8.688   7.122
16878SOL    HW267831   5.826   8.641   7.200
16878SOL    HW367832   5.719   8.643   7.093
16878SOL    MW467833   5.791   8.677   7.128
16879SOL     OW67834   6.306   8.015   7.089
16879SOL    HW267835   6.278   8.103   7.113
16879SOL    HW367836   6.275   7.959   7.160
16879SOL    MW467837   6.298   8.018   7.101
16880SOL     OW67838   6.848   8.233   5.808
16880SOL    HW267839   6.895   8.251   5.727
16880SOL    HW367840   6.814   8.317   5.836
16880SOL    MW467841   6.850   8.247   5.801
16881SOL     OW67842   5.961   8.411   6.302
16881SOL    HW267843   6.019   8.467   6.250
16881SOL    HW367844   6.005   8.326   6.304
16881SOL    MW467845   5.974   8.408   6.295
16882SOL     OW67846   7.101   7.763   6.139
16882SOL    HW267847   7.023   7.713   6.164
16882SOL    HW367848   7.072   7.854   6.139
16882SOL    MW467849   7.087   7.767   6.142
16883SOL     OW67850   6.687   7.725   6.298
16883SOL    HW267851   6.707   7.800   6.242
16883SOL    HW367852   6.667   7.764   6.383
16883SOL    MW467853   6.688   7.741   6.302
16884SOL     OW67854   7.447   8.498   7.317
16884SOL    HW267855   7.360   8.478   7.353
16884SOL    HW367856   7.501   8.424   7.342
16884SOL    MW467857   7.442   8.487   7.325
16885SOL     OW67858   5.623   8.137   6.021
16885SOL    HW267859   5.563   8.109   6.091
16885SOL    HW367860   5.697   8.077   6.027
16885SOL    MW467861   5.625   8.126   6.030
16886SOL     OW67862   6.049   7.876   6.910
16886SOL    HW267863   6.082   7.957   6.950
16886SOL    HW367864   6.022   7.902   6.822
16886SOL    MW467865   6.048   7.890   6.904
16887SOL     OW67866   6.003   7.843   6.646
16887SOL    HW267867   6.033   7.757   6.617
16887SOL    HW367868   5.908   7.836   6.649
16887SOL    MW467869   5.995   7.832   6.644
16888SOL     OW67870   6.832   8.052   7.337
16888SOL    HW267871   6.884   7.987   7.290
16888SOL    HW367872   6.790   8.103   7.267
16888SOL    MW467873   6.833   8.049   7.320
16889SOL     OW67874   6.931   7.847   7.198
16889SOL    HW267875   6.838   7.831   7.185
16889SOL    HW367876   6.957   7.785   7.266
16889SOL    MW467877   6.921   7.837   7.205
16890SOL     OW67878   6.146   7.621   6.537
16890SOL    HW267879   6.156   7.530   6.563
16890SOL    HW367880   6.102   7.617   6.452
16890SOL    MW467881   6.142   7.609   6.529
16891SOL     OW67882   7.297   7.943   6.708
16891SOL    HW267883   7.230   7.976   6.768
16891SOL    HW367884   7.340   8.021   6.674
16891SOL    MW467885   7.295   7.958   6.712
16892SOL     OW67886   7.475   8.663   6.678
16892SOL    HW267887   7.468   8.603   6.603
16892SOL    HW367888   7.401   8.723   6.667
16892SOL    MW467889   7.465   8.663   6.667
16893SOL     OW67890   6.857   8.525   6.596
16893SOL    HW267891   6.871   8.497   6.687
16893SOL    HW367892   6.943   8.556   6.568
16893SOL    MW467893   6.870   8.526   6.605
16894SOL     OW67894   6.940   8.020   6.875
16894SOL    HW267895   6.961   8.021   6.782
16894SOL    HW367896   6.985   7.942   6.908
16894SOL    MW467897   6.947   8.010   6.867
16895SOL     OW67898   7.433   8.151   7.417
16895SOL    HW267899   7.470   8.096   7.486
16895SOL    HW367900   7.458   8.108   7.335
16895SOL    MW467901   7.440   8.139   7.416
16896SOL     OW67902   6.980   8.449   7.468
16896SOL    HW267903   7.046   8.397   7.422
16896SOL    HW367904   7.000   8.436   7.561
16896SOL    MW467905   6.991   8.440   7.475
16897SOL     OW67906   6.931   7.535   5.817
16897SOL    HW267907   7.005   7.579   5.860
16897SOL    HW367908   6.855   7.589   5.839
16897SOL    MW467909   6.931   7.547   5.825
16898SOL     OW67910   6.991   8.310   6.095
16898SOL    HW267911   6.906   8.280   6.065
16898SOL    HW367912   6.983   8.317   6.190
16898SOL    MW467913   6.979   8.308   6.104
16899SOL     OW67914   6.351   7.753   6.649
16899SOL    HW267915   6.324   7.755   6.740
16899SOL    HW367916   6.281   7.705   6.604
16899SOL    MW467917   6.339   7.749   6.656
16900SOL     OW67918   7.107   8.830   7.043
16900SOL    HW267919   7.092   8.759   7.106
16900SOL    HW367920   7.153   8.788   6.971
16900SOL    MW467921   7.113   8.814   7.043
16901SOL     OW67922   6.181   8.561   7.160
16901SOL    HW267923   6.218   8.566   7.072
16901SOL    HW367924   6.220   8.634   7.207
16901SOL    MW467925   6.191   8.571   7.155
16902SOL     OW67926   6.361   8.604   6.972
16902SOL    HW267927   6.420   8.550   7.025
16902SOL    HW367928   6.376   8.576   6.882
16902SOL    MW467929   6.371   8.593   6.968
16903SOL     OW67930   6.364   7.976   5.821
16903SOL    HW267931   6.437   8.025   5.784
16903SOL    HW367932   6.380   7.885   5.795
16903SOL    MW467933   6.376   7.971   5.814
16904SOL     OW67934   6.832   7.572   6.735
16904SOL    HW267935   6.887   7.581   6.657
16904SOL    HW367936   6.887   7.606   6.806
16904SOL    MW467937   6.846   7.577   6.734
16905SOL     OW67938   5.839   8.485   5.919
16905SOL    HW267939   5.776   8.501   5.848
16905SOL    HW367940   5.786   8.448   5.990
16905SOL    MW467941   5.824   8.482   5.919
16906SOL     OW67942   6.195   8.839   5.778
16906SOL    HW267943   6.210   8.815   5.870
16906SOL    HW367944   6.103   8.817   5.762
16906SOL    MW467945   6.185   8.832   5.788
16907SOL     OW67946   6.610   8.706   6.742
16907SOL    HW267947   6.542   8.640   6.758
16907SOL    HW367948   6.628   8.700   6.649
16907SOL    MW467949   6.603   8.697   6.733
16908SOL     OW67950   6.603   7.845   6.563
16908SOL    HW267951   6.533   7.797   6.608
16908SOL    HW367952   6.635   7.908   6.627
16908SOL    MW467953   6.598   7.847   6.577
16909SOL     OW67954   6.254   8.281   7.183
16909SOL    HW267955   6.247   8.376   7.171
16909SOL    HW367956   6.263   8.270   7.278
16909SOL    MW467957   6.255   8.293   7.193
16910SOL     OW67958   5.975   8.796   7.441
16910SOL    HW267959   6.047   8.798   7.378
16910SOL    HW367960   5.945   8.705   7.440
16910SOL    MW467961   5.980   8.785   7.433
16911SOL     OW67962   7.059   7.559   6.908
16911SOL    HW267963   7.130   7.505   6.872
16911SOL    HW367964   7.058   7.538   7.001
16911SOL    MW467965   7.068   7.550   6.916
16912SOL     OW67966   6.070   7.951   6.376
16912SOL    HW267967   6.141   7.899   6.339
16912SOL    HW367968   6.056   7.916   6.463
16912SOL    MW467969   6.078   7.940   6.383
16913SOL     OW67970   6.706   7.892   6.100
16913SOL    HW267971   6.728   7.829   6.032
16913SOL    HW367972   6.611   7.884   6.111
16913SOL    MW467973   6.696   7.883   6.092
16914SOL     OW67974   5.791   7.582   6.032
16914SOL    HW267975   5.862   7.603   5.971
16914SOL    HW367976   5.745   7.510   5.990
16914SOL    MW467977   5.795   7.576   6.018
16915SOL     OW67978   5.622   8.049   7.175
16915SOL    HW267979   5.686   8.115   7.150
16915SOL    HW367980   5.541   8.076   7.132
16915SOL    MW467981   5.620   8.061   7.167
16916SOL     OW67982   6.916   8.633   6.062
16916SOL    HW267983   6.888   8.719   6.095
16916SOL    HW367984   6.944   8.649   5.972
16916SOL    MW467985   6.916   8.647   6.054
16917SOL     OW67986   6.578   7.553   6.115
16917SOL    HW267987   6.615   7.612   6.180
16917SOL    HW367988   6.555   7.609   6.041
16917SOL    MW467989   6.579   7.568   6.114
16918SOL     OW67990   7.431   8.435   6.537
16918SOL    HW267991   7.422   8.467   6.448
16918SOL    HW367992   7.384   8.351   6.537
16918SOL    MW467993   7.424   8.428   6.527
16919SOL     OW67994   5.807   8.275   7.116
16919SOL    HW267995   5.828   8.344   7.054
16919SOL    HW367996   5.887   8.222   7.121
16919SOL    MW467997   5.820   8.276   7.110
16920SOL     OW67998   7.343   8.366   6.238
16920SOL    HW267999   7.437   8.355   6.226
16920SOL    HW368000   7.319   8.438   6.179
16920SOL    MW468001   7.353   8.374   6.229
16921SOL     OW68002   5.792   8.290   7.383
16921SOL    HW268003   5.718   8.234   7.409
16921SOL    HW368004   5.787   8.293   7.288
16921SOL    MW468005   5.781   8.283   7.373
16922SOL     OW68006   5.958   7.577   6.833
16922SOL    HW268007   6.001   7.661   6.853
16922SOL    HW368008   6.031   7.515   6.826
16922SOL    MW468009   5.973   7.580   6.834
16923SOL     OW68010   5.999   8.244   6.011
16923SOL    HW268011   5.999   8.339   5.996
16923SOL    HW368012   6.076   8.228   6.065
16923SOL    MW468013   6.009   8.255   6.016
16924SOL     OW68014   6.775   8.103   7.075
16924SOL    HW268015   6.811   8.076   6.991
16924SOL    HW368016   6.688   8.137   7.054
16924SOL    MW468017   6.769   8.104   7.062
16925SOL     OW68018   5.758   7.975   6.300
16925SOL    HW268019   5.820   7.982   6.373
16925SOL    HW368020   5.758   7.882   6.277
16925SOL    MW468021   5.766   7.964   6.307
16926SOL     OW68022   6.440   8.236   6.784
16926SOL    HW268023   6.398   8.154   6.760
16926SOL    HW368024   6.441   8.235   6.880
16926SOL    MW468025   6.433   8.225   6.793
16927SOL     OW68026   6.244   7.706   6.889
16927SOL    HW268027   6.175   7.769   6.910
16927SOL    HW368028   6.271   7.670   6.974
16927SOL    MW468029   6.238   7.709   6.902
16928SOL     OW68030   5.627   8.547   5.758
16928SOL    HW268031   5.596   8.612   5.821
16928SOL    HW368032   5.576   8.469   5.777
16928SOL    MW468033   5.617   8.544   5.768
16929SOL     OW68034   7.039   7.559   6.506
16929SOL    HW268035   7.127   7.568   6.543
16929SOL    HW368036   7.049   7.500   6.432
16929SOL    MW468037   7.053   7.553   6.500
16930SOL     OW68038   7.071   8.298   6.350
16930SOL    HW268039   7.151   8.313   6.299
16930SOL    HW368040   7.064   8.203   6.356
16930SOL    MW468041   7.080   8.287   6.345
16931SOL     OW68042   6.521   8.224   7.047
16931SOL    HW268043   6.590   8.291   7.044
16931SOL    HW368044   6.454   8.262   7.103
16931SOL    MW468045   6.522   8.237   7.054
16932SOL     OW68046   5.939   8.524   7.295
16932SOL    HW268047   5.893   8.440   7.297
16932SOL    HW368048   5.996   8.518   7.219
16932SOL    MW468049   5.941   8.512   7.287
16933SOL     OW68050   7.056   8.167   5.615
16933SOL    HW268051   6.984   8.143   5.557
16933SOL    HW368052   7.122   8.204   5.557
16933SOL    MW468053   7.055   8.169   5.600
16934SOL     OW68054   6.190   8.899   6.296
16934SOL    HW268055   6.255   8.832   6.317
16934SOL    HW368056   6.242   8.976   6.273
16934SOL    MW468057   6.205   8.901   6.295
16935SOL     OW68058   6.451   8.064   6.426
16935SOL    HW268059   6.391   8.082   6.498
16935SOL    HW368060   6.485   7.976   6.445
16935SOL    MW468061   6.447   8.054   6.439
16936SOL     OW68062   7.392   7.563   7.095
16936SOL    HW268063   7.313   7.609   7.123
16936SOL    HW368064   7.427   7.617   7.024
16936SOL    MW468065   7.386   7.576   7.089
16937SOL     OW68066   6.676   8.647   6.445
16937SOL    HW268067   6.768   8.628   6.463
16937SOL    HW368068   6.649   8.577   6.385
16937SOL    MW468069   6.684   8.635   6.439
16938SOL     OW68070   6.469   8.467   5.800
16938SOL    HW268071   6.455   8.379   5.765
16938SOL    HW368072   6.420   8.524   5.741
16938SOL    MW468073   6.461   8.462   5.788
16939SOL     OW68074   5.882   8.191   6.579
16939SOL    HW268075   5.832   8.190   6.660
16939SOL    HW368076   5.902   8.283   6.563
16939SOL    MW468077   5.878   8.203   6.587
16940SOL     OW68078   6.949   8.955   7.341
16940SOL    HW268079   6.949   9.049   7.357
16940SOL    HW368080   6.994   8.945   7.257
16940SOL    MW468081   6.955   8.965   7.332
16941SOL     OW68082   7.188   7.673   5.902
16941SOL    HW268083   7.181   7.677   5.997
16941SOL    HW368084   7.200   7.764   5.875
16941SOL    MW468085   7.189   7.686   5.910
16942SOL     OW68086   6.477   8.236   6.016
16942SOL    HW268087   6.457   8.222   5.923
16942SOL    HW368088   6.570   8.215   6.023
16942SOL    MW468089   6.487   8.231   6.005
16943SOL     OW68090   5.804   7.859   7.320
16943SOL    HW268091   5.761   7.918   7.257
16943SOL    HW368092   5.872   7.914   7.360
16943SOL    MW468093   5.808   7.874   7.317
16944SOL     OW68094   6.916   8.479   6.865
16944SOL    HW268095   6.979   8.476   6.938
16944SOL    HW368096   6.832   8.497   6.907
16944SOL    MW468097   6.912   8.481   6.880
16945SOL     OW68098   7.255   7.656   6.644
16945SOL    HW268099   7.300   7.574   6.663
16945SOL    HW368100   7.275   7.712   6.720
16945SOL    MW468101   7.265   7.652   6.656
16946SOL     OW68102   5.703   7.499   6.743
16946SOL    HW268103   5.694   7.500   6.648
16946SOL    HW368104   5.797   7.511   6.758
16946SOL    MW468105   5.715   7.502   6.734
16947SOL     OW68106   7.340   8.692   6.363
16947SOL    HW268107   7.319   8.638   6.286
16947SOL    HW368108   7.436   8.690   6.367
16947SOL    MW468109   7.349   8.685   6.352
16948SOL     OW68110   6.032   8.837   7.106
16948SOL    HW268111   5.953   8.787   7.129
16948SOL    HW368112   6.102   8.796   7.156
16948SOL    MW468113   6.030   8.825   7.116
16949SOL     OW68114   5.916   7.626   5.789
16949SOL    HW268115   5.845   7.681   5.757
16949SOL    HW368116   5.958   7.592   5.710
16949SOL    MW468117   5.912   7.628   5.775
16950SOL     OW68118   7.040   8.123   6.625
16950SOL    HW268119   6.963   8.169   6.591
16950SOL    HW368120   7.097   8.192   6.659
16950SOL    MW468121   7.037   8.138   6.625
16951SOL     OW68122   5.672   7.725   5.638
16951SOL    HW268123   5.639   7.804   5.682
16951SOL    HW368124   5.727   7.758   5.567
16951SOL    MW468125   5.675   7.739   5.635
16952SOL     OW68126   1.369   8.670   7.705
16952SOL    HW268127   1.287   8.706   7.671
16952SOL    HW368128   1.437   8.713   7.654
16952SOL    MW468129   1.367   8.680   7.693
16953SOL     OW68130   0.921   8.811   7.898
16953SOL    HW268131   0.898   8.873   7.966
16953SOL    HW368132   0.878   8.729   7.924
16953SOL    MW468133   0.913   8.807   7.909
16954SOL     OW68134   1.595   8.584   8.006
16954SOL    HW268135   1.505   8.584   8.041
16954SOL    HW368136   1.588   8.630   7.923
16954SOL    MW468137   1.582   8.590   8.000
16955SOL     OW68138   1.563   9.069   7.684
16955SOL    HW268139   1.611   9.138   7.730
16955SOL    HW368140   1.484   9.113   7.653
16955SOL    MW468141   1.558   9.083   7.687
16956SOL     OW68142   0.961   8.194   7.628
16956SOL    HW268143   0.963   8.141   7.549
16956SOL    HW368144   1.049   8.231   7.634
16956SOL    MW468145   0.973   8.193   7.617
16957SOL     OW68146   0.730   8.646   7.535
16957SOL    HW268147   0.652   8.592   7.522
16957SOL    HW368148   0.701   8.719   7.588
16957SOL    MW468149   0.716   8.648   7.540
16958SOL     OW68150   1.535   8.836   7.545
16958SOL    HW268151   1.482   8.885   7.481
16958SOL    HW368152   1.566   8.902   7.606
16958SOL    MW468153   1.533   8.850   7.543
16959SOL     OW68154   0.760   7.725   7.600
16959SOL    HW268155   0.708   7.645   7.588
16959SOL    HW368156   0.847   7.702   7.568
16959SOL    MW468157   0.763   7.711   7.594
16960SOL     OW68158   0.976   7.583   7.554
16960SOL    HW268159   1.032   7.575   7.476
16960SOL    HW368160   0.953   7.493   7.576
16960SOL    MW468161   0.981   7.570   7.547
16961SOL     OW68162   0.475   8.472   7.551
16961SOL    HW268163   0.398   8.485   7.607
16961SOL    HW368164   0.439   8.436   7.470
16961SOL    MW468165   0.461   8.468   7.548
16962SOL     OW68166   1.128   8.445   7.794
16962SOL    HW268167   1.038   8.466   7.769
16962SOL    HW368168   1.155   8.518   7.850
16962SOL    MW468169   1.120   8.457   7.797
16963SOL     OW68170   0.518   8.085   7.664
16963SOL    HW268171   0.484   8.141   7.734
16963SOL    HW368172   0.589   8.035   7.704
16963SOL    MW468173   0.524   8.086   7.678
16964SOL     OW68174   0.978   8.975   7.525
16964SOL    HW268175   1.005   9.053   7.477
16964SOL    HW368176   0.885   8.990   7.544
16964SOL    MW468177   0.969   8.988   7.521
16965SOL     OW68178   1.386   8.310   7.990
16965SOL    HW268179   1.301   8.280   7.960
16965SOL    HW368180   1.378   8.317   8.085
16965SOL    MW468181   1.374   8.308   7.999
16966SOL     OW68182   0.759   7.976   7.716
16966SOL    HW268183   0.832   8.025   7.679
16966SOL    HW368184   0.775   7.885   7.690
16966SOL    MW468185   0.771   7.971   7.709
16967SOL     OW68186   0.234   8.485   7.814
16967SOL    HW268187   0.171   8.501   7.743
16967SOL    HW368188   0.181   8.448   7.885
16967SOL    MW468189   0.219   8.482   7.814
16968SOL     OW68190   1.451   8.167   7.511
16968SOL    HW268191   1.379   8.143   7.453
16968SOL    HW368192   1.517   8.204   7.453
16968SOL    MW468193   1.450   8.169   7.496
16969SOL     OW68194   0.067   7.725   7.533
16969SOL    HW268195   0.034   7.804   7.577
16969SOL    HW368196   0.122   7.758   7.462
16969SOL    MW468197   0.070   7.739   7.530
16970SOL     OW68198   3.237   8.670   7.705
16970SOL    HW268199   3.155   8.706   7.671
16970SOL    HW368200   3.305   8.713   7.654
16970SOL    MW468201   3.235   8.680   7.693
16971SOL     OW68202   2.789   8.811   7.898
16971SOL    HW268203   2.766   8.873   7.966
16971SOL    HW368204   2.746   8.729   7.924
16971SOL    MW468205   2.781   8.807   7.909
16972SOL     OW68206   3.463   8.584   8.006
16972SOL    HW268207   3.373   8.584   8.041
16972SOL    HW368208   3.456   8.630   7.923
16972SOL    MW468209   3.450   8.590   8.000
16973SOL     OW68210   2.829   8.194   7.628
16973SOL    HW268211   2.831   8.141   7.549
16973SOL    HW368212   2.917   8.231   7.634
16973SOL    MW468213   2.841   8.193   7.617
16974SOL     OW68214   2.598   8.646   7.535
16974SOL    HW268215   2.520   8.592   7.522
16974SOL    HW368216   2.569   8.719   7.588
16974SOL    MW468217   2.584   8.648   7.540
16975SOL     OW68218   2.628   7.725   7.600
16975SOL    HW268219   2.576   7.645   7.588
16975SOL    HW368220   2.715   7.702   7.568
16975SOL    MW468221   2.631   7.711   7.594
16976SOL     OW68222   2.563   9.077   7.536
16976SOL    HW268223   2.503   9.146   7.506
16976SOL    HW368224   2.508   9.019   7.589
16976SOL    MW468225   2.547   9.079   7.538
16977SOL     OW68226   2.844   7.583   7.554
16977SOL    HW268227   2.900   7.575   7.476
16977SOL    HW368228   2.821   7.493   7.576
16977SOL    MW468229   2.849   7.570   7.547
16978SOL     OW68230   2.343   8.472   7.551
16978SOL    HW268231   2.266   8.485   7.607
16978SOL    HW368232   2.307   8.436   7.470
16978SOL    MW468233   2.329   8.468   7.548
16979SOL     OW68234   2.996   8.445   7.794
16979SOL    HW268235   2.906   8.466   7.769
16979SOL    HW368236   3.023   8.518   7.850
16979SOL    MW468237   2.988   8.457   7.797
16980SOL     OW68238   2.386   8.085   7.664
16980SOL    HW268239   2.352   8.141   7.734
16980SOL    HW368240   2.457   8.035   7.704
16980SOL    MW468241   2.392   8.086   7.678
16981SOL     OW68242   2.846   8.975   7.525
16981SOL    HW268243   2.873   9.053   7.477
16981SOL    HW368244   2.753   8.990   7.544
16981SOL    MW468245   2.837   8.988   7.521
16982SOL     OW68246   3.254   8.310   7.990
16982SOL    HW268247   3.169   8.280   7.960
16982SOL    HW368248   3.246   8.317   8.085
16982SOL    MW468249   3.242   8.308   7.999
16983SOL     OW68250   2.627   7.976   7.716
16983SOL    HW268251   2.700   8.025   7.679
16983SOL    HW368252   2.643   7.885   7.690
16983SOL    MW468253   2.639   7.971   7.709
16984SOL     OW68254   2.102   8.485   7.814
16984SOL    HW268255   2.039   8.501   7.743
16984SOL    HW368256   2.049   8.448   7.885
16984SOL    MW468257   2.087   8.482   7.814
16985SOL     OW68258   2.458   8.839   7.673
16985SOL    HW268259   2.473   8.815   7.765
16985SOL    HW368260   2.366   8.817   7.657
16985SOL    MW468261   2.448   8.832   7.683
16986SOL     OW68262   3.319   8.167   7.511
16986SOL    HW268263   3.247   8.143   7.453
16986SOL    HW368264   3.385   8.204   7.453
16986SOL    MW468265   3.318   8.169   7.496
16987SOL     OW68266   1.935   7.725   7.533
16987SOL    HW268267   1.902   7.804   7.577
16987SOL    HW368268   1.990   7.758   7.462
16987SOL    MW468269   1.938   7.739   7.530
16988SOL     OW68270   5.472   8.339   7.757
16988SOL    HW268271   5.513   8.281   7.822
16988SOL    HW368272   5.379   8.331   7.774
16988SOL    MW468273   5.466   8.331   7.767
16989SOL     OW68274   4.550   7.978   7.999
16989SOL    HW268275   4.525   8.066   8.027
16989SOL    HW368276   4.547   7.981   7.903
16989SOL    MW468277   4.546   7.990   7.991
16990SOL     OW68278   5.105   8.670   7.705
16990SOL    HW268279   5.023   8.706   7.671
16990SOL    HW368280   5.173   8.713   7.654
16990SOL    MW468281   5.103   8.680   7.693
16991SOL     OW68282   4.657   8.811   7.898
16991SOL    HW268283   4.634   8.873   7.966
16991SOL    HW368284   4.614   8.729   7.924
16991SOL    MW468285   4.649   8.807   7.909
16992SOL     OW68286   5.586   7.981   7.656
16992SOL    HW268287   5.495   7.983   7.684
16992SOL    HW368288   5.631   8.043   7.714
16992SOL    MW468289   5.579   7.989   7.666
16993SOL     OW68290   5.331   8.584   8.006
16993SOL    HW268291   5.241   8.584   8.041
16993SOL    HW368292   5.324   8.630   7.923
16993SOL    MW468293   5.318   8.590   8.000
16994SOL     OW68294   4.858   8.165   7.967
16994SOL    HW268295   4.884   8.189   7.878
16994SOL    HW368296   4.840   8.072   7.963
16994SOL    MW468297   4.860   8.157   7.954
16995SOL     OW68298   5.523   8.785   7.818
16995SOL    HW268299   5.479   8.826   7.893
16995SOL    HW368300   5.580   8.853   7.783
16995SOL    MW468301   5.525   8.799   7.823
16996SOL     OW68302   4.697   8.194   7.628
16996SOL    HW268303   4.699   8.141   7.549
16996SOL    HW368304   4.785   8.231   7.634
16996SOL    MW468305   4.709   8.193   7.617
16997SOL     OW68306   5.311   8.120   7.964
16997SOL    HW268307   5.350   8.120   8.051
16997SOL    HW368308   5.252   8.196   7.964
16997SOL    MW468309   5.308   8.131   7.975
16998SOL     OW68310   4.867   8.813   7.720
16998SOL    HW268311   4.817   8.815   7.802
16998SOL    HW368312   4.801   8.831   7.652
16998SOL    MW468313   4.853   8.815   7.722
16999SOL     OW68314   4.466   8.646   7.535
16999SOL    HW268315   4.388   8.592   7.522
16999SOL    HW368316   4.437   8.719   7.588
16999SOL    MW468317   4.452   8.648   7.540
17000SOL     OW68318   4.496   7.725   7.600
17000SOL    HW268319   4.444   7.645   7.588
17000SOL    HW368320   4.583   7.702   7.568
17000SOL    MW468321   4.499   7.711   7.594
17001SOL     OW68322   4.869   7.722   7.759
17001SOL    HW268323   4.802   7.698   7.696
17001SOL    HW368324   4.934   7.771   7.708
17001SOL    MW468325   4.869   7.724   7.744
17002SOL     OW68326   4.554   8.530   7.949
17002SOL    HW268327   4.556   8.504   7.856
17002SOL    HW368328   4.612   8.467   7.992
17002SOL    MW468329   4.562   8.519   7.943
17003SOL     OW68330   5.044   7.878   7.617
17003SOL    HW268331   5.017   7.944   7.553
17003SOL    HW368332   5.114   7.921   7.667
17003SOL    MW468333   5.049   7.891   7.614
17004SOL     OW68334   4.712   7.583   7.554
17004SOL    HW268335   4.768   7.575   7.476
17004SOL    HW368336   4.689   7.493   7.576
17004SOL    MW468337   4.717   7.570   7.547
17005SOL     OW68338   5.217   8.434   7.759
17005SOL    HW268339   5.184   8.523   7.749
17005SOL    HW368340   5.182   8.405   7.844
17005SOL    MW468341   5.207   8.443   7.770
17006SOL     OW68342   4.211   8.472   7.551
17006SOL    HW268343   4.134   8.485   7.607
17006SOL    HW368344   4.175   8.436   7.470
17006SOL    MW468345   4.197   8.468   7.548
17007SOL     OW68346   4.864   8.445   7.794
17007SOL    HW268347   4.774   8.466   7.769
17007SOL    HW368348   4.891   8.518   7.850
17007SOL    MW468349   4.856   8.457   7.797
17008SOL     OW68350   4.254   8.085   7.664
17008SOL    HW268351   4.220   8.141   7.734
17008SOL    HW368352   4.325   8.035   7.704
17008SOL    MW468353   4.260   8.086   7.678
17009SOL     OW68354   5.310   7.971   7.728
17009SOL    HW268355   5.302   8.042   7.665
17009SOL    HW368356   5.328   8.015   7.811
17009SOL    MW468357   5.311   7.985   7.730
17010SOL     OW68358   4.979   8.233   7.703
17010SOL    HW268359   5.026   8.251   7.622
17010SOL    HW368360   4.945   8.317   7.731
17010SOL    MW468361   4.981   8.247   7.696
17011SOL     OW68362   5.062   7.535   7.712
17011SOL    HW268363   5.136   7.579   7.755
17011SOL    HW368364   4.986   7.589   7.734
17011SOL    MW468365   5.062   7.547   7.720
17012SOL     OW68366   5.122   8.310   7.990
17012SOL    HW268367   5.037   8.280   7.960
17012SOL    HW368368   5.114   8.317   8.085
17012SOL    MW468369   5.110   8.308   7.999
17013SOL     OW68370   4.495   7.976   7.716
17013SOL    HW268371   4.568   8.025   7.679
17013SOL    HW368372   4.511   7.885   7.690
17013SOL    MW468373   4.507   7.971   7.709
17014SOL     OW68374   3.970   8.485   7.814
17014SOL    HW268375   3.907   8.501   7.743
17014SOL    HW368376   3.917   8.448   7.885
17014SOL    MW468377   3.955   8.482   7.814
17015SOL     OW68378   4.326   8.839   7.673
17015SOL    HW268379   4.341   8.815   7.765
17015SOL    HW368380   4.234   8.817   7.657
17015SOL    MW468381   4.316   8.832   7.683
17016SOL     OW68382   4.837   7.892   7.995
17016SOL    HW268383   4.859   7.829   7.927
17016SOL    HW368384   4.742   7.884   8.006
17016SOL    MW468385   4.827   7.883   7.987
17017SOL     OW68386   5.047   8.633   7.957
17017SOL    HW268387   5.019   8.719   7.990
17017SOL    HW368388   5.075   8.649   7.867
17017SOL    MW468389   5.047   8.647   7.949
17018SOL     OW68390   4.709   7.553   8.010
17018SOL    HW268391   4.746   7.612   8.075
17018SOL    HW368392   4.686   7.609   7.936
17018SOL    MW468393   4.710   7.568   8.009
17019SOL     OW68394   5.187   8.167   7.511
17019SOL    HW268395   5.115   8.143   7.453
17019SOL    HW368396   5.253   8.204   7.453
17019SOL    MW468397   5.186   8.169   7.496
17020SOL     OW68398   4.600   8.467   7.695
17020SOL    HW268399   4.586   8.379   7.660
17020SOL    HW368400   4.551   8.524   7.636
17020SOL    MW468401   4.592   8.462   7.683
17021SOL     OW68402   5.319   7.673   7.797
17021SOL    HW268403   5.312   7.677   7.892
17021SOL    HW368404   5.331   7.764   7.770
17021SOL    MW468405   5.320   7.686   7.805
17022SOL     OW68406   4.608   8.236   7.911
17022SOL    HW268407   4.588   8.222   7.818
17022SOL    HW368408   4.701   8.215   7.918
17022SOL    MW468409   4.618   8.231   7.900
17023SOL     OW68410   3.803   7.725   7.533
17023SOL    HW268411   3.770   7.804   7.577
17023SOL    HW368412   3.858   7.758   7.462
17023SOL    MW468413   3.806   7.739   7.530
17024SOL     OW68414   6.135   8.522   7.986
17024SOL    HW268415   6.225   8.497   7.970
17024SOL    HW368416   6.131   8.615   7.963
17024SOL    MW468417   6.147   8.531   7.981
17025SOL     OW68418   5.861   8.006   7.927
17025SOL    HW268419   5.893   8.094   7.909
17025SOL    HW368420   5.849   8.004   8.022
17025SOL    MW468421   5.864   8.018   7.939
17026SOL     OW68422   6.974   8.670   7.705
17026SOL    HW268423   6.892   8.706   7.671
17026SOL    HW368424   7.042   8.713   7.654
17026SOL    MW468425   6.972   8.680   7.693
17027SOL     OW68426   6.526   8.811   7.898
17027SOL    HW268427   6.503   8.873   7.966
17027SOL    HW368428   6.483   8.729   7.924
17027SOL    MW468429   6.518   8.807   7.909
17028SOL     OW68430   6.023   7.784   7.866
17028SOL    HW268431   5.997   7.746   7.782
17028SOL    HW368432   5.960   7.854   7.882
17028SOL    MW468433   6.012   7.787   7.857
17029SOL     OW68434   5.858   8.745   7.903
17029SOL    HW268435   5.806   8.813   7.859
17029SOL    HW368436   5.855   8.671   7.843
17029SOL    MW468437   5.850   8.744   7.890
17030SOL     OW68438   6.566   8.194   7.628
17030SOL    HW268439   6.568   8.141   7.549
17030SOL    HW368440   6.654   8.231   7.634
17030SOL    MW468441   6.578   8.193   7.617
17031SOL     OW68442   6.335   8.646   7.535
17031SOL    HW268443   6.257   8.592   7.522
17031SOL    HW368444   6.306   8.719   7.588
17031SOL    MW468445   6.321   8.648   7.540
17032SOL     OW68446   6.365   7.725   7.600
17032SOL    HW268447   6.313   7.645   7.588
17032SOL    HW368448   6.452   7.702   7.568
17032SOL    MW468449   6.368   7.711   7.594
17033SOL     OW68450   6.581   7.583   7.554
17033SOL    HW268451   6.637   7.575   7.476
17033SOL    HW368452   6.558   7.493   7.576
17033SOL    MW468453   6.586   7.570   7.547
17034SOL     OW68454   6.080   8.472   7.551
17034SOL    HW268455   6.003   8.485   7.607
17034SOL    HW368456   6.044   8.436   7.470
17034SOL    MW468457   6.066   8.468   7.548
17035SOL     OW68458   6.733   8.445   7.794
17035SOL    HW268459   6.643   8.466   7.769
17035SOL    HW368460   6.760   8.518   7.850
17035SOL    MW468461   6.725   8.457   7.797
17036SOL     OW68462   6.120   8.801   7.950
17036SOL    HW268463   6.113   8.833   8.040
17036SOL    HW368464   6.030   8.785   7.922
17036SOL    MW468465   6.108   8.803   7.957
17037SOL     OW68466   6.123   8.085   7.664
17037SOL    HW268467   6.089   8.141   7.734
17037SOL    HW368468   6.194   8.035   7.704
17037SOL    MW468469   6.129   8.086   7.678
17038SOL     OW68470   5.623   8.137   7.916
17038SOL    HW268471   5.563   8.109   7.986
17038SOL    HW368472   5.697   8.077   7.922
17038SOL    MW468473   5.625   8.126   7.925
17039SOL     OW68474   6.991   8.310   7.990
17039SOL    HW268475   6.906   8.280   7.960
17039SOL    HW368476   6.983   8.317   8.085
17039SOL    MW468477   6.979   8.308   7.999
17040SOL     OW68478   5.839   8.485   7.814
17040SOL    HW268479   5.776   8.501   7.743
17040SOL    HW368480   5.786   8.448   7.885
17040SOL    MW468481   5.824   8.482   7.814
17041SOL     OW68482   6.195   8.839   7.673
17041SOL    HW268483   6.210   8.815   7.765
17041SOL    HW368484   6.103   8.817   7.657
17041SOL    MW468485   6.185   8.832   7.683
17042SOL     OW68486   5.791   7.582   7.927
17042SOL    HW268487   5.862   7.603   7.866
17042SOL    HW368488   5.745   7.510   7.885
17042SOL    MW468489   5.795   7.576   7.913
17043SOL     OW68490   5.999   8.244   7.906
17043SOL    HW268491   5.999   8.339   7.891
17043SOL    HW368492   6.076   8.228   7.960
17043SOL    MW468493   6.009   8.255   7.911
17044SOL     OW68494   5.627   8.547   7.653
17044SOL    HW268495   5.596   8.612   7.716
17044SOL    HW368496   5.576   8.469   7.672
17044SOL    MW468497   5.617   8.544   7.663
17045SOL     OW68498   7.056   8.167   7.511
17045SOL    HW268499   6.984   8.143   7.453
17045SOL    HW368500   7.122   8.204   7.453
17045SOL    MW468501   7.055   8.169   7.496
17046SOL     OW68502   5.916   7.626   7.684
17046SOL    HW268503   5.845   7.681   7.652
17046SOL    HW368504   5.958   7.592   7.605
17046SOL    MW468505   5.912   7.628   7.670
17047SOL     OW68506   5.672   7.725   7.533
17047SOL    HW268507   5.639   7.804   7.577
17047SOL    HW368508   5.727   7.758   7.462
17047SOL    MW468509   5.675   7.739   7.530
17048SOL     OW68510   9.102   0.771   1.252
17048SOL    HW268511   9.057   0.838   1.303
17048SOL    HW368512   9.190   0.807   1.238
17048SOL    MW468513   9.108   0.784   1.256
17049SOL     OW68514   8.030   1.022   0.486
17049SOL    HW268515   8.120   0.997   0.470
17049SOL    HW368516   8.026   1.115   0.463
17049SOL    MW468517   8.042   1.031   0.481
17050SOL     OW68518   9.146   1.725   0.628
17050SOL    HW268519   9.158   1.671   0.706
17050SOL    HW368520   9.183   1.673   0.557
17050SOL    MW468521   9.152   1.710   0.629
17051SOL     OW68522   8.525   1.610   1.629
17051SOL    HW268523   8.566   1.646   1.550
17051SOL    HW368524   8.560   1.521   1.636
17051SOL    MW468525   8.536   1.603   1.620
17052SOL     OW68526   9.082   1.165   1.233
17052SOL    HW268527   9.003   1.130   1.191
17052SOL    HW368528   9.109   1.237   1.177
17052SOL    MW468529   9.075   1.170   1.220
17053SOL     OW68530   8.314   0.478   0.499
17053SOL    HW268531   8.289   0.566   0.527
17053SOL    HW368532   8.311   0.481   0.403
17053SOL    MW468533   8.310   0.490   0.491
17054SOL     OW68534   7.756   0.506   0.427
17054SOL    HW268535   7.788   0.594   0.409
17054SOL    HW368536   7.744   0.504   0.522
17054SOL    MW468537   7.759   0.518   0.439
17055SOL     OW68538   7.834   0.919   1.328
17055SOL    HW268539   7.897   0.866   1.279
17055SOL    HW368540   7.815   0.993   1.271
17055SOL    MW468541   7.840   0.921   1.315
17056SOL     OW68542   8.155   0.261   0.514
17056SOL    HW268543   8.213   0.337   0.516
17056SOL    HW368544   8.090   0.282   0.447
17056SOL    MW468545   8.154   0.273   0.505
17057SOL     OW68546   8.242   1.188   0.689
17057SOL    HW268547   8.322   1.191   0.741
17057SOL    HW368548   8.270   1.155   0.603
17057SOL    MW468549   8.256   1.184   0.684
17058SOL     OW68550   8.267   1.529   1.592
17058SOL    HW268551   8.351   1.555   1.631
17058SOL    HW368552   8.291   1.473   1.518
17058SOL    MW468553   8.281   1.525   1.587
17059SOL     OW68554   8.019   0.692   0.680
17059SOL    HW268555   8.004   0.612   0.731
17059SOL    HW368556   8.101   0.727   0.714
17059SOL    MW468557   8.027   0.684   0.692
17060SOL     OW68558   8.356   1.378   1.365
17060SOL    HW268559   8.320   1.444   1.305
17060SOL    HW368560   8.284   1.316   1.378
17060SOL    MW468561   8.342   1.378   1.359
17061SOL     OW68562   8.161   0.518   1.057
17061SOL    HW268563   8.067   0.514   1.075
17061SOL    HW368564   8.191   0.427   1.066
17061SOL    MW468565   8.152   0.506   1.060
17062SOL     OW68566   7.907   0.932   0.961
17062SOL    HW268567   7.862   0.939   0.877
17062SOL    HW368568   7.887   1.015   1.005
17062SOL    MW468569   7.899   0.944   0.955
17063SOL     OW68570   7.604   1.778   0.836
17063SOL    HW268571   7.693   1.770   0.871
17063SOL    HW368572   7.568   1.690   0.841
17063SOL    MW468573   7.611   1.765   0.841
17064SOL     OW68574   7.868   1.305   0.871
17064SOL    HW268575   7.844   1.358   0.947
17064SOL    HW368576   7.924   1.363   0.819
17064SOL    MW468577   7.872   1.320   0.874
17065SOL     OW68578   8.430   0.949   0.681
17065SOL    HW268579   8.344   0.936   0.721
17065SOL    HW368580   8.483   0.876   0.713
17065SOL    MW468581   8.426   0.938   0.690
17066SOL     OW68582   7.838   1.601   1.466
17066SOL    HW268583   7.746   1.577   1.451
17066SOL    HW368584   7.882   1.518   1.483
17066SOL    MW468585   7.832   1.586   1.465
17067SOL     OW68586   8.421   1.311   0.398
17067SOL    HW268587   8.398   1.373   0.466
17067SOL    HW368588   8.378   1.229   0.424
17067SOL    MW468589   8.413   1.307   0.409
17068SOL     OW68590   9.294   0.312   0.854
17068SOL    HW268591   9.231   0.292   0.923
17068SOL    HW368592   9.284   0.241   0.791
17068SOL    MW468593   9.284   0.299   0.855
17069SOL     OW68594   9.095   1.084   0.506
17069SOL    HW268595   9.005   1.084   0.541
17069SOL    HW368596   9.088   1.130   0.423
17069SOL    MW468597   9.082   1.090   0.500
17070SOL     OW68598   8.895   0.719   1.578
17070SOL    HW268599   8.964   0.657   1.555
17070SOL    HW368600   8.820   0.693   1.525
17070SOL    MW468601   8.895   0.706   1.569
17071SOL     OW68602   7.636   1.599   1.130
17071SOL    HW268603   7.619   1.545   1.207
17071SOL    HW368604   7.624   1.689   1.160
17071SOL    MW468605   7.633   1.603   1.144
17072SOL     OW68606   8.631   1.106   1.570
17072SOL    HW268607   8.616   1.199   1.555
17072SOL    HW368608   8.726   1.096   1.570
17072SOL    MW468609   8.640   1.116   1.567
17073SOL     OW68610   8.427   0.530   1.771
17073SOL    HW268611   8.517   0.531   1.738
17073SOL    HW368612   8.386   0.455   1.729
17073SOL    MW468613   8.433   0.520   1.762
17074SOL     OW68614   9.002   1.062   0.898
17074SOL    HW268615   9.005   0.996   0.829
17074SOL    HW368616   9.087   1.105   0.894
17074SOL    MW468617   9.014   1.058   0.889
17075SOL     OW68618   8.622   0.665   0.467
17075SOL    HW268619   8.648   0.689   0.378
17075SOL    HW368620   8.604   0.572   0.463
17075SOL    MW468621   8.624   0.657   0.454
17076SOL     OW68622   9.287   1.285   0.318
17076SOL    HW268623   9.243   1.326   0.393
17076SOL    HW368624   9.344   1.353   0.283
17076SOL    MW468625   9.289   1.299   0.323
17077SOL     OW68626   8.207   0.334   1.721
17077SOL    HW268627   8.217   0.260   1.661
17077SOL    HW368628   8.243   0.303   1.804
17077SOL    MW468629   8.213   0.320   1.723
17078SOL     OW68630   7.943   1.701   0.636
17078SOL    HW268631   7.975   1.789   0.614
17078SOL    HW368632   7.896   1.673   0.558
17078SOL    MW468633   7.942   1.709   0.623
17079SOL     OW68634   8.461   0.694   0.128
17079SOL    HW268635   8.463   0.641   0.049
17079SOL    HW368636   8.549   0.731   0.134
17079SOL    MW468637   8.473   0.693   0.117
17080SOL     OW68638   9.075   0.620   0.464
17080SOL    HW268639   9.114   0.620   0.551
17080SOL    HW368640   9.016   0.696   0.464
17080SOL    MW468641   9.072   0.631   0.475
17081SOL     OW68642   8.392   0.987   1.593
17081SOL    HW268643   8.369   0.967   1.683
17081SOL    HW368644   8.477   1.031   1.598
17081SOL    MW468645   8.399   0.990   1.605
17082SOL     OW68646   8.561   0.613   1.187
17082SOL    HW268647   8.636   0.642   1.134
17082SOL    HW368648   8.493   0.678   1.171
17082SOL    MW468649   8.562   0.625   1.177
17083SOL     OW68650   9.111   0.581   1.464
17083SOL    HW268651   9.092   0.490   1.443
17083SOL    HW368652   9.089   0.630   1.385
17083SOL    MW468653   9.106   0.574   1.451
17084SOL     OW68654   9.253   1.675   1.368
17084SOL    HW268655   9.181   1.637   1.419
17084SOL    HW368656   9.270   1.760   1.409
17084SOL    MW468657   9.247   1.680   1.380
17085SOL     OW68658   8.967   1.133   1.646
17085SOL    HW268659   9.049   1.174   1.676
17085SOL    HW368660   8.930   1.095   1.726
17085SOL    MW468661   8.973   1.134   1.661
17086SOL     OW68662   9.262   0.506   0.630
17086SOL    HW268663   9.351   0.475   0.647
17086SOL    HW368664   9.205   0.446   0.678
17086SOL    MW468665   9.265   0.494   0.639
17087SOL     OW68666   7.688   0.220   0.659
17087SOL    HW268667   7.679   0.160   0.585
17087SOL    HW368668   7.621   0.191   0.722
17087SOL    MW468669   7.678   0.207   0.657
17088SOL     OW68670   7.635   0.393   1.022
17088SOL    HW268671   7.607   0.484   1.031
17088SOL    HW368672   7.572   0.354   0.961
17088SOL    MW468673   7.622   0.399   1.016
17089SOL     OW68674   9.222   1.251   1.725
17089SOL    HW268675   9.272   1.177   1.757
17089SOL    HW368676   9.168   1.278   1.800
17089SOL    MW468677   9.222   1.245   1.738
17090SOL     OW68678   9.356   0.886   1.227
17090SOL    HW268679   9.372   0.924   1.140
17090SOL    HW368680   9.390   0.952   1.288
17090SOL    MW468681   9.363   0.899   1.223
17091SOL     OW68682   9.148   1.595   0.896
17091SOL    HW268683   9.177   1.662   0.957
17091SOL    HW368684   9.129   1.519   0.951
17091SOL    MW468685   9.150   1.595   0.911
17092SOL     OW68686   7.619   0.668   1.192
17092SOL    HW268687   7.681   0.698   1.258
17092SOL    HW368688   7.553   0.737   1.186
17092SOL    MW468689   7.618   0.681   1.199
17093SOL     OW68690   7.714   1.777   1.644
17093SOL    HW268691   7.688   1.845   1.582
17093SOL    HW368692   7.762   1.714   1.592
17093SOL    MW468693   7.716   1.777   1.630
17094SOL     OW68694   7.766   1.096   1.151
17094SOL    HW268695   7.819   1.171   1.176
17094SOL    HW368696   7.685   1.134   1.117
17094SOL    MW468697   7.762   1.111   1.151
17095SOL     OW68698   8.306   1.000   1.139
17095SOL    HW268699   8.334   0.909   1.151
17095SOL    HW368700   8.235   0.994   1.075
17095SOL    MW468701   8.299   0.988   1.134
17096SOL     OW68702   7.621   0.865   0.557
17096SOL    HW268703   7.712   0.880   0.584
17096SOL    HW368704   7.624   0.786   0.503
17096SOL    MW468705   7.633   0.857   0.555
17097SOL     OW68706   7.857   0.573   1.811
17097SOL    HW268707   7.804   0.653   1.818
17097SOL    HW368708   7.927   0.585   1.876
17097SOL    MW468709   7.859   0.586   1.819
17098SOL     OW68710   7.927   0.647   1.557
17098SOL    HW268711   8.007   0.697   1.543
17098SOL    HW368712   7.918   0.641   1.652
17098SOL    MW468713   7.936   0.653   1.567
17099SOL     OW68714   8.248   1.797   0.931
17099SOL    HW268715   8.337   1.812   0.961
17099SOL    HW368716   8.243   1.844   0.847
17099SOL    MW468717   8.258   1.805   0.924
17100SOL     OW68718   7.629   1.477   0.596
17100SOL    HW268719   7.601   1.516   0.678
17100SOL    HW368720   7.649   1.386   0.618
17100SOL    MW468721   7.627   1.469   0.609
17101SOL     OW68722   8.462   1.520   0.631
17101SOL    HW268723   8.545   1.474   0.615
17101SOL    HW368724   8.452   1.519   0.727
17101SOL    MW468725   8.472   1.513   0.641
17102SOL     OW68726   9.294   0.665   0.945
17102SOL    HW268727   9.383   0.695   0.927
17102SOL    HW368728   9.274   0.605   0.874
17102SOL    MW468729   9.303   0.662   0.934
17103SOL     OW68730   9.145   0.844   1.825
17103SOL    HW268731   9.200   0.768   1.806
17103SOL    HW368732   9.147   0.852   1.920
17103SOL    MW468733   9.153   0.835   1.833
17104SOL     OW68734   8.633   0.222   0.259
17104SOL    HW268735   8.566   0.198   0.196
17104SOL    HW368736   8.698   0.271   0.208
17104SOL    MW468737   8.633   0.224   0.244
17105SOL     OW68738   8.440   0.406   1.344
17105SOL    HW268739   8.359   0.447   1.372
17105SOL    HW368740   8.487   0.474   1.296
17105SOL    MW468741   8.435   0.421   1.342
17106SOL     OW68742   8.700   0.744   0.967
17106SOL    HW268743   8.713   0.838   0.977
17106SOL    HW368744   8.661   0.734   0.881
17106SOL    MW468745   8.696   0.755   0.957
17107SOL     OW68746   8.152   0.939   0.771
17107SOL    HW268747   8.063   0.930   0.804
17107SOL    HW368748   8.156   1.029   0.739
17107SOL    MW468749   8.141   0.950   0.771
17108SOL     OW68750   8.951   0.522   0.766
17108SOL    HW268751   8.896   0.443   0.765
17108SOL    HW368752   8.933   0.563   0.850
17108SOL    MW468753   8.941   0.517   0.775
17109SOL     OW68754   8.570   0.726   0.723
17109SOL    HW268755   8.507   0.658   0.747
17109SOL    HW368756   8.590   0.707   0.631
17109SOL    MW468757   8.564   0.713   0.715
17110SOL     OW68758   8.318   1.030   0.449
17110SOL    HW268759   8.320   1.004   0.356
17110SOL    HW368760   8.376   0.967   0.492
17110SOL    MW468761   8.326   1.019   0.443
17111SOL     OW68762   8.871   1.590   1.221
17111SOL    HW268763   8.796   1.636   1.259
17111SOL    HW368764   8.853   1.497   1.238
17111SOL    MW468765   8.860   1.584   1.229
17112SOL     OW68766   8.875   1.798   0.651
17112SOL    HW268767   8.818   1.751   0.590
17112SOL    HW368768   8.961   1.759   0.638
17112SOL    MW468769   8.878   1.789   0.641
17113SOL     OW68770   7.633   1.208   0.716
17113SOL    HW268771   7.697   1.240   0.779
17113SOL    HW368772   7.682   1.144   0.664
17113SOL    MW468773   7.648   1.204   0.717
17114SOL     OW68774   8.133   1.284   1.698
17114SOL    HW268775   8.181   1.367   1.685
17114SOL    HW368776   8.190   1.232   1.754
17114SOL    MW468777   8.147   1.288   1.704
17115SOL     OW68778   7.709   1.526   1.838
17115SOL    HW268779   7.765   1.450   1.853
17115SOL    HW368780   7.658   1.504   1.760
17115SOL    MW468781   7.709   1.513   1.829
17116SOL     OW68782   8.594   1.363   1.447
17116SOL    HW268783   8.505   1.369   1.415
17116SOL    HW368784   8.638   1.442   1.415
17116SOL    MW468785   8.589   1.373   1.439
17117SOL     OW68786   7.911   1.521   1.088
17117SOL    HW268787   7.956   1.583   1.145
17117SOL    HW368788   7.818   1.540   1.101
17117SOL    MW468789   7.904   1.531   1.095
17118SOL     OW68790   9.351   1.050   1.442
17118SOL    HW268791   9.266   1.063   1.401
17118SOL    HW368792   9.331   1.014   1.529
17118SOL    MW468793   9.338   1.046   1.447
17119SOL     OW68794   8.333   1.589   1.196
17119SOL    HW268795   8.357   1.578   1.105
17119SOL    HW368796   8.256   1.646   1.194
17119SOL    MW468797   8.325   1.594   1.185
17120SOL     OW68798   8.628   0.945   0.294
17120SOL    HW268799   8.538   0.966   0.269
17120SOL    HW368800   8.655   1.018   0.350
17120SOL    MW468801   8.620   0.957   0.297
17121SOL     OW68802   8.128   1.294   0.986
17121SOL    HW268803   8.121   1.273   1.080
17121SOL    HW368804   8.046   1.262   0.949
17121SOL    MW468805   8.116   1.288   0.993
17122SOL     OW68806   8.992   0.304   1.388
17122SOL    HW268807   8.939   0.306   1.468
17122SOL    HW368808   8.977   0.217   1.351
17122SOL    MW468809   8.984   0.294   1.393
17123SOL     OW68810   9.328   0.228   1.261
17123SOL    HW268811   9.309   0.295   1.196
17123SOL    HW368812   9.385   0.166   1.216
17123SOL    MW468813   9.332   0.229   1.247
17124SOL     OW68814   7.574   1.386   1.649
17124SOL    HW268815   7.618   1.319   1.595
17124SOL    HW368816   7.489   1.348   1.669
17124SOL    MW468817   7.569   1.372   1.645
17125SOL     OW68818   8.610   1.694   1.359
17125SOL    HW268819   8.530   1.679   1.309
17125SOL    HW368820   8.617   1.789   1.366
17125SOL    MW468821   8.601   1.705   1.353
17126SOL     OW68822   8.724   1.659   0.849
17126SOL    HW268823   8.771   1.732   0.808
17126SOL    HW368824   8.645   1.698   0.885
17126SOL    MW468825   8.719   1.674   0.848
17127SOL     OW68826   9.132   1.754   1.124
17127SOL    HW268827   9.175   1.724   1.204
17127SOL    HW368828   9.051   1.702   1.121
17127SOL    MW468829   9.127   1.743   1.134
17128SOL     OW68830   8.217   0.718   1.831
17128SOL    HW268831   8.287   0.660   1.803
17128SOL    HW368832   8.160   0.663   1.886
17128SOL    MW468833   8.219   0.705   1.835
17129SOL     OW68834   9.004   0.930   1.464
17129SOL    HW268835   9.009   0.983   1.544
17129SOL    HW368836   8.966   0.847   1.492
17129SOL    MW468837   9.000   0.925   1.479
17130SOL     OW68838   9.114   1.336   0.986
17130SOL    HW268839   9.149   1.318   0.899
17130SOL    HW368840   9.019   1.337   0.973
17130SOL    MW468841   9.106   1.333   0.973
17131SOL     OW68842   8.543   0.984   1.355
17131SOL    HW268843   8.586   1.019   1.433
17131SOL    HW368844   8.526   1.061   1.301
17131SOL    MW468845   8.546   0.999   1.358
17132SOL     OW68846   7.693   1.188   1.517
17132SOL    HW268847   7.721   1.141   1.595
17132SOL    HW368848   7.614   1.143   1.488
17132SOL    MW468849   7.686   1.177   1.523
17133SOL     OW68850   8.201   0.515   1.484
17133SOL    HW268851   8.173   0.603   1.508
17133SOL    HW368852   8.170   0.459   1.555
17133SOL    MW468853   8.193   0.518   1.496
17134SOL     OW68854   7.856   0.911   0.697
17134SOL    HW268855   7.914   0.967   0.645
17134SOL    HW368856   7.900   0.826   0.699
17134SOL    MW468857   7.869   0.908   0.690
17135SOL     OW68858   9.342   0.998   1.712
17135SOL    HW268859   9.255   0.978   1.748
17135SOL    HW368860   9.396   0.924   1.737
17135SOL    MW468861   9.337   0.987   1.720
17136SOL     OW68862   7.563   1.511   0.869
17136SOL    HW268863   7.595   1.515   0.960
17136SOL    HW368864   7.468   1.519   0.877
17136SOL    MW468865   7.555   1.514   0.882
17137SOL     OW68866   7.518   0.637   0.416
17137SOL    HW268867   7.458   0.609   0.486
17137SOL    HW368868   7.592   0.577   0.422
17137SOL    MW468869   7.520   0.626   0.425
17138SOL     OW68870   9.086   1.849   1.850
17138SOL    HW268871   9.131   1.773   1.815
17138SOL    HW368872   9.124   1.862   1.937
17138SOL    MW468873   9.096   1.842   1.856
17139SOL     OW68874   8.686   1.368   0.576
17139SOL    HW268875   8.709   1.319   0.654
17139SOL    HW368876   8.767   1.410   0.548
17139SOL    MW468877   8.699   1.368   0.583
17140SOL     OW68878   8.727   0.552   1.732
17140SOL    HW268879   8.779   0.487   1.685
17140SOL    HW368880   8.685   0.603   1.662
17140SOL    MW468881   8.728   0.549   1.715
17141SOL     OW68882   8.826   0.347   1.593
17141SOL    HW268883   8.733   0.331   1.580
17141SOL    HW368884   8.852   0.285   1.661
17141SOL    MW468885   8.816   0.337   1.600
17142SOL     OW68886   8.135   1.736   1.478
17142SOL    HW268887   8.052   1.721   1.523
17142SOL    HW368888   8.194   1.669   1.513
17142SOL    MW468889   8.133   1.726   1.488
17143SOL     OW68890   9.192   0.443   1.103
17143SOL    HW268891   9.125   0.476   1.163
17143SOL    HW368892   9.235   0.521   1.069
17143SOL    MW468893   9.190   0.458   1.107
17144SOL     OW68894   9.370   1.163   1.073
17144SOL    HW268895   9.363   1.103   0.998
17144SOL    HW368896   9.296   1.223   1.062
17144SOL    MW468897   9.360   1.163   1.062
17145SOL     OW68898   8.752   1.025   0.991
17145SOL    HW268899   8.766   0.997   1.082
17145SOL    HW368900   8.838   1.056   0.963
17145SOL    MW468901   8.765   1.026   1.000
17146SOL     OW68902   8.835   0.520   1.270
17146SOL    HW268903   8.856   0.521   1.177
17146SOL    HW368904   8.880   0.442   1.303
17146SOL    MW468905   8.842   0.510   1.262
17147SOL     OW68906   9.328   0.651   1.812
17147SOL    HW268907   9.365   0.596   1.881
17147SOL    HW368908   9.353   0.608   1.730
17147SOL    MW468909   9.335   0.639   1.811
17148SOL     OW68910   8.875   0.949   1.863
17148SOL    HW268911   8.941   0.897   1.817
17148SOL    HW368912   8.895   0.936   1.956
17148SOL    MW468913   8.886   0.940   1.870
17149SOL     OW68914   8.886   0.810   0.490
17149SOL    HW268915   8.801   0.780   0.460
17149SOL    HW368916   8.878   0.817   0.585
17149SOL    MW468917   8.874   0.808   0.499
17150SOL     OW68918   7.962   1.273   1.221
17150SOL    HW268919   7.974   1.300   1.312
17150SOL    HW368920   7.943   1.354   1.174
17150SOL    MW468921   7.961   1.288   1.226
17151SOL     OW68922   8.100   1.745   1.206
17151SOL    HW268923   8.152   1.822   1.183
17151SOL    HW368924   8.109   1.737   1.301
17151SOL    MW468925   8.109   1.752   1.217
17152SOL     OW68926   9.002   1.330   1.438
17152SOL    HW268927   8.987   1.259   1.501
17152SOL    HW368928   9.048   1.288   1.366
17152SOL    MW468929   9.008   1.314   1.438
17153SOL     OW68930   8.076   1.061   1.555
17153SOL    HW268931   8.113   1.066   1.467
17153SOL    HW368932   8.115   1.134   1.602
17153SOL    MW468933   8.086   1.071   1.550
17154SOL     OW68934   8.256   1.104   1.367
17154SOL    HW268935   8.315   1.050   1.420
17154SOL    HW368936   8.271   1.076   1.277
17154SOL    MW468937   8.266   1.093   1.363
17155SOL     OW68938   9.067   1.593   1.539
17155SOL    HW268939   9.109   1.578   1.624
17155SOL    HW368940   9.058   1.506   1.501
17155SOL    MW468941   9.071   1.581   1.546
17156SOL     OW68942   8.629   1.570   0.325
17156SOL    HW268943   8.637   1.488   0.276
17156SOL    HW368944   8.548   1.609   0.292
17156SOL    MW468945   8.619   1.565   0.315
17157SOL     OW68946   7.888   1.728   0.894
17157SOL    HW268947   7.892   1.639   0.929
17157SOL    HW368948   7.914   1.719   0.803
17157SOL    MW468949   7.891   1.716   0.886
17158SOL     OW68950   8.505   1.206   1.137
17158SOL    HW268951   8.437   1.140   1.153
17158SOL    HW368952   8.523   1.200   1.044
17158SOL    MW468953   8.498   1.197   1.128
17159SOL     OW68954   7.594   1.481   1.388
17159SOL    HW268955   7.584   1.439   1.474
17159SOL    HW368956   7.515   1.534   1.378
17159SOL    MW468957   7.583   1.482   1.399
17160SOL     OW68958   8.149   0.781   1.578
17160SOL    HW268959   8.142   0.876   1.566
17160SOL    HW368960   8.158   0.770   1.673
17160SOL    MW468961   8.150   0.793   1.588
17161SOL     OW68962   7.870   1.296   1.836
17161SOL    HW268963   7.942   1.298   1.773
17161SOL    HW368964   7.840   1.205   1.835
17161SOL    MW468965   7.875   1.285   1.828
17162SOL     OW68966   9.154   1.589   1.787
17162SOL    HW268967   9.127   1.586   1.878
17162SOL    HW368968   9.250   1.593   1.790
17162SOL    MW468969   9.164   1.589   1.799
17163SOL     OW68970   7.965   0.451   0.771
17163SOL    HW268971   8.036   0.399   0.734
17163SOL    HW368972   7.951   0.416   0.858
17163SOL    MW468973   7.973   0.440   0.778
17164SOL     OW68974   7.520   1.786   1.843
17164SOL    HW268975   7.570   1.764   1.765
17164SOL    HW368976   7.528   1.881   1.851
17164SOL    MW468977   7.528   1.795   1.834
17165SOL     OW68978   8.281   1.544   0.847
17165SOL    HW268979   8.209   1.481   0.860
17165SOL    HW368980   8.242   1.629   0.865
17165SOL    MW468981   8.265   1.547   0.850
17166SOL     OW68982   8.601   0.392   0.495
17166SOL    HW268983   8.623   0.329   0.427
17166SOL    HW368984   8.506   0.384   0.506
17166SOL    MW468985   8.591   0.383   0.487
17167SOL     OW68986   7.686   0.082   0.427
17167SOL    HW268987   7.757   0.103   0.366
17167SOL    HW368988   7.640   0.010   0.385
17167SOL    MW468989   7.690   0.076   0.413
17168SOL     OW68990   7.517   0.549   1.570
17168SOL    HW268991   7.581   0.615   1.545
17168SOL    HW368992   7.436   0.576   1.527
17168SOL    MW468993   7.515   0.561   1.562
17169SOL     OW68994   9.255   1.456   0.527
17169SOL    HW268995   9.225   1.389   0.588
17169SOL    HW368996   9.349   1.462   0.541
17169SOL    MW468997   9.263   1.448   0.537
17170SOL     OW68998   8.811   1.133   0.457
17170SOL    HW268999   8.783   1.219   0.490
17170SOL    HW369000   8.839   1.149   0.367
17170SOL    MW469001   8.811   1.147   0.449
17171SOL     OW69002   8.473   0.053   0.510
17171SOL    HW269003   8.510   0.112   0.575
17171SOL    HW369004   8.450   0.109   0.436
17171SOL    MW469005   8.474   0.068   0.509
17172SOL     OW69006   9.326   0.935   0.932
17172SOL    HW269007   9.317   0.967   0.843
17172SOL    HW369008   9.279   0.851   0.932
17172SOL    MW469009   9.319   0.928   0.922
17173SOL     OW69010   7.702   0.775   1.511
17173SOL    HW269011   7.723   0.844   1.449
17173SOL    HW369012   7.782   0.722   1.516
17173SOL    MW469013   7.715   0.776   1.505
17174SOL     OW69014   9.238   0.866   0.633
17174SOL    HW269015   9.332   0.855   0.621
17174SOL    HW369016   9.214   0.938   0.574
17174SOL    MW469017   9.248   0.874   0.624
17175SOL     OW69018   7.687   0.790   1.778
17175SOL    HW269019   7.613   0.734   1.804
17175SOL    HW369020   7.682   0.793   1.683
17175SOL    MW469021   7.676   0.783   1.768
17176SOL     OW69022   7.853   0.077   1.228
17176SOL    HW269023   7.896   0.161   1.248
17176SOL    HW369024   7.926   0.015   1.221
17176SOL    MW469025   7.868   0.080   1.229
17177SOL     OW69026   7.894   0.744   0.406
17177SOL    HW269027   7.894   0.839   0.391
17177SOL    HW369028   7.971   0.728   0.460
17177SOL    MW469029   7.904   0.755   0.411
17178SOL     OW69030   8.670   0.603   1.470
17178SOL    HW269031   8.706   0.576   1.386
17178SOL    HW369032   8.583   0.637   1.449
17178SOL    MW469033   8.664   0.604   1.457
17179SOL     OW69034   7.653   0.475   0.695
17179SOL    HW269035   7.715   0.482   0.768
17179SOL    HW369036   7.653   0.382   0.672
17179SOL    MW469037   7.661   0.464   0.702
17180SOL     OW69038   8.335   0.736   1.179
17180SOL    HW269039   8.293   0.654   1.155
17180SOL    HW369040   8.336   0.735   1.275
17180SOL    MW469041   8.328   0.725   1.188
17181SOL     OW69042   9.006   1.869   1.578
17181SOL    HW269043   9.009   1.775   1.561
17181SOL    HW369044   9.029   1.877   1.670
17181SOL    MW469045   9.009   1.857   1.588
17182SOL     OW69046   8.966   0.798   0.745
17182SOL    HW269047   9.046   0.813   0.694
17182SOL    HW369048   8.959   0.703   0.751
17182SOL    MW469049   8.975   0.787   0.740
17183SOL     OW69050   8.416   0.724   1.442
17183SOL    HW269051   8.485   0.791   1.439
17183SOL    HW369052   8.349   0.762   1.498
17183SOL    MW469053   8.417   0.737   1.449
17184SOL     OW69054   7.834   1.024   1.690
17184SOL    HW269055   7.788   0.940   1.692
17184SOL    HW369056   7.891   1.018   1.614
17184SOL    MW469057   7.836   1.012   1.682
17185SOL     OW69058   8.085   1.399   0.691
17185SOL    HW269059   8.150   1.332   0.712
17185SOL    HW369060   8.137   1.476   0.668
17185SOL    MW469061   8.100   1.401   0.690
17186SOL     OW69062   8.346   0.564   0.821
17186SOL    HW269063   8.286   0.582   0.893
17186SOL    HW369064   8.380   0.476   0.840
17186SOL    MW469065   8.342   0.554   0.834
17187SOL     OW69066   8.571   1.147   0.840
17187SOL    HW269067   8.663   1.128   0.858
17187SOL    HW369068   8.544   1.077   0.780
17187SOL    MW469069   8.579   1.135   0.834
17188SOL     OW69070   8.845   1.385   0.936
17188SOL    HW269071   8.818   1.469   0.901
17188SOL    HW369072   8.805   1.380   1.023
17188SOL    MW469073   8.838   1.394   0.942
17189SOL     OW69074   8.764   1.333   1.204
17189SOL    HW269075   8.775   1.300   1.293
17189SOL    HW369076   8.683   1.292   1.173
17189SOL    MW469077   8.754   1.325   1.210
17190SOL     OW69078   7.777   0.691   0.974
17190SOL    HW269079   7.727   0.690   1.055
17190SOL    HW369080   7.797   0.783   0.958
17190SOL    MW469081   7.773   0.703   0.982
17191SOL     OW69082   8.844   1.455   1.736
17191SOL    HW269083   8.844   1.549   1.752
17191SOL    HW369084   8.889   1.445   1.652
17191SOL    MW469085   8.850   1.465   1.727
17192SOL     OW69086   8.372   0.736   0.411
17192SOL    HW269087   8.352   0.722   0.318
17192SOL    HW369088   8.465   0.715   0.418
17192SOL    MW469089   8.382   0.731   0.400
17193SOL     OW69090   7.699   0.359   1.715
17193SOL    HW269091   7.656   0.418   1.652
17193SOL    HW369092   7.767   0.414   1.755
17193SOL    MW469093   7.703   0.374   1.712
17194SOL     OW69094   8.811   0.979   1.260
17194SOL    HW269095   8.874   0.976   1.333
17194SOL    HW369096   8.727   0.997   1.302
17194SOL    MW469097   8.807   0.981   1.275
17195SOL     OW69098   8.355   1.694   0.449
17195SOL    HW269099   8.413   1.765   0.476
17195SOL    HW369100   8.378   1.622   0.507
17195SOL    MW469101   8.366   1.694   0.460
17196SOL     OW69102   9.235   1.192   0.758
17196SOL    HW269103   9.214   1.138   0.681
17196SOL    HW369104   9.331   1.190   0.762
17196SOL    MW469105   9.244   1.185   0.747
17197SOL     OW69106   7.927   1.337   1.501
17197SOL    HW269107   7.848   1.287   1.524
17197SOL    HW369108   7.997   1.296   1.551
17197SOL    MW469109   7.925   1.325   1.511
17198SOL     OW69110   8.935   0.623   1.020
17198SOL    HW269111   8.858   0.669   0.986
17198SOL    HW369112   8.992   0.692   1.054
17198SOL    MW469113   8.932   0.638   1.020
17199SOL     OW69114   9.236   0.839   2.125
17199SOL    HW269115   9.277   0.781   2.190
17199SOL    HW369116   9.143   0.831   2.142
17199SOL    MW469117   9.230   0.831   2.135
17200SOL     OW69118   9.102   0.771   3.120
17200SOL    HW269119   9.057   0.838   3.171
17200SOL    HW369120   9.190   0.807   3.106
17200SOL    MW469121   9.108   0.784   3.124
17201SOL     OW69122   8.030   1.022   2.354
17201SOL    HW269123   8.120   0.997   2.338
17201SOL    HW369124   8.026   1.115   2.331
17201SOL    MW469125   8.042   1.031   2.349
17202SOL     OW69126   9.146   1.725   2.496
17202SOL    HW269127   9.158   1.671   2.574
17202SOL    HW369128   9.183   1.673   2.425
17202SOL    MW469129   9.152   1.710   2.497
17203SOL     OW69130   8.525   1.610   3.497
17203SOL    HW269131   8.566   1.646   3.418
17203SOL    HW369132   8.560   1.521   3.504
17203SOL    MW469133   8.536   1.603   3.488
17204SOL     OW69134   9.082   1.165   3.101
17204SOL    HW269135   9.003   1.130   3.059
17204SOL    HW369136   9.109   1.237   3.045
17204SOL    MW469137   9.075   1.170   3.088
17205SOL     OW69138   8.314   0.478   2.367
17205SOL    HW269139   8.289   0.566   2.395
17205SOL    HW369140   8.311   0.481   2.271
17205SOL    MW469141   8.310   0.490   2.359
17206SOL     OW69142   7.756   0.506   2.295
17206SOL    HW269143   7.788   0.594   2.277
17206SOL    HW369144   7.744   0.504   2.390
17206SOL    MW469145   7.759   0.518   2.307
17207SOL     OW69146   7.834   0.919   3.196
17207SOL    HW269147   7.897   0.866   3.147
17207SOL    HW369148   7.815   0.993   3.139
17207SOL    MW469149   7.840   0.921   3.183
17208SOL     OW69150   8.155   0.261   2.382
17208SOL    HW269151   8.213   0.337   2.384
17208SOL    HW369152   8.090   0.282   2.315
17208SOL    MW469153   8.154   0.273   2.373
17209SOL     OW69154   8.242   1.188   2.557
17209SOL    HW269155   8.322   1.191   2.609
17209SOL    HW369156   8.270   1.155   2.471
17209SOL    MW469157   8.256   1.184   2.552
17210SOL     OW69158   8.267   1.529   3.460
17210SOL    HW269159   8.351   1.555   3.499
17210SOL    HW369160   8.291   1.473   3.386
17210SOL    MW469161   8.281   1.525   3.455
17211SOL     OW69162   8.019   0.692   2.548
17211SOL    HW269163   8.004   0.612   2.599
17211SOL    HW369164   8.101   0.727   2.582
17211SOL    MW469165   8.027   0.684   2.560
17212SOL     OW69166   8.356   1.378   3.233
17212SOL    HW269167   8.320   1.444   3.173
17212SOL    HW369168   8.284   1.316   3.246
17212SOL    MW469169   8.342   1.378   3.227
17213SOL     OW69170   8.161   0.518   2.925
17213SOL    HW269171   8.067   0.514   2.943
17213SOL    HW369172   8.191   0.427   2.934
17213SOL    MW469173   8.152   0.506   2.928
17214SOL     OW69174   7.907   0.932   2.829
17214SOL    HW269175   7.862   0.939   2.745
17214SOL    HW369176   7.887   1.015   2.873
17214SOL    MW469177   7.899   0.944   2.823
17215SOL     OW69178   7.604   1.778   2.704
17215SOL    HW269179   7.693   1.770   2.739
17215SOL    HW369180   7.568   1.690   2.709
17215SOL    MW469181   7.611   1.765   2.709
17216SOL     OW69182   8.869   1.170   2.073
17216SOL    HW269183   8.787   1.206   2.039
17216SOL    HW369184   8.937   1.213   2.022
17216SOL    MW469185   8.867   1.180   2.061
17217SOL     OW69186   7.868   1.305   2.739
17217SOL    HW269187   7.844   1.358   2.815
17217SOL    HW369188   7.924   1.363   2.687
17217SOL    MW469189   7.872   1.320   2.742
17218SOL     OW69190   8.430   0.949   2.549
17218SOL    HW269191   8.344   0.936   2.589
17218SOL    HW369192   8.483   0.876   2.581
17218SOL    MW469193   8.426   0.938   2.558
17219SOL     OW69194   7.838   1.601   3.334
17219SOL    HW269195   7.746   1.577   3.319
17219SOL    HW369196   7.882   1.518   3.351
17219SOL    MW469197   7.832   1.586   3.333
17220SOL     OW69198   8.421   1.311   2.266
17220SOL    HW269199   8.398   1.373   2.334
17220SOL    HW369200   8.378   1.229   2.292
17220SOL    MW469201   8.413   1.307   2.277
17221SOL     OW69202   9.294   0.312   2.722
17221SOL    HW269203   9.231   0.292   2.791
17221SOL    HW369204   9.284   0.241   2.659
17221SOL    MW469205   9.284   0.299   2.723
17222SOL     OW69206   7.753   1.245   2.271
17222SOL    HW269207   7.701   1.313   2.227
17222SOL    HW369208   7.750   1.171   2.211
17222SOL    MW469209   7.745   1.244   2.258
17223SOL     OW69210   8.415   1.708   2.049
17223SOL    HW269211   8.370   1.724   2.132
17223SOL    HW369212   8.346   1.673   1.991
17223SOL    MW469213   8.401   1.705   2.051
17224SOL     OW69214   9.350   0.481   2.024
17224SOL    HW269215   9.259   0.483   2.052
17224SOL    HW369216   9.395   0.543   2.082
17224SOL    MW469217   9.343   0.489   2.034
17225SOL     OW69218   9.095   1.084   2.374
17225SOL    HW269219   9.005   1.084   2.409
17225SOL    HW369220   9.088   1.130   2.291
17225SOL    MW469221   9.082   1.090   2.368
17226SOL     OW69222   8.895   0.719   3.446
17226SOL    HW269223   8.964   0.657   3.423
17226SOL    HW369224   8.820   0.693   3.393
17226SOL    MW469225   8.895   0.706   3.437
17227SOL     OW69226   7.636   1.599   2.998
17227SOL    HW269227   7.619   1.545   3.075
17227SOL    HW369228   7.624   1.689   3.028
17227SOL    MW469229   7.633   1.603   3.012
17228SOL     OW69230   8.631   1.106   3.438
17228SOL    HW269231   8.616   1.199   3.423
17228SOL    HW369232   8.726   1.096   3.438
17228SOL    MW469233   8.640   1.116   3.435
17229SOL     OW69234   8.427   0.530   3.639
17229SOL    HW269235   8.517   0.531   3.606
17229SOL    HW369236   8.386   0.455   3.597
17229SOL    MW469237   8.433   0.520   3.630
17230SOL     OW69238   9.002   1.062   2.766
17230SOL    HW269239   9.005   0.996   2.697
17230SOL    HW369240   9.087   1.105   2.762
17230SOL    MW469241   9.014   1.058   2.757
17231SOL     OW69242   8.622   0.665   2.335
17231SOL    HW269243   8.648   0.689   2.246
17231SOL    HW369244   8.604   0.572   2.331
17231SOL    MW469245   8.624   0.657   2.322
17232SOL     OW69246   9.287   1.285   2.186
17232SOL    HW269247   9.243   1.326   2.261
17232SOL    HW369248   9.344   1.353   2.151
17232SOL    MW469249   9.289   1.299   2.191
17233SOL     OW69250   8.207   0.334   3.589
17233SOL    HW269251   8.217   0.260   3.529
17233SOL    HW369252   8.243   0.303   3.672
17233SOL    MW469253   8.213   0.320   3.591
17234SOL     OW69254   7.943   1.701   2.504
17234SOL    HW269255   7.975   1.789   2.482
17234SOL    HW369256   7.896   1.673   2.426
17234SOL    MW469257   7.942   1.709   2.491
17235SOL     OW69258   7.659   1.761   2.081
17235SOL    HW269259   7.688   1.851   2.073
17235SOL    HW369260   7.609   1.744   2.002
17235SOL    MW469261   7.657   1.769   2.070
17236SOL     OW69262   9.063   1.569   2.052
17236SOL    HW269263   9.111   1.638   2.098
17236SOL    HW369264   8.984   1.613   2.021
17236SOL    MW469265   9.058   1.583   2.055
17237SOL     OW69266   8.461   0.694   1.996
17237SOL    HW269267   8.463   0.641   1.917
17237SOL    HW369268   8.549   0.731   2.002
17237SOL    MW469269   8.473   0.693   1.985
17238SOL     OW69270   9.075   0.620   2.332
17238SOL    HW269271   9.114   0.620   2.419
17238SOL    HW369272   9.016   0.696   2.332
17238SOL    MW469273   9.072   0.631   2.343
17239SOL     OW69274   8.392   0.987   3.461
17239SOL    HW269275   8.369   0.967   3.551
17239SOL    HW369276   8.477   1.031   3.466
17239SOL    MW469277   8.399   0.990   3.473
17240SOL     OW69278   8.561   0.613   3.055
17240SOL    HW269279   8.636   0.642   3.002
17240SOL    HW369280   8.493   0.678   3.039
17240SOL    MW469281   8.562   0.625   3.045
17241SOL     OW69282   9.111   0.581   3.332
17241SOL    HW269283   9.092   0.490   3.311
17241SOL    HW369284   9.089   0.630   3.253
17241SOL    MW469285   9.106   0.574   3.319
17242SOL     OW69286   9.253   1.675   3.236
17242SOL    HW269287   9.181   1.637   3.287
17242SOL    HW369288   9.270   1.760   3.277
17242SOL    MW469289   9.247   1.680   3.248
17243SOL     OW69290   8.967   1.133   3.514
17243SOL    HW269291   9.049   1.174   3.544
17243SOL    HW369292   8.930   1.095   3.594
17243SOL    MW469293   8.973   1.134   3.529
17244SOL     OW69294   9.262   0.506   2.498
17244SOL    HW269295   9.351   0.475   2.515
17244SOL    HW369296   9.205   0.446   2.546
17244SOL    MW469297   9.265   0.494   2.507
17245SOL     OW69298   8.631   1.313   2.088
17245SOL    HW269299   8.581   1.315   2.170
17245SOL    HW369300   8.565   1.331   2.020
17245SOL    MW469301   8.617   1.315   2.090
17246SOL     OW69302   7.635   0.393   2.890
17246SOL    HW269303   7.607   0.484   2.899
17246SOL    HW369304   7.572   0.354   2.829
17246SOL    MW469305   7.622   0.399   2.884
17247SOL     OW69306   8.094   1.731   2.196
17247SOL    HW269307   8.015   1.689   2.229
17247SOL    HW369308   8.160   1.714   2.263
17247SOL    MW469309   8.093   1.723   2.209
17248SOL     OW69310   9.222   1.251   3.593
17248SOL    HW269311   9.272   1.177   3.625
17248SOL    HW369312   9.168   1.278   3.668
17248SOL    MW469313   9.222   1.245   3.606
17249SOL     OW69314   8.230   1.146   1.903
17249SOL    HW269315   8.152   1.092   1.890
17249SOL    HW369316   8.201   1.219   1.956
17249SOL    MW469317   8.216   1.148   1.908
17250SOL     OW69318   9.356   0.886   3.095
17250SOL    HW269319   9.372   0.924   3.008
17250SOL    HW369320   9.390   0.952   3.156
17250SOL    MW469321   9.363   0.899   3.091
17251SOL     OW69322   9.148   1.595   2.764
17251SOL    HW269323   9.177   1.662   2.825
17251SOL    HW369324   9.129   1.519   2.819
17251SOL    MW469325   9.150   1.595   2.779
17252SOL     OW69326   8.811   1.662   1.971
17252SOL    HW269327   8.737   1.625   2.021
17252SOL    HW369328   8.819   1.752   2.004
17252SOL    MW469329   8.802   1.669   1.983
17253SOL     OW69330   7.619   0.668   3.060
17253SOL    HW269331   7.681   0.698   3.126
17253SOL    HW369332   7.553   0.737   3.054
17253SOL    MW469333   7.618   0.681   3.067
17254SOL     OW69334   9.035   1.336   1.913
17254SOL    HW269335   8.982   1.385   1.849
17254SOL    HW369336   9.066   1.402   1.974
17254SOL    MW469337   9.033   1.350   1.911
17255SOL     OW69338   7.714   1.777   3.512
17255SOL    HW269339   7.688   1.845   3.450
17255SOL    HW369340   7.762   1.714   3.460
17255SOL    MW469341   7.716   1.777   3.498
17256SOL     OW69342   7.766   1.096   3.019
17256SOL    HW269343   7.819   1.171   3.044
17256SOL    HW369344   7.685   1.134   2.985
17256SOL    MW469345   7.762   1.111   3.019
17257SOL     OW69346   8.306   1.000   3.007
17257SOL    HW269347   8.334   0.909   3.019
17257SOL    HW369348   8.235   0.994   2.943
17257SOL    MW469349   8.299   0.988   3.002
17258SOL     OW69350   7.621   0.865   2.425
17258SOL    HW269351   7.712   0.880   2.452
17258SOL    HW369352   7.624   0.786   2.371
17258SOL    MW469353   7.633   0.857   2.423
17259SOL     OW69354   7.857   0.573   3.679
17259SOL    HW269355   7.804   0.653   3.686
17259SOL    HW369356   7.927   0.585   3.744
17259SOL    MW469357   7.859   0.586   3.687
17260SOL     OW69358   7.927   0.647   3.425
17260SOL    HW269359   8.007   0.697   3.411
17260SOL    HW369360   7.918   0.641   3.520
17260SOL    MW469361   7.936   0.653   3.435
17261SOL     OW69362   8.248   1.797   2.799
17261SOL    HW269363   8.337   1.812   2.829
17261SOL    HW369364   8.243   1.844   2.715
17261SOL    MW469365   8.258   1.805   2.792
17262SOL     OW69366   7.629   1.477   2.464
17262SOL    HW269367   7.601   1.516   2.546
17262SOL    HW369368   7.649   1.386   2.486
17262SOL    MW469369   7.627   1.469   2.477
17263SOL     OW69370   8.462   1.520   2.499
17263SOL    HW269371   8.545   1.474   2.483
17263SOL    HW369372   8.452   1.519   2.595
17263SOL    MW469373   8.472   1.513   2.509
17264SOL     OW69374   9.294   0.665   2.813
17264SOL    HW269375   9.383   0.695   2.795
17264SOL    HW369376   9.274   0.605   2.742
17264SOL    MW469377   9.303   0.662   2.802
17265SOL     OW69378   9.145   0.844   3.693
17265SOL    HW269379   9.200   0.768   3.674
17265SOL    HW369380   9.147   0.852   3.788
17265SOL    MW469381   9.153   0.835   3.701
17266SOL     OW69382   8.195   1.577   1.904
17266SOL    HW269383   8.135   1.646   1.874
17266SOL    HW369384   8.140   1.519   1.957
17266SOL    MW469385   8.179   1.579   1.906
17267SOL     OW69386   8.633   0.222   2.127
17267SOL    HW269387   8.566   0.198   2.064
17267SOL    HW369388   8.698   0.271   2.076
17267SOL    MW469389   8.633   0.224   2.112
17268SOL     OW69390   8.440   0.406   3.212
17268SOL    HW269391   8.359   0.447   3.240
17268SOL    HW369392   8.487   0.474   3.164
17268SOL    MW469393   8.435   0.421   3.210
17269SOL     OW69394   8.700   0.744   2.835
17269SOL    HW269395   8.713   0.838   2.845
17269SOL    HW369396   8.661   0.734   2.749
17269SOL    MW469397   8.696   0.755   2.825
17270SOL     OW69398   8.152   0.939   2.639
17270SOL    HW269399   8.063   0.930   2.672
17270SOL    HW369400   8.156   1.029   2.607
17270SOL    MW469401   8.141   0.950   2.639
17271SOL     OW69402   8.951   0.522   2.634
17271SOL    HW269403   8.896   0.443   2.633
17271SOL    HW369404   8.933   0.563   2.718
17271SOL    MW469405   8.941   0.517   2.643
17272SOL     OW69406   8.570   0.726   2.591
17272SOL    HW269407   8.507   0.658   2.615
17272SOL    HW369408   8.590   0.707   2.499
17272SOL    MW469409   8.564   0.713   2.583
17273SOL     OW69410   7.826   1.621   2.293
17273SOL    HW269411   7.787   1.668   2.219
17273SOL    HW369412   7.760   1.556   2.318
17273SOL    MW469413   7.813   1.619   2.287
17274SOL     OW69414   8.318   1.030   2.317
17274SOL    HW269415   8.320   1.004   2.224
17274SOL    HW369416   8.376   0.967   2.360
17274SOL    MW469417   8.326   1.019   2.311
17275SOL     OW69418   8.871   1.590   3.089
17275SOL    HW269419   8.796   1.636   3.127
17275SOL    HW369420   8.853   1.497   3.106
17275SOL    MW469421   8.860   1.584   3.097
17276SOL     OW69422   8.875   1.798   2.519
17276SOL    HW269423   8.818   1.751   2.458
17276SOL    HW369424   8.961   1.759   2.506
17276SOL    MW469425   8.878   1.789   2.509
17277SOL     OW69426   7.633   1.208   2.584
17277SOL    HW269427   7.697   1.240   2.647
17277SOL    HW369428   7.682   1.144   2.532
17277SOL    MW469429   7.648   1.204   2.585
17278SOL     OW69430   8.133   1.284   3.566
17278SOL    HW269431   8.181   1.367   3.553
17278SOL    HW369432   8.190   1.232   3.622
17278SOL    MW469433   8.147   1.288   3.572
17279SOL     OW69434   7.709   1.526   3.706
17279SOL    HW269435   7.765   1.450   3.721
17279SOL    HW369436   7.658   1.504   3.628
17279SOL    MW469437   7.709   1.513   3.697
17280SOL     OW69438   8.808   0.378   1.985
17280SOL    HW269439   8.781   0.444   1.921
17280SOL    HW369440   8.878   0.421   2.035
17280SOL    MW469441   8.813   0.391   1.982
17281SOL     OW69442   8.981   0.934   2.127
17281SOL    HW269443   8.948   1.023   2.117
17281SOL    HW369444   8.946   0.905   2.212
17281SOL    MW469445   8.971   0.943   2.138
17282SOL     OW69446   8.594   1.363   3.315
17282SOL    HW269447   8.505   1.369   3.283
17282SOL    HW369448   8.638   1.442   3.283
17282SOL    MW469449   8.589   1.373   3.307
17283SOL     OW69450   7.911   1.521   2.956
17283SOL    HW269451   7.956   1.583   3.013
17283SOL    HW369452   7.818   1.540   2.969
17283SOL    MW469453   7.904   1.531   2.963
17284SOL     OW69454   9.351   1.050   3.310
17284SOL    HW269455   9.266   1.063   3.269
17284SOL    HW369456   9.331   1.014   3.397
17284SOL    MW469457   9.338   1.046   3.315
17285SOL     OW69458   8.333   1.589   3.064
17285SOL    HW269459   8.357   1.578   2.973
17285SOL    HW369460   8.256   1.646   3.062
17285SOL    MW469461   8.325   1.594   3.053
17286SOL     OW69462   7.975   0.972   1.919
17286SOL    HW269463   7.898   0.985   1.975
17286SOL    HW369464   7.939   0.936   1.838
17286SOL    MW469465   7.961   0.968   1.916
17287SOL     OW69466   8.628   0.945   2.162
17287SOL    HW269467   8.538   0.966   2.137
17287SOL    HW369468   8.655   1.018   2.218
17287SOL    MW469469   8.620   0.957   2.165
17288SOL     OW69470   8.128   1.294   2.854
17288SOL    HW269471   8.121   1.273   2.948
17288SOL    HW369472   8.046   1.262   2.817
17288SOL    MW469473   8.116   1.288   2.861
17289SOL     OW69474   8.992   0.304   3.256
17289SOL    HW269475   8.939   0.306   3.336
17289SOL    HW369476   8.977   0.217   3.219
17289SOL    MW469477   8.984   0.294   3.261
17290SOL     OW69478   9.328   0.228   3.129
17290SOL    HW269479   9.309   0.295   3.064
17290SOL    HW369480   9.385   0.166   3.084
17290SOL    MW469481   9.332   0.229   3.115
17291SOL     OW69482   7.574   1.386   3.517
17291SOL    HW269483   7.618   1.319   3.463
17291SOL    HW369484   7.489   1.348   3.537
17291SOL    MW469485   7.569   1.372   3.513
17292SOL     OW69486   8.015   1.301   2.318
17292SOL    HW269487   8.008   1.333   2.408
17292SOL    HW369488   7.925   1.285   2.290
17292SOL    MW469489   8.003   1.303   2.325
17293SOL     OW69490   8.610   1.694   3.227
17293SOL    HW269491   8.530   1.679   3.177
17293SOL    HW369492   8.617   1.789   3.234
17293SOL    MW469493   8.601   1.705   3.221
17294SOL     OW69494   8.724   1.659   2.717
17294SOL    HW269495   8.771   1.732   2.676
17294SOL    HW369496   8.645   1.698   2.753
17294SOL    MW469497   8.719   1.674   2.716
17295SOL     OW69498   9.132   1.754   2.992
17295SOL    HW269499   9.175   1.724   3.072
17295SOL    HW369500   9.051   1.702   2.989
17295SOL    MW469501   9.127   1.743   3.002
17296SOL     OW69502   8.217   0.718   3.699
17296SOL    HW269503   8.287   0.660   3.671
17296SOL    HW369504   8.160   0.663   3.754
17296SOL    MW469505   8.219   0.705   3.703
17297SOL     OW69506   9.004   0.930   3.332
17297SOL    HW269507   9.009   0.983   3.412
17297SOL    HW369508   8.966   0.847   3.360
17297SOL    MW469509   9.000   0.925   3.347
17298SOL     OW69510   8.018   0.585   2.032
17298SOL    HW269511   7.984   0.641   2.102
17298SOL    HW369512   8.089   0.535   2.072
17298SOL    MW469513   8.024   0.586   2.046
17299SOL     OW69514   9.114   1.336   2.854
17299SOL    HW269515   9.149   1.318   2.767
17299SOL    HW369516   9.019   1.337   2.841
17299SOL    MW469517   9.106   1.333   2.841
17300SOL     OW69518   8.543   0.984   3.223
17300SOL    HW269519   8.586   1.019   3.301
17300SOL    HW369520   8.526   1.061   3.169
17300SOL    MW469521   8.546   0.999   3.226
17301SOL     OW69522   9.074   0.471   2.096
17301SOL    HW269523   9.066   0.542   2.033
17301SOL    HW369524   9.092   0.515   2.179
17301SOL    MW469525   9.075   0.485   2.098
17302SOL     OW69526   7.693   1.188   3.385
17302SOL    HW269527   7.721   1.141   3.463
17302SOL    HW369528   7.614   1.143   3.356
17302SOL    MW469529   7.686   1.177   3.391
17303SOL     OW69530   8.201   0.515   3.352
17303SOL    HW269531   8.173   0.603   3.376
17303SOL    HW369532   8.170   0.459   3.423
17303SOL    MW469533   8.193   0.518   3.364
17304SOL     OW69534   8.743   0.733   2.071
17304SOL    HW269535   8.790   0.751   1.990
17304SOL    HW369536   8.709   0.817   2.099
17304SOL    MW469537   8.745   0.747   2.064
17305SOL     OW69538   7.856   0.911   2.565
17305SOL    HW269539   7.914   0.967   2.513
17305SOL    HW369540   7.900   0.826   2.567
17305SOL    MW469541   7.869   0.908   2.558
17306SOL     OW69542   8.478   1.475   1.893
17306SOL    HW269543   8.505   1.553   1.845
17306SOL    HW369544   8.385   1.490   1.912
17306SOL    MW469545   8.469   1.488   1.889
17307SOL     OW69546   9.342   0.998   3.580
17307SOL    HW269547   9.255   0.978   3.616
17307SOL    HW369548   9.396   0.924   3.605
17307SOL    MW469549   9.337   0.987   3.588
17308SOL     OW69550   7.563   1.511   2.737
17308SOL    HW269551   7.595   1.515   2.828
17308SOL    HW369552   7.468   1.519   2.745
17308SOL    MW469553   7.555   1.514   2.750
17309SOL     OW69554   7.518   0.637   2.284
17309SOL    HW269555   7.458   0.609   2.354
17309SOL    HW369556   7.592   0.577   2.290
17309SOL    MW469557   7.520   0.626   2.293
17310SOL     OW69558   9.086   1.849   3.718
17310SOL    HW269559   9.131   1.773   3.683
17310SOL    HW369560   9.124   1.862   3.805
17310SOL    MW469561   9.096   1.842   3.724
17311SOL     OW69562   8.686   1.368   2.444
17311SOL    HW269563   8.709   1.319   2.522
17311SOL    HW369564   8.767   1.410   2.416
17311SOL    MW469565   8.699   1.368   2.451
17312SOL     OW69566   8.727   0.552   3.600
17312SOL    HW269567   8.779   0.487   3.553
17312SOL    HW369568   8.685   0.603   3.530
17312SOL    MW469569   8.728   0.549   3.583
17313SOL     OW69570   8.826   0.347   3.461
17313SOL    HW269571   8.733   0.331   3.448
17313SOL    HW369572   8.852   0.285   3.529
17313SOL    MW469573   8.816   0.337   3.468
17314SOL     OW69574   8.135   1.736   3.346
17314SOL    HW269575   8.052   1.721   3.391
17314SOL    HW369576   8.194   1.669   3.381
17314SOL    MW469577   8.133   1.726   3.356
17315SOL     OW69578   9.192   0.443   2.971
17315SOL    HW269579   9.125   0.476   3.031
17315SOL    HW369580   9.235   0.521   2.937
17315SOL    MW469581   9.190   0.458   2.975
17316SOL     OW69582   9.370   1.163   2.941
17316SOL    HW269583   9.363   1.103   2.866
17316SOL    HW369584   9.296   1.223   2.930
17316SOL    MW469585   9.360   1.163   2.930
17317SOL     OW69586   8.752   1.025   2.859
17317SOL    HW269587   8.766   0.997   2.950
17317SOL    HW369588   8.838   1.056   2.831
17317SOL    MW469589   8.765   1.026   2.868
17318SOL     OW69590   8.835   0.520   3.138
17318SOL    HW269591   8.856   0.521   3.045
17318SOL    HW369592   8.880   0.442   3.171
17318SOL    MW469593   8.842   0.510   3.130
17319SOL     OW69594   9.328   0.651   3.680
17319SOL    HW269595   9.365   0.596   3.749
17319SOL    HW369596   9.353   0.608   3.598
17319SOL    MW469597   9.335   0.639   3.679
17320SOL     OW69598   8.875   0.949   3.731
17320SOL    HW269599   8.941   0.897   3.685
17320SOL    HW369600   8.895   0.936   3.824
17320SOL    MW469601   8.886   0.940   3.738
17321SOL     OW69602   8.886   0.810   2.358
17321SOL    HW269603   8.801   0.780   2.328
17321SOL    HW369604   8.878   0.817   2.453
17321SOL    MW469605   8.874   0.808   2.367
17322SOL     OW69606   7.962   1.273   3.089
17322SOL    HW269607   7.974   1.300   3.180
17322SOL    HW369608   7.943   1.354   3.042
17322SOL    MW469609   7.961   1.288   3.094
17323SOL     OW69610   8.100   1.745   3.074
17323SOL    HW269611   8.152   1.822   3.051
17323SOL    HW369612   8.109   1.737   3.169
17323SOL    MW469613   8.109   1.752   3.085
17324SOL     OW69614   9.002   1.330   3.306
17324SOL    HW269615   8.987   1.259   3.369
17324SOL    HW369616   9.048   1.288   3.234
17324SOL    MW469617   9.008   1.314   3.306
17325SOL     OW69618   8.076   1.061   3.423
17325SOL    HW269619   8.113   1.066   3.335
17325SOL    HW369620   8.115   1.134   3.470
17325SOL    MW469621   8.086   1.071   3.418
17326SOL     OW69622   8.256   1.104   3.235
17326SOL    HW269623   8.315   1.050   3.288
17326SOL    HW369624   8.271   1.076   3.145
17326SOL    MW469625   8.266   1.093   3.231
17327SOL     OW69626   8.259   0.476   2.084
17327SOL    HW269627   8.332   0.525   2.047
17327SOL    HW369628   8.275   0.385   2.058
17327SOL    MW469629   8.271   0.471   2.077
17328SOL     OW69630   9.067   1.593   3.407
17328SOL    HW269631   9.109   1.578   3.492
17328SOL    HW369632   9.058   1.506   3.369
17328SOL    MW469633   9.071   1.581   3.414
17329SOL     OW69634   7.734   0.985   2.182
17329SOL    HW269635   7.671   1.001   2.111
17329SOL    HW369636   7.681   0.948   2.253
17329SOL    MW469637   7.719   0.982   2.182
17330SOL     OW69638   8.090   1.339   2.041
17330SOL    HW269639   8.105   1.315   2.133
17330SOL    HW369640   7.998   1.317   2.025
17330SOL    MW469641   8.080   1.332   2.051
17331SOL     OW69642   8.629   1.570   2.193
17331SOL    HW269643   8.637   1.488   2.144
17331SOL    HW369644   8.548   1.609   2.160
17331SOL    MW469645   8.619   1.565   2.183
17332SOL     OW69646   7.888   1.728   2.762
17332SOL    HW269647   7.892   1.639   2.797
17332SOL    HW369648   7.914   1.719   2.671
17332SOL    MW469649   7.891   1.716   2.754
17333SOL     OW69650   8.505   1.206   3.005
17333SOL    HW269651   8.437   1.140   3.021
17333SOL    HW369652   8.523   1.200   2.912
17333SOL    MW469653   8.498   1.197   2.996
17334SOL     OW69654   7.594   1.481   3.256
17334SOL    HW269655   7.584   1.439   3.342
17334SOL    HW369656   7.515   1.534   3.246
17334SOL    MW469657   7.583   1.482   3.267
17335SOL     OW69658   8.149   0.781   3.446
17335SOL    HW269659   8.142   0.876   3.434
17335SOL    HW369660   8.158   0.770   3.541
17335SOL    MW469661   8.150   0.793   3.456
17336SOL     OW69662   7.870   1.296   3.704
17336SOL    HW269663   7.942   1.298   3.641
17336SOL    HW369664   7.840   1.205   3.703
17336SOL    MW469665   7.875   1.285   3.696
17337SOL     OW69666   9.154   1.589   3.655
17337SOL    HW269667   9.127   1.586   3.746
17337SOL    HW369668   9.250   1.593   3.658
17337SOL    MW469669   9.164   1.589   3.667
17338SOL     OW69670   7.965   0.451   2.639
17338SOL    HW269671   8.036   0.399   2.602
17338SOL    HW369672   7.951   0.416   2.726
17338SOL    MW469673   7.973   0.440   2.646
17339SOL     OW69674   7.520   1.786   3.711
17339SOL    HW269675   7.570   1.764   3.633
17339SOL    HW369676   7.528   1.881   3.719
17339SOL    MW469677   7.528   1.795   3.702
17340SOL     OW69678   8.281   1.544   2.715
17340SOL    HW269679   8.209   1.481   2.728
17340SOL    HW369680   8.242   1.629   2.733
17340SOL    MW469681   8.265   1.547   2.718
17341SOL     OW69682   8.601   0.392   2.363
17341SOL    HW269683   8.623   0.329   2.295
17341SOL    HW369684   8.506   0.384   2.374
17341SOL    MW469685   8.591   0.383   2.355
17342SOL     OW69686   7.517   0.549   3.438
17342SOL    HW269687   7.581   0.615   3.413
17342SOL    HW369688   7.436   0.576   3.395
17342SOL    MW469689   7.515   0.561   3.430
17343SOL     OW69690   9.255   1.456   2.395
17343SOL    HW269691   9.225   1.389   2.456
17343SOL    HW369692   9.349   1.462   2.409
17343SOL    MW469693   9.263   1.448   2.405
17344SOL     OW69694   8.811   1.133   2.325
17344SOL    HW269695   8.783   1.219   2.358
17344SOL    HW369696   8.839   1.149   2.235
17344SOL    MW469697   8.811   1.147   2.317
17345SOL     OW69698   9.326   0.935   2.800
17345SOL    HW269699   9.317   0.967   2.711
17345SOL    HW369700   9.279   0.851   2.800
17345SOL    MW469701   9.319   0.928   2.790
17346SOL     OW69702   7.702   0.775   3.379
17346SOL    HW269703   7.723   0.844   3.317
17346SOL    HW369704   7.782   0.722   3.384
17346SOL    MW469705   7.715   0.776   3.373
17347SOL     OW69706   9.238   0.866   2.501
17347SOL    HW269707   9.332   0.855   2.489
17347SOL    HW369708   9.214   0.938   2.442
17347SOL    MW469709   9.248   0.874   2.492
17348SOL     OW69710   7.687   0.790   3.646
17348SOL    HW269711   7.613   0.734   3.672
17348SOL    HW369712   7.682   0.793   3.551
17348SOL    MW469713   7.676   0.783   3.636
17349SOL     OW69714   7.853   0.077   3.096
17349SOL    HW269715   7.896   0.161   3.116
17349SOL    HW369716   7.926   0.015   3.089
17349SOL    MW469717   7.868   0.080   3.097
17350SOL     OW69718   7.894   0.744   2.274
17350SOL    HW269719   7.894   0.839   2.259
17350SOL    HW369720   7.971   0.728   2.328
17350SOL    MW469721   7.904   0.755   2.279
17351SOL     OW69722   8.670   0.603   3.338
17351SOL    HW269723   8.706   0.576   3.254
17351SOL    HW369724   8.583   0.637   3.317
17351SOL    MW469725   8.664   0.604   3.325
17352SOL     OW69726   7.653   0.475   2.563
17352SOL    HW269727   7.715   0.482   2.636
17352SOL    HW369728   7.653   0.382   2.540
17352SOL    MW469729   7.661   0.464   2.570
17353SOL     OW69730   9.200   1.815   2.095
17353SOL    HW269731   9.267   1.848   2.035
17353SOL    HW369732   9.157   1.894   2.129
17353SOL    MW469733   9.202   1.830   2.091
17354SOL     OW69734   8.335   0.736   3.047
17354SOL    HW269735   8.293   0.654   3.023
17354SOL    HW369736   8.336   0.735   3.143
17354SOL    MW469737   8.328   0.725   3.056
17355SOL     OW69738   9.006   1.869   3.446
17355SOL    HW269739   9.009   1.775   3.429
17355SOL    HW369740   9.029   1.877   3.538
17355SOL    MW469741   9.009   1.857   3.456
17356SOL     OW69742   7.522   1.047   2.021
17356SOL    HW269743   7.491   1.112   2.084
17356SOL    HW369744   7.471   0.969   2.040
17356SOL    MW469745   7.512   1.044   2.031
17357SOL     OW69746   8.966   0.798   2.613
17357SOL    HW269747   9.046   0.813   2.562
17357SOL    HW369748   8.959   0.703   2.619
17357SOL    MW469749   8.975   0.787   2.608
17358SOL     OW69750   8.106   1.847   1.963
17358SOL    HW269751   8.011   1.847   1.955
17358SOL    HW369752   8.122   1.793   2.041
17358SOL    MW469753   8.096   1.841   1.972
17359SOL     OW69754   8.416   0.724   3.310
17359SOL    HW269755   8.485   0.791   3.307
17359SOL    HW369756   8.349   0.762   3.366
17359SOL    MW469757   8.417   0.737   3.317
17360SOL     OW69758   7.834   1.024   3.558
17360SOL    HW269759   7.788   0.940   3.560
17360SOL    HW369760   7.891   1.018   3.482
17360SOL    MW469761   7.836   1.012   3.550
17361SOL     OW69762   8.951   0.667   1.879
17361SOL    HW269763   8.879   0.643   1.821
17361SOL    HW369764   9.017   0.704   1.821
17361SOL    MW469765   8.950   0.669   1.864
17362SOL     OW69766   8.085   1.399   2.559
17362SOL    HW269767   8.150   1.332   2.580
17362SOL    HW369768   8.137   1.476   2.536
17362SOL    MW469769   8.100   1.401   2.558
17363SOL     OW69770   8.346   0.564   2.689
17363SOL    HW269771   8.286   0.582   2.761
17363SOL    HW369772   8.380   0.476   2.708
17363SOL    MW469773   8.342   0.554   2.702
17364SOL     OW69774   8.571   1.147   2.708
17364SOL    HW269775   8.663   1.128   2.726
17364SOL    HW369776   8.544   1.077   2.648
17364SOL    MW469777   8.579   1.135   2.702
17365SOL     OW69778   8.364   0.967   2.063
17365SOL    HW269779   8.350   0.879   2.028
17365SOL    HW369780   8.315   1.024   2.004
17365SOL    MW469781   8.356   0.962   2.051
17366SOL     OW69782   8.845   1.385   2.804
17366SOL    HW269783   8.818   1.469   2.769
17366SOL    HW369784   8.805   1.380   2.891
17366SOL    MW469785   8.838   1.394   2.810
17367SOL     OW69786   8.764   1.333   3.072
17367SOL    HW269787   8.775   1.300   3.161
17367SOL    HW369788   8.683   1.292   3.041
17367SOL    MW469789   8.754   1.325   3.078
17368SOL     OW69790   7.777   0.691   2.842
17368SOL    HW269791   7.727   0.690   2.923
17368SOL    HW369792   7.797   0.783   2.826
17368SOL    MW469793   7.773   0.703   2.850
17369SOL     OW69794   8.844   1.455   3.604
17369SOL    HW269795   8.844   1.549   3.620
17369SOL    HW369796   8.889   1.445   3.520
17369SOL    MW469797   8.850   1.465   3.595
17370SOL     OW69798   8.372   0.736   2.279
17370SOL    HW269799   8.352   0.722   2.186
17370SOL    HW369800   8.465   0.715   2.286
17370SOL    MW469801   8.382   0.731   2.268
17371SOL     OW69802   7.699   0.359   3.583
17371SOL    HW269803   7.656   0.418   3.520
17371SOL    HW369804   7.767   0.414   3.623
17371SOL    MW469805   7.703   0.374   3.580
17372SOL     OW69806   8.811   0.979   3.128
17372SOL    HW269807   8.874   0.976   3.201
17372SOL    HW369808   8.727   0.997   3.170
17372SOL    MW469809   8.807   0.981   3.143
17373SOL     OW69810   8.355   1.694   2.317
17373SOL    HW269811   8.413   1.765   2.344
17373SOL    HW369812   8.378   1.622   2.375
17373SOL    MW469813   8.366   1.694   2.328
17374SOL     OW69814   9.235   1.192   2.626
17374SOL    HW269815   9.214   1.138   2.549
17374SOL    HW369816   9.331   1.190   2.630
17374SOL    MW469817   9.244   1.185   2.615
17375SOL     OW69818   7.927   1.337   3.369
17375SOL    HW269819   7.848   1.287   3.392
17375SOL    HW369820   7.997   1.296   3.419
17375SOL    MW469821   7.925   1.325   3.379
17376SOL     OW69822   8.935   0.623   2.888
17376SOL    HW269823   8.858   0.669   2.854
17376SOL    HW369824   8.992   0.692   2.922
17376SOL    MW469825   8.932   0.638   2.888
17377SOL     OW69826   7.601   1.482   2.090
17377SOL    HW269827   7.618   1.566   2.132
17377SOL    HW369828   7.636   1.491   2.002
17377SOL    MW469829   7.606   1.495   2.084
17378SOL     OW69830   8.873   1.571   2.307
17378SOL    HW269831   8.936   1.561   2.236
17378SOL    HW369832   8.790   1.591   2.262
17378SOL    MW469833   8.870   1.572   2.292
17379SOL     OW69834   9.236   0.839   3.993
17379SOL    HW269835   9.277   0.781   4.058
17379SOL    HW369836   9.143   0.831   4.010
17379SOL    MW469837   9.230   0.831   4.003
17380SOL     OW69838   9.102   0.771   4.988
17380SOL    HW269839   9.057   0.838   5.039
17380SOL    HW369840   9.190   0.807   4.974
17380SOL    MW469841   9.108   0.784   4.992
17381SOL     OW69842   8.030   1.022   4.222
17381SOL    HW269843   8.120   0.997   4.206
17381SOL    HW369844   8.026   1.115   4.199
17381SOL    MW469845   8.042   1.031   4.217
17382SOL     OW69846   9.146   1.725   4.364
17382SOL    HW269847   9.158   1.671   4.442
17382SOL    HW369848   9.183   1.673   4.293
17382SOL    MW469849   9.152   1.710   4.365
17383SOL     OW69850   8.525   1.610   5.365
17383SOL    HW269851   8.566   1.646   5.286
17383SOL    HW369852   8.560   1.521   5.372
17383SOL    MW469853   8.536   1.603   5.356
17384SOL     OW69854   9.082   1.165   4.969
17384SOL    HW269855   9.003   1.130   4.927
17384SOL    HW369856   9.109   1.237   4.913
17384SOL    MW469857   9.075   1.170   4.956
17385SOL     OW69858   8.314   0.478   4.235
17385SOL    HW269859   8.289   0.566   4.263
17385SOL    HW369860   8.311   0.481   4.139
17385SOL    MW469861   8.310   0.490   4.227
17386SOL     OW69862   7.756   0.506   4.163
17386SOL    HW269863   7.788   0.594   4.145
17386SOL    HW369864   7.744   0.504   4.258
17386SOL    MW469865   7.759   0.518   4.175
17387SOL     OW69866   7.834   0.919   5.064
17387SOL    HW269867   7.897   0.866   5.015
17387SOL    HW369868   7.815   0.993   5.007
17387SOL    MW469869   7.840   0.921   5.051
17388SOL     OW69870   8.155   0.261   4.250
17388SOL    HW269871   8.213   0.337   4.252
17388SOL    HW369872   8.090   0.282   4.183
17388SOL    MW469873   8.154   0.273   4.241
17389SOL     OW69874   8.242   1.188   4.425
17389SOL    HW269875   8.322   1.191   4.477
17389SOL    HW369876   8.270   1.155   4.339
17389SOL    MW469877   8.256   1.184   4.420
17390SOL     OW69878   8.267   1.529   5.328
17390SOL    HW269879   8.351   1.555   5.367
17390SOL    HW369880   8.291   1.473   5.254
17390SOL    MW469881   8.281   1.525   5.323
17391SOL     OW69882   8.019   0.692   4.416
17391SOL    HW269883   8.004   0.612   4.467
17391SOL    HW369884   8.101   0.727   4.450
17391SOL    MW469885   8.027   0.684   4.428
17392SOL     OW69886   8.356   1.378   5.101
17392SOL    HW269887   8.320   1.444   5.041
17392SOL    HW369888   8.284   1.316   5.114
17392SOL    MW469889   8.342   1.378   5.095
17393SOL     OW69890   8.161   0.518   4.793
17393SOL    HW269891   8.067   0.514   4.811
17393SOL    HW369892   8.191   0.427   4.802
17393SOL    MW469893   8.152   0.506   4.796
17394SOL     OW69894   7.907   0.932   4.697
17394SOL    HW269895   7.862   0.939   4.613
17394SOL    HW369896   7.887   1.015   4.741
17394SOL    MW469897   7.899   0.944   4.691
17395SOL     OW69898   7.604   1.778   4.572
17395SOL    HW269899   7.693   1.770   4.607
17395SOL    HW369900   7.568   1.690   4.577
17395SOL    MW469901   7.611   1.765   4.577
17396SOL     OW69902   8.869   1.170   3.941
17396SOL    HW269903   8.787   1.206   3.907
17396SOL    HW369904   8.937   1.213   3.890
17396SOL    MW469905   8.867   1.180   3.929
17397SOL     OW69906   7.868   1.305   4.607
17397SOL    HW269907   7.844   1.358   4.683
17397SOL    HW369908   7.924   1.363   4.555
17397SOL    MW469909   7.872   1.320   4.610
17398SOL     OW69910   8.430   0.949   4.417
17398SOL    HW269911   8.344   0.936   4.457
17398SOL    HW369912   8.483   0.876   4.449
17398SOL    MW469913   8.426   0.938   4.426
17399SOL     OW69914   7.838   1.601   5.202
17399SOL    HW269915   7.746   1.577   5.187
17399SOL    HW369916   7.882   1.518   5.219
17399SOL    MW469917   7.832   1.586   5.201
17400SOL     OW69918   8.421   1.311   4.134
17400SOL    HW269919   8.398   1.373   4.202
17400SOL    HW369920   8.378   1.229   4.160
17400SOL    MW469921   8.413   1.307   4.145
17401SOL     OW69922   9.294   0.312   4.590
17401SOL    HW269923   9.231   0.292   4.659
17401SOL    HW369924   9.284   0.241   4.527
17401SOL    MW469925   9.284   0.299   4.591
17402SOL     OW69926   7.753   1.245   4.139
17402SOL    HW269927   7.701   1.313   4.095
17402SOL    HW369928   7.750   1.171   4.079
17402SOL    MW469929   7.745   1.244   4.126
17403SOL     OW69930   8.415   1.708   3.917
17403SOL    HW269931   8.370   1.724   4.000
17403SOL    HW369932   8.346   1.673   3.859
17403SOL    MW469933   8.401   1.705   3.919
17404SOL     OW69934   9.350   0.481   3.892
17404SOL    HW269935   9.259   0.483   3.920
17404SOL    HW369936   9.395   0.543   3.950
17404SOL    MW469937   9.343   0.489   3.902
17405SOL     OW69938   9.095   1.084   4.242
17405SOL    HW269939   9.005   1.084   4.277
17405SOL    HW369940   9.088   1.130   4.159
17405SOL    MW469941   9.082   1.090   4.236
17406SOL     OW69942   8.895   0.719   5.314
17406SOL    HW269943   8.964   0.657   5.291
17406SOL    HW369944   8.820   0.693   5.261
17406SOL    MW469945   8.895   0.706   5.305
17407SOL     OW69946   7.636   1.599   4.866
17407SOL    HW269947   7.619   1.545   4.943
17407SOL    HW369948   7.624   1.689   4.896
17407SOL    MW469949   7.633   1.603   4.880
17408SOL     OW69950   8.631   1.106   5.306
17408SOL    HW269951   8.616   1.199   5.291
17408SOL    HW369952   8.726   1.096   5.306
17408SOL    MW469953   8.640   1.116   5.303
17409SOL     OW69954   8.427   0.530   5.507
17409SOL    HW269955   8.517   0.531   5.474
17409SOL    HW369956   8.386   0.455   5.465
17409SOL    MW469957   8.433   0.520   5.498
17410SOL     OW69958   9.002   1.062   4.634
17410SOL    HW269959   9.005   0.996   4.565
17410SOL    HW369960   9.087   1.105   4.630
17410SOL    MW469961   9.014   1.058   4.625
17411SOL     OW69962   8.622   0.665   4.203
17411SOL    HW269963   8.648   0.689   4.114
17411SOL    HW369964   8.604   0.572   4.199
17411SOL    MW469965   8.624   0.657   4.190
17412SOL     OW69966   9.287   1.285   4.054
17412SOL    HW269967   9.243   1.326   4.129
17412SOL    HW369968   9.344   1.353   4.019
17412SOL    MW469969   9.289   1.299   4.059
17413SOL     OW69970   8.207   0.334   5.457
17413SOL    HW269971   8.217   0.260   5.397
17413SOL    HW369972   8.243   0.303   5.540
17413SOL    MW469973   8.213   0.320   5.459
17414SOL     OW69974   7.943   1.701   4.372
17414SOL    HW269975   7.975   1.789   4.350
17414SOL    HW369976   7.896   1.673   4.294
17414SOL    MW469977   7.942   1.709   4.359
17415SOL     OW69978   7.659   1.761   3.949
17415SOL    HW269979   7.688   1.851   3.941
17415SOL    HW369980   7.609   1.744   3.870
17415SOL    MW469981   7.657   1.769   3.938
17416SOL     OW69982   9.063   1.569   3.920
17416SOL    HW269983   9.111   1.638   3.966
17416SOL    HW369984   8.984   1.613   3.889
17416SOL    MW469985   9.058   1.583   3.923
17417SOL     OW69986   8.461   0.694   3.864
17417SOL    HW269987   8.463   0.641   3.785
17417SOL    HW369988   8.549   0.731   3.870
17417SOL    MW469989   8.473   0.693   3.853
17418SOL     OW69990   9.075   0.620   4.200
17418SOL    HW269991   9.114   0.620   4.287
17418SOL    HW369992   9.016   0.696   4.200
17418SOL    MW469993   9.072   0.631   4.211
17419SOL     OW69994   8.392   0.987   5.329
17419SOL    HW269995   8.369   0.967   5.419
17419SOL    HW369996   8.477   1.031   5.334
17419SOL    MW469997   8.399   0.990   5.341
17420SOL     OW69998   8.561   0.613   4.923
17420SOL    HW269999   8.636   0.642   4.870
17420SOL    HW370000   8.493   0.678   4.907
17420SOL    MW470001   8.562   0.625   4.913
17421SOL     OW70002   9.111   0.581   5.200
17421SOL    HW270003   9.092   0.490   5.179
17421SOL    HW370004   9.089   0.630   5.121
17421SOL    MW470005   9.106   0.574   5.187
17422SOL     OW70006   9.253   1.675   5.104
17422SOL    HW270007   9.181   1.637   5.155
17422SOL    HW370008   9.270   1.760   5.145
17422SOL    MW470009   9.247   1.680   5.116
17423SOL     OW70010   8.967   1.133   5.382
17423SOL    HW270011   9.049   1.174   5.412
17423SOL    HW370012   8.930   1.095   5.462
17423SOL    MW470013   8.973   1.134   5.397
17424SOL     OW70014   9.262   0.506   4.366
17424SOL    HW270015   9.351   0.475   4.383
17424SOL    HW370016   9.205   0.446   4.414
17424SOL    MW470017   9.265   0.494   4.375
17425SOL     OW70018   8.631   1.313   3.956
17425SOL    HW270019   8.581   1.315   4.038
17425SOL    HW370020   8.565   1.331   3.888
17425SOL    MW470021   8.617   1.315   3.958
17426SOL     OW70022   7.635   0.393   4.758
17426SOL    HW270023   7.607   0.484   4.767
17426SOL    HW370024   7.572   0.354   4.697
17426SOL    MW470025   7.622   0.399   4.752
17427SOL     OW70026   8.094   1.731   4.064
17427SOL    HW270027   8.015   1.689   4.097
17427SOL    HW370028   8.160   1.714   4.131
17427SOL    MW470029   8.093   1.723   4.077
17428SOL     OW70030   9.222   1.251   5.461
17428SOL    HW270031   9.272   1.177   5.493
17428SOL    HW370032   9.168   1.278   5.536
17428SOL    MW470033   9.222   1.245   5.474
17429SOL     OW70034   8.230   1.146   3.771
17429SOL    HW270035   8.152   1.092   3.758
17429SOL    HW370036   8.201   1.219   3.824
17429SOL    MW470037   8.216   1.148   3.776
17430SOL     OW70038   9.356   0.886   4.963
17430SOL    HW270039   9.372   0.924   4.876
17430SOL    HW370040   9.390   0.952   5.024
17430SOL    MW470041   9.363   0.899   4.959
17431SOL     OW70042   9.148   1.595   4.632
17431SOL    HW270043   9.177   1.662   4.693
17431SOL    HW370044   9.129   1.519   4.687
17431SOL    MW470045   9.150   1.595   4.647
17432SOL     OW70046   8.811   1.662   3.839
17432SOL    HW270047   8.737   1.625   3.889
17432SOL    HW370048   8.819   1.752   3.872
17432SOL    MW470049   8.802   1.669   3.851
17433SOL     OW70050   7.619   0.668   4.928
17433SOL    HW270051   7.681   0.698   4.994
17433SOL    HW370052   7.553   0.737   4.922
17433SOL    MW470053   7.618   0.681   4.935
17434SOL     OW70054   9.035   1.336   3.781
17434SOL    HW270055   8.982   1.385   3.717
17434SOL    HW370056   9.066   1.402   3.842
17434SOL    MW470057   9.033   1.350   3.779
17435SOL     OW70058   7.714   1.777   5.380
17435SOL    HW270059   7.688   1.845   5.318
17435SOL    HW370060   7.762   1.714   5.328
17435SOL    MW470061   7.716   1.777   5.366
17436SOL     OW70062   7.766   1.096   4.887
17436SOL    HW270063   7.819   1.171   4.912
17436SOL    HW370064   7.685   1.134   4.853
17436SOL    MW470065   7.762   1.111   4.887
17437SOL     OW70066   8.306   1.000   4.875
17437SOL    HW270067   8.334   0.909   4.887
17437SOL    HW370068   8.235   0.994   4.811
17437SOL    MW470069   8.299   0.988   4.870
17438SOL     OW70070   7.621   0.865   4.293
17438SOL    HW270071   7.712   0.880   4.320
17438SOL    HW370072   7.624   0.786   4.239
17438SOL    MW470073   7.633   0.857   4.291
17439SOL     OW70074   7.857   0.573   5.547
17439SOL    HW270075   7.804   0.653   5.554
17439SOL    HW370076   7.927   0.585   5.612
17439SOL    MW470077   7.859   0.586   5.555
17440SOL     OW70078   7.927   0.647   5.293
17440SOL    HW270079   8.007   0.697   5.279
17440SOL    HW370080   7.918   0.641   5.388
17440SOL    MW470081   7.936   0.653   5.303
17441SOL     OW70082   8.248   1.797   4.667
17441SOL    HW270083   8.337   1.812   4.697
17441SOL    HW370084   8.243   1.844   4.583
17441SOL    MW470085   8.258   1.805   4.660
17442SOL     OW70086   7.629   1.477   4.332
17442SOL    HW270087   7.601   1.516   4.414
17442SOL    HW370088   7.649   1.386   4.354
17442SOL    MW470089   7.627   1.469   4.345
17443SOL     OW70090   8.462   1.520   4.367
17443SOL    HW270091   8.545   1.474   4.351
17443SOL    HW370092   8.452   1.519   4.463
17443SOL    MW470093   8.472   1.513   4.377
17444SOL     OW70094   9.294   0.665   4.681
17444SOL    HW270095   9.383   0.695   4.663
17444SOL    HW370096   9.274   0.605   4.610
17444SOL    MW470097   9.303   0.662   4.670
17445SOL     OW70098   9.145   0.844   5.561
17445SOL    HW270099   9.200   0.768   5.542
17445SOL    HW370100   9.147   0.852   5.656
17445SOL    MW470101   9.153   0.835   5.569
17446SOL     OW70102   8.195   1.577   3.772
17446SOL    HW270103   8.135   1.646   3.742
17446SOL    HW370104   8.140   1.519   3.825
17446SOL    MW470105   8.179   1.579   3.774
17447SOL     OW70106   8.633   0.222   3.995
17447SOL    HW270107   8.566   0.198   3.932
17447SOL    HW370108   8.698   0.271   3.944
17447SOL    MW470109   8.633   0.224   3.980
17448SOL     OW70110   8.440   0.406   5.080
17448SOL    HW270111   8.359   0.447   5.108
17448SOL    HW370112   8.487   0.474   5.032
17448SOL    MW470113   8.435   0.421   5.078
17449SOL     OW70114   8.700   0.744   4.703
17449SOL    HW270115   8.713   0.838   4.713
17449SOL    HW370116   8.661   0.734   4.617
17449SOL    MW470117   8.696   0.755   4.693
17450SOL     OW70118   8.152   0.939   4.507
17450SOL    HW270119   8.063   0.930   4.540
17450SOL    HW370120   8.156   1.029   4.475
17450SOL    MW470121   8.141   0.950   4.507
17451SOL     OW70122   8.951   0.522   4.502
17451SOL    HW270123   8.896   0.443   4.501
17451SOL    HW370124   8.933   0.563   4.586
17451SOL    MW470125   8.941   0.517   4.511
17452SOL     OW70126   8.570   0.726   4.459
17452SOL    HW270127   8.507   0.658   4.483
17452SOL    HW370128   8.590   0.707   4.367
17452SOL    MW470129   8.564   0.713   4.451
17453SOL     OW70130   7.826   1.621   4.161
17453SOL    HW270131   7.787   1.668   4.087
17453SOL    HW370132   7.760   1.556   4.186
17453SOL    MW470133   7.813   1.619   4.155
17454SOL     OW70134   8.318   1.030   4.185
17454SOL    HW270135   8.320   1.004   4.092
17454SOL    HW370136   8.376   0.967   4.228
17454SOL    MW470137   8.326   1.019   4.179
17455SOL     OW70138   8.871   1.590   4.957
17455SOL    HW270139   8.796   1.636   4.995
17455SOL    HW370140   8.853   1.497   4.974
17455SOL    MW470141   8.860   1.584   4.965
17456SOL     OW70142   8.875   1.798   4.387
17456SOL    HW270143   8.818   1.751   4.326
17456SOL    HW370144   8.961   1.759   4.374
17456SOL    MW470145   8.878   1.789   4.377
17457SOL     OW70146   7.633   1.208   4.452
17457SOL    HW270147   7.697   1.240   4.515
17457SOL    HW370148   7.682   1.144   4.400
17457SOL    MW470149   7.648   1.204   4.453
17458SOL     OW70150   8.133   1.284   5.434
17458SOL    HW270151   8.181   1.367   5.421
17458SOL    HW370152   8.190   1.232   5.490
17458SOL    MW470153   8.147   1.288   5.440
17459SOL     OW70154   7.709   1.526   5.574
17459SOL    HW270155   7.765   1.450   5.589
17459SOL    HW370156   7.658   1.504   5.496
17459SOL    MW470157   7.709   1.513   5.565
17460SOL     OW70158   8.808   0.378   3.853
17460SOL    HW270159   8.781   0.444   3.789
17460SOL    HW370160   8.878   0.421   3.903
17460SOL    MW470161   8.813   0.391   3.850
17461SOL     OW70162   8.981   0.934   3.995
17461SOL    HW270163   8.948   1.023   3.985
17461SOL    HW370164   8.946   0.905   4.080
17461SOL    MW470165   8.971   0.943   4.006
17462SOL     OW70166   8.594   1.363   5.183
17462SOL    HW270167   8.505   1.369   5.151
17462SOL    HW370168   8.638   1.442   5.151
17462SOL    MW470169   8.589   1.373   5.175
17463SOL     OW70170   7.911   1.521   4.824
17463SOL    HW270171   7.956   1.583   4.881
17463SOL    HW370172   7.818   1.540   4.837
17463SOL    MW470173   7.904   1.531   4.831
17464SOL     OW70174   9.351   1.050   5.178
17464SOL    HW270175   9.266   1.063   5.137
17464SOL    HW370176   9.331   1.014   5.265
17464SOL    MW470177   9.338   1.046   5.183
17465SOL     OW70178   8.333   1.589   4.932
17465SOL    HW270179   8.357   1.578   4.841
17465SOL    HW370180   8.256   1.646   4.930
17465SOL    MW470181   8.325   1.594   4.921
17466SOL     OW70182   7.975   0.972   3.787
17466SOL    HW270183   7.898   0.985   3.843
17466SOL    HW370184   7.939   0.936   3.706
17466SOL    MW470185   7.961   0.968   3.784
17467SOL     OW70186   8.628   0.945   4.030
17467SOL    HW270187   8.538   0.966   4.005
17467SOL    HW370188   8.655   1.018   4.086
17467SOL    MW470189   8.620   0.957   4.033
17468SOL     OW70190   8.128   1.294   4.722
17468SOL    HW270191   8.121   1.273   4.816
17468SOL    HW370192   8.046   1.262   4.685
17468SOL    MW470193   8.116   1.288   4.729
17469SOL     OW70194   8.992   0.304   5.124
17469SOL    HW270195   8.939   0.306   5.204
17469SOL    HW370196   8.977   0.217   5.087
17469SOL    MW470197   8.984   0.294   5.129
17470SOL     OW70198   9.328   0.228   4.997
17470SOL    HW270199   9.309   0.295   4.932
17470SOL    HW370200   9.385   0.166   4.952
17470SOL    MW470201   9.332   0.229   4.983
17471SOL     OW70202   7.574   1.386   5.385
17471SOL    HW270203   7.618   1.319   5.331
17471SOL    HW370204   7.489   1.348   5.405
17471SOL    MW470205   7.569   1.372   5.381
17472SOL     OW70206   8.015   1.301   4.186
17472SOL    HW270207   8.008   1.333   4.276
17472SOL    HW370208   7.925   1.285   4.158
17472SOL    MW470209   8.003   1.303   4.193
17473SOL     OW70210   8.610   1.694   5.095
17473SOL    HW270211   8.530   1.679   5.045
17473SOL    HW370212   8.617   1.789   5.102
17473SOL    MW470213   8.601   1.705   5.089
17474SOL     OW70214   8.724   1.659   4.585
17474SOL    HW270215   8.771   1.732   4.544
17474SOL    HW370216   8.645   1.698   4.621
17474SOL    MW470217   8.719   1.674   4.584
17475SOL     OW70218   9.132   1.754   4.860
17475SOL    HW270219   9.175   1.724   4.940
17475SOL    HW370220   9.051   1.702   4.857
17475SOL    MW470221   9.127   1.743   4.870
17476SOL     OW70222   8.217   0.718   5.567
17476SOL    HW270223   8.287   0.660   5.539
17476SOL    HW370224   8.160   0.663   5.622
17476SOL    MW470225   8.219   0.705   5.571
17477SOL     OW70226   9.004   0.930   5.200
17477SOL    HW270227   9.009   0.983   5.280
17477SOL    HW370228   8.966   0.847   5.228
17477SOL    MW470229   9.000   0.925   5.215
17478SOL     OW70230   8.018   0.585   3.900
17478SOL    HW270231   7.984   0.641   3.970
17478SOL    HW370232   8.089   0.535   3.940
17478SOL    MW470233   8.024   0.586   3.914
17479SOL     OW70234   9.114   1.336   4.722
17479SOL    HW270235   9.149   1.318   4.635
17479SOL    HW370236   9.019   1.337   4.709
17479SOL    MW470237   9.106   1.333   4.709
17480SOL     OW70238   8.543   0.984   5.091
17480SOL    HW270239   8.586   1.019   5.169
17480SOL    HW370240   8.526   1.061   5.037
17480SOL    MW470241   8.546   0.999   5.094
17481SOL     OW70242   9.074   0.471   3.964
17481SOL    HW270243   9.066   0.542   3.901
17481SOL    HW370244   9.092   0.515   4.047
17481SOL    MW470245   9.075   0.485   3.966
17482SOL     OW70246   7.693   1.188   5.253
17482SOL    HW270247   7.721   1.141   5.331
17482SOL    HW370248   7.614   1.143   5.224
17482SOL    MW470249   7.686   1.177   5.259
17483SOL     OW70250   8.201   0.515   5.220
17483SOL    HW270251   8.173   0.603   5.244
17483SOL    HW370252   8.170   0.459   5.291
17483SOL    MW470253   8.193   0.518   5.232
17484SOL     OW70254   8.743   0.733   3.939
17484SOL    HW270255   8.790   0.751   3.858
17484SOL    HW370256   8.709   0.817   3.967
17484SOL    MW470257   8.745   0.747   3.932
17485SOL     OW70258   7.856   0.911   4.433
17485SOL    HW270259   7.914   0.967   4.381
17485SOL    HW370260   7.900   0.826   4.435
17485SOL    MW470261   7.869   0.908   4.426
17486SOL     OW70262   8.478   1.475   3.761
17486SOL    HW270263   8.505   1.553   3.713
17486SOL    HW370264   8.385   1.490   3.780
17486SOL    MW470265   8.469   1.488   3.757
17487SOL     OW70266   9.342   0.998   5.448
17487SOL    HW270267   9.255   0.978   5.484
17487SOL    HW370268   9.396   0.924   5.473
17487SOL    MW470269   9.337   0.987   5.456
17488SOL     OW70270   7.563   1.511   4.605
17488SOL    HW270271   7.595   1.515   4.696
17488SOL    HW370272   7.468   1.519   4.613
17488SOL    MW470273   7.555   1.514   4.618
17489SOL     OW70274   7.518   0.637   4.152
17489SOL    HW270275   7.458   0.609   4.222
17489SOL    HW370276   7.592   0.577   4.158
17489SOL    MW470277   7.520   0.626   4.161
17490SOL     OW70278   9.086   1.849   5.586
17490SOL    HW270279   9.131   1.773   5.551
17490SOL    HW370280   9.124   1.862   5.673
17490SOL    MW470281   9.096   1.842   5.592
17491SOL     OW70282   8.686   1.368   4.312
17491SOL    HW270283   8.709   1.319   4.390
17491SOL    HW370284   8.767   1.410   4.284
17491SOL    MW470285   8.699   1.368   4.319
17492SOL     OW70286   8.727   0.552   5.468
17492SOL    HW270287   8.779   0.487   5.421
17492SOL    HW370288   8.685   0.603   5.398
17492SOL    MW470289   8.728   0.549   5.451
17493SOL     OW70290   8.826   0.347   5.329
17493SOL    HW270291   8.733   0.331   5.316
17493SOL    HW370292   8.852   0.285   5.397
17493SOL    MW470293   8.816   0.337   5.336
17494SOL     OW70294   8.135   1.736   5.214
17494SOL    HW270295   8.052   1.721   5.259
17494SOL    HW370296   8.194   1.669   5.249
17494SOL    MW470297   8.133   1.726   5.224
17495SOL     OW70298   9.192   0.443   4.839
17495SOL    HW270299   9.125   0.476   4.899
17495SOL    HW370300   9.235   0.521   4.805
17495SOL    MW470301   9.190   0.458   4.843
17496SOL     OW70302   9.370   1.163   4.809
17496SOL    HW270303   9.363   1.103   4.734
17496SOL    HW370304   9.296   1.223   4.798
17496SOL    MW470305   9.360   1.163   4.798
17497SOL     OW70306   8.752   1.025   4.727
17497SOL    HW270307   8.766   0.997   4.818
17497SOL    HW370308   8.838   1.056   4.699
17497SOL    MW470309   8.765   1.026   4.736
17498SOL     OW70310   8.835   0.520   5.006
17498SOL    HW270311   8.856   0.521   4.913
17498SOL    HW370312   8.880   0.442   5.039
17498SOL    MW470313   8.842   0.510   4.998
17499SOL     OW70314   9.328   0.651   5.548
17499SOL    HW270315   9.365   0.596   5.617
17499SOL    HW370316   9.353   0.608   5.466
17499SOL    MW470317   9.335   0.639   5.547
17500SOL     OW70318   8.875   0.949   5.600
17500SOL    HW270319   8.941   0.897   5.554
17500SOL    HW370320   8.895   0.936   5.693
17500SOL    MW470321   8.886   0.940   5.607
17501SOL     OW70322   8.886   0.810   4.226
17501SOL    HW270323   8.801   0.780   4.196
17501SOL    HW370324   8.878   0.817   4.321
17501SOL    MW470325   8.874   0.808   4.235
17502SOL     OW70326   7.962   1.273   4.957
17502SOL    HW270327   7.974   1.300   5.048
17502SOL    HW370328   7.943   1.354   4.910
17502SOL    MW470329   7.961   1.288   4.962
17503SOL     OW70330   8.100   1.745   4.942
17503SOL    HW270331   8.152   1.822   4.919
17503SOL    HW370332   8.109   1.737   5.037
17503SOL    MW470333   8.109   1.752   4.953
17504SOL     OW70334   9.002   1.330   5.174
17504SOL    HW270335   8.987   1.259   5.237
17504SOL    HW370336   9.048   1.288   5.102
17504SOL    MW470337   9.008   1.314   5.174
17505SOL     OW70338   8.076   1.061   5.291
17505SOL    HW270339   8.113   1.066   5.203
17505SOL    HW370340   8.115   1.134   5.338
17505SOL    MW470341   8.086   1.071   5.286
17506SOL     OW70342   8.256   1.104   5.103
17506SOL    HW270343   8.315   1.050   5.156
17506SOL    HW370344   8.271   1.076   5.013
17506SOL    MW470345   8.266   1.093   5.099
17507SOL     OW70346   8.259   0.476   3.952
17507SOL    HW270347   8.332   0.525   3.915
17507SOL    HW370348   8.275   0.385   3.926
17507SOL    MW470349   8.271   0.471   3.945
17508SOL     OW70350   9.067   1.593   5.275
17508SOL    HW270351   9.109   1.578   5.360
17508SOL    HW370352   9.058   1.506   5.237
17508SOL    MW470353   9.071   1.581   5.282
17509SOL     OW70354   7.734   0.985   4.050
17509SOL    HW270355   7.671   1.001   3.979
17509SOL    HW370356   7.681   0.948   4.121
17509SOL    MW470357   7.719   0.982   4.050
17510SOL     OW70358   8.090   1.339   3.909
17510SOL    HW270359   8.105   1.315   4.001
17510SOL    HW370360   7.998   1.317   3.893
17510SOL    MW470361   8.080   1.332   3.919
17511SOL     OW70362   8.629   1.570   4.061
17511SOL    HW270363   8.637   1.488   4.012
17511SOL    HW370364   8.548   1.609   4.028
17511SOL    MW470365   8.619   1.565   4.051
17512SOL     OW70366   7.888   1.728   4.630
17512SOL    HW270367   7.892   1.639   4.665
17512SOL    HW370368   7.914   1.719   4.539
17512SOL    MW470369   7.891   1.716   4.622
17513SOL     OW70370   8.505   1.206   4.873
17513SOL    HW270371   8.437   1.140   4.889
17513SOL    HW370372   8.523   1.200   4.780
17513SOL    MW470373   8.498   1.197   4.864
17514SOL     OW70374   7.594   1.481   5.124
17514SOL    HW270375   7.584   1.439   5.210
17514SOL    HW370376   7.515   1.534   5.114
17514SOL    MW470377   7.583   1.482   5.135
17515SOL     OW70378   8.149   0.781   5.314
17515SOL    HW270379   8.142   0.876   5.302
17515SOL    HW370380   8.158   0.770   5.409
17515SOL    MW470381   8.150   0.793   5.324
17516SOL     OW70382   7.870   1.296   5.572
17516SOL    HW270383   7.942   1.298   5.509
17516SOL    HW370384   7.840   1.205   5.571
17516SOL    MW470385   7.875   1.285   5.564
17517SOL     OW70386   9.154   1.589   5.523
17517SOL    HW270387   9.127   1.586   5.614
17517SOL    HW370388   9.250   1.593   5.526
17517SOL    MW470389   9.164   1.589   5.535
17518SOL     OW70390   7.965   0.451   4.507
17518SOL    HW270391   8.036   0.399   4.470
17518SOL    HW370392   7.951   0.416   4.594
17518SOL    MW470393   7.973   0.440   4.514
17519SOL     OW70394   7.520   1.786   5.579
17519SOL    HW270395   7.570   1.764   5.501
17519SOL    HW370396   7.528   1.881   5.587
17519SOL    MW470397   7.528   1.795   5.570
17520SOL     OW70398   8.281   1.544   4.583
17520SOL    HW270399   8.209   1.481   4.596
17520SOL    HW370400   8.242   1.629   4.601
17520SOL    MW470401   8.265   1.547   4.586
17521SOL     OW70402   8.601   0.392   4.231
17521SOL    HW270403   8.623   0.329   4.163
17521SOL    HW370404   8.506   0.384   4.242
17521SOL    MW470405   8.591   0.383   4.223
17522SOL     OW70406   7.517   0.549   5.306
17522SOL    HW270407   7.581   0.615   5.281
17522SOL    HW370408   7.436   0.576   5.263
17522SOL    MW470409   7.515   0.561   5.298
17523SOL     OW70410   9.255   1.456   4.263
17523SOL    HW270411   9.225   1.389   4.324
17523SOL    HW370412   9.349   1.462   4.277
17523SOL    MW470413   9.263   1.448   4.273
17524SOL     OW70414   8.811   1.133   4.193
17524SOL    HW270415   8.783   1.219   4.226
17524SOL    HW370416   8.839   1.149   4.103
17524SOL    MW470417   8.811   1.147   4.185
17525SOL     OW70418   9.326   0.935   4.668
17525SOL    HW270419   9.317   0.967   4.579
17525SOL    HW370420   9.279   0.851   4.668
17525SOL    MW470421   9.319   0.928   4.658
17526SOL     OW70422   7.702   0.775   5.247
17526SOL    HW270423   7.723   0.844   5.185
17526SOL    HW370424   7.782   0.722   5.252
17526SOL    MW470425   7.715   0.776   5.241
17527SOL     OW70426   9.238   0.866   4.369
17527SOL    HW270427   9.332   0.855   4.357
17527SOL    HW370428   9.214   0.938   4.310
17527SOL    MW470429   9.248   0.874   4.360
17528SOL     OW70430   7.687   0.790   5.514
17528SOL    HW270431   7.613   0.734   5.540
17528SOL    HW370432   7.682   0.793   5.419
17528SOL    MW470433   7.676   0.783   5.504
17529SOL     OW70434   7.853   0.077   4.964
17529SOL    HW270435   7.896   0.161   4.984
17529SOL    HW370436   7.926   0.015   4.957
17529SOL    MW470437   7.868   0.080   4.965
17530SOL     OW70438   7.894   0.744   4.142
17530SOL    HW270439   7.894   0.839   4.127
17530SOL    HW370440   7.971   0.728   4.196
17530SOL    MW470441   7.904   0.755   4.147
17531SOL     OW70442   8.670   0.603   5.206
17531SOL    HW270443   8.706   0.576   5.122
17531SOL    HW370444   8.583   0.637   5.185
17531SOL    MW470445   8.664   0.604   5.193
17532SOL     OW70446   7.653   0.475   4.431
17532SOL    HW270447   7.715   0.482   4.504
17532SOL    HW370448   7.653   0.382   4.408
17532SOL    MW470449   7.661   0.464   4.438
17533SOL     OW70450   9.200   1.815   3.963
17533SOL    HW270451   9.267   1.848   3.903
17533SOL    HW370452   9.157   1.894   3.997
17533SOL    MW470453   9.202   1.830   3.959
17534SOL     OW70454   8.335   0.736   4.915
17534SOL    HW270455   8.293   0.654   4.891
17534SOL    HW370456   8.336   0.735   5.011
17534SOL    MW470457   8.328   0.725   4.924
17535SOL     OW70458   9.006   1.869   5.314
17535SOL    HW270459   9.009   1.775   5.297
17535SOL    HW370460   9.029   1.877   5.406
17535SOL    MW470461   9.009   1.857   5.324
17536SOL     OW70462   7.522   1.047   3.889
17536SOL    HW270463   7.491   1.112   3.952
17536SOL    HW370464   7.471   0.969   3.908
17536SOL    MW470465   7.512   1.044   3.899
17537SOL     OW70466   8.966   0.798   4.481
17537SOL    HW270467   9.046   0.813   4.430
17537SOL    HW370468   8.959   0.703   4.487
17537SOL    MW470469   8.975   0.787   4.476
17538SOL     OW70470   8.106   1.847   3.831
17538SOL    HW270471   8.011   1.847   3.823
17538SOL    HW370472   8.122   1.793   3.909
17538SOL    MW470473   8.096   1.841   3.840
17539SOL     OW70474   8.416   0.724   5.178
17539SOL    HW270475   8.485   0.791   5.175
17539SOL    HW370476   8.349   0.762   5.234
17539SOL    MW470477   8.417   0.737   5.185
17540SOL     OW70478   7.834   1.024   5.426
17540SOL    HW270479   7.788   0.940   5.428
17540SOL    HW370480   7.891   1.018   5.350
17540SOL    MW470481   7.836   1.012   5.418
17541SOL     OW70482   8.951   0.667   3.747
17541SOL    HW270483   8.879   0.643   3.689
17541SOL    HW370484   9.017   0.704   3.689
17541SOL    MW470485   8.950   0.669   3.732
17542SOL     OW70486   8.085   1.399   4.427
17542SOL    HW270487   8.150   1.332   4.448
17542SOL    HW370488   8.137   1.476   4.404
17542SOL    MW470489   8.100   1.401   4.426
17543SOL     OW70490   8.346   0.564   4.557
17543SOL    HW270491   8.286   0.582   4.629
17543SOL    HW370492   8.380   0.476   4.576
17543SOL    MW470493   8.342   0.554   4.570
17544SOL     OW70494   8.571   1.147   4.576
17544SOL    HW270495   8.663   1.128   4.594
17544SOL    HW370496   8.544   1.077   4.516
17544SOL    MW470497   8.579   1.135   4.570
17545SOL     OW70498   8.364   0.967   3.931
17545SOL    HW270499   8.350   0.879   3.896
17545SOL    HW370500   8.315   1.024   3.872
17545SOL    MW470501   8.356   0.962   3.919
17546SOL     OW70502   8.845   1.385   4.672
17546SOL    HW270503   8.818   1.469   4.637
17546SOL    HW370504   8.805   1.380   4.759
17546SOL    MW470505   8.838   1.394   4.678
17547SOL     OW70506   8.764   1.333   4.940
17547SOL    HW270507   8.775   1.300   5.029
17547SOL    HW370508   8.683   1.292   4.909
17547SOL    MW470509   8.754   1.325   4.946
17548SOL     OW70510   7.777   0.691   4.710
17548SOL    HW270511   7.727   0.690   4.791
17548SOL    HW370512   7.797   0.783   4.694
17548SOL    MW470513   7.773   0.703   4.718
17549SOL     OW70514   8.844   1.455   5.472
17549SOL    HW270515   8.844   1.549   5.488
17549SOL    HW370516   8.889   1.445   5.388
17549SOL    MW470517   8.850   1.465   5.463
17550SOL     OW70518   8.372   0.736   4.147
17550SOL    HW270519   8.352   0.722   4.054
17550SOL    HW370520   8.465   0.715   4.154
17550SOL    MW470521   8.382   0.731   4.136
17551SOL     OW70522   7.699   0.359   5.451
17551SOL    HW270523   7.656   0.418   5.388
17551SOL    HW370524   7.767   0.414   5.491
17551SOL    MW470525   7.703   0.374   5.448
17552SOL     OW70526   8.811   0.979   4.996
17552SOL    HW270527   8.874   0.976   5.069
17552SOL    HW370528   8.727   0.997   5.038
17552SOL    MW470529   8.807   0.981   5.011
17553SOL     OW70530   8.355   1.694   4.185
17553SOL    HW270531   8.413   1.765   4.212
17553SOL    HW370532   8.378   1.622   4.243
17553SOL    MW470533   8.366   1.694   4.196
17554SOL     OW70534   9.235   1.192   4.494
17554SOL    HW270535   9.214   1.138   4.417
17554SOL    HW370536   9.331   1.190   4.498
17554SOL    MW470537   9.244   1.185   4.483
17555SOL     OW70538   7.927   1.337   5.237
17555SOL    HW270539   7.848   1.287   5.260
17555SOL    HW370540   7.997   1.296   5.287
17555SOL    MW470541   7.925   1.325   5.247
17556SOL     OW70542   8.935   0.623   4.756
17556SOL    HW270543   8.858   0.669   4.722
17556SOL    HW370544   8.992   0.692   4.790
17556SOL    MW470545   8.932   0.638   4.756
17557SOL     OW70546   7.601   1.482   3.958
17557SOL    HW270547   7.618   1.566   4.000
17557SOL    HW370548   7.636   1.491   3.870
17557SOL    MW470549   7.606   1.495   3.952
17558SOL     OW70550   8.873   1.571   4.175
17558SOL    HW270551   8.936   1.561   4.104
17558SOL    HW370552   8.790   1.591   4.130
17558SOL    MW470553   8.870   1.572   4.160
17559SOL     OW70554   9.236   0.839   5.862
17559SOL    HW270555   9.277   0.781   5.927
17559SOL    HW370556   9.143   0.831   5.879
17559SOL    MW470557   9.230   0.831   5.872
17560SOL     OW70558   9.102   0.771   6.857
17560SOL    HW270559   9.057   0.838   6.908
17560SOL    HW370560   9.190   0.807   6.843
17560SOL    MW470561   9.108   0.784   6.861
17561SOL     OW70562   8.030   1.022   6.091
17561SOL    HW270563   8.120   0.997   6.075
17561SOL    HW370564   8.026   1.115   6.068
17561SOL    MW470565   8.042   1.031   6.086
17562SOL     OW70566   9.146   1.725   6.233
17562SOL    HW270567   9.158   1.671   6.311
17562SOL    HW370568   9.183   1.673   6.162
17562SOL    MW470569   9.152   1.710   6.234
17563SOL     OW70570   8.525   1.610   7.234
17563SOL    HW270571   8.566   1.646   7.155
17563SOL    HW370572   8.560   1.521   7.241
17563SOL    MW470573   8.536   1.603   7.225
17564SOL     OW70574   9.082   1.165   6.838
17564SOL    HW270575   9.003   1.130   6.796
17564SOL    HW370576   9.109   1.237   6.782
17564SOL    MW470577   9.075   1.170   6.825
17565SOL     OW70578   8.314   0.478   6.104
17565SOL    HW270579   8.289   0.566   6.132
17565SOL    HW370580   8.311   0.481   6.008
17565SOL    MW470581   8.310   0.490   6.096
17566SOL     OW70582   7.756   0.506   6.032
17566SOL    HW270583   7.788   0.594   6.014
17566SOL    HW370584   7.744   0.504   6.127
17566SOL    MW470585   7.759   0.518   6.044
17567SOL     OW70586   7.834   0.919   6.933
17567SOL    HW270587   7.897   0.866   6.884
17567SOL    HW370588   7.815   0.993   6.876
17567SOL    MW470589   7.840   0.921   6.920
17568SOL     OW70590   8.155   0.261   6.119
17568SOL    HW270591   8.213   0.337   6.121
17568SOL    HW370592   8.090   0.282   6.052
17568SOL    MW470593   8.154   0.273   6.110
17569SOL     OW70594   8.242   1.188   6.294
17569SOL    HW270595   8.322   1.191   6.346
17569SOL    HW370596   8.270   1.155   6.208
17569SOL    MW470597   8.256   1.184   6.289
17570SOL     OW70598   8.267   1.529   7.197
17570SOL    HW270599   8.351   1.555   7.236
17570SOL    HW370600   8.291   1.473   7.123
17570SOL    MW470601   8.281   1.525   7.192
17571SOL     OW70602   8.019   0.692   6.285
17571SOL    HW270603   8.004   0.612   6.336
17571SOL    HW370604   8.101   0.727   6.319
17571SOL    MW470605   8.027   0.684   6.297
17572SOL     OW70606   8.356   1.378   6.970
17572SOL    HW270607   8.320   1.444   6.910
17572SOL    HW370608   8.284   1.316   6.983
17572SOL    MW470609   8.342   1.378   6.964
17573SOL     OW70610   8.161   0.518   6.662
17573SOL    HW270611   8.067   0.514   6.680
17573SOL    HW370612   8.191   0.427   6.671
17573SOL    MW470613   8.152   0.506   6.665
17574SOL     OW70614   7.907   0.932   6.566
17574SOL    HW270615   7.862   0.939   6.482
17574SOL    HW370616   7.887   1.015   6.610
17574SOL    MW470617   7.899   0.944   6.560
17575SOL     OW70618   7.604   1.778   6.441
17575SOL    HW270619   7.693   1.770   6.476
17575SOL    HW370620   7.568   1.690   6.446
17575SOL    MW470621   7.611   1.765   6.446
17576SOL     OW70622   8.869   1.170   5.810
17576SOL    HW270623   8.787   1.206   5.776
17576SOL    HW370624   8.937   1.213   5.759
17576SOL    MW470625   8.867   1.180   5.798
17577SOL     OW70626   7.868   1.305   6.476
17577SOL    HW270627   7.844   1.358   6.552
17577SOL    HW370628   7.924   1.363   6.424
17577SOL    MW470629   7.872   1.320   6.479
17578SOL     OW70630   8.430   0.949   6.286
17578SOL    HW270631   8.344   0.936   6.326
17578SOL    HW370632   8.483   0.876   6.318
17578SOL    MW470633   8.426   0.938   6.295
17579SOL     OW70634   7.838   1.601   7.071
17579SOL    HW270635   7.746   1.577   7.056
17579SOL    HW370636   7.882   1.518   7.088
17579SOL    MW470637   7.832   1.586   7.070
17580SOL     OW70638   8.421   1.311   6.003
17580SOL    HW270639   8.398   1.373   6.071
17580SOL    HW370640   8.378   1.229   6.029
17580SOL    MW470641   8.413   1.307   6.014
17581SOL     OW70642   9.294   0.312   6.459
17581SOL    HW270643   9.231   0.292   6.528
17581SOL    HW370644   9.284   0.241   6.396
17581SOL    MW470645   9.284   0.299   6.460
17582SOL     OW70646   7.753   1.245   6.008
17582SOL    HW270647   7.701   1.313   5.964
17582SOL    HW370648   7.750   1.171   5.948
17582SOL    MW470649   7.745   1.244   5.995
17583SOL     OW70650   8.415   1.708   5.786
17583SOL    HW270651   8.370   1.724   5.869
17583SOL    HW370652   8.346   1.673   5.728
17583SOL    MW470653   8.401   1.705   5.788
17584SOL     OW70654   9.350   0.481   5.761
17584SOL    HW270655   9.259   0.483   5.789
17584SOL    HW370656   9.395   0.543   5.819
17584SOL    MW470657   9.343   0.489   5.771
17585SOL     OW70658   9.095   1.084   6.111
17585SOL    HW270659   9.005   1.084   6.146
17585SOL    HW370660   9.088   1.130   6.028
17585SOL    MW470661   9.082   1.090   6.105
17586SOL     OW70662   8.895   0.719   7.183
17586SOL    HW270663   8.964   0.657   7.160
17586SOL    HW370664   8.820   0.693   7.130
17586SOL    MW470665   8.895   0.706   7.174
17587SOL     OW70666   7.636   1.599   6.735
17587SOL    HW270667   7.619   1.545   6.812
17587SOL    HW370668   7.624   1.689   6.765
17587SOL    MW470669   7.633   1.603   6.749
17588SOL     OW70670   8.631   1.106   7.175
17588SOL    HW270671   8.616   1.199   7.160
17588SOL    HW370672   8.726   1.096   7.175
17588SOL    MW470673   8.640   1.116   7.172
17589SOL     OW70674   8.427   0.530   7.376
17589SOL    HW270675   8.517   0.531   7.343
17589SOL    HW370676   8.386   0.455   7.334
17589SOL    MW470677   8.433   0.520   7.367
17590SOL     OW70678   9.002   1.062   6.503
17590SOL    HW270679   9.005   0.996   6.434
17590SOL    HW370680   9.087   1.105   6.499
17590SOL    MW470681   9.014   1.058   6.494
17591SOL     OW70682   8.622   0.665   6.072
17591SOL    HW270683   8.648   0.689   5.983
17591SOL    HW370684   8.604   0.572   6.068
17591SOL    MW470685   8.624   0.657   6.059
17592SOL     OW70686   9.287   1.285   5.923
17592SOL    HW270687   9.243   1.326   5.998
17592SOL    HW370688   9.344   1.353   5.888
17592SOL    MW470689   9.289   1.299   5.928
17593SOL     OW70690   8.207   0.334   7.326
17593SOL    HW270691   8.217   0.260   7.266
17593SOL    HW370692   8.243   0.303   7.409
17593SOL    MW470693   8.213   0.320   7.328
17594SOL     OW70694   7.943   1.701   6.241
17594SOL    HW270695   7.975   1.789   6.219
17594SOL    HW370696   7.896   1.673   6.163
17594SOL    MW470697   7.942   1.709   6.228
17595SOL     OW70698   7.659   1.761   5.818
17595SOL    HW270699   7.688   1.851   5.810
17595SOL    HW370700   7.609   1.744   5.739
17595SOL    MW470701   7.657   1.769   5.807
17596SOL     OW70702   9.063   1.569   5.789
17596SOL    HW270703   9.111   1.638   5.835
17596SOL    HW370704   8.984   1.613   5.758
17596SOL    MW470705   9.058   1.583   5.792
17597SOL     OW70706   8.461   0.694   5.733
17597SOL    HW270707   8.463   0.641   5.654
17597SOL    HW370708   8.549   0.731   5.739
17597SOL    MW470709   8.473   0.693   5.722
17598SOL     OW70710   9.075   0.620   6.069
17598SOL    HW270711   9.114   0.620   6.156
17598SOL    HW370712   9.016   0.696   6.069
17598SOL    MW470713   9.072   0.631   6.080
17599SOL     OW70714   8.392   0.987   7.198
17599SOL    HW270715   8.369   0.967   7.288
17599SOL    HW370716   8.477   1.031   7.203
17599SOL    MW470717   8.399   0.990   7.210
17600SOL     OW70718   8.561   0.613   6.792
17600SOL    HW270719   8.636   0.642   6.739
17600SOL    HW370720   8.493   0.678   6.776
17600SOL    MW470721   8.562   0.625   6.782
17601SOL     OW70722   9.111   0.581   7.069
17601SOL    HW270723   9.092   0.490   7.048
17601SOL    HW370724   9.089   0.630   6.990
17601SOL    MW470725   9.106   0.574   7.056
17602SOL     OW70726   9.253   1.675   6.973
17602SOL    HW270727   9.181   1.637   7.024
17602SOL    HW370728   9.270   1.760   7.014
17602SOL    MW470729   9.247   1.680   6.985
17603SOL     OW70730   8.967   1.133   7.251
17603SOL    HW270731   9.049   1.174   7.281
17603SOL    HW370732   8.930   1.095   7.331
17603SOL    MW470733   8.973   1.134   7.266
17604SOL     OW70734   9.262   0.506   6.235
17604SOL    HW270735   9.351   0.475   6.252
17604SOL    HW370736   9.205   0.446   6.283
17604SOL    MW470737   9.265   0.494   6.244
17605SOL     OW70738   8.631   1.313   5.825
17605SOL    HW270739   8.581   1.315   5.907
17605SOL    HW370740   8.565   1.331   5.757
17605SOL    MW470741   8.617   1.315   5.827
17606SOL     OW70742   7.635   0.393   6.627
17606SOL    HW270743   7.607   0.484   6.636
17606SOL    HW370744   7.572   0.354   6.566
17606SOL    MW470745   7.622   0.399   6.621
17607SOL     OW70746   8.094   1.731   5.933
17607SOL    HW270747   8.015   1.689   5.966
17607SOL    HW370748   8.160   1.714   6.000
17607SOL    MW470749   8.093   1.723   5.946
17608SOL     OW70750   9.222   1.251   7.330
17608SOL    HW270751   9.272   1.177   7.362
17608SOL    HW370752   9.168   1.278   7.405
17608SOL    MW470753   9.222   1.245   7.343
17609SOL     OW70754   8.230   1.146   5.640
17609SOL    HW270755   8.152   1.092   5.627
17609SOL    HW370756   8.201   1.219   5.693
17609SOL    MW470757   8.216   1.148   5.645
17610SOL     OW70758   9.356   0.886   6.832
17610SOL    HW270759   9.372   0.924   6.745
17610SOL    HW370760   9.390   0.952   6.893
17610SOL    MW470761   9.363   0.899   6.828
17611SOL     OW70762   9.148   1.595   6.501
17611SOL    HW270763   9.177   1.662   6.562
17611SOL    HW370764   9.129   1.519   6.556
17611SOL    MW470765   9.150   1.595   6.516
17612SOL     OW70766   8.811   1.662   5.708
17612SOL    HW270767   8.737   1.625   5.758
17612SOL    HW370768   8.819   1.752   5.741
17612SOL    MW470769   8.802   1.669   5.720
17613SOL     OW70770   7.619   0.668   6.797
17613SOL    HW270771   7.681   0.698   6.863
17613SOL    HW370772   7.553   0.737   6.791
17613SOL    MW470773   7.618   0.681   6.804
17614SOL     OW70774   9.035   1.336   5.650
17614SOL    HW270775   8.982   1.385   5.586
17614SOL    HW370776   9.066   1.402   5.711
17614SOL    MW470777   9.033   1.350   5.648
17615SOL     OW70778   7.714   1.777   7.249
17615SOL    HW270779   7.688   1.845   7.187
17615SOL    HW370780   7.762   1.714   7.197
17615SOL    MW470781   7.716   1.777   7.235
17616SOL     OW70782   7.766   1.096   6.756
17616SOL    HW270783   7.819   1.171   6.781
17616SOL    HW370784   7.685   1.134   6.722
17616SOL    MW470785   7.762   1.111   6.756
17617SOL     OW70786   8.306   1.000   6.744
17617SOL    HW270787   8.334   0.909   6.756
17617SOL    HW370788   8.235   0.994   6.680
17617SOL    MW470789   8.299   0.988   6.739
17618SOL     OW70790   7.621   0.865   6.162
17618SOL    HW270791   7.712   0.880   6.189
17618SOL    HW370792   7.624   0.786   6.108
17618SOL    MW470793   7.633   0.857   6.160
17619SOL     OW70794   7.857   0.573   7.416
17619SOL    HW270795   7.804   0.653   7.423
17619SOL    HW370796   7.927   0.585   7.481
17619SOL    MW470797   7.859   0.586   7.424
17620SOL     OW70798   7.927   0.647   7.162
17620SOL    HW270799   8.007   0.697   7.148
17620SOL    HW370800   7.918   0.641   7.257
17620SOL    MW470801   7.936   0.653   7.172
17621SOL     OW70802   8.248   1.797   6.536
17621SOL    HW270803   8.337   1.812   6.566
17621SOL    HW370804   8.243   1.844   6.452
17621SOL    MW470805   8.258   1.805   6.529
17622SOL     OW70806   7.629   1.477   6.201
17622SOL    HW270807   7.601   1.516   6.283
17622SOL    HW370808   7.649   1.386   6.223
17622SOL    MW470809   7.627   1.469   6.214
17623SOL     OW70810   8.462   1.520   6.236
17623SOL    HW270811   8.545   1.474   6.220
17623SOL    HW370812   8.452   1.519   6.332
17623SOL    MW470813   8.472   1.513   6.246
17624SOL     OW70814   9.294   0.665   6.550
17624SOL    HW270815   9.383   0.695   6.532
17624SOL    HW370816   9.274   0.605   6.479
17624SOL    MW470817   9.303   0.662   6.539
17625SOL     OW70818   9.145   0.844   7.430
17625SOL    HW270819   9.200   0.768   7.411
17625SOL    HW370820   9.147   0.852   7.525
17625SOL    MW470821   9.153   0.835   7.438
17626SOL     OW70822   8.195   1.577   5.641
17626SOL    HW270823   8.135   1.646   5.611
17626SOL    HW370824   8.140   1.519   5.694
17626SOL    MW470825   8.179   1.579   5.643
17627SOL     OW70826   8.633   0.222   5.864
17627SOL    HW270827   8.566   0.198   5.801
17627SOL    HW370828   8.698   0.271   5.813
17627SOL    MW470829   8.633   0.224   5.849
17628SOL     OW70830   8.440   0.406   6.949
17628SOL    HW270831   8.359   0.447   6.977
17628SOL    HW370832   8.487   0.474   6.901
17628SOL    MW470833   8.435   0.421   6.947
17629SOL     OW70834   8.700   0.744   6.572
17629SOL    HW270835   8.713   0.838   6.582
17629SOL    HW370836   8.661   0.734   6.486
17629SOL    MW470837   8.696   0.755   6.562
17630SOL     OW70838   8.152   0.939   6.376
17630SOL    HW270839   8.063   0.930   6.409
17630SOL    HW370840   8.156   1.029   6.344
17630SOL    MW470841   8.141   0.950   6.376
17631SOL     OW70842   8.951   0.522   6.371
17631SOL    HW270843   8.896   0.443   6.370
17631SOL    HW370844   8.933   0.563   6.455
17631SOL    MW470845   8.941   0.517   6.380
17632SOL     OW70846   8.570   0.726   6.328
17632SOL    HW270847   8.507   0.658   6.352
17632SOL    HW370848   8.590   0.707   6.236
17632SOL    MW470849   8.564   0.713   6.320
17633SOL     OW70850   7.826   1.621   6.030
17633SOL    HW270851   7.787   1.668   5.956
17633SOL    HW370852   7.760   1.556   6.055
17633SOL    MW470853   7.813   1.619   6.024
17634SOL     OW70854   8.318   1.030   6.054
17634SOL    HW270855   8.320   1.004   5.961
17634SOL    HW370856   8.376   0.967   6.097
17634SOL    MW470857   8.326   1.019   6.048
17635SOL     OW70858   8.871   1.590   6.826
17635SOL    HW270859   8.796   1.636   6.864
17635SOL    HW370860   8.853   1.497   6.843
17635SOL    MW470861   8.860   1.584   6.834
17636SOL     OW70862   8.875   1.798   6.256
17636SOL    HW270863   8.818   1.751   6.195
17636SOL    HW370864   8.961   1.759   6.243
17636SOL    MW470865   8.878   1.789   6.246
17637SOL     OW70866   7.633   1.208   6.321
17637SOL    HW270867   7.697   1.240   6.384
17637SOL    HW370868   7.682   1.144   6.269
17637SOL    MW470869   7.648   1.204   6.322
17638SOL     OW70870   8.133   1.284   7.303
17638SOL    HW270871   8.181   1.367   7.290
17638SOL    HW370872   8.190   1.232   7.359
17638SOL    MW470873   8.147   1.288   7.309
17639SOL     OW70874   7.709   1.526   7.443
17639SOL    HW270875   7.765   1.450   7.458
17639SOL    HW370876   7.658   1.504   7.365
17639SOL    MW470877   7.709   1.513   7.434
17640SOL     OW70878   8.808   0.378   5.722
17640SOL    HW270879   8.781   0.444   5.658
17640SOL    HW370880   8.878   0.421   5.772
17640SOL    MW470881   8.813   0.391   5.719
17641SOL     OW70882   8.981   0.934   5.864
17641SOL    HW270883   8.948   1.023   5.854
17641SOL    HW370884   8.946   0.905   5.949
17641SOL    MW470885   8.971   0.943   5.875
17642SOL     OW70886   8.594   1.363   7.052
17642SOL    HW270887   8.505   1.369   7.020
17642SOL    HW370888   8.638   1.442   7.020
17642SOL    MW470889   8.589   1.373   7.044
17643SOL     OW70890   7.911   1.521   6.693
17643SOL    HW270891   7.956   1.583   6.750
17643SOL    HW370892   7.818   1.540   6.706
17643SOL    MW470893   7.904   1.531   6.700
17644SOL     OW70894   9.351   1.050   7.047
17644SOL    HW270895   9.266   1.063   7.006
17644SOL    HW370896   9.331   1.014   7.134
17644SOL    MW470897   9.338   1.046   7.052
17645SOL     OW70898   8.333   1.589   6.801
17645SOL    HW270899   8.357   1.578   6.710
17645SOL    HW370900   8.256   1.646   6.799
17645SOL    MW470901   8.325   1.594   6.790
17646SOL     OW70902   7.975   0.972   5.656
17646SOL    HW270903   7.898   0.985   5.712
17646SOL    HW370904   7.939   0.936   5.575
17646SOL    MW470905   7.961   0.968   5.653
17647SOL     OW70906   8.628   0.945   5.899
17647SOL    HW270907   8.538   0.966   5.874
17647SOL    HW370908   8.655   1.018   5.955
17647SOL    MW470909   8.620   0.957   5.902
17648SOL     OW70910   8.128   1.294   6.591
17648SOL    HW270911   8.121   1.273   6.685
17648SOL    HW370912   8.046   1.262   6.554
17648SOL    MW470913   8.116   1.288   6.598
17649SOL     OW70914   8.992   0.304   6.993
17649SOL    HW270915   8.939   0.306   7.073
17649SOL    HW370916   8.977   0.217   6.956
17649SOL    MW470917   8.984   0.294   6.998
17650SOL     OW70918   9.328   0.228   6.866
17650SOL    HW270919   9.309   0.295   6.801
17650SOL    HW370920   9.385   0.166   6.821
17650SOL    MW470921   9.332   0.229   6.852
17651SOL     OW70922   7.574   1.386   7.254
17651SOL    HW270923   7.618   1.319   7.200
17651SOL    HW370924   7.489   1.348   7.274
17651SOL    MW470925   7.569   1.372   7.250
17652SOL     OW70926   8.015   1.301   6.055
17652SOL    HW270927   8.008   1.333   6.145
17652SOL    HW370928   7.925   1.285   6.027
17652SOL    MW470929   8.003   1.303   6.062
17653SOL     OW70930   8.610   1.694   6.964
17653SOL    HW270931   8.530   1.679   6.914
17653SOL    HW370932   8.617   1.789   6.971
17653SOL    MW470933   8.601   1.705   6.958
17654SOL     OW70934   8.724   1.659   6.454
17654SOL    HW270935   8.771   1.732   6.413
17654SOL    HW370936   8.645   1.698   6.490
17654SOL    MW470937   8.719   1.674   6.453
17655SOL     OW70938   9.132   1.754   6.729
17655SOL    HW270939   9.175   1.724   6.809
17655SOL    HW370940   9.051   1.702   6.726
17655SOL    MW470941   9.127   1.743   6.739
17656SOL     OW70942   8.217   0.718   7.436
17656SOL    HW270943   8.287   0.660   7.408
17656SOL    HW370944   8.160   0.663   7.491
17656SOL    MW470945   8.219   0.705   7.440
17657SOL     OW70946   9.004   0.930   7.069
17657SOL    HW270947   9.009   0.983   7.149
17657SOL    HW370948   8.966   0.847   7.097
17657SOL    MW470949   9.000   0.925   7.084
17658SOL     OW70950   8.018   0.585   5.769
17658SOL    HW270951   7.984   0.641   5.839
17658SOL    HW370952   8.089   0.535   5.809
17658SOL    MW470953   8.024   0.586   5.783
17659SOL     OW70954   9.114   1.336   6.591
17659SOL    HW270955   9.149   1.318   6.504
17659SOL    HW370956   9.019   1.337   6.578
17659SOL    MW470957   9.106   1.333   6.578
17660SOL     OW70958   8.543   0.984   6.960
17660SOL    HW270959   8.586   1.019   7.038
17660SOL    HW370960   8.526   1.061   6.906
17660SOL    MW470961   8.546   0.999   6.963
17661SOL     OW70962   9.074   0.471   5.833
17661SOL    HW270963   9.066   0.542   5.770
17661SOL    HW370964   9.092   0.515   5.916
17661SOL    MW470965   9.075   0.485   5.835
17662SOL     OW70966   7.693   1.188   7.122
17662SOL    HW270967   7.721   1.141   7.200
17662SOL    HW370968   7.614   1.143   7.093
17662SOL    MW470969   7.686   1.177   7.128
17663SOL     OW70970   8.201   0.515   7.089
17663SOL    HW270971   8.173   0.603   7.113
17663SOL    HW370972   8.170   0.459   7.160
17663SOL    MW470973   8.193   0.518   7.101
17664SOL     OW70974   8.743   0.733   5.808
17664SOL    HW270975   8.790   0.751   5.727
17664SOL    HW370976   8.709   0.817   5.836
17664SOL    MW470977   8.745   0.747   5.801
17665SOL     OW70978   7.856   0.911   6.302
17665SOL    HW270979   7.914   0.967   6.250
17665SOL    HW370980   7.900   0.826   6.304
17665SOL    MW470981   7.869   0.908   6.295
17666SOL     OW70982   8.478   1.475   5.630
17666SOL    HW270983   8.505   1.553   5.582
17666SOL    HW370984   8.385   1.490   5.649
17666SOL    MW470985   8.469   1.488   5.626
17667SOL     OW70986   9.342   0.998   7.317
17667SOL    HW270987   9.255   0.978   7.353
17667SOL    HW370988   9.396   0.924   7.342
17667SOL    MW470989   9.337   0.987   7.325
17668SOL     OW70990   7.563   1.511   6.474
17668SOL    HW270991   7.595   1.515   6.565
17668SOL    HW370992   7.468   1.519   6.482
17668SOL    MW470993   7.555   1.514   6.487
17669SOL     OW70994   7.518   0.637   6.021
17669SOL    HW270995   7.458   0.609   6.091
17669SOL    HW370996   7.592   0.577   6.027
17669SOL    MW470997   7.520   0.626   6.030
17670SOL     OW70998   9.086   1.849   7.455
17670SOL    HW270999   9.131   1.773   7.420
17670SOL    HW371000   9.124   1.862   7.542
17670SOL    MW471001   9.096   1.842   7.461
17671SOL     OW71002   8.686   1.368   6.181
17671SOL    HW271003   8.709   1.319   6.259
17671SOL    HW371004   8.767   1.410   6.153
17671SOL    MW471005   8.699   1.368   6.188
17672SOL     OW71006   8.727   0.552   7.337
17672SOL    HW271007   8.779   0.487   7.290
17672SOL    HW371008   8.685   0.603   7.267
17672SOL    MW471009   8.728   0.549   7.320
17673SOL     OW71010   8.826   0.347   7.198
17673SOL    HW271011   8.733   0.331   7.185
17673SOL    HW371012   8.852   0.285   7.266
17673SOL    MW471013   8.816   0.337   7.205
17674SOL     OW71014   8.135   1.736   7.083
17674SOL    HW271015   8.052   1.721   7.128
17674SOL    HW371016   8.194   1.669   7.118
17674SOL    MW471017   8.133   1.726   7.093
17675SOL     OW71018   9.192   0.443   6.708
17675SOL    HW271019   9.125   0.476   6.768
17675SOL    HW371020   9.235   0.521   6.674
17675SOL    MW471021   9.190   0.458   6.712
17676SOL     OW71022   9.370   1.163   6.678
17676SOL    HW271023   9.363   1.103   6.603
17676SOL    HW371024   9.296   1.223   6.667
17676SOL    MW471025   9.360   1.163   6.667
17677SOL     OW71026   8.752   1.025   6.596
17677SOL    HW271027   8.766   0.997   6.687
17677SOL    HW371028   8.838   1.056   6.568
17677SOL    MW471029   8.765   1.026   6.605
17678SOL     OW71030   8.835   0.520   6.875
17678SOL    HW271031   8.856   0.521   6.782
17678SOL    HW371032   8.880   0.442   6.908
17678SOL    MW471033   8.842   0.510   6.867
17679SOL     OW71034   9.328   0.651   7.417
17679SOL    HW271035   9.365   0.596   7.486
17679SOL    HW371036   9.353   0.608   7.335
17679SOL    MW471037   9.335   0.639   7.416
17680SOL     OW71038   8.875   0.949   7.468
17680SOL    HW271039   8.941   0.897   7.422
17680SOL    HW371040   8.895   0.936   7.561
17680SOL    MW471041   8.886   0.940   7.475
17681SOL     OW71042   8.886   0.810   6.095
17681SOL    HW271043   8.801   0.780   6.065
17681SOL    HW371044   8.878   0.817   6.190
17681SOL    MW471045   8.874   0.808   6.104
17682SOL     OW71046   7.962   1.273   6.826
17682SOL    HW271047   7.974   1.300   6.917
17682SOL    HW371048   7.943   1.354   6.779
17682SOL    MW471049   7.961   1.288   6.831
17683SOL     OW71050   8.100   1.745   6.811
17683SOL    HW271051   8.152   1.822   6.788
17683SOL    HW371052   8.109   1.737   6.906
17683SOL    MW471053   8.109   1.752   6.822
17684SOL     OW71054   9.002   1.330   7.043
17684SOL    HW271055   8.987   1.259   7.106
17684SOL    HW371056   9.048   1.288   6.971
17684SOL    MW471057   9.008   1.314   7.043
17685SOL     OW71058   8.076   1.061   7.160
17685SOL    HW271059   8.113   1.066   7.072
17685SOL    HW371060   8.115   1.134   7.207
17685SOL    MW471061   8.086   1.071   7.155
17686SOL     OW71062   8.256   1.104   6.972
17686SOL    HW271063   8.315   1.050   7.025
17686SOL    HW371064   8.271   1.076   6.882
17686SOL    MW471065   8.266   1.093   6.968
17687SOL     OW71066   8.259   0.476   5.821
17687SOL    HW271067   8.332   0.525   5.784
17687SOL    HW371068   8.275   0.385   5.795
17687SOL    MW471069   8.271   0.471   5.814
17688SOL     OW71070   9.067   1.593   7.144
17688SOL    HW271071   9.109   1.578   7.229
17688SOL    HW371072   9.058   1.506   7.106
17688SOL    MW471073   9.071   1.581   7.151
17689SOL     OW71074   7.734   0.985   5.919
17689SOL    HW271075   7.671   1.001   5.848
17689SOL    HW371076   7.681   0.948   5.990
17689SOL    MW471077   7.719   0.982   5.919
17690SOL     OW71078   8.090   1.339   5.778
17690SOL    HW271079   8.105   1.315   5.870
17690SOL    HW371080   7.998   1.317   5.762
17690SOL    MW471081   8.080   1.332   5.788
17691SOL     OW71082   8.629   1.570   5.930
17691SOL    HW271083   8.637   1.488   5.881
17691SOL    HW371084   8.548   1.609   5.897
17691SOL    MW471085   8.619   1.565   5.920
17692SOL     OW71086   7.888   1.728   6.499
17692SOL    HW271087   7.892   1.639   6.534
17692SOL    HW371088   7.914   1.719   6.408
17692SOL    MW471089   7.891   1.716   6.491
17693SOL     OW71090   8.505   1.206   6.742
17693SOL    HW271091   8.437   1.140   6.758
17693SOL    HW371092   8.523   1.200   6.649
17693SOL    MW471093   8.498   1.197   6.733
17694SOL     OW71094   7.594   1.481   6.993
17694SOL    HW271095   7.584   1.439   7.079
17694SOL    HW371096   7.515   1.534   6.983
17694SOL    MW471097   7.583   1.482   7.004
17695SOL     OW71098   8.149   0.781   7.183
17695SOL    HW271099   8.142   0.876   7.171
17695SOL    HW371100   8.158   0.770   7.278
17695SOL    MW471101   8.150   0.793   7.193
17696SOL     OW71102   7.870   1.296   7.441
17696SOL    HW271103   7.942   1.298   7.378
17696SOL    HW371104   7.840   1.205   7.440
17696SOL    MW471105   7.875   1.285   7.433
17697SOL     OW71106   9.154   1.589   7.392
17697SOL    HW271107   9.127   1.586   7.483
17697SOL    HW371108   9.250   1.593   7.395
17697SOL    MW471109   9.164   1.589   7.404
17698SOL     OW71110   7.965   0.451   6.376
17698SOL    HW271111   8.036   0.399   6.339
17698SOL    HW371112   7.951   0.416   6.463
17698SOL    MW471113   7.973   0.440   6.383
17699SOL     OW71114   7.520   1.786   7.448
17699SOL    HW271115   7.570   1.764   7.370
17699SOL    HW371116   7.528   1.881   7.456
17699SOL    MW471117   7.528   1.795   7.439
17700SOL     OW71118   8.281   1.544   6.452
17700SOL    HW271119   8.209   1.481   6.465
17700SOL    HW371120   8.242   1.629   6.470
17700SOL    MW471121   8.265   1.547   6.455
17701SOL     OW71122   8.601   0.392   6.100
17701SOL    HW271123   8.623   0.329   6.032
17701SOL    HW371124   8.506   0.384   6.111
17701SOL    MW471125   8.591   0.383   6.092
17702SOL     OW71126   7.517   0.549   7.175
17702SOL    HW271127   7.581   0.615   7.150
17702SOL    HW371128   7.436   0.576   7.132
17702SOL    MW471129   7.515   0.561   7.167
17703SOL     OW71130   9.255   1.456   6.132
17703SOL    HW271131   9.225   1.389   6.193
17703SOL    HW371132   9.349   1.462   6.146
17703SOL    MW471133   9.263   1.448   6.142
17704SOL     OW71134   8.811   1.133   6.062
17704SOL    HW271135   8.783   1.219   6.095
17704SOL    HW371136   8.839   1.149   5.972
17704SOL    MW471137   8.811   1.147   6.054
17705SOL     OW71138   9.326   0.935   6.537
17705SOL    HW271139   9.317   0.967   6.448
17705SOL    HW371140   9.279   0.851   6.537
17705SOL    MW471141   9.319   0.928   6.527
17706SOL     OW71142   7.702   0.775   7.116
17706SOL    HW271143   7.723   0.844   7.054
17706SOL    HW371144   7.782   0.722   7.121
17706SOL    MW471145   7.715   0.776   7.110
17707SOL     OW71146   9.238   0.866   6.238
17707SOL    HW271147   9.332   0.855   6.226
17707SOL    HW371148   9.214   0.938   6.179
17707SOL    MW471149   9.248   0.874   6.229
17708SOL     OW71150   7.687   0.790   7.383
17708SOL    HW271151   7.613   0.734   7.409
17708SOL    HW371152   7.682   0.793   7.288
17708SOL    MW471153   7.676   0.783   7.373
17709SOL     OW71154   7.853   0.077   6.833
17709SOL    HW271155   7.896   0.161   6.853
17709SOL    HW371156   7.926   0.015   6.826
17709SOL    MW471157   7.868   0.080   6.834
17710SOL     OW71158   7.894   0.744   6.011
17710SOL    HW271159   7.894   0.839   5.996
17710SOL    HW371160   7.971   0.728   6.065
17710SOL    MW471161   7.904   0.755   6.016
17711SOL     OW71162   8.670   0.603   7.075
17711SOL    HW271163   8.706   0.576   6.991
17711SOL    HW371164   8.583   0.637   7.054
17711SOL    MW471165   8.664   0.604   7.062
17712SOL     OW71166   7.653   0.475   6.300
17712SOL    HW271167   7.715   0.482   6.373
17712SOL    HW371168   7.653   0.382   6.277
17712SOL    MW471169   7.661   0.464   6.307
17713SOL     OW71170   9.200   1.815   5.832
17713SOL    HW271171   9.267   1.848   5.772
17713SOL    HW371172   9.157   1.894   5.866
17713SOL    MW471173   9.202   1.830   5.828
17714SOL     OW71174   8.335   0.736   6.784
17714SOL    HW271175   8.293   0.654   6.760
17714SOL    HW371176   8.336   0.735   6.880
17714SOL    MW471177   8.328   0.725   6.793
17715SOL     OW71178   9.006   1.869   7.183
17715SOL    HW271179   9.009   1.775   7.166
17715SOL    HW371180   9.029   1.877   7.275
17715SOL    MW471181   9.009   1.857   7.193
17716SOL     OW71182   7.522   1.047   5.758
17716SOL    HW271183   7.491   1.112   5.821
17716SOL    HW371184   7.471   0.969   5.777
17716SOL    MW471185   7.512   1.044   5.768
17717SOL     OW71186   8.966   0.798   6.350
17717SOL    HW271187   9.046   0.813   6.299
17717SOL    HW371188   8.959   0.703   6.356
17717SOL    MW471189   8.975   0.787   6.345
17718SOL     OW71190   8.106   1.847   5.700
17718SOL    HW271191   8.011   1.847   5.692
17718SOL    HW371192   8.122   1.793   5.778
17718SOL    MW471193   8.096   1.841   5.709
17719SOL     OW71194   8.416   0.724   7.047
17719SOL    HW271195   8.485   0.791   7.044
17719SOL    HW371196   8.349   0.762   7.103
17719SOL    MW471197   8.417   0.737   7.054
17720SOL     OW71198   7.834   1.024   7.295
17720SOL    HW271199   7.788   0.940   7.297
17720SOL    HW371200   7.891   1.018   7.219
17720SOL    MW471201   7.836   1.012   7.287
17721SOL     OW71202   8.951   0.667   5.615
17721SOL    HW271203   8.879   0.643   5.557
17721SOL    HW371204   9.017   0.704   5.557
17721SOL    MW471205   8.950   0.669   5.600
17722SOL     OW71206   8.085   1.399   6.296
17722SOL    HW271207   8.150   1.332   6.317
17722SOL    HW371208   8.137   1.476   6.273
17722SOL    MW471209   8.100   1.401   6.295
17723SOL     OW71210   8.346   0.564   6.426
17723SOL    HW271211   8.286   0.582   6.498
17723SOL    HW371212   8.380   0.476   6.445
17723SOL    MW471213   8.342   0.554   6.439
17724SOL     OW71214   8.571   1.147   6.445
17724SOL    HW271215   8.663   1.128   6.463
17724SOL    HW371216   8.544   1.077   6.385
17724SOL    MW471217   8.579   1.135   6.439
17725SOL     OW71218   8.364   0.967   5.800
17725SOL    HW271219   8.350   0.879   5.765
17725SOL    HW371220   8.315   1.024   5.741
17725SOL    MW471221   8.356   0.962   5.788
17726SOL     OW71222   8.845   1.385   6.541
17726SOL    HW271223   8.818   1.469   6.506
17726SOL    HW371224   8.805   1.380   6.628
17726SOL    MW471225   8.838   1.394   6.547
17727SOL     OW71226   8.764   1.333   6.809
17727SOL    HW271227   8.775   1.300   6.898
17727SOL    HW371228   8.683   1.292   6.778
17727SOL    MW471229   8.754   1.325   6.815
17728SOL     OW71230   7.777   0.691   6.579
17728SOL    HW271231   7.727   0.690   6.660
17728SOL    HW371232   7.797   0.783   6.563
17728SOL    MW471233   7.773   0.703   6.587
17729SOL     OW71234   8.844   1.455   7.341
17729SOL    HW271235   8.844   1.549   7.357
17729SOL    HW371236   8.889   1.445   7.257
17729SOL    MW471237   8.850   1.465   7.332
17730SOL     OW71238   8.372   0.736   6.016
17730SOL    HW271239   8.352   0.722   5.923
17730SOL    HW371240   8.465   0.715   6.023
17730SOL    MW471241   8.382   0.731   6.005
17731SOL     OW71242   7.699   0.359   7.320
17731SOL    HW271243   7.656   0.418   7.257
17731SOL    HW371244   7.767   0.414   7.360
17731SOL    MW471245   7.703   0.374   7.317
17732SOL     OW71246   8.811   0.979   6.865
17732SOL    HW271247   8.874   0.976   6.938
17732SOL    HW371248   8.727   0.997   6.907
17732SOL    MW471249   8.807   0.981   6.880
17733SOL     OW71250   8.355   1.694   6.054
17733SOL    HW271251   8.413   1.765   6.081
17733SOL    HW371252   8.378   1.622   6.112
17733SOL    MW471253   8.366   1.694   6.065
17734SOL     OW71254   9.235   1.192   6.363
17734SOL    HW271255   9.214   1.138   6.286
17734SOL    HW371256   9.331   1.190   6.367
17734SOL    MW471257   9.244   1.185   6.352
17735SOL     OW71258   7.927   1.337   7.106
17735SOL    HW271259   7.848   1.287   7.129
17735SOL    HW371260   7.997   1.296   7.156
17735SOL    MW471261   7.925   1.325   7.116
17736SOL     OW71262   8.935   0.623   6.625
17736SOL    HW271263   8.858   0.669   6.591
17736SOL    HW371264   8.992   0.692   6.659
17736SOL    MW471265   8.932   0.638   6.625
17737SOL     OW71266   7.601   1.482   5.827
17737SOL    HW271267   7.618   1.566   5.869
17737SOL    HW371268   7.636   1.491   5.739
17737SOL    MW471269   7.606   1.495   5.821
17738SOL     OW71270   8.873   1.571   6.044
17738SOL    HW271271   8.936   1.561   5.973
17738SOL    HW371272   8.790   1.591   5.999
17738SOL    MW471273   8.870   1.572   6.029
17739SOL     OW71274   9.102   2.639   1.252
17739SOL    HW271275   9.057   2.706   1.303
17739SOL    HW371276   9.190   2.675   1.238
17739SOL    MW471277   9.108   2.652   1.256
17740SOL     OW71278   8.030   2.890   0.486
17740SOL    HW271279   8.120   2.865   0.470
17740SOL    HW371280   8.026   2.983   0.463
17740SOL    MW471281   8.042   2.899   0.481
17741SOL     OW71282   9.146   3.593   0.628
17741SOL    HW271283   9.158   3.539   0.706
17741SOL    HW371284   9.183   3.541   0.557
17741SOL    MW471285   9.152   3.578   0.629
17742SOL     OW71286   8.525   3.478   1.629
17742SOL    HW271287   8.566   3.514   1.550
17742SOL    HW371288   8.560   3.389   1.636
17742SOL    MW471289   8.536   3.471   1.620
17743SOL     OW71290   9.082   3.033   1.233
17743SOL    HW271291   9.003   2.998   1.191
17743SOL    HW371292   9.109   3.105   1.177
17743SOL    MW471293   9.075   3.038   1.220
17744SOL     OW71294   8.314   2.346   0.499
17744SOL    HW271295   8.289   2.434   0.527
17744SOL    HW371296   8.311   2.349   0.403
17744SOL    MW471297   8.310   2.358   0.491
17745SOL     OW71298   7.756   2.374   0.427
17745SOL    HW271299   7.788   2.462   0.409
17745SOL    HW371300   7.744   2.372   0.522
17745SOL    MW471301   7.759   2.386   0.439
17746SOL     OW71302   7.834   2.787   1.328
17746SOL    HW271303   7.897   2.734   1.279
17746SOL    HW371304   7.815   2.861   1.271
17746SOL    MW471305   7.840   2.789   1.315
17747SOL     OW71306   8.155   2.129   0.514
17747SOL    HW271307   8.213   2.205   0.516
17747SOL    HW371308   8.090   2.150   0.447
17747SOL    MW471309   8.154   2.141   0.505
17748SOL     OW71310   8.242   3.056   0.689
17748SOL    HW271311   8.322   3.059   0.741
17748SOL    HW371312   8.270   3.023   0.603
17748SOL    MW471313   8.256   3.052   0.684
17749SOL     OW71314   8.267   3.397   1.592
17749SOL    HW271315   8.351   3.423   1.631
17749SOL    HW371316   8.291   3.341   1.518
17749SOL    MW471317   8.281   3.393   1.587
17750SOL     OW71318   8.019   2.560   0.680
17750SOL    HW271319   8.004   2.480   0.731
17750SOL    HW371320   8.101   2.595   0.714
17750SOL    MW471321   8.027   2.552   0.692
17751SOL     OW71322   8.356   3.246   1.365
17751SOL    HW271323   8.320   3.312   1.305
17751SOL    HW371324   8.284   3.184   1.378
17751SOL    MW471325   8.342   3.246   1.359
17752SOL     OW71326   8.161   2.386   1.057
17752SOL    HW271327   8.067   2.382   1.075
17752SOL    HW371328   8.191   2.295   1.066
17752SOL    MW471329   8.152   2.374   1.060
17753SOL     OW71330   7.907   2.800   0.961
17753SOL    HW271331   7.862   2.807   0.877
17753SOL    HW371332   7.887   2.883   1.005
17753SOL    MW471333   7.899   2.812   0.955
17754SOL     OW71334   7.604   3.646   0.836
17754SOL    HW271335   7.693   3.638   0.871
17754SOL    HW371336   7.568   3.558   0.841
17754SOL    MW471337   7.611   3.633   0.841
17755SOL     OW71338   7.868   3.173   0.871
17755SOL    HW271339   7.844   3.226   0.947
17755SOL    HW371340   7.924   3.231   0.819
17755SOL    MW471341   7.872   3.188   0.874
17756SOL     OW71342   8.430   2.817   0.681
17756SOL    HW271343   8.344   2.804   0.721
17756SOL    HW371344   8.483   2.744   0.713
17756SOL    MW471345   8.426   2.806   0.690
17757SOL     OW71346   7.838   3.469   1.466
17757SOL    HW271347   7.746   3.445   1.451
17757SOL    HW371348   7.882   3.386   1.483
17757SOL    MW471349   7.832   3.454   1.465
17758SOL     OW71350   8.421   3.179   0.398
17758SOL    HW271351   8.398   3.241   0.466
17758SOL    HW371352   8.378   3.097   0.424
17758SOL    MW471353   8.413   3.175   0.409
17759SOL     OW71354   9.294   2.180   0.854
17759SOL    HW271355   9.231   2.160   0.923
17759SOL    HW371356   9.284   2.109   0.791
17759SOL    MW471357   9.284   2.167   0.855
17760SOL     OW71358   9.095   2.952   0.506
17760SOL    HW271359   9.005   2.952   0.541
17760SOL    HW371360   9.088   2.998   0.423
17760SOL    MW471361   9.082   2.958   0.500
17761SOL     OW71362   8.895   2.587   1.578
17761SOL    HW271363   8.964   2.525   1.555
17761SOL    HW371364   8.820   2.561   1.525
17761SOL    MW471365   8.895   2.574   1.569
17762SOL     OW71366   7.636   3.467   1.130
17762SOL    HW271367   7.619   3.413   1.207
17762SOL    HW371368   7.624   3.557   1.160
17762SOL    MW471369   7.633   3.471   1.144
17763SOL     OW71370   8.631   2.974   1.570
17763SOL    HW271371   8.616   3.067   1.555
17763SOL    HW371372   8.726   2.964   1.570
17763SOL    MW471373   8.640   2.984   1.567
17764SOL     OW71374   8.427   2.398   1.771
17764SOL    HW271375   8.517   2.399   1.738
17764SOL    HW371376   8.386   2.323   1.729
17764SOL    MW471377   8.433   2.388   1.762
17765SOL     OW71378   9.002   2.930   0.898
17765SOL    HW271379   9.005   2.864   0.829
17765SOL    HW371380   9.087   2.973   0.894
17765SOL    MW471381   9.014   2.926   0.889
17766SOL     OW71382   8.622   2.533   0.467
17766SOL    HW271383   8.648   2.557   0.378
17766SOL    HW371384   8.604   2.440   0.463
17766SOL    MW471385   8.624   2.525   0.454
17767SOL     OW71386   9.287   3.153   0.318
17767SOL    HW271387   9.243   3.194   0.393
17767SOL    HW371388   9.344   3.221   0.283
17767SOL    MW471389   9.289   3.167   0.323
17768SOL     OW71390   8.207   2.202   1.721
17768SOL    HW271391   8.217   2.128   1.661
17768SOL    HW371392   8.243   2.171   1.804
17768SOL    MW471393   8.213   2.188   1.723
17769SOL     OW71394   7.943   3.569   0.636
17769SOL    HW271395   7.975   3.657   0.614
17769SOL    HW371396   7.896   3.541   0.558
17769SOL    MW471397   7.942   3.577   0.623
17770SOL     OW71398   9.327   1.931   0.685
17770SOL    HW271399   9.381   1.882   0.747
17770SOL    HW371400   9.270   1.865   0.646
17770SOL    MW471401   9.327   1.915   0.687
17771SOL     OW71402   8.446   1.884   1.098
17771SOL    HW271403   8.405   1.962   1.060
17771SOL    HW371404   8.540   1.902   1.093
17771SOL    MW471405   8.452   1.896   1.093
17772SOL     OW71406   8.461   2.562   0.128
17772SOL    HW271407   8.463   2.509   0.049
17772SOL    HW371408   8.549   2.599   0.134
17772SOL    MW471409   8.473   2.561   0.117
17773SOL     OW71410   9.075   2.488   0.464
17773SOL    HW271411   9.114   2.488   0.551
17773SOL    HW371412   9.016   2.564   0.464
17773SOL    MW471413   9.072   2.499   0.475
17774SOL     OW71414   8.392   2.855   1.593
17774SOL    HW271415   8.369   2.835   1.683
17774SOL    HW371416   8.477   2.899   1.598
17774SOL    MW471417   8.399   2.858   1.605
17775SOL     OW71418   8.472   1.992   1.353
17775SOL    HW271419   8.478   1.954   1.266
17775SOL    HW371420   8.461   2.086   1.338
17775SOL    MW471421   8.473   2.000   1.341
17776SOL     OW71422   8.561   2.481   1.187
17776SOL    HW271423   8.636   2.510   1.134
17776SOL    HW371424   8.493   2.546   1.171
17776SOL    MW471425   8.562   2.493   1.177
17777SOL     OW71426   9.111   2.449   1.464
17777SOL    HW271427   9.092   2.358   1.443
17777SOL    HW371428   9.089   2.498   1.385
17777SOL    MW471429   9.106   2.442   1.451
17778SOL     OW71430   9.253   3.543   1.368
17778SOL    HW271431   9.181   3.505   1.419
17778SOL    HW371432   9.270   3.628   1.409
17778SOL    MW471433   9.247   3.548   1.380
17779SOL     OW71434   8.558   2.187   1.570
17779SOL    HW271435   8.524   2.226   1.489
17779SOL    HW371436   8.536   2.095   1.563
17779SOL    MW471437   8.551   2.180   1.560
17780SOL     OW71438   8.967   3.001   1.646
17780SOL    HW271439   9.049   3.042   1.676
17780SOL    HW371440   8.930   2.963   1.726
17780SOL    MW471441   8.973   3.002   1.661
17781SOL     OW71442   9.262   2.374   0.630
17781SOL    HW271443   9.351   2.343   0.647
17781SOL    HW371444   9.205   2.314   0.678
17781SOL    MW471445   9.265   2.362   0.639
17782SOL     OW71446   7.688   2.088   0.659
17782SOL    HW271447   7.679   2.028   0.585
17782SOL    HW371448   7.621   2.059   0.722
17782SOL    MW471449   7.678   2.075   0.657
17783SOL     OW71450   7.635   2.261   1.022
17783SOL    HW271451   7.607   2.352   1.031
17783SOL    HW371452   7.572   2.222   0.961
17783SOL    MW471453   7.622   2.267   1.016
17784SOL     OW71454   9.222   3.119   1.725
17784SOL    HW271455   9.272   3.045   1.757
17784SOL    HW371456   9.168   3.146   1.800
17784SOL    MW471457   9.222   3.113   1.738
17785SOL     OW71458   9.356   2.754   1.227
17785SOL    HW271459   9.372   2.792   1.140
17785SOL    HW371460   9.390   2.820   1.288
17785SOL    MW471461   9.363   2.767   1.223
17786SOL     OW71462   9.148   3.463   0.896
17786SOL    HW271463   9.177   3.530   0.957
17786SOL    HW371464   9.129   3.387   0.951
17786SOL    MW471465   9.150   3.463   0.911
17787SOL     OW71466   7.619   2.536   1.192
17787SOL    HW271467   7.681   2.566   1.258
17787SOL    HW371468   7.553   2.605   1.186
17787SOL    MW471469   7.618   2.549   1.199
17788SOL     OW71470   7.714   3.645   1.644
17788SOL    HW271471   7.688   3.713   1.582
17788SOL    HW371472   7.762   3.582   1.592
17788SOL    MW471473   7.716   3.645   1.630
17789SOL     OW71474   7.766   2.964   1.151
17789SOL    HW271475   7.819   3.039   1.176
17789SOL    HW371476   7.685   3.002   1.117
17789SOL    MW471477   7.762   2.979   1.151
17790SOL     OW71478   8.306   2.868   1.139
17790SOL    HW271479   8.334   2.777   1.151
17790SOL    HW371480   8.235   2.862   1.075
17790SOL    MW471481   8.299   2.856   1.134
17791SOL     OW71482   7.621   2.733   0.557
17791SOL    HW271483   7.712   2.748   0.584
17791SOL    HW371484   7.624   2.654   0.503
17791SOL    MW471485   7.633   2.725   0.555
17792SOL     OW71486   7.857   2.441   1.811
17792SOL    HW271487   7.804   2.521   1.818
17792SOL    HW371488   7.927   2.453   1.876
17792SOL    MW471489   7.859   2.454   1.819
17793SOL     OW71490   8.243   1.991   1.518
17793SOL    HW271491   8.220   1.899   1.520
17793SOL    HW371492   8.329   1.993   1.475
17793SOL    MW471493   8.250   1.981   1.514
17794SOL     OW71494   7.927   2.515   1.557
17794SOL    HW271495   8.007   2.565   1.543
17794SOL    HW371496   7.918   2.509   1.652
17794SOL    MW471497   7.936   2.521   1.567
17795SOL     OW71498   8.248   3.665   0.931
17795SOL    HW271499   8.337   3.680   0.961
17795SOL    HW371500   8.243   3.712   0.847
17795SOL    MW471501   8.258   3.673   0.924
17796SOL     OW71502   8.904   2.040   1.828
17796SOL    HW271503   8.960   1.967   1.854
17796SOL    HW371504   8.874   2.078   1.910
17796SOL    MW471505   8.908   2.035   1.841
17797SOL     OW71506   7.629   3.345   0.596
17797SOL    HW271507   7.601   3.384   0.678
17797SOL    HW371508   7.649   3.254   0.618
17797SOL    MW471509   7.627   3.337   0.609
17798SOL     OW71510   8.462   3.388   0.631
17798SOL    HW271511   8.545   3.342   0.615
17798SOL    HW371512   8.452   3.387   0.727
17798SOL    MW471513   8.472   3.381   0.641
17799SOL     OW71514   9.294   2.533   0.945
17799SOL    HW271515   9.383   2.563   0.927
17799SOL    HW371516   9.274   2.473   0.874
17799SOL    MW471517   9.303   2.530   0.934
17800SOL     OW71518   9.145   2.712   1.825
17800SOL    HW271519   9.200   2.636   1.806
17800SOL    HW371520   9.147   2.720   1.920
17800SOL    MW471521   9.153   2.703   1.833
17801SOL     OW71522   8.633   2.090   0.259
17801SOL    HW271523   8.566   2.066   0.196
17801SOL    HW371524   8.698   2.139   0.208
17801SOL    MW471525   8.633   2.092   0.244
17802SOL     OW71526   8.440   2.274   1.344
17802SOL    HW271527   8.359   2.315   1.372
17802SOL    HW371528   8.487   2.342   1.296
17802SOL    MW471529   8.435   2.289   1.342
17803SOL     OW71530   8.700   2.612   0.967
17803SOL    HW271531   8.713   2.706   0.977
17803SOL    HW371532   8.661   2.602   0.881
17803SOL    MW471533   8.696   2.623   0.957
17804SOL     OW71534   8.152   2.807   0.771
17804SOL    HW271535   8.063   2.798   0.804
17804SOL    HW371536   8.156   2.897   0.739
17804SOL    MW471537   8.141   2.818   0.771
17805SOL     OW71538   8.951   2.390   0.766
17805SOL    HW271539   8.896   2.311   0.765
17805SOL    HW371540   8.933   2.431   0.850
17805SOL    MW471541   8.941   2.385   0.775
17806SOL     OW71542   7.922   2.077   1.583
17806SOL    HW271543   7.843   2.095   1.635
17806SOL    HW371544   7.917   2.139   1.510
17806SOL    MW471545   7.912   2.087   1.580
17807SOL     OW71546   8.570   2.594   0.723
17807SOL    HW271547   8.507   2.526   0.747
17807SOL    HW371548   8.590   2.575   0.631
17807SOL    MW471549   8.564   2.581   0.715
17808SOL     OW71550   8.318   2.898   0.449
17808SOL    HW271551   8.320   2.872   0.356
17808SOL    HW371552   8.376   2.835   0.492
17808SOL    MW471553   8.326   2.887   0.443
17809SOL     OW71554   8.871   3.458   1.221
17809SOL    HW271555   8.796   3.504   1.259
17809SOL    HW371556   8.853   3.365   1.238
17809SOL    MW471557   8.860   3.452   1.229
17810SOL     OW71558   8.875   3.666   0.651
17810SOL    HW271559   8.818   3.619   0.590
17810SOL    HW371560   8.961   3.627   0.638
17810SOL    MW471561   8.878   3.657   0.641
17811SOL     OW71562   8.828   2.142   0.782
17811SOL    HW271563   8.856   2.074   0.843
17811SOL    HW371564   8.742   2.113   0.752
17811SOL    MW471565   8.821   2.129   0.786
17812SOL     OW71566   7.633   3.076   0.716
17812SOL    HW271567   7.697   3.108   0.779
17812SOL    HW371568   7.682   3.012   0.664
17812SOL    MW471569   7.648   3.072   0.717
17813SOL     OW71570   8.133   3.152   1.698
17813SOL    HW271571   8.181   3.235   1.685
17813SOL    HW371572   8.190   3.100   1.754
17813SOL    MW471573   8.147   3.156   1.704
17814SOL     OW71574   7.709   3.394   1.838
17814SOL    HW271575   7.765   3.318   1.853
17814SOL    HW371576   7.658   3.372   1.760
17814SOL    MW471577   7.709   3.381   1.829
17815SOL     OW71578   8.594   3.231   1.447
17815SOL    HW271579   8.505   3.237   1.415
17815SOL    HW371580   8.638   3.310   1.415
17815SOL    MW471581   8.589   3.241   1.439
17816SOL     OW71582   7.887   1.899   1.789
17816SOL    HW271583   7.815   1.864   1.737
17816SOL    HW371584   7.945   1.940   1.724
17816SOL    MW471585   7.885   1.900   1.774
17817SOL     OW71586   7.911   3.389   1.088
17817SOL    HW271587   7.956   3.451   1.145
17817SOL    HW371588   7.818   3.408   1.101
17817SOL    MW471589   7.904   3.399   1.095
17818SOL     OW71590   9.351   2.918   1.442
17818SOL    HW271591   9.266   2.931   1.401
17818SOL    HW371592   9.331   2.882   1.529
17818SOL    MW471593   9.338   2.914   1.447
17819SOL     OW71594   8.333   3.457   1.196
17819SOL    HW271595   8.357   3.446   1.105
17819SOL    HW371596   8.256   3.514   1.194
17819SOL    MW471597   8.325   3.462   1.185
17820SOL     OW71598   8.628   2.813   0.294
17820SOL    HW271599   8.538   2.834   0.269
17820SOL    HW371600   8.655   2.886   0.350
17820SOL    MW471601   8.620   2.825   0.297
17821SOL     OW71602   8.128   3.162   0.986
17821SOL    HW271603   8.121   3.141   1.080
17821SOL    HW371604   8.046   3.130   0.949
17821SOL    MW471605   8.116   3.156   0.993
17822SOL     OW71606   8.992   2.172   1.388
17822SOL    HW271607   8.939   2.174   1.468
17822SOL    HW371608   8.977   2.085   1.351
17822SOL    MW471609   8.984   2.162   1.393
17823SOL     OW71610   9.328   2.096   1.261
17823SOL    HW271611   9.309   2.163   1.196
17823SOL    HW371612   9.385   2.034   1.216
17823SOL    MW471613   9.332   2.097   1.247
17824SOL     OW71614   7.574   3.254   1.649
17824SOL    HW271615   7.618   3.187   1.595
17824SOL    HW371616   7.489   3.216   1.669
17824SOL    MW471617   7.569   3.240   1.645
17825SOL     OW71618   8.257   1.929   0.701
17825SOL    HW271619   8.186   1.990   0.683
17825SOL    HW371620   8.308   1.926   0.620
17825SOL    MW471621   8.253   1.935   0.688
17826SOL     OW71622   8.610   3.562   1.359
17826SOL    HW271623   8.530   3.547   1.309
17826SOL    HW371624   8.617   3.657   1.366
17826SOL    MW471625   8.601   3.573   1.353
17827SOL     OW71626   8.724   3.527   0.849
17827SOL    HW271627   8.771   3.600   0.808
17827SOL    HW371628   8.645   3.566   0.885
17827SOL    MW471629   8.719   3.542   0.848
17828SOL     OW71630   9.132   3.622   1.124
17828SOL    HW271631   9.175   3.592   1.204
17828SOL    HW371632   9.051   3.570   1.121
17828SOL    MW471633   9.127   3.611   1.134
17829SOL     OW71634   8.217   2.586   1.831
17829SOL    HW271635   8.287   2.528   1.803
17829SOL    HW371636   8.160   2.531   1.886
17829SOL    MW471637   8.219   2.573   1.835
17830SOL     OW71638   9.004   2.798   1.464
17830SOL    HW271639   9.009   2.851   1.544
17830SOL    HW371640   8.966   2.715   1.492
17830SOL    MW471641   9.000   2.793   1.479
17831SOL     OW71642   8.644   1.933   1.710
17831SOL    HW271643   8.639   1.840   1.691
17831SOL    HW371644   8.727   1.944   1.756
17831SOL    MW471645   8.652   1.922   1.714
17832SOL     OW71646   9.114   3.204   0.986
17832SOL    HW271647   9.149   3.186   0.899
17832SOL    HW371648   9.019   3.205   0.973
17832SOL    MW471649   9.106   3.201   0.973
17833SOL     OW71650   8.543   2.852   1.355
17833SOL    HW271651   8.586   2.887   1.433
17833SOL    HW371652   8.526   2.929   1.301
17833SOL    MW471653   8.546   2.867   1.358
17834SOL     OW71654   7.934   1.994   0.657
17834SOL    HW271655   7.984   2.037   0.588
17834SOL    HW371656   7.849   2.038   0.657
17834SOL    MW471657   7.931   2.007   0.648
17835SOL     OW71658   7.693   3.056   1.517
17835SOL    HW271659   7.721   3.009   1.595
17835SOL    HW371660   7.614   3.011   1.488
17835SOL    MW471661   7.686   3.045   1.523
17836SOL     OW71662   8.201   2.383   1.484
17836SOL    HW271663   8.173   2.471   1.508
17836SOL    HW371664   8.170   2.327   1.555
17836SOL    MW471665   8.193   2.386   1.496
17837SOL     OW71666   7.856   2.779   0.697
17837SOL    HW271667   7.914   2.835   0.645
17837SOL    HW371668   7.900   2.694   0.699
17837SOL    MW471669   7.869   2.776   0.690
17838SOL     OW71670   8.996   2.131   0.534
17838SOL    HW271671   8.918   2.081   0.559
17838SOL    HW371672   8.967   2.222   0.534
17838SOL    MW471673   8.982   2.135   0.537
17839SOL     OW71674   8.582   2.093   0.693
17839SOL    HW271675   8.602   2.168   0.637
17839SOL    HW371676   8.562   2.132   0.778
17839SOL    MW471677   8.583   2.109   0.697
17840SOL     OW71678   9.342   2.866   1.712
17840SOL    HW271679   9.255   2.846   1.748
17840SOL    HW371680   9.396   2.792   1.737
17840SOL    MW471681   9.337   2.855   1.720
17841SOL     OW71682   7.563   3.379   0.869
17841SOL    HW271683   7.595   3.383   0.960
17841SOL    HW371684   7.468   3.387   0.877
17841SOL    MW471685   7.555   3.382   0.882
17842SOL     OW71686   7.518   2.505   0.416
17842SOL    HW271687   7.458   2.477   0.486
17842SOL    HW371688   7.592   2.445   0.422
17842SOL    MW471689   7.520   2.494   0.425
17843SOL     OW71690   9.086   3.717   1.850
17843SOL    HW271691   9.131   3.641   1.815
17843SOL    HW371692   9.124   3.730   1.937
17843SOL    MW471693   9.096   3.710   1.856
17844SOL     OW71694   8.686   3.236   0.576
17844SOL    HW271695   8.709   3.187   0.654
17844SOL    HW371696   8.767   3.278   0.548
17844SOL    MW471697   8.699   3.236   0.583
17845SOL     OW71698   7.944   2.244   1.305
17845SOL    HW271699   7.977   2.325   1.345
17845SOL    HW371700   7.917   2.270   1.217
17845SOL    MW471701   7.943   2.258   1.299
17846SOL     OW71702   7.898   2.211   1.041
17846SOL    HW271703   7.928   2.125   1.012
17846SOL    HW371704   7.803   2.204   1.044
17846SOL    MW471705   7.890   2.200   1.039
17847SOL     OW71706   8.727   2.420   1.732
17847SOL    HW271707   8.779   2.355   1.685
17847SOL    HW371708   8.685   2.471   1.662
17847SOL    MW471709   8.728   2.417   1.715
17848SOL     OW71710   8.826   2.215   1.593
17848SOL    HW271711   8.733   2.199   1.580
17848SOL    HW371712   8.852   2.153   1.661
17848SOL    MW471713   8.816   2.205   1.600
17849SOL     OW71714   8.041   1.989   0.932
17849SOL    HW271715   8.051   1.898   0.958
17849SOL    HW371716   7.997   1.985   0.847
17849SOL    MW471717   8.037   1.977   0.924
17850SOL     OW71718   8.135   3.604   1.478
17850SOL    HW271719   8.052   3.589   1.523
17850SOL    HW371720   8.194   3.537   1.513
17850SOL    MW471721   8.133   3.594   1.488
17851SOL     OW71722   9.192   2.311   1.103
17851SOL    HW271723   9.125   2.344   1.163
17851SOL    HW371724   9.235   2.389   1.069
17851SOL    MW471725   9.190   2.326   1.107
17852SOL     OW71726   9.370   3.031   1.073
17852SOL    HW271727   9.363   2.971   0.998
17852SOL    HW371728   9.296   3.091   1.062
17852SOL    MW471729   9.360   3.031   1.062
17853SOL     OW71730   8.752   2.893   0.991
17853SOL    HW271731   8.766   2.865   1.082
17853SOL    HW371732   8.838   2.924   0.963
17853SOL    MW471733   8.765   2.894   1.000
17854SOL     OW71734   8.835   2.388   1.270
17854SOL    HW271735   8.856   2.389   1.177
17854SOL    HW371736   8.880   2.310   1.303
17854SOL    MW471737   8.842   2.378   1.262
17855SOL     OW71738   9.328   2.519   1.812
17855SOL    HW271739   9.365   2.464   1.881
17855SOL    HW371740   9.353   2.476   1.730
17855SOL    MW471741   9.335   2.507   1.811
17856SOL     OW71742   8.875   2.817   1.863
17856SOL    HW271743   8.941   2.765   1.817
17856SOL    HW371744   8.895   2.804   1.956
17856SOL    MW471745   8.886   2.808   1.870
17857SOL     OW71746   8.886   2.678   0.490
17857SOL    HW271747   8.801   2.648   0.460
17857SOL    HW371748   8.878   2.685   0.585
17857SOL    MW471749   8.874   2.676   0.499
17858SOL     OW71750   7.962   3.141   1.221
17858SOL    HW271751   7.974   3.168   1.312
17858SOL    HW371752   7.943   3.222   1.174
17858SOL    MW471753   7.961   3.156   1.226
17859SOL     OW71754   8.246   2.121   1.044
17859SOL    HW271755   8.219   2.123   1.135
17859SOL    HW371756   8.176   2.073   0.999
17859SOL    MW471757   8.234   2.117   1.051
17860SOL     OW71758   8.100   3.613   1.206
17860SOL    HW271759   8.152   3.690   1.183
17860SOL    HW371760   8.109   3.605   1.301
17860SOL    MW471761   8.109   3.620   1.217
17861SOL     OW71762   9.002   3.198   1.438
17861SOL    HW271763   8.987   3.127   1.501
17861SOL    HW371764   9.048   3.156   1.366
17861SOL    MW471765   9.008   3.182   1.438
17862SOL     OW71766   8.076   2.929   1.555
17862SOL    HW271767   8.113   2.934   1.467
17862SOL    HW371768   8.115   3.002   1.602
17862SOL    MW471769   8.086   2.939   1.550
17863SOL     OW71770   8.256   2.972   1.367
17863SOL    HW271771   8.315   2.918   1.420
17863SOL    HW371772   8.271   2.944   1.277
17863SOL    MW471773   8.266   2.961   1.363
17864SOL     OW71774   9.067   3.461   1.539
17864SOL    HW271775   9.109   3.446   1.624
17864SOL    HW371776   9.058   3.374   1.501
17864SOL    MW471777   9.071   3.449   1.546
17865SOL     OW71778   8.727   1.940   1.130
17865SOL    HW271779   8.782   1.949   1.052
17865SOL    HW371780   8.782   1.974   1.201
17865SOL    MW471781   8.741   1.945   1.129
17866SOL     OW71782   8.629   3.438   0.325
17866SOL    HW271783   8.637   3.356   0.276
17866SOL    HW371784   8.548   3.477   0.292
17866SOL    MW471785   8.619   3.433   0.315
17867SOL     OW71786   7.888   3.596   0.894
17867SOL    HW271787   7.892   3.507   0.929
17867SOL    HW371788   7.914   3.587   0.803
17867SOL    MW471789   7.891   3.584   0.886
17868SOL     OW71790   8.505   3.074   1.137
17868SOL    HW271791   8.437   3.008   1.153
17868SOL    HW371792   8.523   3.068   1.044
17868SOL    MW471793   8.498   3.065   1.128
17869SOL     OW71794   7.594   3.349   1.388
17869SOL    HW271795   7.584   3.307   1.474
17869SOL    HW371796   7.515   3.402   1.378
17869SOL    MW471797   7.583   3.350   1.399
17870SOL     OW71798   8.498   2.213   0.958
17870SOL    HW271799   8.428   2.165   1.003
17870SOL    HW371800   8.530   2.276   1.022
17870SOL    MW471801   8.493   2.215   0.972
17871SOL     OW71802   8.149   2.649   1.578
17871SOL    HW271803   8.142   2.744   1.566
17871SOL    HW371804   8.158   2.638   1.673
17871SOL    MW471805   8.150   2.661   1.588
17872SOL     OW71806   7.870   3.164   1.836
17872SOL    HW271807   7.942   3.166   1.773
17872SOL    HW371808   7.840   3.073   1.835
17872SOL    MW471809   7.875   3.153   1.828
17873SOL     OW71810   8.954   1.927   1.303
17873SOL    HW271811   9.025   1.873   1.267
17873SOL    HW371812   8.953   1.906   1.396
17873SOL    MW471813   8.963   1.918   1.311
17874SOL     OW71814   9.154   3.457   1.787
17874SOL    HW271815   9.127   3.454   1.878
17874SOL    HW371816   9.250   3.461   1.790
17874SOL    MW471817   9.164   3.457   1.799
17875SOL     OW71818   7.965   2.319   0.771
17875SOL    HW271819   8.036   2.267   0.734
17875SOL    HW371820   7.951   2.284   0.858
17875SOL    MW471821   7.973   2.308   0.778
17876SOL     OW71822   7.520   3.654   1.843
17876SOL    HW271823   7.570   3.632   1.765
17876SOL    HW371824   7.528   3.749   1.851
17876SOL    MW471825   7.528   3.663   1.834
17877SOL     OW71826   8.281   3.412   0.847
17877SOL    HW271827   8.209   3.349   0.860
17877SOL    HW371828   8.242   3.497   0.865
17877SOL    MW471829   8.265   3.415   0.850
17878SOL     OW71830   8.601   2.260   0.495
17878SOL    HW271831   8.623   2.197   0.427
17878SOL    HW371832   8.506   2.252   0.506
17878SOL    MW471833   8.591   2.251   0.487
17879SOL     OW71834   7.686   1.950   0.427
17879SOL    HW271835   7.757   1.971   0.366
17879SOL    HW371836   7.640   1.878   0.385
17879SOL    MW471837   7.690   1.944   0.413
17880SOL     OW71838   7.517   2.417   1.570
17880SOL    HW271839   7.581   2.483   1.545
17880SOL    HW371840   7.436   2.444   1.527
17880SOL    MW471841   7.515   2.429   1.562
17881SOL     OW71842   9.255   3.324   0.527
17881SOL    HW271843   9.225   3.257   0.588
17881SOL    HW371844   9.349   3.330   0.541
17881SOL    MW471845   9.263   3.316   0.537
17882SOL     OW71846   8.811   3.001   0.457
17882SOL    HW271847   8.783   3.087   0.490
17882SOL    HW371848   8.839   3.017   0.367
17882SOL    MW471849   8.811   3.015   0.449
17883SOL     OW71850   8.473   1.921   0.510
17883SOL    HW271851   8.510   1.980   0.575
17883SOL    HW371852   8.450   1.977   0.436
17883SOL    MW471853   8.474   1.936   0.509
17884SOL     OW71854   9.326   2.803   0.932
17884SOL    HW271855   9.317   2.835   0.843
17884SOL    HW371856   9.279   2.719   0.932
17884SOL    MW471857   9.319   2.796   0.922
17885SOL     OW71858   7.702   2.643   1.511
17885SOL    HW271859   7.723   2.712   1.449
17885SOL    HW371860   7.782   2.590   1.516
17885SOL    MW471861   7.715   2.644   1.505
17886SOL     OW71862   9.238   2.734   0.633
17886SOL    HW271863   9.332   2.723   0.621
17886SOL    HW371864   9.214   2.806   0.574
17886SOL    MW471865   9.248   2.742   0.624
17887SOL     OW71866   7.687   2.658   1.778
17887SOL    HW271867   7.613   2.602   1.804
17887SOL    HW371868   7.682   2.661   1.683
17887SOL    MW471869   7.676   2.651   1.768
17888SOL     OW71870   7.853   1.945   1.228
17888SOL    HW271871   7.896   2.029   1.248
17888SOL    HW371872   7.926   1.883   1.221
17888SOL    MW471873   7.868   1.948   1.229
17889SOL     OW71874   7.894   2.612   0.406
17889SOL    HW271875   7.894   2.707   0.391
17889SOL    HW371876   7.971   2.596   0.460
17889SOL    MW471877   7.904   2.623   0.411
17890SOL     OW71878   8.670   2.471   1.470
17890SOL    HW271879   8.706   2.444   1.386
17890SOL    HW371880   8.583   2.505   1.449
17890SOL    MW471881   8.664   2.472   1.457
17891SOL     OW71882   7.653   2.343   0.695
17891SOL    HW271883   7.715   2.350   0.768
17891SOL    HW371884   7.653   2.250   0.672
17891SOL    MW471885   7.661   2.332   0.702
17892SOL     OW71886   8.335   2.604   1.179
17892SOL    HW271887   8.293   2.522   1.155
17892SOL    HW371888   8.336   2.603   1.275
17892SOL    MW471889   8.328   2.593   1.188
17893SOL     OW71890   9.006   3.737   1.578
17893SOL    HW271891   9.009   3.643   1.561
17893SOL    HW371892   9.029   3.745   1.670
17893SOL    MW471893   9.009   3.725   1.588
17894SOL     OW71894   8.139   2.074   1.284
17894SOL    HW271895   8.070   2.137   1.305
17894SOL    HW371896   8.166   2.038   1.369
17894SOL    MW471897   8.133   2.077   1.297
17895SOL     OW71898   8.934   1.927   0.901
17895SOL    HW271899   9.022   1.936   0.938
17895SOL    HW371900   8.944   1.868   0.827
17895SOL    MW471901   8.948   1.921   0.895
17896SOL     OW71902   8.966   2.666   0.745
17896SOL    HW271903   9.046   2.681   0.694
17896SOL    HW371904   8.959   2.571   0.751
17896SOL    MW471905   8.975   2.655   0.740
17897SOL     OW71906   8.416   2.592   1.442
17897SOL    HW271907   8.485   2.659   1.439
17897SOL    HW371908   8.349   2.630   1.498
17897SOL    MW471909   8.417   2.605   1.449
17898SOL     OW71910   7.834   2.892   1.690
17898SOL    HW271911   7.788   2.808   1.692
17898SOL    HW371912   7.891   2.886   1.614
17898SOL    MW471913   7.836   2.880   1.682
17899SOL     OW71914   8.085   3.267   0.691
17899SOL    HW271915   8.150   3.200   0.712
17899SOL    HW371916   8.137   3.344   0.668
17899SOL    MW471917   8.100   3.269   0.690
17900SOL     OW71918   8.346   2.432   0.821
17900SOL    HW271919   8.286   2.450   0.893
17900SOL    HW371920   8.380   2.344   0.840
17900SOL    MW471921   8.342   2.422   0.834
17901SOL     OW71922   9.287   1.931   1.490
17901SOL    HW271923   9.208   1.977   1.518
17901SOL    HW371924   9.322   1.985   1.419
17901SOL    MW471925   9.281   1.944   1.484
17902SOL     OW71926   8.571   3.015   0.840
17902SOL    HW271927   8.663   2.996   0.858
17902SOL    HW371928   8.544   2.945   0.780
17902SOL    MW471929   8.579   3.003   0.834
17903SOL     OW71930   8.845   3.253   0.936
17903SOL    HW271931   8.818   3.337   0.901
17903SOL    HW371932   8.805   3.248   1.023
17903SOL    MW471933   8.838   3.262   0.942
17904SOL     OW71934   8.764   3.201   1.204
17904SOL    HW271935   8.775   3.168   1.293
17904SOL    HW371936   8.683   3.160   1.173
17904SOL    MW471937   8.754   3.193   1.210
17905SOL     OW71938   7.777   2.559   0.974
17905SOL    HW271939   7.727   2.558   1.055
17905SOL    HW371940   7.797   2.651   0.958
17905SOL    MW471941   7.773   2.571   0.982
17906SOL     OW71942   8.844   3.323   1.736
17906SOL    HW271943   8.844   3.417   1.752
17906SOL    HW371944   8.889   3.313   1.652
17906SOL    MW471945   8.850   3.333   1.727
17907SOL     OW71946   8.372   2.604   0.411
17907SOL    HW271947   8.352   2.590   0.318
17907SOL    HW371948   8.465   2.583   0.418
17907SOL    MW471949   8.382   2.599   0.400
17908SOL     OW71950   7.699   2.227   1.715
17908SOL    HW271951   7.656   2.286   1.652
17908SOL    HW371952   7.767   2.282   1.755
17908SOL    MW471953   7.703   2.242   1.712
17909SOL     OW71954   8.811   2.847   1.260
17909SOL    HW271955   8.874   2.844   1.333
17909SOL    HW371956   8.727   2.865   1.302
17909SOL    MW471957   8.807   2.849   1.275
17910SOL     OW71958   8.355   3.562   0.449
17910SOL    HW271959   8.413   3.633   0.476
17910SOL    HW371960   8.378   3.490   0.507
17910SOL    MW471961   8.366   3.562   0.460
17911SOL     OW71962   9.150   2.024   1.039
17911SOL    HW271963   9.195   1.942   1.058
17911SOL    HW371964   9.170   2.080   1.115
17911SOL    MW471965   9.160   2.020   1.051
17912SOL     OW71966   7.598   1.867   1.138
17912SOL    HW271967   7.589   1.868   1.043
17912SOL    HW371968   7.692   1.879   1.153
17912SOL    MW471969   7.610   1.870   1.129
17913SOL     OW71970   9.235   3.060   0.758
17913SOL    HW271971   9.214   3.006   0.681
17913SOL    HW371972   9.331   3.058   0.762
17913SOL    MW471973   9.244   3.053   0.747
17914SOL     OW71974   7.927   3.205   1.501
17914SOL    HW271975   7.848   3.155   1.524
17914SOL    HW371976   7.997   3.164   1.551
17914SOL    MW471977   7.925   3.193   1.511
17915SOL     OW71978   8.935   2.491   1.020
17915SOL    HW271979   8.858   2.537   0.986
17915SOL    HW371980   8.992   2.560   1.054
17915SOL    MW471981   8.932   2.506   1.020
17916SOL     OW71982   8.873   3.439   0.439
17916SOL    HW271983   8.936   3.429   0.368
17916SOL    HW371984   8.790   3.459   0.394
17916SOL    MW471985   8.870   3.440   0.424
17917SOL     OW71986   9.236   2.707   2.125
17917SOL    HW271987   9.277   2.649   2.190
17917SOL    HW371988   9.143   2.699   2.142
17917SOL    MW471989   9.230   2.699   2.135
17918SOL     OW71990   9.102   2.639   3.120
17918SOL    HW271991   9.057   2.706   3.171
17918SOL    HW371992   9.190   2.675   3.106
17918SOL    MW471993   9.108   2.652   3.124
17919SOL     OW71994   8.030   2.890   2.354
17919SOL    HW271995   8.120   2.865   2.338
17919SOL    HW371996   8.026   2.983   2.331
17919SOL    MW471997   8.042   2.899   2.349
17920SOL     OW71998   9.146   3.593   2.496
17920SOL    HW271999   9.158   3.539   2.574
17920SOL    HW372000   9.183   3.541   2.425
17920SOL    MW472001   9.152   3.578   2.497
17921SOL     OW72002   8.525   3.478   3.497
17921SOL    HW272003   8.566   3.514   3.418
17921SOL    HW372004   8.560   3.389   3.504
17921SOL    MW472005   8.536   3.471   3.488
17922SOL     OW72006   9.082   3.033   3.101
17922SOL    HW272007   9.003   2.998   3.059
17922SOL    HW372008   9.109   3.105   3.045
17922SOL    MW472009   9.075   3.038   3.088
17923SOL     OW72010   8.314   2.346   2.367
17923SOL    HW272011   8.289   2.434   2.395
17923SOL    HW372012   8.311   2.349   2.271
17923SOL    MW472013   8.310   2.358   2.359
17924SOL     OW72014   7.756   2.374   2.295
17924SOL    HW272015   7.788   2.462   2.277
17924SOL    HW372016   7.744   2.372   2.390
17924SOL    MW472017   7.759   2.386   2.307
17925SOL     OW72018   7.834   2.787   3.196
17925SOL    HW272019   7.897   2.734   3.147
17925SOL    HW372020   7.815   2.861   3.139
17925SOL    MW472021   7.840   2.789   3.183
17926SOL     OW72022   8.155   2.129   2.382
17926SOL    HW272023   8.213   2.205   2.384
17926SOL    HW372024   8.090   2.150   2.315
17926SOL    MW472025   8.154   2.141   2.373
17927SOL     OW72026   8.242   3.056   2.557
17927SOL    HW272027   8.322   3.059   2.609
17927SOL    HW372028   8.270   3.023   2.471
17927SOL    MW472029   8.256   3.052   2.552
17928SOL     OW72030   8.267   3.397   3.460
17928SOL    HW272031   8.351   3.423   3.499
17928SOL    HW372032   8.291   3.341   3.386
17928SOL    MW472033   8.281   3.393   3.455
17929SOL     OW72034   8.019   2.560   2.548
17929SOL    HW272035   8.004   2.480   2.599
17929SOL    HW372036   8.101   2.595   2.582
17929SOL    MW472037   8.027   2.552   2.560
17930SOL     OW72038   8.356   3.246   3.233
17930SOL    HW272039   8.320   3.312   3.173
17930SOL    HW372040   8.284   3.184   3.246
17930SOL    MW472041   8.342   3.246   3.227
17931SOL     OW72042   8.161   2.386   2.925
17931SOL    HW272043   8.067   2.382   2.943
17931SOL    HW372044   8.191   2.295   2.934
17931SOL    MW472045   8.152   2.374   2.928
17932SOL     OW72046   7.907   2.800   2.829
17932SOL    HW272047   7.862   2.807   2.745
17932SOL    HW372048   7.887   2.883   2.873
17932SOL    MW472049   7.899   2.812   2.823
17933SOL     OW72050   7.604   3.646   2.704
17933SOL    HW272051   7.693   3.638   2.739
17933SOL    HW372052   7.568   3.558   2.709
17933SOL    MW472053   7.611   3.633   2.709
17934SOL     OW72054   8.869   3.038   2.073
17934SOL    HW272055   8.787   3.074   2.039
17934SOL    HW372056   8.937   3.081   2.022
17934SOL    MW472057   8.867   3.048   2.061
17935SOL     OW72058   7.868   3.173   2.739
17935SOL    HW272059   7.844   3.226   2.815
17935SOL    HW372060   7.924   3.231   2.687
17935SOL    MW472061   7.872   3.188   2.742
17936SOL     OW72062   8.430   2.817   2.549
17936SOL    HW272063   8.344   2.804   2.589
17936SOL    HW372064   8.483   2.744   2.581
17936SOL    MW472065   8.426   2.806   2.558
17937SOL     OW72066   7.838   3.469   3.334
17937SOL    HW272067   7.746   3.445   3.319
17937SOL    HW372068   7.882   3.386   3.351
17937SOL    MW472069   7.832   3.454   3.333
17938SOL     OW72070   8.421   3.179   2.266
17938SOL    HW272071   8.398   3.241   2.334
17938SOL    HW372072   8.378   3.097   2.292
17938SOL    MW472073   8.413   3.175   2.277
17939SOL     OW72074   9.294   2.180   2.722
17939SOL    HW272075   9.231   2.160   2.791
17939SOL    HW372076   9.284   2.109   2.659
17939SOL    MW472077   9.284   2.167   2.723
17940SOL     OW72078   7.918   2.152   2.234
17940SOL    HW272079   7.892   2.114   2.150
17940SOL    HW372080   7.855   2.222   2.250
17940SOL    MW472081   7.907   2.155   2.225
17941SOL     OW72082   7.753   3.113   2.271
17941SOL    HW272083   7.701   3.181   2.227
17941SOL    HW372084   7.750   3.039   2.211
17941SOL    MW472085   7.745   3.112   2.258
17942SOL     OW72086   8.415   3.576   2.049
17942SOL    HW272087   8.370   3.592   2.132
17942SOL    HW372088   8.346   3.541   1.991
17942SOL    MW472089   8.401   3.573   2.051
17943SOL     OW72090   9.350   2.349   2.024
17943SOL    HW272091   9.259   2.351   2.052
17943SOL    HW372092   9.395   2.411   2.082
17943SOL    MW472093   9.343   2.357   2.034
17944SOL     OW72094   9.095   2.952   2.374
17944SOL    HW272095   9.005   2.952   2.409
17944SOL    HW372096   9.088   2.998   2.291
17944SOL    MW472097   9.082   2.958   2.368
17945SOL     OW72098   8.895   2.587   3.446
17945SOL    HW272099   8.964   2.525   3.423
17945SOL    HW372100   8.820   2.561   3.393
17945SOL    MW472101   8.895   2.574   3.437
17946SOL     OW72102   7.636   3.467   2.998
17946SOL    HW272103   7.619   3.413   3.075
17946SOL    HW372104   7.624   3.557   3.028
17946SOL    MW472105   7.633   3.471   3.012
17947SOL     OW72106   8.631   2.974   3.438
17947SOL    HW272107   8.616   3.067   3.423
17947SOL    HW372108   8.726   2.964   3.438
17947SOL    MW472109   8.640   2.984   3.435
17948SOL     OW72110   8.427   2.398   3.639
17948SOL    HW272111   8.517   2.399   3.606
17948SOL    HW372112   8.386   2.323   3.597
17948SOL    MW472113   8.433   2.388   3.630
17949SOL     OW72114   9.002   2.930   2.766
17949SOL    HW272115   9.005   2.864   2.697
17949SOL    HW372116   9.087   2.973   2.762
17949SOL    MW472117   9.014   2.926   2.757
17950SOL     OW72118   8.622   2.533   2.335
17950SOL    HW272119   8.648   2.557   2.246
17950SOL    HW372120   8.604   2.440   2.331
17950SOL    MW472121   8.624   2.525   2.322
17951SOL     OW72122   9.287   3.153   2.186
17951SOL    HW272123   9.243   3.194   2.261
17951SOL    HW372124   9.344   3.221   2.151
17951SOL    MW472125   9.289   3.167   2.191
17952SOL     OW72126   8.207   2.202   3.589
17952SOL    HW272127   8.217   2.128   3.529
17952SOL    HW372128   8.243   2.171   3.672
17952SOL    MW472129   8.213   2.188   3.591
17953SOL     OW72130   7.943   3.569   2.504
17953SOL    HW272131   7.975   3.657   2.482
17953SOL    HW372132   7.896   3.541   2.426
17953SOL    MW472133   7.942   3.577   2.491
17954SOL     OW72134   9.327   1.931   2.553
17954SOL    HW272135   9.381   1.882   2.615
17954SOL    HW372136   9.270   1.865   2.514
17954SOL    MW472137   9.327   1.915   2.555
17955SOL     OW72138   7.659   3.629   2.081
17955SOL    HW272139   7.688   3.719   2.073
17955SOL    HW372140   7.609   3.612   2.002
17955SOL    MW472141   7.657   3.637   2.070
17956SOL     OW72142   8.446   1.884   2.966
17956SOL    HW272143   8.405   1.962   2.928
17956SOL    HW372144   8.540   1.902   2.961
17956SOL    MW472145   8.452   1.896   2.961
17957SOL     OW72146   9.063   3.437   2.052
17957SOL    HW272147   9.111   3.506   2.098
17957SOL    HW372148   8.984   3.481   2.021
17957SOL    MW472149   9.058   3.451   2.055
17958SOL     OW72150   8.461   2.562   1.996
17958SOL    HW272151   8.463   2.509   1.917
17958SOL    HW372152   8.549   2.599   2.002
17958SOL    MW472153   8.473   2.561   1.985
17959SOL     OW72154   9.075   2.488   2.332
17959SOL    HW272155   9.114   2.488   2.419
17959SOL    HW372156   9.016   2.564   2.332
17959SOL    MW472157   9.072   2.499   2.343
17960SOL     OW72158   8.392   2.855   3.461
17960SOL    HW272159   8.369   2.835   3.551
17960SOL    HW372160   8.477   2.899   3.466
17960SOL    MW472161   8.399   2.858   3.473
17961SOL     OW72162   8.472   1.992   3.221
17961SOL    HW272163   8.478   1.954   3.134
17961SOL    HW372164   8.461   2.086   3.206
17961SOL    MW472165   8.473   2.000   3.209
17962SOL     OW72166   8.561   2.481   3.055
17962SOL    HW272167   8.636   2.510   3.002
17962SOL    HW372168   8.493   2.546   3.039
17962SOL    MW472169   8.562   2.493   3.045
17963SOL     OW72170   9.111   2.449   3.332
17963SOL    HW272171   9.092   2.358   3.311
17963SOL    HW372172   9.089   2.498   3.253
17963SOL    MW472173   9.106   2.442   3.319
17964SOL     OW72174   9.253   3.543   3.236
17964SOL    HW272175   9.181   3.505   3.287
17964SOL    HW372176   9.270   3.628   3.277
17964SOL    MW472177   9.247   3.548   3.248
17965SOL     OW72178   8.558   2.187   3.438
17965SOL    HW272179   8.524   2.226   3.357
17965SOL    HW372180   8.536   2.095   3.431
17965SOL    MW472181   8.551   2.180   3.428
17966SOL     OW72182   8.967   3.001   3.514
17966SOL    HW272183   9.049   3.042   3.544
17966SOL    HW372184   8.930   2.963   3.594
17966SOL    MW472185   8.973   3.002   3.529
17967SOL     OW72186   9.262   2.374   2.498
17967SOL    HW272187   9.351   2.343   2.515
17967SOL    HW372188   9.205   2.314   2.546
17967SOL    MW472189   9.265   2.362   2.507
17968SOL     OW72190   7.688   2.088   2.527
17968SOL    HW272191   7.679   2.028   2.453
17968SOL    HW372192   7.621   2.059   2.590
17968SOL    MW472193   7.678   2.075   2.525
17969SOL     OW72194   8.631   3.181   2.088
17969SOL    HW272195   8.581   3.183   2.170
17969SOL    HW372196   8.565   3.199   2.020
17969SOL    MW472197   8.617   3.183   2.090
17970SOL     OW72198   7.635   2.261   2.890
17970SOL    HW272199   7.607   2.352   2.899
17970SOL    HW372200   7.572   2.222   2.829
17970SOL    MW472201   7.622   2.267   2.884
17971SOL     OW72202   8.094   3.599   2.196
17971SOL    HW272203   8.015   3.557   2.229
17971SOL    HW372204   8.160   3.582   2.263
17971SOL    MW472205   8.093   3.591   2.209
17972SOL     OW72206   9.222   3.119   3.593
17972SOL    HW272207   9.272   3.045   3.625
17972SOL    HW372208   9.168   3.146   3.668
17972SOL    MW472209   9.222   3.113   3.606
17973SOL     OW72210   8.230   3.014   1.903
17973SOL    HW272211   8.152   2.960   1.890
17973SOL    HW372212   8.201   3.087   1.956
17973SOL    MW472213   8.216   3.016   1.908
17974SOL     OW72214   9.356   2.754   3.095
17974SOL    HW272215   9.372   2.792   3.008
17974SOL    HW372216   9.390   2.820   3.156
17974SOL    MW472217   9.363   2.767   3.091
17975SOL     OW72218   9.148   3.463   2.764
17975SOL    HW272219   9.177   3.530   2.825
17975SOL    HW372220   9.129   3.387   2.819
17975SOL    MW472221   9.150   3.463   2.779
17976SOL     OW72222   8.811   3.530   1.971
17976SOL    HW272223   8.737   3.493   2.021
17976SOL    HW372224   8.819   3.620   2.004
17976SOL    MW472225   8.802   3.537   1.983
17977SOL     OW72226   7.619   2.536   3.060
17977SOL    HW272227   7.681   2.566   3.126
17977SOL    HW372228   7.553   2.605   3.054
17977SOL    MW472229   7.618   2.549   3.067
17978SOL     OW72230   9.035   3.204   1.913
17978SOL    HW272231   8.982   3.253   1.849
17978SOL    HW372232   9.066   3.270   1.974
17978SOL    MW472233   9.033   3.218   1.911
17979SOL     OW72234   8.260   2.093   1.968
17979SOL    HW272235   8.208   2.013   1.956
17979SOL    HW372236   8.347   2.070   1.936
17979SOL    MW472237   8.263   2.079   1.962
17980SOL     OW72238   7.714   3.645   3.512
17980SOL    HW272239   7.688   3.713   3.450
17980SOL    HW372240   7.762   3.582   3.460
17980SOL    MW472241   7.716   3.645   3.498
17981SOL     OW72242   7.766   2.964   3.019
17981SOL    HW272243   7.819   3.039   3.044
17981SOL    HW372244   7.685   3.002   2.985
17981SOL    MW472245   7.762   2.979   3.019
17982SOL     OW72246   8.306   2.868   3.007
17982SOL    HW272247   8.334   2.777   3.019
17982SOL    HW372248   8.235   2.862   2.943
17982SOL    MW472249   8.299   2.856   3.002
17983SOL     OW72250   7.621   2.733   2.425
17983SOL    HW272251   7.712   2.748   2.452
17983SOL    HW372252   7.624   2.654   2.371
17983SOL    MW472253   7.633   2.725   2.423
17984SOL     OW72254   7.857   2.441   3.679
17984SOL    HW272255   7.804   2.521   3.686
17984SOL    HW372256   7.927   2.453   3.744
17984SOL    MW472257   7.859   2.454   3.687
17985SOL     OW72258   8.243   1.991   3.386
17985SOL    HW272259   8.220   1.899   3.388
17985SOL    HW372260   8.329   1.993   3.343
17985SOL    MW472261   8.250   1.981   3.382
17986SOL     OW72262   7.927   2.515   3.425
17986SOL    HW272263   8.007   2.565   3.411
17986SOL    HW372264   7.918   2.509   3.520
17986SOL    MW472265   7.936   2.521   3.435
17987SOL     OW72266   8.248   3.665   2.799
17987SOL    HW272267   8.337   3.680   2.829
17987SOL    HW372268   8.243   3.712   2.715
17987SOL    MW472269   8.258   3.673   2.792
17988SOL     OW72270   8.904   2.040   3.696
17988SOL    HW272271   8.960   1.967   3.722
17988SOL    HW372272   8.874   2.078   3.778
17988SOL    MW472273   8.908   2.035   3.709
17989SOL     OW72274   7.629   3.345   2.464
17989SOL    HW272275   7.601   3.384   2.546
17989SOL    HW372276   7.649   3.254   2.486
17989SOL    MW472277   7.627   3.337   2.477
17990SOL     OW72278   8.462   3.388   2.499
17990SOL    HW272279   8.545   3.342   2.483
17990SOL    HW372280   8.452   3.387   2.595
17990SOL    MW472281   8.472   3.381   2.509
17991SOL     OW72282   9.294   2.533   2.813
17991SOL    HW272283   9.383   2.563   2.795
17991SOL    HW372284   9.274   2.473   2.742
17991SOL    MW472285   9.303   2.530   2.802
17992SOL     OW72286   9.145   2.712   3.693
17992SOL    HW272287   9.200   2.636   3.674
17992SOL    HW372288   9.147   2.720   3.788
17992SOL    MW472289   9.153   2.703   3.701
17993SOL     OW72290   8.195   3.445   1.904
17993SOL    HW272291   8.135   3.514   1.874
17993SOL    HW372292   8.140   3.387   1.957
17993SOL    MW472293   8.179   3.447   1.906
17994SOL     OW72294   8.633   2.090   2.127
17994SOL    HW272295   8.566   2.066   2.064
17994SOL    HW372296   8.698   2.139   2.076
17994SOL    MW472297   8.633   2.092   2.112
17995SOL     OW72298   8.440   2.274   3.212
17995SOL    HW272299   8.359   2.315   3.240
17995SOL    HW372300   8.487   2.342   3.164
17995SOL    MW472301   8.435   2.289   3.210
17996SOL     OW72302   8.700   2.612   2.835
17996SOL    HW272303   8.713   2.706   2.845
17996SOL    HW372304   8.661   2.602   2.749
17996SOL    MW472305   8.696   2.623   2.825
17997SOL     OW72306   8.152   2.807   2.639
17997SOL    HW272307   8.063   2.798   2.672
17997SOL    HW372308   8.156   2.897   2.607
17997SOL    MW472309   8.141   2.818   2.639
17998SOL     OW72310   8.951   2.390   2.634
17998SOL    HW272311   8.896   2.311   2.633
17998SOL    HW372312   8.933   2.431   2.718
17998SOL    MW472313   8.941   2.385   2.643
17999SOL     OW72314   7.922   2.077   3.451
17999SOL    HW272315   7.843   2.095   3.503
17999SOL    HW372316   7.917   2.139   3.378
17999SOL    MW472317   7.912   2.087   3.448
18000SOL     OW72318   8.570   2.594   2.591
18000SOL    HW272319   8.507   2.526   2.615
18000SOL    HW372320   8.590   2.575   2.499
18000SOL    MW472321   8.564   2.581   2.583
18001SOL     OW72322   7.826   3.489   2.293
18001SOL    HW272323   7.787   3.536   2.219
18001SOL    HW372324   7.760   3.424   2.318
18001SOL    MW472325   7.813   3.487   2.287
18002SOL     OW72326   8.318   2.898   2.317
18002SOL    HW272327   8.320   2.872   2.224
18002SOL    HW372328   8.376   2.835   2.360
18002SOL    MW472329   8.326   2.887   2.311
18003SOL     OW72330   8.871   3.458   3.089
18003SOL    HW272331   8.796   3.504   3.127
18003SOL    HW372332   8.853   3.365   3.106
18003SOL    MW472333   8.860   3.452   3.097
18004SOL     OW72334   8.875   3.666   2.519
18004SOL    HW272335   8.818   3.619   2.458
18004SOL    HW372336   8.961   3.627   2.506
18004SOL    MW472337   8.878   3.657   2.509
18005SOL     OW72338   8.828   2.142   2.650
18005SOL    HW272339   8.856   2.074   2.711
18005SOL    HW372340   8.742   2.113   2.620
18005SOL    MW472341   8.821   2.129   2.654
18006SOL     OW72342   7.633   3.076   2.584
18006SOL    HW272343   7.697   3.108   2.647
18006SOL    HW372344   7.682   3.012   2.532
18006SOL    MW472345   7.648   3.072   2.585
18007SOL     OW72346   8.133   3.152   3.566
18007SOL    HW272347   8.181   3.235   3.553
18007SOL    HW372348   8.190   3.100   3.622
18007SOL    MW472349   8.147   3.156   3.572
18008SOL     OW72350   7.709   3.394   3.706
18008SOL    HW272351   7.765   3.318   3.721
18008SOL    HW372352   7.658   3.372   3.628
18008SOL    MW472353   7.709   3.381   3.697
18009SOL     OW72354   8.808   2.246   1.985
18009SOL    HW272355   8.781   2.312   1.921
18009SOL    HW372356   8.878   2.289   2.035
18009SOL    MW472357   8.813   2.259   1.982
18010SOL     OW72358   8.476   1.951   1.922
18010SOL    HW272359   8.532   1.943   1.844
18010SOL    HW372360   8.453   1.861   1.944
18010SOL    MW472361   8.481   1.938   1.915
18011SOL     OW72362   8.981   2.802   2.127
18011SOL    HW272363   8.948   2.891   2.117
18011SOL    HW372364   8.946   2.773   2.212
18011SOL    MW472365   8.971   2.811   2.138
18012SOL     OW72366   8.594   3.231   3.315
18012SOL    HW272367   8.505   3.237   3.283
18012SOL    HW372368   8.638   3.310   3.283
18012SOL    MW472369   8.589   3.241   3.307
18013SOL     OW72370   7.887   1.899   3.657
18013SOL    HW272371   7.815   1.864   3.605
18013SOL    HW372372   7.945   1.940   3.592
18013SOL    MW472373   7.885   1.900   3.642
18014SOL     OW72374   7.911   3.389   2.956
18014SOL    HW272375   7.956   3.451   3.013
18014SOL    HW372376   7.818   3.408   2.969
18014SOL    MW472377   7.904   3.399   2.963
18015SOL     OW72378   9.351   2.918   3.310
18015SOL    HW272379   9.266   2.931   3.269
18015SOL    HW372380   9.331   2.882   3.397
18015SOL    MW472381   9.338   2.914   3.315
18016SOL     OW72382   8.333   3.457   3.064
18016SOL    HW272383   8.357   3.446   2.973
18016SOL    HW372384   8.256   3.514   3.062
18016SOL    MW472385   8.325   3.462   3.053
18017SOL     OW72386   7.975   2.840   1.919
18017SOL    HW272387   7.898   2.853   1.975
18017SOL    HW372388   7.939   2.804   1.838
18017SOL    MW472389   7.961   2.836   1.916
18018SOL     OW72390   8.628   2.813   2.162
18018SOL    HW272391   8.538   2.834   2.137
18018SOL    HW372392   8.655   2.886   2.218
18018SOL    MW472393   8.620   2.825   2.165
18019SOL     OW72394   8.128   3.162   2.854
18019SOL    HW272395   8.121   3.141   2.948
18019SOL    HW372396   8.046   3.130   2.817
18019SOL    MW472397   8.116   3.156   2.861
18020SOL     OW72398   8.992   2.172   3.256
18020SOL    HW272399   8.939   2.174   3.336
18020SOL    HW372400   8.977   2.085   3.219
18020SOL    MW472401   8.984   2.162   3.261
18021SOL     OW72402   9.328   2.096   3.129
18021SOL    HW272403   9.309   2.163   3.064
18021SOL    HW372404   9.385   2.034   3.084
18021SOL    MW472405   9.332   2.097   3.115
18022SOL     OW72406   7.574   3.254   3.517
18022SOL    HW272407   7.618   3.187   3.463
18022SOL    HW372408   7.489   3.216   3.537
18022SOL    MW472409   7.569   3.240   3.513
18023SOL     OW72410   8.257   1.929   2.569
18023SOL    HW272411   8.186   1.990   2.551
18023SOL    HW372412   8.308   1.926   2.488
18023SOL    MW472413   8.253   1.935   2.556
18024SOL     OW72414   8.015   3.169   2.318
18024SOL    HW272415   8.008   3.201   2.408
18024SOL    HW372416   7.925   3.153   2.290
18024SOL    MW472417   8.003   3.171   2.325
18025SOL     OW72418   8.610   3.562   3.227
18025SOL    HW272419   8.530   3.547   3.177
18025SOL    HW372420   8.617   3.657   3.234
18025SOL    MW472421   8.601   3.573   3.221
18026SOL     OW72422   8.724   3.527   2.717
18026SOL    HW272423   8.771   3.600   2.676
18026SOL    HW372424   8.645   3.566   2.753
18026SOL    MW472425   8.719   3.542   2.716
18027SOL     OW72426   9.132   3.622   2.992
18027SOL    HW272427   9.175   3.592   3.072
18027SOL    HW372428   9.051   3.570   2.989
18027SOL    MW472429   9.127   3.611   3.002
18028SOL     OW72430   8.217   2.586   3.699
18028SOL    HW272431   8.287   2.528   3.671
18028SOL    HW372432   8.160   2.531   3.754
18028SOL    MW472433   8.219   2.573   3.703
18029SOL     OW72434   9.004   2.798   3.332
18029SOL    HW272435   9.009   2.851   3.412
18029SOL    HW372436   8.966   2.715   3.360
18029SOL    MW472437   9.000   2.793   3.347
18030SOL     OW72438   8.644   1.933   3.578
18030SOL    HW272439   8.639   1.840   3.559
18030SOL    HW372440   8.727   1.944   3.624
18030SOL    MW472441   8.652   1.922   3.582
18031SOL     OW72442   8.018   2.453   2.032
18031SOL    HW272443   7.984   2.509   2.102
18031SOL    HW372444   8.089   2.403   2.072
18031SOL    MW472445   8.024   2.454   2.046
18032SOL     OW72446   9.114   3.204   2.854
18032SOL    HW272447   9.149   3.186   2.767
18032SOL    HW372448   9.019   3.205   2.841
18032SOL    MW472449   9.106   3.201   2.841
18033SOL     OW72450   8.543   2.852   3.223
18033SOL    HW272451   8.586   2.887   3.301
18033SOL    HW372452   8.526   2.929   3.169
18033SOL    MW472453   8.546   2.867   3.226
18034SOL     OW72454   9.074   2.339   2.096
18034SOL    HW272455   9.066   2.410   2.033
18034SOL    HW372456   9.092   2.383   2.179
18034SOL    MW472457   9.075   2.353   2.098
18035SOL     OW72458   7.934   1.994   2.525
18035SOL    HW272459   7.984   2.037   2.456
18035SOL    HW372460   7.849   2.038   2.525
18035SOL    MW472461   7.931   2.007   2.516
18036SOL     OW72462   7.693   3.056   3.385
18036SOL    HW272463   7.721   3.009   3.463
18036SOL    HW372464   7.614   3.011   3.356
18036SOL    MW472465   7.686   3.045   3.391
18037SOL     OW72466   8.201   2.383   3.352
18037SOL    HW272467   8.173   2.471   3.376
18037SOL    HW372468   8.170   2.327   3.423
18037SOL    MW472469   8.193   2.386   3.364
18038SOL     OW72470   8.743   2.601   2.071
18038SOL    HW272471   8.790   2.619   1.990
18038SOL    HW372472   8.709   2.685   2.099
18038SOL    MW472473   8.745   2.615   2.064
18039SOL     OW72474   7.856   2.779   2.565
18039SOL    HW272475   7.914   2.835   2.513
18039SOL    HW372476   7.900   2.694   2.567
18039SOL    MW472477   7.869   2.776   2.558
18040SOL     OW72478   8.996   2.131   2.402
18040SOL    HW272479   8.918   2.081   2.427
18040SOL    HW372480   8.967   2.222   2.402
18040SOL    MW472481   8.982   2.135   2.405
18041SOL     OW72482   8.582   2.093   2.561
18041SOL    HW272483   8.602   2.168   2.505
18041SOL    HW372484   8.562   2.132   2.646
18041SOL    MW472485   8.583   2.109   2.565
18042SOL     OW72486   8.478   3.343   1.893
18042SOL    HW272487   8.505   3.421   1.845
18042SOL    HW372488   8.385   3.358   1.912
18042SOL    MW472489   8.469   3.356   1.889
18043SOL     OW72490   9.342   2.866   3.580
18043SOL    HW272491   9.255   2.846   3.616
18043SOL    HW372492   9.396   2.792   3.605
18043SOL    MW472493   9.337   2.855   3.588
18044SOL     OW72494   7.563   3.379   2.737
18044SOL    HW272495   7.595   3.383   2.828
18044SOL    HW372496   7.468   3.387   2.745
18044SOL    MW472497   7.555   3.382   2.750
18045SOL     OW72498   7.518   2.505   2.284
18045SOL    HW272499   7.458   2.477   2.354
18045SOL    HW372500   7.592   2.445   2.290
18045SOL    MW472501   7.520   2.494   2.293
18046SOL     OW72502   9.086   3.717   3.718
18046SOL    HW272503   9.131   3.641   3.683
18046SOL    HW372504   9.124   3.730   3.805
18046SOL    MW472505   9.096   3.710   3.724
18047SOL     OW72506   8.686   3.236   2.444
18047SOL    HW272507   8.709   3.187   2.522
18047SOL    HW372508   8.767   3.278   2.416
18047SOL    MW472509   8.699   3.236   2.451
18048SOL     OW72510   7.944   2.244   3.173
18048SOL    HW272511   7.977   2.325   3.213
18048SOL    HW372512   7.917   2.270   3.085
18048SOL    MW472513   7.943   2.258   3.167
18049SOL     OW72514   7.898   2.211   2.909
18049SOL    HW272515   7.928   2.125   2.880
18049SOL    HW372516   7.803   2.204   2.912
18049SOL    MW472517   7.890   2.200   2.907
18050SOL     OW72518   8.727   2.420   3.600
18050SOL    HW272519   8.779   2.355   3.553
18050SOL    HW372520   8.685   2.471   3.530
18050SOL    MW472521   8.728   2.417   3.583
18051SOL     OW72522   8.826   2.215   3.461
18051SOL    HW272523   8.733   2.199   3.448
18051SOL    HW372524   8.852   2.153   3.529
18051SOL    MW472525   8.816   2.205   3.468
18052SOL     OW72526   8.041   1.989   2.800
18052SOL    HW272527   8.051   1.898   2.826
18052SOL    HW372528   7.997   1.985   2.715
18052SOL    MW472529   8.037   1.977   2.792
18053SOL     OW72530   8.135   3.604   3.346
18053SOL    HW272531   8.052   3.589   3.391
18053SOL    HW372532   8.194   3.537   3.381
18053SOL    MW472533   8.133   3.594   3.356
18054SOL     OW72534   9.192   2.311   2.971
18054SOL    HW272535   9.125   2.344   3.031
18054SOL    HW372536   9.235   2.389   2.937
18054SOL    MW472537   9.190   2.326   2.975
18055SOL     OW72538   9.370   3.031   2.941
18055SOL    HW272539   9.363   2.971   2.866
18055SOL    HW372540   9.296   3.091   2.930
18055SOL    MW472541   9.360   3.031   2.930
18056SOL     OW72542   8.752   2.893   2.859
18056SOL    HW272543   8.766   2.865   2.950
18056SOL    HW372544   8.838   2.924   2.831
18056SOL    MW472545   8.765   2.894   2.868
18057SOL     OW72546   8.835   2.388   3.138
18057SOL    HW272547   8.856   2.389   3.045
18057SOL    HW372548   8.880   2.310   3.171
18057SOL    MW472549   8.842   2.378   3.130
18058SOL     OW72550   9.328   2.519   3.680
18058SOL    HW272551   9.365   2.464   3.749
18058SOL    HW372552   9.353   2.476   3.598
18058SOL    MW472553   9.335   2.507   3.679
18059SOL     OW72554   8.875   2.817   3.731
18059SOL    HW272555   8.941   2.765   3.685
18059SOL    HW372556   8.895   2.804   3.824
18059SOL    MW472557   8.886   2.808   3.738
18060SOL     OW72558   8.826   1.903   2.080
18060SOL    HW272559   8.900   1.947   2.123
18060SOL    HW372560   8.750   1.957   2.102
18060SOL    MW472561   8.826   1.915   2.088
18061SOL     OW72562   8.886   2.678   2.358
18061SOL    HW272563   8.801   2.648   2.328
18061SOL    HW372564   8.878   2.685   2.453
18061SOL    MW472565   8.874   2.676   2.367
18062SOL     OW72566   7.962   3.141   3.089
18062SOL    HW272567   7.974   3.168   3.180
18062SOL    HW372568   7.943   3.222   3.042
18062SOL    MW472569   7.961   3.156   3.094
18063SOL     OW72570   8.246   2.121   2.912
18063SOL    HW272571   8.219   2.123   3.003
18063SOL    HW372572   8.176   2.073   2.867
18063SOL    MW472573   8.234   2.117   2.919
18064SOL     OW72574   8.100   3.613   3.074
18064SOL    HW272575   8.152   3.690   3.051
18064SOL    HW372576   8.109   3.605   3.169
18064SOL    MW472577   8.109   3.620   3.085
18065SOL     OW72578   9.002   3.198   3.306
18065SOL    HW272579   8.987   3.127   3.369
18065SOL    HW372580   9.048   3.156   3.234
18065SOL    MW472581   9.008   3.182   3.306
18066SOL     OW72582   8.076   2.929   3.423
18066SOL    HW272583   8.113   2.934   3.335
18066SOL    HW372584   8.115   3.002   3.470
18066SOL    MW472585   8.086   2.939   3.418
18067SOL     OW72586   8.256   2.972   3.235
18067SOL    HW272587   8.315   2.918   3.288
18067SOL    HW372588   8.271   2.944   3.145
18067SOL    MW472589   8.266   2.961   3.231
18068SOL     OW72590   8.259   2.344   2.084
18068SOL    HW272591   8.332   2.393   2.047
18068SOL    HW372592   8.275   2.253   2.058
18068SOL    MW472593   8.271   2.339   2.077
18069SOL     OW72594   9.067   3.461   3.407
18069SOL    HW272595   9.109   3.446   3.492
18069SOL    HW372596   9.058   3.374   3.369
18069SOL    MW472597   9.071   3.449   3.414
18070SOL     OW72598   8.727   1.940   2.998
18070SOL    HW272599   8.782   1.949   2.920
18070SOL    HW372600   8.782   1.974   3.069
18070SOL    MW472601   8.741   1.945   2.997
18071SOL     OW72602   7.734   2.853   2.182
18071SOL    HW272603   7.671   2.869   2.111
18071SOL    HW372604   7.681   2.816   2.253
18071SOL    MW472605   7.719   2.850   2.182
18072SOL     OW72606   8.090   3.207   2.041
18072SOL    HW272607   8.105   3.183   2.133
18072SOL    HW372608   7.998   3.185   2.025
18072SOL    MW472609   8.080   3.200   2.051
18073SOL     OW72610   8.629   3.438   2.193
18073SOL    HW272611   8.637   3.356   2.144
18073SOL    HW372612   8.548   3.477   2.160
18073SOL    MW472613   8.619   3.433   2.183
18074SOL     OW72614   7.888   3.596   2.762
18074SOL    HW272615   7.892   3.507   2.797
18074SOL    HW372616   7.914   3.587   2.671
18074SOL    MW472617   7.891   3.584   2.754
18075SOL     OW72618   8.505   3.074   3.005
18075SOL    HW272619   8.437   3.008   3.021
18075SOL    HW372620   8.523   3.068   2.912
18075SOL    MW472621   8.498   3.065   2.996
18076SOL     OW72622   7.594   3.349   3.256
18076SOL    HW272623   7.584   3.307   3.342
18076SOL    HW372624   7.515   3.402   3.246
18076SOL    MW472625   7.583   3.350   3.267
18077SOL     OW72626   8.498   2.213   2.826
18077SOL    HW272627   8.428   2.165   2.871
18077SOL    HW372628   8.530   2.276   2.890
18077SOL    MW472629   8.493   2.215   2.840
18078SOL     OW72630   8.149   2.649   3.446
18078SOL    HW272631   8.142   2.744   3.434
18078SOL    HW372632   8.158   2.638   3.541
18078SOL    MW472633   8.150   2.661   3.456
18079SOL     OW72634   7.870   3.164   3.704
18079SOL    HW272635   7.942   3.166   3.641
18079SOL    HW372636   7.840   3.073   3.703
18079SOL    MW472637   7.875   3.153   3.696
18080SOL     OW72638   8.954   1.927   3.171
18080SOL    HW272639   9.025   1.873   3.135
18080SOL    HW372640   8.953   1.906   3.264
18080SOL    MW472641   8.963   1.918   3.179
18081SOL     OW72642   9.154   3.457   3.655
18081SOL    HW272643   9.127   3.454   3.746
18081SOL    HW372644   9.250   3.461   3.658
18081SOL    MW472645   9.164   3.457   3.667
18082SOL     OW72646   7.965   2.319   2.639
18082SOL    HW272647   8.036   2.267   2.602
18082SOL    HW372648   7.951   2.284   2.726
18082SOL    MW472649   7.973   2.308   2.646
18083SOL     OW72650   7.520   3.654   3.711
18083SOL    HW272651   7.570   3.632   3.633
18083SOL    HW372652   7.528   3.749   3.719
18083SOL    MW472653   7.528   3.663   3.702
18084SOL     OW72654   8.281   3.412   2.715
18084SOL    HW272655   8.209   3.349   2.728
18084SOL    HW372656   8.242   3.497   2.733
18084SOL    MW472657   8.265   3.415   2.718
18085SOL     OW72658   8.601   2.260   2.363
18085SOL    HW272659   8.623   2.197   2.295
18085SOL    HW372660   8.506   2.252   2.374
18085SOL    MW472661   8.591   2.251   2.355
18086SOL     OW72662   7.686   1.950   2.295
18086SOL    HW272663   7.757   1.971   2.234
18086SOL    HW372664   7.640   1.878   2.253
18086SOL    MW472665   7.690   1.944   2.281
18087SOL     OW72666   7.517   2.417   3.438
18087SOL    HW272667   7.581   2.483   3.413
18087SOL    HW372668   7.436   2.444   3.395
18087SOL    MW472669   7.515   2.429   3.430
18088SOL     OW72670   9.255   3.324   2.395
18088SOL    HW272671   9.225   3.257   2.456
18088SOL    HW372672   9.349   3.330   2.409
18088SOL    MW472673   9.263   3.316   2.405
18089SOL     OW72674   8.811   3.001   2.325
18089SOL    HW272675   8.783   3.087   2.358
18089SOL    HW372676   8.839   3.017   2.235
18089SOL    MW472677   8.811   3.015   2.317
18090SOL     OW72678   8.473   1.921   2.378
18090SOL    HW272679   8.510   1.980   2.443
18090SOL    HW372680   8.450   1.977   2.304
18090SOL    MW472681   8.474   1.936   2.377
18091SOL     OW72682   9.326   2.803   2.800
18091SOL    HW272683   9.317   2.835   2.711
18091SOL    HW372684   9.279   2.719   2.800
18091SOL    MW472685   9.319   2.796   2.790
18092SOL     OW72686   7.702   2.643   3.379
18092SOL    HW272687   7.723   2.712   3.317
18092SOL    HW372688   7.782   2.590   3.384
18092SOL    MW472689   7.715   2.644   3.373
18093SOL     OW72690   9.238   2.734   2.501
18093SOL    HW272691   9.332   2.723   2.489
18093SOL    HW372692   9.214   2.806   2.442
18093SOL    MW472693   9.248   2.742   2.492
18094SOL     OW72694   7.687   2.658   3.646
18094SOL    HW272695   7.613   2.602   3.672
18094SOL    HW372696   7.682   2.661   3.551
18094SOL    MW472697   7.676   2.651   3.636
18095SOL     OW72698   7.853   1.945   3.096
18095SOL    HW272699   7.896   2.029   3.116
18095SOL    HW372700   7.926   1.883   3.089
18095SOL    MW472701   7.868   1.948   3.097
18096SOL     OW72702   7.894   2.612   2.274
18096SOL    HW272703   7.894   2.707   2.259
18096SOL    HW372704   7.971   2.596   2.328
18096SOL    MW472705   7.904   2.623   2.279
18097SOL     OW72706   8.670   2.471   3.338
18097SOL    HW272707   8.706   2.444   3.254
18097SOL    HW372708   8.583   2.505   3.317
18097SOL    MW472709   8.664   2.472   3.325
18098SOL     OW72710   7.653   2.343   2.563
18098SOL    HW272711   7.715   2.350   2.636
18098SOL    HW372712   7.653   2.250   2.540
18098SOL    MW472713   7.661   2.332   2.570
18099SOL     OW72714   9.200   3.683   2.095
18099SOL    HW272715   9.267   3.716   2.035
18099SOL    HW372716   9.157   3.762   2.129
18099SOL    MW472717   9.202   3.698   2.091
18100SOL     OW72718   8.335   2.604   3.047
18100SOL    HW272719   8.293   2.522   3.023
18100SOL    HW372720   8.336   2.603   3.143
18100SOL    MW472721   8.328   2.593   3.056
18101SOL     OW72722   9.006   3.737   3.446
18101SOL    HW272723   9.009   3.643   3.429
18101SOL    HW372724   9.029   3.745   3.538
18101SOL    MW472725   9.009   3.725   3.456
18102SOL     OW72726   8.139   2.074   3.152
18102SOL    HW272727   8.070   2.137   3.173
18102SOL    HW372728   8.166   2.038   3.237
18102SOL    MW472729   8.133   2.077   3.165
18103SOL     OW72730   7.522   2.915   2.021
18103SOL    HW272731   7.491   2.980   2.084
18103SOL    HW372732   7.471   2.837   2.040
18103SOL    MW472733   7.512   2.912   2.031
18104SOL     OW72734   8.934   1.927   2.769
18104SOL    HW272735   9.022   1.936   2.806
18104SOL    HW372736   8.944   1.868   2.695
18104SOL    MW472737   8.948   1.921   2.763
18105SOL     OW72738   8.966   2.666   2.613
18105SOL    HW272739   9.046   2.681   2.562
18105SOL    HW372740   8.959   2.571   2.619
18105SOL    MW472741   8.975   2.655   2.608
18106SOL     OW72742   8.106   3.715   1.963
18106SOL    HW272743   8.011   3.715   1.955
18106SOL    HW372744   8.122   3.661   2.041
18106SOL    MW472745   8.096   3.709   1.972
18107SOL     OW72746   8.416   2.592   3.310
18107SOL    HW272747   8.485   2.659   3.307
18107SOL    HW372748   8.349   2.630   3.366
18107SOL    MW472749   8.417   2.605   3.317
18108SOL     OW72750   7.834   2.892   3.558
18108SOL    HW272751   7.788   2.808   3.560
18108SOL    HW372752   7.891   2.886   3.482
18108SOL    MW472753   7.836   2.880   3.550
18109SOL     OW72754   8.951   2.535   1.879
18109SOL    HW272755   8.879   2.511   1.821
18109SOL    HW372756   9.017   2.572   1.821
18109SOL    MW472757   8.950   2.537   1.864
18110SOL     OW72758   8.085   3.267   2.559
18110SOL    HW272759   8.150   3.200   2.580
18110SOL    HW372760   8.137   3.344   2.536
18110SOL    MW472761   8.100   3.269   2.558
18111SOL     OW72762   8.346   2.432   2.689
18111SOL    HW272763   8.286   2.450   2.761
18111SOL    HW372764   8.380   2.344   2.708
18111SOL    MW472765   8.342   2.422   2.702
18112SOL     OW72766   9.287   1.931   3.358
18112SOL    HW272767   9.208   1.977   3.386
18112SOL    HW372768   9.322   1.985   3.287
18112SOL    MW472769   9.281   1.944   3.352
18113SOL     OW72770   8.571   3.015   2.708
18113SOL    HW272771   8.663   2.996   2.726
18113SOL    HW372772   8.544   2.945   2.648
18113SOL    MW472773   8.579   3.003   2.702
18114SOL     OW72774   8.364   2.835   2.063
18114SOL    HW272775   8.350   2.747   2.028
18114SOL    HW372776   8.315   2.892   2.004
18114SOL    MW472777   8.356   2.830   2.051
18115SOL     OW72778   8.845   3.253   2.804
18115SOL    HW272779   8.818   3.337   2.769
18115SOL    HW372780   8.805   3.248   2.891
18115SOL    MW472781   8.838   3.262   2.810
18116SOL     OW72782   8.764   3.201   3.072
18116SOL    HW272783   8.775   3.168   3.161
18116SOL    HW372784   8.683   3.160   3.041
18116SOL    MW472785   8.754   3.193   3.078
18117SOL     OW72786   7.777   2.559   2.842
18117SOL    HW272787   7.727   2.558   2.923
18117SOL    HW372788   7.797   2.651   2.826
18117SOL    MW472789   7.773   2.571   2.850
18118SOL     OW72790   8.844   3.323   3.604
18118SOL    HW272791   8.844   3.417   3.620
18118SOL    HW372792   8.889   3.313   3.520
18118SOL    MW472793   8.850   3.333   3.595
18119SOL     OW72794   9.083   2.041   2.165
18119SOL    HW272795   9.076   2.045   2.260
18119SOL    HW372796   9.095   2.132   2.138
18119SOL    MW472797   9.084   2.054   2.173
18120SOL     OW72798   8.372   2.604   2.279
18120SOL    HW272799   8.352   2.590   2.186
18120SOL    HW372800   8.465   2.583   2.286
18120SOL    MW472801   8.382   2.599   2.268
18121SOL     OW72802   7.699   2.227   3.583
18121SOL    HW272803   7.656   2.286   3.520
18121SOL    HW372804   7.767   2.282   3.623
18121SOL    MW472805   7.703   2.242   3.580
18122SOL     OW72806   8.811   2.847   3.128
18122SOL    HW272807   8.874   2.844   3.201
18122SOL    HW372808   8.727   2.865   3.170
18122SOL    MW472809   8.807   2.849   3.143
18123SOL     OW72810   8.355   3.562   2.317
18123SOL    HW272811   8.413   3.633   2.344
18123SOL    HW372812   8.378   3.490   2.375
18123SOL    MW472813   8.366   3.562   2.328
18124SOL     OW72814   9.150   2.024   2.907
18124SOL    HW272815   9.195   1.942   2.926
18124SOL    HW372816   9.170   2.080   2.983
18124SOL    MW472817   9.160   2.020   2.919
18125SOL     OW72818   7.598   1.867   3.006
18125SOL    HW272819   7.589   1.868   2.911
18125SOL    HW372820   7.692   1.879   3.021
18125SOL    MW472821   7.610   1.870   2.997
18126SOL     OW72822   9.235   3.060   2.626
18126SOL    HW272823   9.214   3.006   2.549
18126SOL    HW372824   9.331   3.058   2.630
18126SOL    MW472825   9.244   3.053   2.615
18127SOL     OW72826   7.927   3.205   3.369
18127SOL    HW272827   7.848   3.155   3.392
18127SOL    HW372828   7.997   3.164   3.419
18127SOL    MW472829   7.925   3.193   3.379
18128SOL     OW72830   7.811   1.994   2.052
18128SOL    HW272831   7.740   2.049   2.020
18128SOL    HW372832   7.853   1.960   1.973
18128SOL    MW472833   7.807   1.996   2.038
18129SOL     OW72834   8.935   2.491   2.888
18129SOL    HW272835   8.858   2.537   2.854
18129SOL    HW372836   8.992   2.560   2.922
18129SOL    MW472837   8.932   2.506   2.888
18130SOL     OW72838   7.567   2.093   1.901
18130SOL    HW272839   7.534   2.172   1.945
18130SOL    HW372840   7.622   2.126   1.830
18130SOL    MW472841   7.570   2.107   1.898
18131SOL     OW72842   7.601   3.350   2.090
18131SOL    HW272843   7.618   3.434   2.132
18131SOL    HW372844   7.636   3.359   2.002
18131SOL    MW472845   7.606   3.363   2.084
18132SOL     OW72846   8.873   3.439   2.307
18132SOL    HW272847   8.936   3.429   2.236
18132SOL    HW372848   8.790   3.459   2.262
18132SOL    MW472849   8.870   3.440   2.292
18133SOL     OW72850   9.236   2.707   3.993
18133SOL    HW272851   9.277   2.649   4.058
18133SOL    HW372852   9.143   2.699   4.010
18133SOL    MW472853   9.230   2.699   4.003
18134SOL     OW72854   9.102   2.639   4.988
18134SOL    HW272855   9.057   2.706   5.039
18134SOL    HW372856   9.190   2.675   4.974
18134SOL    MW472857   9.108   2.652   4.992
18135SOL     OW72858   8.030   2.890   4.222
18135SOL    HW272859   8.120   2.865   4.206
18135SOL    HW372860   8.026   2.983   4.199
18135SOL    MW472861   8.042   2.899   4.217
18136SOL     OW72862   9.146   3.593   4.364
18136SOL    HW272863   9.158   3.539   4.442
18136SOL    HW372864   9.183   3.541   4.293
18136SOL    MW472865   9.152   3.578   4.365
18137SOL     OW72866   8.525   3.478   5.365
18137SOL    HW272867   8.566   3.514   5.286
18137SOL    HW372868   8.560   3.389   5.372
18137SOL    MW472869   8.536   3.471   5.356
18138SOL     OW72870   9.082   3.033   4.969
18138SOL    HW272871   9.003   2.998   4.927
18138SOL    HW372872   9.109   3.105   4.913
18138SOL    MW472873   9.075   3.038   4.956
18139SOL     OW72874   8.314   2.346   4.235
18139SOL    HW272875   8.289   2.434   4.263
18139SOL    HW372876   8.311   2.349   4.139
18139SOL    MW472877   8.310   2.358   4.227
18140SOL     OW72878   7.756   2.374   4.163
18140SOL    HW272879   7.788   2.462   4.145
18140SOL    HW372880   7.744   2.372   4.258
18140SOL    MW472881   7.759   2.386   4.175
18141SOL     OW72882   7.834   2.787   5.064
18141SOL    HW272883   7.897   2.734   5.015
18141SOL    HW372884   7.815   2.861   5.007
18141SOL    MW472885   7.840   2.789   5.051
18142SOL     OW72886   8.155   2.129   4.250
18142SOL    HW272887   8.213   2.205   4.252
18142SOL    HW372888   8.090   2.150   4.183
18142SOL    MW472889   8.154   2.141   4.241
18143SOL     OW72890   8.242   3.056   4.425
18143SOL    HW272891   8.322   3.059   4.477
18143SOL    HW372892   8.270   3.023   4.339
18143SOL    MW472893   8.256   3.052   4.420
18144SOL     OW72894   8.267   3.397   5.328
18144SOL    HW272895   8.351   3.423   5.367
18144SOL    HW372896   8.291   3.341   5.254
18144SOL    MW472897   8.281   3.393   5.323
18145SOL     OW72898   8.019   2.560   4.416
18145SOL    HW272899   8.004   2.480   4.467
18145SOL    HW372900   8.101   2.595   4.450
18145SOL    MW472901   8.027   2.552   4.428
18146SOL     OW72902   8.356   3.246   5.101
18146SOL    HW272903   8.320   3.312   5.041
18146SOL    HW372904   8.284   3.184   5.114
18146SOL    MW472905   8.342   3.246   5.095
18147SOL     OW72906   8.161   2.386   4.793
18147SOL    HW272907   8.067   2.382   4.811
18147SOL    HW372908   8.191   2.295   4.802
18147SOL    MW472909   8.152   2.374   4.796
18148SOL     OW72910   7.907   2.800   4.697
18148SOL    HW272911   7.862   2.807   4.613
18148SOL    HW372912   7.887   2.883   4.741
18148SOL    MW472913   7.899   2.812   4.691
18149SOL     OW72914   7.604   3.646   4.572
18149SOL    HW272915   7.693   3.638   4.607
18149SOL    HW372916   7.568   3.558   4.577
18149SOL    MW472917   7.611   3.633   4.577
18150SOL     OW72918   8.869   3.038   3.941
18150SOL    HW272919   8.787   3.074   3.907
18150SOL    HW372920   8.937   3.081   3.890
18150SOL    MW472921   8.867   3.048   3.929
18151SOL     OW72922   7.868   3.173   4.607
18151SOL    HW272923   7.844   3.226   4.683
18151SOL    HW372924   7.924   3.231   4.555
18151SOL    MW472925   7.872   3.188   4.610
18152SOL     OW72926   8.430   2.817   4.417
18152SOL    HW272927   8.344   2.804   4.457
18152SOL    HW372928   8.483   2.744   4.449
18152SOL    MW472929   8.426   2.806   4.426
18153SOL     OW72930   7.838   3.469   5.202
18153SOL    HW272931   7.746   3.445   5.187
18153SOL    HW372932   7.882   3.386   5.219
18153SOL    MW472933   7.832   3.454   5.201
18154SOL     OW72934   8.421   3.179   4.134
18154SOL    HW272935   8.398   3.241   4.202
18154SOL    HW372936   8.378   3.097   4.160
18154SOL    MW472937   8.413   3.175   4.145
18155SOL     OW72938   9.294   2.180   4.590
18155SOL    HW272939   9.231   2.160   4.659
18155SOL    HW372940   9.284   2.109   4.527
18155SOL    MW472941   9.284   2.167   4.591
18156SOL     OW72942   7.918   2.152   4.102
18156SOL    HW272943   7.892   2.114   4.018
18156SOL    HW372944   7.855   2.222   4.118
18156SOL    MW472945   7.907   2.155   4.093
18157SOL     OW72946   7.753   3.113   4.139
18157SOL    HW272947   7.701   3.181   4.095
18157SOL    HW372948   7.750   3.039   4.079
18157SOL    MW472949   7.745   3.112   4.126
18158SOL     OW72950   8.415   3.576   3.917
18158SOL    HW272951   8.370   3.592   4.000
18158SOL    HW372952   8.346   3.541   3.859
18158SOL    MW472953   8.401   3.573   3.919
18159SOL     OW72954   9.350   2.349   3.892
18159SOL    HW272955   9.259   2.351   3.920
18159SOL    HW372956   9.395   2.411   3.950
18159SOL    MW472957   9.343   2.357   3.902
18160SOL     OW72958   9.095   2.952   4.242
18160SOL    HW272959   9.005   2.952   4.277
18160SOL    HW372960   9.088   2.998   4.159
18160SOL    MW472961   9.082   2.958   4.236
18161SOL     OW72962   8.895   2.587   5.314
18161SOL    HW272963   8.964   2.525   5.291
18161SOL    HW372964   8.820   2.561   5.261
18161SOL    MW472965   8.895   2.574   5.305
18162SOL     OW72966   7.636   3.467   4.866
18162SOL    HW272967   7.619   3.413   4.943
18162SOL    HW372968   7.624   3.557   4.896
18162SOL    MW472969   7.633   3.471   4.880
18163SOL     OW72970   8.631   2.974   5.306
18163SOL    HW272971   8.616   3.067   5.291
18163SOL    HW372972   8.726   2.964   5.306
18163SOL    MW472973   8.640   2.984   5.303
18164SOL     OW72974   8.427   2.398   5.507
18164SOL    HW272975   8.517   2.399   5.474
18164SOL    HW372976   8.386   2.323   5.465
18164SOL    MW472977   8.433   2.388   5.498
18165SOL     OW72978   9.002   2.930   4.634
18165SOL    HW272979   9.005   2.864   4.565
18165SOL    HW372980   9.087   2.973   4.630
18165SOL    MW472981   9.014   2.926   4.625
18166SOL     OW72982   8.622   2.533   4.203
18166SOL    HW272983   8.648   2.557   4.114
18166SOL    HW372984   8.604   2.440   4.199
18166SOL    MW472985   8.624   2.525   4.190
18167SOL     OW72986   9.287   3.153   4.054
18167SOL    HW272987   9.243   3.194   4.129
18167SOL    HW372988   9.344   3.221   4.019
18167SOL    MW472989   9.289   3.167   4.059
18168SOL     OW72990   8.207   2.202   5.457
18168SOL    HW272991   8.217   2.128   5.397
18168SOL    HW372992   8.243   2.171   5.540
18168SOL    MW472993   8.213   2.188   5.459
18169SOL     OW72994   7.943   3.569   4.372
18169SOL    HW272995   7.975   3.657   4.350
18169SOL    HW372996   7.896   3.541   4.294
18169SOL    MW472997   7.942   3.577   4.359
18170SOL     OW72998   9.327   1.931   4.421
18170SOL    HW272999   9.381   1.882   4.483
18170SOL    HW373000   9.270   1.865   4.382
18170SOL    MW473001   9.327   1.915   4.423
18171SOL     OW73002   7.659   3.629   3.949
18171SOL    HW273003   7.688   3.719   3.941
18171SOL    HW373004   7.609   3.612   3.870
18171SOL    MW473005   7.657   3.637   3.938
18172SOL     OW73006   8.446   1.884   4.834
18172SOL    HW273007   8.405   1.962   4.796
18172SOL    HW373008   8.540   1.902   4.829
18172SOL    MW473009   8.452   1.896   4.829
18173SOL     OW73010   9.063   3.437   3.920
18173SOL    HW273011   9.111   3.506   3.966
18173SOL    HW373012   8.984   3.481   3.889
18173SOL    MW473013   9.058   3.451   3.923
18174SOL     OW73014   8.461   2.562   3.864
18174SOL    HW273015   8.463   2.509   3.785
18174SOL    HW373016   8.549   2.599   3.870
18174SOL    MW473017   8.473   2.561   3.853
18175SOL     OW73018   9.075   2.488   4.200
18175SOL    HW273019   9.114   2.488   4.287
18175SOL    HW373020   9.016   2.564   4.200
18175SOL    MW473021   9.072   2.499   4.211
18176SOL     OW73022   8.392   2.855   5.329
18176SOL    HW273023   8.369   2.835   5.419
18176SOL    HW373024   8.477   2.899   5.334
18176SOL    MW473025   8.399   2.858   5.341
18177SOL     OW73026   8.472   1.992   5.089
18177SOL    HW273027   8.478   1.954   5.002
18177SOL    HW373028   8.461   2.086   5.074
18177SOL    MW473029   8.473   2.000   5.077
18178SOL     OW73030   8.561   2.481   4.923
18178SOL    HW273031   8.636   2.510   4.870
18178SOL    HW373032   8.493   2.546   4.907
18178SOL    MW473033   8.562   2.493   4.913
18179SOL     OW73034   9.111   2.449   5.200
18179SOL    HW273035   9.092   2.358   5.179
18179SOL    HW373036   9.089   2.498   5.121
18179SOL    MW473037   9.106   2.442   5.187
18180SOL     OW73038   9.253   3.543   5.104
18180SOL    HW273039   9.181   3.505   5.155
18180SOL    HW373040   9.270   3.628   5.145
18180SOL    MW473041   9.247   3.548   5.116
18181SOL     OW73042   8.558   2.187   5.306
18181SOL    HW273043   8.524   2.226   5.225
18181SOL    HW373044   8.536   2.095   5.299
18181SOL    MW473045   8.551   2.180   5.296
18182SOL     OW73046   8.967   3.001   5.382
18182SOL    HW273047   9.049   3.042   5.412
18182SOL    HW373048   8.930   2.963   5.462
18182SOL    MW473049   8.973   3.002   5.397
18183SOL     OW73050   9.262   2.374   4.366
18183SOL    HW273051   9.351   2.343   4.383
18183SOL    HW373052   9.205   2.314   4.414
18183SOL    MW473053   9.265   2.362   4.375
18184SOL     OW73054   7.688   2.088   4.395
18184SOL    HW273055   7.679   2.028   4.321
18184SOL    HW373056   7.621   2.059   4.458
18184SOL    MW473057   7.678   2.075   4.393
18185SOL     OW73058   8.631   3.181   3.956
18185SOL    HW273059   8.581   3.183   4.038
18185SOL    HW373060   8.565   3.199   3.888
18185SOL    MW473061   8.617   3.183   3.958
18186SOL     OW73062   7.635   2.261   4.758
18186SOL    HW273063   7.607   2.352   4.767
18186SOL    HW373064   7.572   2.222   4.697
18186SOL    MW473065   7.622   2.267   4.752
18187SOL     OW73066   8.094   3.599   4.064
18187SOL    HW273067   8.015   3.557   4.097
18187SOL    HW373068   8.160   3.582   4.131
18187SOL    MW473069   8.093   3.591   4.077
18188SOL     OW73070   9.222   3.119   5.461
18188SOL    HW273071   9.272   3.045   5.493
18188SOL    HW373072   9.168   3.146   5.536
18188SOL    MW473073   9.222   3.113   5.474
18189SOL     OW73074   8.230   3.014   3.771
18189SOL    HW273075   8.152   2.960   3.758
18189SOL    HW373076   8.201   3.087   3.824
18189SOL    MW473077   8.216   3.016   3.776
18190SOL     OW73078   9.356   2.754   4.963
18190SOL    HW273079   9.372   2.792   4.876
18190SOL    HW373080   9.390   2.820   5.024
18190SOL    MW473081   9.363   2.767   4.959
18191SOL     OW73082   9.148   3.463   4.632
18191SOL    HW273083   9.177   3.530   4.693
18191SOL    HW373084   9.129   3.387   4.687
18191SOL    MW473085   9.150   3.463   4.647
18192SOL     OW73086   8.811   3.530   3.839
18192SOL    HW273087   8.737   3.493   3.889
18192SOL    HW373088   8.819   3.620   3.872
18192SOL    MW473089   8.802   3.537   3.851
18193SOL     OW73090   7.619   2.536   4.928
18193SOL    HW273091   7.681   2.566   4.994
18193SOL    HW373092   7.553   2.605   4.922
18193SOL    MW473093   7.618   2.549   4.935
18194SOL     OW73094   9.035   3.204   3.781
18194SOL    HW273095   8.982   3.253   3.717
18194SOL    HW373096   9.066   3.270   3.842
18194SOL    MW473097   9.033   3.218   3.779
18195SOL     OW73098   8.260   2.093   3.836
18195SOL    HW273099   8.208   2.013   3.824
18195SOL    HW373100   8.347   2.070   3.804
18195SOL    MW473101   8.263   2.079   3.830
18196SOL     OW73102   7.714   3.645   5.380
18196SOL    HW273103   7.688   3.713   5.318
18196SOL    HW373104   7.762   3.582   5.328
18196SOL    MW473105   7.716   3.645   5.366
18197SOL     OW73106   7.766   2.964   4.887
18197SOL    HW273107   7.819   3.039   4.912
18197SOL    HW373108   7.685   3.002   4.853
18197SOL    MW473109   7.762   2.979   4.887
18198SOL     OW73110   8.306   2.868   4.875
18198SOL    HW273111   8.334   2.777   4.887
18198SOL    HW373112   8.235   2.862   4.811
18198SOL    MW473113   8.299   2.856   4.870
18199SOL     OW73114   7.621   2.733   4.293
18199SOL    HW273115   7.712   2.748   4.320
18199SOL    HW373116   7.624   2.654   4.239
18199SOL    MW473117   7.633   2.725   4.291
18200SOL     OW73118   7.857   2.441   5.547
18200SOL    HW273119   7.804   2.521   5.554
18200SOL    HW373120   7.927   2.453   5.612
18200SOL    MW473121   7.859   2.454   5.555
18201SOL     OW73122   8.243   1.991   5.254
18201SOL    HW273123   8.220   1.899   5.256
18201SOL    HW373124   8.329   1.993   5.211
18201SOL    MW473125   8.250   1.981   5.250
18202SOL     OW73126   7.927   2.515   5.293
18202SOL    HW273127   8.007   2.565   5.279
18202SOL    HW373128   7.918   2.509   5.388
18202SOL    MW473129   7.936   2.521   5.303
18203SOL     OW73130   8.248   3.665   4.667
18203SOL    HW273131   8.337   3.680   4.697
18203SOL    HW373132   8.243   3.712   4.583
18203SOL    MW473133   8.258   3.673   4.660
18204SOL     OW73134   8.904   2.040   5.564
18204SOL    HW273135   8.960   1.967   5.590
18204SOL    HW373136   8.874   2.078   5.646
18204SOL    MW473137   8.908   2.035   5.577
18205SOL     OW73138   7.629   3.345   4.332
18205SOL    HW273139   7.601   3.384   4.414
18205SOL    HW373140   7.649   3.254   4.354
18205SOL    MW473141   7.627   3.337   4.345
18206SOL     OW73142   8.462   3.388   4.367
18206SOL    HW273143   8.545   3.342   4.351
18206SOL    HW373144   8.452   3.387   4.463
18206SOL    MW473145   8.472   3.381   4.377
18207SOL     OW73146   9.294   2.533   4.681
18207SOL    HW273147   9.383   2.563   4.663
18207SOL    HW373148   9.274   2.473   4.610
18207SOL    MW473149   9.303   2.530   4.670
18208SOL     OW73150   9.145   2.712   5.561
18208SOL    HW273151   9.200   2.636   5.542
18208SOL    HW373152   9.147   2.720   5.656
18208SOL    MW473153   9.153   2.703   5.569
18209SOL     OW73154   8.195   3.445   3.772
18209SOL    HW273155   8.135   3.514   3.742
18209SOL    HW373156   8.140   3.387   3.825
18209SOL    MW473157   8.179   3.447   3.774
18210SOL     OW73158   8.633   2.090   3.995
18210SOL    HW273159   8.566   2.066   3.932
18210SOL    HW373160   8.698   2.139   3.944
18210SOL    MW473161   8.633   2.092   3.980
18211SOL     OW73162   8.440   2.274   5.080
18211SOL    HW273163   8.359   2.315   5.108
18211SOL    HW373164   8.487   2.342   5.032
18211SOL    MW473165   8.435   2.289   5.078
18212SOL     OW73166   8.700   2.612   4.703
18212SOL    HW273167   8.713   2.706   4.713
18212SOL    HW373168   8.661   2.602   4.617
18212SOL    MW473169   8.696   2.623   4.693
18213SOL     OW73170   8.152   2.807   4.507
18213SOL    HW273171   8.063   2.798   4.540
18213SOL    HW373172   8.156   2.897   4.475
18213SOL    MW473173   8.141   2.818   4.507
18214SOL     OW73174   8.951   2.390   4.502
18214SOL    HW273175   8.896   2.311   4.501
18214SOL    HW373176   8.933   2.431   4.586
18214SOL    MW473177   8.941   2.385   4.511
18215SOL     OW73178   7.922   2.077   5.319
18215SOL    HW273179   7.843   2.095   5.371
18215SOL    HW373180   7.917   2.139   5.246
18215SOL    MW473181   7.912   2.087   5.316
18216SOL     OW73182   8.570   2.594   4.459
18216SOL    HW273183   8.507   2.526   4.483
18216SOL    HW373184   8.590   2.575   4.367
18216SOL    MW473185   8.564   2.581   4.451
18217SOL     OW73186   7.826   3.489   4.161
18217SOL    HW273187   7.787   3.536   4.087
18217SOL    HW373188   7.760   3.424   4.186
18217SOL    MW473189   7.813   3.487   4.155
18218SOL     OW73190   8.318   2.898   4.185
18218SOL    HW273191   8.320   2.872   4.092
18218SOL    HW373192   8.376   2.835   4.228
18218SOL    MW473193   8.326   2.887   4.179
18219SOL     OW73194   8.871   3.458   4.957
18219SOL    HW273195   8.796   3.504   4.995
18219SOL    HW373196   8.853   3.365   4.974
18219SOL    MW473197   8.860   3.452   4.965
18220SOL     OW73198   8.875   3.666   4.387
18220SOL    HW273199   8.818   3.619   4.326
18220SOL    HW373200   8.961   3.627   4.374
18220SOL    MW473201   8.878   3.657   4.377
18221SOL     OW73202   8.828   2.142   4.518
18221SOL    HW273203   8.856   2.074   4.579
18221SOL    HW373204   8.742   2.113   4.488
18221SOL    MW473205   8.821   2.129   4.522
18222SOL     OW73206   7.633   3.076   4.452
18222SOL    HW273207   7.697   3.108   4.515
18222SOL    HW373208   7.682   3.012   4.400
18222SOL    MW473209   7.648   3.072   4.453
18223SOL     OW73210   8.133   3.152   5.434
18223SOL    HW273211   8.181   3.235   5.421
18223SOL    HW373212   8.190   3.100   5.490
18223SOL    MW473213   8.147   3.156   5.440
18224SOL     OW73214   7.709   3.394   5.574
18224SOL    HW273215   7.765   3.318   5.589
18224SOL    HW373216   7.658   3.372   5.496
18224SOL    MW473217   7.709   3.381   5.565
18225SOL     OW73218   8.808   2.246   3.853
18225SOL    HW273219   8.781   2.312   3.789
18225SOL    HW373220   8.878   2.289   3.903
18225SOL    MW473221   8.813   2.259   3.850
18226SOL     OW73222   8.476   1.951   3.790
18226SOL    HW273223   8.532   1.943   3.712
18226SOL    HW373224   8.453   1.861   3.812
18226SOL    MW473225   8.481   1.938   3.783
18227SOL     OW73226   8.981   2.802   3.995
18227SOL    HW273227   8.948   2.891   3.985
18227SOL    HW373228   8.946   2.773   4.080
18227SOL    MW473229   8.971   2.811   4.006
18228SOL     OW73230   8.594   3.231   5.183
18228SOL    HW273231   8.505   3.237   5.151
18228SOL    HW373232   8.638   3.310   5.151
18228SOL    MW473233   8.589   3.241   5.175
18229SOL     OW73234   7.887   1.899   5.525
18229SOL    HW273235   7.815   1.864   5.473
18229SOL    HW373236   7.945   1.940   5.460
18229SOL    MW473237   7.885   1.900   5.510
18230SOL     OW73238   7.911   3.389   4.824
18230SOL    HW273239   7.956   3.451   4.881
18230SOL    HW373240   7.818   3.408   4.837
18230SOL    MW473241   7.904   3.399   4.831
18231SOL     OW73242   9.351   2.918   5.178
18231SOL    HW273243   9.266   2.931   5.137
18231SOL    HW373244   9.331   2.882   5.265
18231SOL    MW473245   9.338   2.914   5.183
18232SOL     OW73246   8.333   3.457   4.932
18232SOL    HW273247   8.357   3.446   4.841
18232SOL    HW373248   8.256   3.514   4.930
18232SOL    MW473249   8.325   3.462   4.921
18233SOL     OW73250   7.975   2.840   3.787
18233SOL    HW273251   7.898   2.853   3.843
18233SOL    HW373252   7.939   2.804   3.706
18233SOL    MW473253   7.961   2.836   3.784
18234SOL     OW73254   8.628   2.813   4.030
18234SOL    HW273255   8.538   2.834   4.005
18234SOL    HW373256   8.655   2.886   4.086
18234SOL    MW473257   8.620   2.825   4.033
18235SOL     OW73258   8.128   3.162   4.722
18235SOL    HW273259   8.121   3.141   4.816
18235SOL    HW373260   8.046   3.130   4.685
18235SOL    MW473261   8.116   3.156   4.729
18236SOL     OW73262   8.992   2.172   5.124
18236SOL    HW273263   8.939   2.174   5.204
18236SOL    HW373264   8.977   2.085   5.087
18236SOL    MW473265   8.984   2.162   5.129
18237SOL     OW73266   9.328   2.096   4.997
18237SOL    HW273267   9.309   2.163   4.932
18237SOL    HW373268   9.385   2.034   4.952
18237SOL    MW473269   9.332   2.097   4.983
18238SOL     OW73270   7.574   3.254   5.385
18238SOL    HW273271   7.618   3.187   5.331
18238SOL    HW373272   7.489   3.216   5.405
18238SOL    MW473273   7.569   3.240   5.381
18239SOL     OW73274   8.257   1.929   4.437
18239SOL    HW273275   8.186   1.990   4.419
18239SOL    HW373276   8.308   1.926   4.356
18239SOL    MW473277   8.253   1.935   4.424
18240SOL     OW73278   8.015   3.169   4.186
18240SOL    HW273279   8.008   3.201   4.276
18240SOL    HW373280   7.925   3.153   4.158
18240SOL    MW473281   8.003   3.171   4.193
18241SOL     OW73282   8.610   3.562   5.095
18241SOL    HW273283   8.530   3.547   5.045
18241SOL    HW373284   8.617   3.657   5.102
18241SOL    MW473285   8.601   3.573   5.089
18242SOL     OW73286   8.724   3.527   4.585
18242SOL    HW273287   8.771   3.600   4.544
18242SOL    HW373288   8.645   3.566   4.621
18242SOL    MW473289   8.719   3.542   4.584
18243SOL     OW73290   9.132   3.622   4.860
18243SOL    HW273291   9.175   3.592   4.940
18243SOL    HW373292   9.051   3.570   4.857
18243SOL    MW473293   9.127   3.611   4.870
18244SOL     OW73294   8.217   2.586   5.567
18244SOL    HW273295   8.287   2.528   5.539
18244SOL    HW373296   8.160   2.531   5.622
18244SOL    MW473297   8.219   2.573   5.571
18245SOL     OW73298   9.004   2.798   5.200
18245SOL    HW273299   9.009   2.851   5.280
18245SOL    HW373300   8.966   2.715   5.228
18245SOL    MW473301   9.000   2.793   5.215
18246SOL     OW73302   8.644   1.933   5.446
18246SOL    HW273303   8.639   1.840   5.427
18246SOL    HW373304   8.727   1.944   5.492
18246SOL    MW473305   8.652   1.922   5.450
18247SOL     OW73306   8.018   2.453   3.900
18247SOL    HW273307   7.984   2.509   3.970
18247SOL    HW373308   8.089   2.403   3.940
18247SOL    MW473309   8.024   2.454   3.914
18248SOL     OW73310   9.114   3.204   4.722
18248SOL    HW273311   9.149   3.186   4.635
18248SOL    HW373312   9.019   3.205   4.709
18248SOL    MW473313   9.106   3.201   4.709
18249SOL     OW73314   8.543   2.852   5.091
18249SOL    HW273315   8.586   2.887   5.169
18249SOL    HW373316   8.526   2.929   5.037
18249SOL    MW473317   8.546   2.867   5.094
18250SOL     OW73318   9.074   2.339   3.964
18250SOL    HW273319   9.066   2.410   3.901
18250SOL    HW373320   9.092   2.383   4.047
18250SOL    MW473321   9.075   2.353   3.966
18251SOL     OW73322   7.934   1.994   4.393
18251SOL    HW273323   7.984   2.037   4.324
18251SOL    HW373324   7.849   2.038   4.393
18251SOL    MW473325   7.931   2.007   4.384
18252SOL     OW73326   7.693   3.056   5.253
18252SOL    HW273327   7.721   3.009   5.331
18252SOL    HW373328   7.614   3.011   5.224
18252SOL    MW473329   7.686   3.045   5.259
18253SOL     OW73330   8.201   2.383   5.220
18253SOL    HW273331   8.173   2.471   5.244
18253SOL    HW373332   8.170   2.327   5.291
18253SOL    MW473333   8.193   2.386   5.232
18254SOL     OW73334   8.743   2.601   3.939
18254SOL    HW273335   8.790   2.619   3.858
18254SOL    HW373336   8.709   2.685   3.967
18254SOL    MW473337   8.745   2.615   3.932
18255SOL     OW73338   7.856   2.779   4.433
18255SOL    HW273339   7.914   2.835   4.381
18255SOL    HW373340   7.900   2.694   4.435
18255SOL    MW473341   7.869   2.776   4.426
18256SOL     OW73342   8.996   2.131   4.270
18256SOL    HW273343   8.918   2.081   4.295
18256SOL    HW373344   8.967   2.222   4.270
18256SOL    MW473345   8.982   2.135   4.273
18257SOL     OW73346   8.582   2.093   4.429
18257SOL    HW273347   8.602   2.168   4.373
18257SOL    HW373348   8.562   2.132   4.514
18257SOL    MW473349   8.583   2.109   4.433
18258SOL     OW73350   8.478   3.343   3.761
18258SOL    HW273351   8.505   3.421   3.713
18258SOL    HW373352   8.385   3.358   3.780
18258SOL    MW473353   8.469   3.356   3.757
18259SOL     OW73354   9.342   2.866   5.448
18259SOL    HW273355   9.255   2.846   5.484
18259SOL    HW373356   9.396   2.792   5.473
18259SOL    MW473357   9.337   2.855   5.456
18260SOL     OW73358   7.563   3.379   4.605
18260SOL    HW273359   7.595   3.383   4.696
18260SOL    HW373360   7.468   3.387   4.613
18260SOL    MW473361   7.555   3.382   4.618
18261SOL     OW73362   7.518   2.505   4.152
18261SOL    HW273363   7.458   2.477   4.222
18261SOL    HW373364   7.592   2.445   4.158
18261SOL    MW473365   7.520   2.494   4.161
18262SOL     OW73366   9.086   3.717   5.586
18262SOL    HW273367   9.131   3.641   5.551
18262SOL    HW373368   9.124   3.730   5.673
18262SOL    MW473369   9.096   3.710   5.592
18263SOL     OW73370   8.686   3.236   4.312
18263SOL    HW273371   8.709   3.187   4.390
18263SOL    HW373372   8.767   3.278   4.284
18263SOL    MW473373   8.699   3.236   4.319
18264SOL     OW73374   7.944   2.244   5.041
18264SOL    HW273375   7.977   2.325   5.081
18264SOL    HW373376   7.917   2.270   4.953
18264SOL    MW473377   7.943   2.258   5.035
18265SOL     OW73378   7.898   2.211   4.777
18265SOL    HW273379   7.928   2.125   4.748
18265SOL    HW373380   7.803   2.204   4.780
18265SOL    MW473381   7.890   2.200   4.775
18266SOL     OW73382   8.727   2.420   5.468
18266SOL    HW273383   8.779   2.355   5.421
18266SOL    HW373384   8.685   2.471   5.398
18266SOL    MW473385   8.728   2.417   5.451
18267SOL     OW73386   8.826   2.215   5.329
18267SOL    HW273387   8.733   2.199   5.316
18267SOL    HW373388   8.852   2.153   5.397
18267SOL    MW473389   8.816   2.205   5.336
18268SOL     OW73390   8.041   1.989   4.668
18268SOL    HW273391   8.051   1.898   4.694
18268SOL    HW373392   7.997   1.985   4.583
18268SOL    MW473393   8.037   1.977   4.660
18269SOL     OW73394   8.135   3.604   5.214
18269SOL    HW273395   8.052   3.589   5.259
18269SOL    HW373396   8.194   3.537   5.249
18269SOL    MW473397   8.133   3.594   5.224
18270SOL     OW73398   9.192   2.311   4.839
18270SOL    HW273399   9.125   2.344   4.899
18270SOL    HW373400   9.235   2.389   4.805
18270SOL    MW473401   9.190   2.326   4.843
18271SOL     OW73402   9.370   3.031   4.809
18271SOL    HW273403   9.363   2.971   4.734
18271SOL    HW373404   9.296   3.091   4.798
18271SOL    MW473405   9.360   3.031   4.798
18272SOL     OW73406   8.752   2.893   4.727
18272SOL    HW273407   8.766   2.865   4.818
18272SOL    HW373408   8.838   2.924   4.699
18272SOL    MW473409   8.765   2.894   4.736
18273SOL     OW73410   8.835   2.388   5.006
18273SOL    HW273411   8.856   2.389   4.913
18273SOL    HW373412   8.880   2.310   5.039
18273SOL    MW473413   8.842   2.378   4.998
18274SOL     OW73414   9.328   2.519   5.548
18274SOL    HW273415   9.365   2.464   5.617
18274SOL    HW373416   9.353   2.476   5.466
18274SOL    MW473417   9.335   2.507   5.547
18275SOL     OW73418   8.875   2.817   5.600
18275SOL    HW273419   8.941   2.765   5.554
18275SOL    HW373420   8.895   2.804   5.693
18275SOL    MW473421   8.886   2.808   5.607
18276SOL     OW73422   8.826   1.903   3.948
18276SOL    HW273423   8.900   1.947   3.991
18276SOL    HW373424   8.750   1.957   3.970
18276SOL    MW473425   8.826   1.915   3.956
18277SOL     OW73426   8.886   2.678   4.226
18277SOL    HW273427   8.801   2.648   4.196
18277SOL    HW373428   8.878   2.685   4.321
18277SOL    MW473429   8.874   2.676   4.235
18278SOL     OW73430   7.962   3.141   4.957
18278SOL    HW273431   7.974   3.168   5.048
18278SOL    HW373432   7.943   3.222   4.910
18278SOL    MW473433   7.961   3.156   4.962
18279SOL     OW73434   8.246   2.121   4.780
18279SOL    HW273435   8.219   2.123   4.871
18279SOL    HW373436   8.176   2.073   4.735
18279SOL    MW473437   8.234   2.117   4.787
18280SOL     OW73438   8.100   3.613   4.942
18280SOL    HW273439   8.152   3.690   4.919
18280SOL    HW373440   8.109   3.605   5.037
18280SOL    MW473441   8.109   3.620   4.953
18281SOL     OW73442   9.002   3.198   5.174
18281SOL    HW273443   8.987   3.127   5.237
18281SOL    HW373444   9.048   3.156   5.102
18281SOL    MW473445   9.008   3.182   5.174
18282SOL     OW73446   8.076   2.929   5.291
18282SOL    HW273447   8.113   2.934   5.203
18282SOL    HW373448   8.115   3.002   5.338
18282SOL    MW473449   8.086   2.939   5.286
18283SOL     OW73450   8.256   2.972   5.103
18283SOL    HW273451   8.315   2.918   5.156
18283SOL    HW373452   8.271   2.944   5.013
18283SOL    MW473453   8.266   2.961   5.099
18284SOL     OW73454   8.259   2.344   3.952
18284SOL    HW273455   8.332   2.393   3.915
18284SOL    HW373456   8.275   2.253   3.926
18284SOL    MW473457   8.271   2.339   3.945
18285SOL     OW73458   9.067   3.461   5.275
18285SOL    HW273459   9.109   3.446   5.360
18285SOL    HW373460   9.058   3.374   5.237
18285SOL    MW473461   9.071   3.449   5.282
18286SOL     OW73462   8.727   1.940   4.866
18286SOL    HW273463   8.782   1.949   4.788
18286SOL    HW373464   8.782   1.974   4.937
18286SOL    MW473465   8.741   1.945   4.865
18287SOL     OW73466   7.734   2.853   4.050
18287SOL    HW273467   7.671   2.869   3.979
18287SOL    HW373468   7.681   2.816   4.121
18287SOL    MW473469   7.719   2.850   4.050
18288SOL     OW73470   8.090   3.207   3.909
18288SOL    HW273471   8.105   3.183   4.001
18288SOL    HW373472   7.998   3.185   3.893
18288SOL    MW473473   8.080   3.200   3.919
18289SOL     OW73474   8.629   3.438   4.061
18289SOL    HW273475   8.637   3.356   4.012
18289SOL    HW373476   8.548   3.477   4.028
18289SOL    MW473477   8.619   3.433   4.051
18290SOL     OW73478   7.888   3.596   4.630
18290SOL    HW273479   7.892   3.507   4.665
18290SOL    HW373480   7.914   3.587   4.539
18290SOL    MW473481   7.891   3.584   4.622
18291SOL     OW73482   8.505   3.074   4.873
18291SOL    HW273483   8.437   3.008   4.889
18291SOL    HW373484   8.523   3.068   4.780
18291SOL    MW473485   8.498   3.065   4.864
18292SOL     OW73486   7.594   3.349   5.124
18292SOL    HW273487   7.584   3.307   5.210
18292SOL    HW373488   7.515   3.402   5.114
18292SOL    MW473489   7.583   3.350   5.135
18293SOL     OW73490   8.498   2.213   4.694
18293SOL    HW273491   8.428   2.165   4.739
18293SOL    HW373492   8.530   2.276   4.758
18293SOL    MW473493   8.493   2.215   4.708
18294SOL     OW73494   8.149   2.649   5.314
18294SOL    HW273495   8.142   2.744   5.302
18294SOL    HW373496   8.158   2.638   5.409
18294SOL    MW473497   8.150   2.661   5.324
18295SOL     OW73498   7.870   3.164   5.572
18295SOL    HW273499   7.942   3.166   5.509
18295SOL    HW373500   7.840   3.073   5.571
18295SOL    MW473501   7.875   3.153   5.564
18296SOL     OW73502   8.954   1.927   5.039
18296SOL    HW273503   9.025   1.873   5.003
18296SOL    HW373504   8.953   1.906   5.132
18296SOL    MW473505   8.963   1.918   5.047
18297SOL     OW73506   9.154   3.457   5.523
18297SOL    HW273507   9.127   3.454   5.614
18297SOL    HW373508   9.250   3.461   5.526
18297SOL    MW473509   9.164   3.457   5.535
18298SOL     OW73510   7.965   2.319   4.507
18298SOL    HW273511   8.036   2.267   4.470
18298SOL    HW373512   7.951   2.284   4.594
18298SOL    MW473513   7.973   2.308   4.514
18299SOL     OW73514   7.520   3.654   5.579
18299SOL    HW273515   7.570   3.632   5.501
18299SOL    HW373516   7.528   3.749   5.587
18299SOL    MW473517   7.528   3.663   5.570
18300SOL     OW73518   8.281   3.412   4.583
18300SOL    HW273519   8.209   3.349   4.596
18300SOL    HW373520   8.242   3.497   4.601
18300SOL    MW473521   8.265   3.415   4.586
18301SOL     OW73522   8.601   2.260   4.231
18301SOL    HW273523   8.623   2.197   4.163
18301SOL    HW373524   8.506   2.252   4.242
18301SOL    MW473525   8.591   2.251   4.223
18302SOL     OW73526   7.686   1.950   4.163
18302SOL    HW273527   7.757   1.971   4.102
18302SOL    HW373528   7.640   1.878   4.121
18302SOL    MW473529   7.690   1.944   4.149
18303SOL     OW73530   7.517   2.417   5.306
18303SOL    HW273531   7.581   2.483   5.281
18303SOL    HW373532   7.436   2.444   5.263
18303SOL    MW473533   7.515   2.429   5.298
18304SOL     OW73534   9.255   3.324   4.263
18304SOL    HW273535   9.225   3.257   4.324
18304SOL    HW373536   9.349   3.330   4.277
18304SOL    MW473537   9.263   3.316   4.273
18305SOL     OW73538   8.811   3.001   4.193
18305SOL    HW273539   8.783   3.087   4.226
18305SOL    HW373540   8.839   3.017   4.103
18305SOL    MW473541   8.811   3.015   4.185
18306SOL     OW73542   8.473   1.921   4.246
18306SOL    HW273543   8.510   1.980   4.311
18306SOL    HW373544   8.450   1.977   4.172
18306SOL    MW473545   8.474   1.936   4.245
18307SOL     OW73546   9.326   2.803   4.668
18307SOL    HW273547   9.317   2.835   4.579
18307SOL    HW373548   9.279   2.719   4.668
18307SOL    MW473549   9.319   2.796   4.658
18308SOL     OW73550   7.702   2.643   5.247
18308SOL    HW273551   7.723   2.712   5.185
18308SOL    HW373552   7.782   2.590   5.252
18308SOL    MW473553   7.715   2.644   5.241
18309SOL     OW73554   9.238   2.734   4.369
18309SOL    HW273555   9.332   2.723   4.357
18309SOL    HW373556   9.214   2.806   4.310
18309SOL    MW473557   9.248   2.742   4.360
18310SOL     OW73558   7.687   2.658   5.514
18310SOL    HW273559   7.613   2.602   5.540
18310SOL    HW373560   7.682   2.661   5.419
18310SOL    MW473561   7.676   2.651   5.504
18311SOL     OW73562   7.853   1.945   4.964
18311SOL    HW273563   7.896   2.029   4.984
18311SOL    HW373564   7.926   1.883   4.957
18311SOL    MW473565   7.868   1.948   4.965
18312SOL     OW73566   7.894   2.612   4.142
18312SOL    HW273567   7.894   2.707   4.127
18312SOL    HW373568   7.971   2.596   4.196
18312SOL    MW473569   7.904   2.623   4.147
18313SOL     OW73570   8.670   2.471   5.206
18313SOL    HW273571   8.706   2.444   5.122
18313SOL    HW373572   8.583   2.505   5.185
18313SOL    MW473573   8.664   2.472   5.193
18314SOL     OW73574   7.653   2.343   4.431
18314SOL    HW273575   7.715   2.350   4.504
18314SOL    HW373576   7.653   2.250   4.408
18314SOL    MW473577   7.661   2.332   4.438
18315SOL     OW73578   9.200   3.683   3.963
18315SOL    HW273579   9.267   3.716   3.903
18315SOL    HW373580   9.157   3.762   3.997
18315SOL    MW473581   9.202   3.698   3.959
18316SOL     OW73582   8.335   2.604   4.915
18316SOL    HW273583   8.293   2.522   4.891
18316SOL    HW373584   8.336   2.603   5.011
18316SOL    MW473585   8.328   2.593   4.924
18317SOL     OW73586   9.006   3.737   5.314
18317SOL    HW273587   9.009   3.643   5.297
18317SOL    HW373588   9.029   3.745   5.406
18317SOL    MW473589   9.009   3.725   5.324
18318SOL     OW73590   8.139   2.074   5.020
18318SOL    HW273591   8.070   2.137   5.041
18318SOL    HW373592   8.166   2.038   5.105
18318SOL    MW473593   8.133   2.077   5.033
18319SOL     OW73594   7.522   2.915   3.889
18319SOL    HW273595   7.491   2.980   3.952
18319SOL    HW373596   7.471   2.837   3.908
18319SOL    MW473597   7.512   2.912   3.899
18320SOL     OW73598   8.934   1.927   4.637
18320SOL    HW273599   9.022   1.936   4.674
18320SOL    HW373600   8.944   1.868   4.563
18320SOL    MW473601   8.948   1.921   4.631
18321SOL     OW73602   8.966   2.666   4.481
18321SOL    HW273603   9.046   2.681   4.430
18321SOL    HW373604   8.959   2.571   4.487
18321SOL    MW473605   8.975   2.655   4.476
18322SOL     OW73606   8.106   3.715   3.831
18322SOL    HW273607   8.011   3.715   3.823
18322SOL    HW373608   8.122   3.661   3.909
18322SOL    MW473609   8.096   3.709   3.840
18323SOL     OW73610   8.416   2.592   5.178
18323SOL    HW273611   8.485   2.659   5.175
18323SOL    HW373612   8.349   2.630   5.234
18323SOL    MW473613   8.417   2.605   5.185
18324SOL     OW73614   7.834   2.892   5.426
18324SOL    HW273615   7.788   2.808   5.428
18324SOL    HW373616   7.891   2.886   5.350
18324SOL    MW473617   7.836   2.880   5.418
18325SOL     OW73618   8.951   2.535   3.747
18325SOL    HW273619   8.879   2.511   3.689
18325SOL    HW373620   9.017   2.572   3.689
18325SOL    MW473621   8.950   2.537   3.732
18326SOL     OW73622   8.085   3.267   4.427
18326SOL    HW273623   8.150   3.200   4.448
18326SOL    HW373624   8.137   3.344   4.404
18326SOL    MW473625   8.100   3.269   4.426
18327SOL     OW73626   8.346   2.432   4.557
18327SOL    HW273627   8.286   2.450   4.629
18327SOL    HW373628   8.380   2.344   4.576
18327SOL    MW473629   8.342   2.422   4.570
18328SOL     OW73630   9.287   1.931   5.226
18328SOL    HW273631   9.208   1.977   5.254
18328SOL    HW373632   9.322   1.985   5.155
18328SOL    MW473633   9.281   1.944   5.220
18329SOL     OW73634   8.571   3.015   4.576
18329SOL    HW273635   8.663   2.996   4.594
18329SOL    HW373636   8.544   2.945   4.516
18329SOL    MW473637   8.579   3.003   4.570
18330SOL     OW73638   8.364   2.835   3.931
18330SOL    HW273639   8.350   2.747   3.896
18330SOL    HW373640   8.315   2.892   3.872
18330SOL    MW473641   8.356   2.830   3.919
18331SOL     OW73642   8.845   3.253   4.672
18331SOL    HW273643   8.818   3.337   4.637
18331SOL    HW373644   8.805   3.248   4.759
18331SOL    MW473645   8.838   3.262   4.678
18332SOL     OW73646   8.764   3.201   4.940
18332SOL    HW273647   8.775   3.168   5.029
18332SOL    HW373648   8.683   3.160   4.909
18332SOL    MW473649   8.754   3.193   4.946
18333SOL     OW73650   7.777   2.559   4.710
18333SOL    HW273651   7.727   2.558   4.791
18333SOL    HW373652   7.797   2.651   4.694
18333SOL    MW473653   7.773   2.571   4.718
18334SOL     OW73654   8.844   3.323   5.472
18334SOL    HW273655   8.844   3.417   5.488
18334SOL    HW373656   8.889   3.313   5.388
18334SOL    MW473657   8.850   3.333   5.463
18335SOL     OW73658   9.083   2.041   4.033
18335SOL    HW273659   9.076   2.045   4.128
18335SOL    HW373660   9.095   2.132   4.006
18335SOL    MW473661   9.084   2.054   4.041
18336SOL     OW73662   8.372   2.604   4.147
18336SOL    HW273663   8.352   2.590   4.054
18336SOL    HW373664   8.465   2.583   4.154
18336SOL    MW473665   8.382   2.599   4.136
18337SOL     OW73666   7.699   2.227   5.451
18337SOL    HW273667   7.656   2.286   5.388
18337SOL    HW373668   7.767   2.282   5.491
18337SOL    MW473669   7.703   2.242   5.448
18338SOL     OW73670   8.811   2.847   4.996
18338SOL    HW273671   8.874   2.844   5.069
18338SOL    HW373672   8.727   2.865   5.038
18338SOL    MW473673   8.807   2.849   5.011
18339SOL     OW73674   8.355   3.562   4.185
18339SOL    HW273675   8.413   3.633   4.212
18339SOL    HW373676   8.378   3.490   4.243
18339SOL    MW473677   8.366   3.562   4.196
18340SOL     OW73678   9.150   2.024   4.775
18340SOL    HW273679   9.195   1.942   4.794
18340SOL    HW373680   9.170   2.080   4.851
18340SOL    MW473681   9.160   2.020   4.787
18341SOL     OW73682   7.598   1.867   4.874
18341SOL    HW273683   7.589   1.868   4.779
18341SOL    HW373684   7.692   1.879   4.889
18341SOL    MW473685   7.610   1.870   4.865
18342SOL     OW73686   9.235   3.060   4.494
18342SOL    HW273687   9.214   3.006   4.417
18342SOL    HW373688   9.331   3.058   4.498
18342SOL    MW473689   9.244   3.053   4.483
18343SOL     OW73690   7.927   3.205   5.237
18343SOL    HW273691   7.848   3.155   5.260
18343SOL    HW373692   7.997   3.164   5.287
18343SOL    MW473693   7.925   3.193   5.247
18344SOL     OW73694   7.811   1.994   3.920
18344SOL    HW273695   7.740   2.049   3.888
18344SOL    HW373696   7.853   1.960   3.841
18344SOL    MW473697   7.807   1.996   3.906
18345SOL     OW73698   8.935   2.491   4.756
18345SOL    HW273699   8.858   2.537   4.722
18345SOL    HW373700   8.992   2.560   4.790
18345SOL    MW473701   8.932   2.506   4.756
18346SOL     OW73702   7.567   2.093   3.769
18346SOL    HW273703   7.534   2.172   3.813
18346SOL    HW373704   7.622   2.126   3.698
18346SOL    MW473705   7.570   2.107   3.766
18347SOL     OW73706   7.601   3.350   3.958
18347SOL    HW273707   7.618   3.434   4.000
18347SOL    HW373708   7.636   3.359   3.870
18347SOL    MW473709   7.606   3.363   3.952
18348SOL     OW73710   8.873   3.439   4.175
18348SOL    HW273711   8.936   3.429   4.104
18348SOL    HW373712   8.790   3.459   4.130
18348SOL    MW473713   8.870   3.440   4.160
18349SOL     OW73714   9.236   2.707   5.862
18349SOL    HW273715   9.277   2.649   5.927
18349SOL    HW373716   9.143   2.699   5.879
18349SOL    MW473717   9.230   2.699   5.872
18350SOL     OW73718   9.102   2.639   6.857
18350SOL    HW273719   9.057   2.706   6.908
18350SOL    HW373720   9.190   2.675   6.843
18350SOL    MW473721   9.108   2.652   6.861
18351SOL     OW73722   8.030   2.890   6.091
18351SOL    HW273723   8.120   2.865   6.075
18351SOL    HW373724   8.026   2.983   6.068
18351SOL    MW473725   8.042   2.899   6.086
18352SOL     OW73726   9.146   3.593   6.233
18352SOL    HW273727   9.158   3.539   6.311
18352SOL    HW373728   9.183   3.541   6.162
18352SOL    MW473729   9.152   3.578   6.234
18353SOL     OW73730   8.525   3.478   7.234
18353SOL    HW273731   8.566   3.514   7.155
18353SOL    HW373732   8.560   3.389   7.241
18353SOL    MW473733   8.536   3.471   7.225
18354SOL     OW73734   9.082   3.033   6.838
18354SOL    HW273735   9.003   2.998   6.796
18354SOL    HW373736   9.109   3.105   6.782
18354SOL    MW473737   9.075   3.038   6.825
18355SOL     OW73738   8.314   2.346   6.104
18355SOL    HW273739   8.289   2.434   6.132
18355SOL    HW373740   8.311   2.349   6.008
18355SOL    MW473741   8.310   2.358   6.096
18356SOL     OW73742   7.756   2.374   6.032
18356SOL    HW273743   7.788   2.462   6.014
18356SOL    HW373744   7.744   2.372   6.127
18356SOL    MW473745   7.759   2.386   6.044
18357SOL     OW73746   7.834   2.787   6.933
18357SOL    HW273747   7.897   2.734   6.884
18357SOL    HW373748   7.815   2.861   6.876
18357SOL    MW473749   7.840   2.789   6.920
18358SOL     OW73750   8.155   2.129   6.119
18358SOL    HW273751   8.213   2.205   6.121
18358SOL    HW373752   8.090   2.150   6.052
18358SOL    MW473753   8.154   2.141   6.110
18359SOL     OW73754   8.242   3.056   6.294
18359SOL    HW273755   8.322   3.059   6.346
18359SOL    HW373756   8.270   3.023   6.208
18359SOL    MW473757   8.256   3.052   6.289
18360SOL     OW73758   8.267   3.397   7.197
18360SOL    HW273759   8.351   3.423   7.236
18360SOL    HW373760   8.291   3.341   7.123
18360SOL    MW473761   8.281   3.393   7.192
18361SOL     OW73762   8.019   2.560   6.285
18361SOL    HW273763   8.004   2.480   6.336
18361SOL    HW373764   8.101   2.595   6.319
18361SOL    MW473765   8.027   2.552   6.297
18362SOL     OW73766   8.356   3.246   6.970
18362SOL    HW273767   8.320   3.312   6.910
18362SOL    HW373768   8.284   3.184   6.983
18362SOL    MW473769   8.342   3.246   6.964
18363SOL     OW73770   8.161   2.386   6.662
18363SOL    HW273771   8.067   2.382   6.680
18363SOL    HW373772   8.191   2.295   6.671
18363SOL    MW473773   8.152   2.374   6.665
18364SOL     OW73774   7.907   2.800   6.566
18364SOL    HW273775   7.862   2.807   6.482
18364SOL    HW373776   7.887   2.883   6.610
18364SOL    MW473777   7.899   2.812   6.560
18365SOL     OW73778   7.604   3.646   6.441
18365SOL    HW273779   7.693   3.638   6.476
18365SOL    HW373780   7.568   3.558   6.446
18365SOL    MW473781   7.611   3.633   6.446
18366SOL     OW73782   8.869   3.038   5.810
18366SOL    HW273783   8.787   3.074   5.776
18366SOL    HW373784   8.937   3.081   5.759
18366SOL    MW473785   8.867   3.048   5.798
18367SOL     OW73786   7.868   3.173   6.476
18367SOL    HW273787   7.844   3.226   6.552
18367SOL    HW373788   7.924   3.231   6.424
18367SOL    MW473789   7.872   3.188   6.479
18368SOL     OW73790   8.430   2.817   6.286
18368SOL    HW273791   8.344   2.804   6.326
18368SOL    HW373792   8.483   2.744   6.318
18368SOL    MW473793   8.426   2.806   6.295
18369SOL     OW73794   7.838   3.469   7.071
18369SOL    HW273795   7.746   3.445   7.056
18369SOL    HW373796   7.882   3.386   7.088
18369SOL    MW473797   7.832   3.454   7.070
18370SOL     OW73798   8.421   3.179   6.003
18370SOL    HW273799   8.398   3.241   6.071
18370SOL    HW373800   8.378   3.097   6.029
18370SOL    MW473801   8.413   3.175   6.014
18371SOL     OW73802   9.294   2.180   6.459
18371SOL    HW273803   9.231   2.160   6.528
18371SOL    HW373804   9.284   2.109   6.396
18371SOL    MW473805   9.284   2.167   6.460
18372SOL     OW73806   7.918   2.152   5.971
18372SOL    HW273807   7.892   2.114   5.887
18372SOL    HW373808   7.855   2.222   5.987
18372SOL    MW473809   7.907   2.155   5.962
18373SOL     OW73810   7.753   3.113   6.008
18373SOL    HW273811   7.701   3.181   5.964
18373SOL    HW373812   7.750   3.039   5.948
18373SOL    MW473813   7.745   3.112   5.995
18374SOL     OW73814   8.415   3.576   5.786
18374SOL    HW273815   8.370   3.592   5.869
18374SOL    HW373816   8.346   3.541   5.728
18374SOL    MW473817   8.401   3.573   5.788
18375SOL     OW73818   9.350   2.349   5.761
18375SOL    HW273819   9.259   2.351   5.789
18375SOL    HW373820   9.395   2.411   5.819
18375SOL    MW473821   9.343   2.357   5.771
18376SOL     OW73822   9.095   2.952   6.111
18376SOL    HW273823   9.005   2.952   6.146
18376SOL    HW373824   9.088   2.998   6.028
18376SOL    MW473825   9.082   2.958   6.105
18377SOL     OW73826   8.895   2.587   7.183
18377SOL    HW273827   8.964   2.525   7.160
18377SOL    HW373828   8.820   2.561   7.130
18377SOL    MW473829   8.895   2.574   7.174
18378SOL     OW73830   7.636   3.467   6.735
18378SOL    HW273831   7.619   3.413   6.812
18378SOL    HW373832   7.624   3.557   6.765
18378SOL    MW473833   7.633   3.471   6.749
18379SOL     OW73834   8.631   2.974   7.175
18379SOL    HW273835   8.616   3.067   7.160
18379SOL    HW373836   8.726   2.964   7.175
18379SOL    MW473837   8.640   2.984   7.172
18380SOL     OW73838   8.427   2.398   7.376
18380SOL    HW273839   8.517   2.399   7.343
18380SOL    HW373840   8.386   2.323   7.334
18380SOL    MW473841   8.433   2.388   7.367
18381SOL     OW73842   9.002   2.930   6.503
18381SOL    HW273843   9.005   2.864   6.434
18381SOL    HW373844   9.087   2.973   6.499
18381SOL    MW473845   9.014   2.926   6.494
18382SOL     OW73846   8.622   2.533   6.072
18382SOL    HW273847   8.648   2.557   5.983
18382SOL    HW373848   8.604   2.440   6.068
18382SOL    MW473849   8.624   2.525   6.059
18383SOL     OW73850   9.287   3.153   5.923
18383SOL    HW273851   9.243   3.194   5.998
18383SOL    HW373852   9.344   3.221   5.888
18383SOL    MW473853   9.289   3.167   5.928
18384SOL     OW73854   8.207   2.202   7.326
18384SOL    HW273855   8.217   2.128   7.266
18384SOL    HW373856   8.243   2.171   7.409
18384SOL    MW473857   8.213   2.188   7.328
18385SOL     OW73858   7.943   3.569   6.241
18385SOL    HW273859   7.975   3.657   6.219
18385SOL    HW373860   7.896   3.541   6.163
18385SOL    MW473861   7.942   3.577   6.228
18386SOL     OW73862   9.327   1.931   6.290
18386SOL    HW273863   9.381   1.882   6.352
18386SOL    HW373864   9.270   1.865   6.251
18386SOL    MW473865   9.327   1.915   6.292
18387SOL     OW73866   7.659   3.629   5.818
18387SOL    HW273867   7.688   3.719   5.810
18387SOL    HW373868   7.609   3.612   5.739
18387SOL    MW473869   7.657   3.637   5.807
18388SOL     OW73870   8.446   1.884   6.703
18388SOL    HW273871   8.405   1.962   6.665
18388SOL    HW373872   8.540   1.902   6.698
18388SOL    MW473873   8.452   1.896   6.698
18389SOL     OW73874   9.063   3.437   5.789
18389SOL    HW273875   9.111   3.506   5.835
18389SOL    HW373876   8.984   3.481   5.758
18389SOL    MW473877   9.058   3.451   5.792
18390SOL     OW73878   8.461   2.562   5.733
18390SOL    HW273879   8.463   2.509   5.654
18390SOL    HW373880   8.549   2.599   5.739
18390SOL    MW473881   8.473   2.561   5.722
18391SOL     OW73882   9.075   2.488   6.069
18391SOL    HW273883   9.114   2.488   6.156
18391SOL    HW373884   9.016   2.564   6.069
18391SOL    MW473885   9.072   2.499   6.080
18392SOL     OW73886   8.392   2.855   7.198
18392SOL    HW273887   8.369   2.835   7.288
18392SOL    HW373888   8.477   2.899   7.203
18392SOL    MW473889   8.399   2.858   7.210
18393SOL     OW73890   8.472   1.992   6.958
18393SOL    HW273891   8.478   1.954   6.871
18393SOL    HW373892   8.461   2.086   6.943
18393SOL    MW473893   8.473   2.000   6.946
18394SOL     OW73894   8.561   2.481   6.792
18394SOL    HW273895   8.636   2.510   6.739
18394SOL    HW373896   8.493   2.546   6.776
18394SOL    MW473897   8.562   2.493   6.782
18395SOL     OW73898   9.111   2.449   7.069
18395SOL    HW273899   9.092   2.358   7.048
18395SOL    HW373900   9.089   2.498   6.990
18395SOL    MW473901   9.106   2.442   7.056
18396SOL     OW73902   9.253   3.543   6.973
18396SOL    HW273903   9.181   3.505   7.024
18396SOL    HW373904   9.270   3.628   7.014
18396SOL    MW473905   9.247   3.548   6.985
18397SOL     OW73906   8.558   2.187   7.175
18397SOL    HW273907   8.524   2.226   7.094
18397SOL    HW373908   8.536   2.095   7.168
18397SOL    MW473909   8.551   2.180   7.165
18398SOL     OW73910   8.967   3.001   7.251
18398SOL    HW273911   9.049   3.042   7.281
18398SOL    HW373912   8.930   2.963   7.331
18398SOL    MW473913   8.973   3.002   7.266
18399SOL     OW73914   9.262   2.374   6.235
18399SOL    HW273915   9.351   2.343   6.252
18399SOL    HW373916   9.205   2.314   6.283
18399SOL    MW473917   9.265   2.362   6.244
18400SOL     OW73918   7.688   2.088   6.264
18400SOL    HW273919   7.679   2.028   6.190
18400SOL    HW373920   7.621   2.059   6.327
18400SOL    MW473921   7.678   2.075   6.262
18401SOL     OW73922   8.631   3.181   5.825
18401SOL    HW273923   8.581   3.183   5.907
18401SOL    HW373924   8.565   3.199   5.757
18401SOL    MW473925   8.617   3.183   5.827
18402SOL     OW73926   7.635   2.261   6.627
18402SOL    HW273927   7.607   2.352   6.636
18402SOL    HW373928   7.572   2.222   6.566
18402SOL    MW473929   7.622   2.267   6.621
18403SOL     OW73930   8.094   3.599   5.933
18403SOL    HW273931   8.015   3.557   5.966
18403SOL    HW373932   8.160   3.582   6.000
18403SOL    MW473933   8.093   3.591   5.946
18404SOL     OW73934   9.222   3.119   7.330
18404SOL    HW273935   9.272   3.045   7.362
18404SOL    HW373936   9.168   3.146   7.405
18404SOL    MW473937   9.222   3.113   7.343
18405SOL     OW73938   8.230   3.014   5.640
18405SOL    HW273939   8.152   2.960   5.627
18405SOL    HW373940   8.201   3.087   5.693
18405SOL    MW473941   8.216   3.016   5.645
18406SOL     OW73942   9.356   2.754   6.832
18406SOL    HW273943   9.372   2.792   6.745
18406SOL    HW373944   9.390   2.820   6.893
18406SOL    MW473945   9.363   2.767   6.828
18407SOL     OW73946   9.148   3.463   6.501
18407SOL    HW273947   9.177   3.530   6.562
18407SOL    HW373948   9.129   3.387   6.556
18407SOL    MW473949   9.150   3.463   6.516
18408SOL     OW73950   8.811   3.530   5.708
18408SOL    HW273951   8.737   3.493   5.758
18408SOL    HW373952   8.819   3.620   5.741
18408SOL    MW473953   8.802   3.537   5.720
18409SOL     OW73954   7.619   2.536   6.797
18409SOL    HW273955   7.681   2.566   6.863
18409SOL    HW373956   7.553   2.605   6.791
18409SOL    MW473957   7.618   2.549   6.804
18410SOL     OW73958   9.035   3.204   5.650
18410SOL    HW273959   8.982   3.253   5.586
18410SOL    HW373960   9.066   3.270   5.711
18410SOL    MW473961   9.033   3.218   5.648
18411SOL     OW73962   8.260   2.093   5.705
18411SOL    HW273963   8.208   2.013   5.693
18411SOL    HW373964   8.347   2.070   5.673
18411SOL    MW473965   8.263   2.079   5.699
18412SOL     OW73966   7.714   3.645   7.249
18412SOL    HW273967   7.688   3.713   7.187
18412SOL    HW373968   7.762   3.582   7.197
18412SOL    MW473969   7.716   3.645   7.235
18413SOL     OW73970   7.766   2.964   6.756
18413SOL    HW273971   7.819   3.039   6.781
18413SOL    HW373972   7.685   3.002   6.722
18413SOL    MW473973   7.762   2.979   6.756
18414SOL     OW73974   8.306   2.868   6.744
18414SOL    HW273975   8.334   2.777   6.756
18414SOL    HW373976   8.235   2.862   6.680
18414SOL    MW473977   8.299   2.856   6.739
18415SOL     OW73978   7.621   2.733   6.162
18415SOL    HW273979   7.712   2.748   6.189
18415SOL    HW373980   7.624   2.654   6.108
18415SOL    MW473981   7.633   2.725   6.160
18416SOL     OW73982   7.857   2.441   7.416
18416SOL    HW273983   7.804   2.521   7.423
18416SOL    HW373984   7.927   2.453   7.481
18416SOL    MW473985   7.859   2.454   7.424
18417SOL     OW73986   8.243   1.991   7.123
18417SOL    HW273987   8.220   1.899   7.125
18417SOL    HW373988   8.329   1.993   7.080
18417SOL    MW473989   8.250   1.981   7.119
18418SOL     OW73990   7.927   2.515   7.162
18418SOL    HW273991   8.007   2.565   7.148
18418SOL    HW373992   7.918   2.509   7.257
18418SOL    MW473993   7.936   2.521   7.172
18419SOL     OW73994   8.248   3.665   6.536
18419SOL    HW273995   8.337   3.680   6.566
18419SOL    HW373996   8.243   3.712   6.452
18419SOL    MW473997   8.258   3.673   6.529
18420SOL     OW73998   8.904   2.040   7.433
18420SOL    HW273999   8.960   1.967   7.459
18420SOL    HW374000   8.874   2.078   7.515
18420SOL    MW474001   8.908   2.035   7.446
18421SOL     OW74002   7.629   3.345   6.201
18421SOL    HW274003   7.601   3.384   6.283
18421SOL    HW374004   7.649   3.254   6.223
18421SOL    MW474005   7.627   3.337   6.214
18422SOL     OW74006   8.462   3.388   6.236
18422SOL    HW274007   8.545   3.342   6.220
18422SOL    HW374008   8.452   3.387   6.332
18422SOL    MW474009   8.472   3.381   6.246
18423SOL     OW74010   9.294   2.533   6.550
18423SOL    HW274011   9.383   2.563   6.532
18423SOL    HW374012   9.274   2.473   6.479
18423SOL    MW474013   9.303   2.530   6.539
18424SOL     OW74014   9.145   2.712   7.430
18424SOL    HW274015   9.200   2.636   7.411
18424SOL    HW374016   9.147   2.720   7.525
18424SOL    MW474017   9.153   2.703   7.438
18425SOL     OW74018   8.195   3.445   5.641
18425SOL    HW274019   8.135   3.514   5.611
18425SOL    HW374020   8.140   3.387   5.694
18425SOL    MW474021   8.179   3.447   5.643
18426SOL     OW74022   8.633   2.090   5.864
18426SOL    HW274023   8.566   2.066   5.801
18426SOL    HW374024   8.698   2.139   5.813
18426SOL    MW474025   8.633   2.092   5.849
18427SOL     OW74026   8.440   2.274   6.949
18427SOL    HW274027   8.359   2.315   6.977
18427SOL    HW374028   8.487   2.342   6.901
18427SOL    MW474029   8.435   2.289   6.947
18428SOL     OW74030   8.700   2.612   6.572
18428SOL    HW274031   8.713   2.706   6.582
18428SOL    HW374032   8.661   2.602   6.486
18428SOL    MW474033   8.696   2.623   6.562
18429SOL     OW74034   8.152   2.807   6.376
18429SOL    HW274035   8.063   2.798   6.409
18429SOL    HW374036   8.156   2.897   6.344
18429SOL    MW474037   8.141   2.818   6.376
18430SOL     OW74038   8.951   2.390   6.371
18430SOL    HW274039   8.896   2.311   6.370
18430SOL    HW374040   8.933   2.431   6.455
18430SOL    MW474041   8.941   2.385   6.380
18431SOL     OW74042   7.922   2.077   7.188
18431SOL    HW274043   7.843   2.095   7.240
18431SOL    HW374044   7.917   2.139   7.115
18431SOL    MW474045   7.912   2.087   7.185
18432SOL     OW74046   8.570   2.594   6.328
18432SOL    HW274047   8.507   2.526   6.352
18432SOL    HW374048   8.590   2.575   6.236
18432SOL    MW474049   8.564   2.581   6.320
18433SOL     OW74050   7.826   3.489   6.030
18433SOL    HW274051   7.787   3.536   5.956
18433SOL    HW374052   7.760   3.424   6.055
18433SOL    MW474053   7.813   3.487   6.024
18434SOL     OW74054   8.318   2.898   6.054
18434SOL    HW274055   8.320   2.872   5.961
18434SOL    HW374056   8.376   2.835   6.097
18434SOL    MW474057   8.326   2.887   6.048
18435SOL     OW74058   8.871   3.458   6.826
18435SOL    HW274059   8.796   3.504   6.864
18435SOL    HW374060   8.853   3.365   6.843
18435SOL    MW474061   8.860   3.452   6.834
18436SOL     OW74062   8.875   3.666   6.256
18436SOL    HW274063   8.818   3.619   6.195
18436SOL    HW374064   8.961   3.627   6.243
18436SOL    MW474065   8.878   3.657   6.246
18437SOL     OW74066   8.828   2.142   6.387
18437SOL    HW274067   8.856   2.074   6.448
18437SOL    HW374068   8.742   2.113   6.357
18437SOL    MW474069   8.821   2.129   6.391
18438SOL     OW74070   7.633   3.076   6.321
18438SOL    HW274071   7.697   3.108   6.384
18438SOL    HW374072   7.682   3.012   6.269
18438SOL    MW474073   7.648   3.072   6.322
18439SOL     OW74074   8.133   3.152   7.303
18439SOL    HW274075   8.181   3.235   7.290
18439SOL    HW374076   8.190   3.100   7.359
18439SOL    MW474077   8.147   3.156   7.309
18440SOL     OW74078   7.709   3.394   7.443
18440SOL    HW274079   7.765   3.318   7.458
18440SOL    HW374080   7.658   3.372   7.365
18440SOL    MW474081   7.709   3.381   7.434
18441SOL     OW74082   8.808   2.246   5.722
18441SOL    HW274083   8.781   2.312   5.658
18441SOL    HW374084   8.878   2.289   5.772
18441SOL    MW474085   8.813   2.259   5.719
18442SOL     OW74086   8.476   1.951   5.659
18442SOL    HW274087   8.532   1.943   5.581
18442SOL    HW374088   8.453   1.861   5.681
18442SOL    MW474089   8.481   1.938   5.652
18443SOL     OW74090   8.981   2.802   5.864
18443SOL    HW274091   8.948   2.891   5.854
18443SOL    HW374092   8.946   2.773   5.949
18443SOL    MW474093   8.971   2.811   5.875
18444SOL     OW74094   8.594   3.231   7.052
18444SOL    HW274095   8.505   3.237   7.020
18444SOL    HW374096   8.638   3.310   7.020
18444SOL    MW474097   8.589   3.241   7.044
18445SOL     OW74098   7.887   1.899   7.394
18445SOL    HW274099   7.815   1.864   7.342
18445SOL    HW374100   7.945   1.940   7.329
18445SOL    MW474101   7.885   1.900   7.379
18446SOL     OW74102   7.911   3.389   6.693
18446SOL    HW274103   7.956   3.451   6.750
18446SOL    HW374104   7.818   3.408   6.706
18446SOL    MW474105   7.904   3.399   6.700
18447SOL     OW74106   9.351   2.918   7.047
18447SOL    HW274107   9.266   2.931   7.006
18447SOL    HW374108   9.331   2.882   7.134
18447SOL    MW474109   9.338   2.914   7.052
18448SOL     OW74110   8.333   3.457   6.801
18448SOL    HW274111   8.357   3.446   6.710
18448SOL    HW374112   8.256   3.514   6.799
18448SOL    MW474113   8.325   3.462   6.790
18449SOL     OW74114   7.975   2.840   5.656
18449SOL    HW274115   7.898   2.853   5.712
18449SOL    HW374116   7.939   2.804   5.575
18449SOL    MW474117   7.961   2.836   5.653
18450SOL     OW74118   8.628   2.813   5.899
18450SOL    HW274119   8.538   2.834   5.874
18450SOL    HW374120   8.655   2.886   5.955
18450SOL    MW474121   8.620   2.825   5.902
18451SOL     OW74122   8.128   3.162   6.591
18451SOL    HW274123   8.121   3.141   6.685
18451SOL    HW374124   8.046   3.130   6.554
18451SOL    MW474125   8.116   3.156   6.598
18452SOL     OW74126   8.992   2.172   6.993
18452SOL    HW274127   8.939   2.174   7.073
18452SOL    HW374128   8.977   2.085   6.956
18452SOL    MW474129   8.984   2.162   6.998
18453SOL     OW74130   9.328   2.096   6.866
18453SOL    HW274131   9.309   2.163   6.801
18453SOL    HW374132   9.385   2.034   6.821
18453SOL    MW474133   9.332   2.097   6.852
18454SOL     OW74134   7.574   3.254   7.254
18454SOL    HW274135   7.618   3.187   7.200
18454SOL    HW374136   7.489   3.216   7.274
18454SOL    MW474137   7.569   3.240   7.250
18455SOL     OW74138   8.257   1.929   6.306
18455SOL    HW274139   8.186   1.990   6.288
18455SOL    HW374140   8.308   1.926   6.225
18455SOL    MW474141   8.253   1.935   6.293
18456SOL     OW74142   8.015   3.169   6.055
18456SOL    HW274143   8.008   3.201   6.145
18456SOL    HW374144   7.925   3.153   6.027
18456SOL    MW474145   8.003   3.171   6.062
18457SOL     OW74146   8.610   3.562   6.964
18457SOL    HW274147   8.530   3.547   6.914
18457SOL    HW374148   8.617   3.657   6.971
18457SOL    MW474149   8.601   3.573   6.958
18458SOL     OW74150   8.724   3.527   6.454
18458SOL    HW274151   8.771   3.600   6.413
18458SOL    HW374152   8.645   3.566   6.490
18458SOL    MW474153   8.719   3.542   6.453
18459SOL     OW74154   9.132   3.622   6.729
18459SOL    HW274155   9.175   3.592   6.809
18459SOL    HW374156   9.051   3.570   6.726
18459SOL    MW474157   9.127   3.611   6.739
18460SOL     OW74158   8.217   2.586   7.436
18460SOL    HW274159   8.287   2.528   7.408
18460SOL    HW374160   8.160   2.531   7.491
18460SOL    MW474161   8.219   2.573   7.440
18461SOL     OW74162   9.004   2.798   7.069
18461SOL    HW274163   9.009   2.851   7.149
18461SOL    HW374164   8.966   2.715   7.097
18461SOL    MW474165   9.000   2.793   7.084
18462SOL     OW74166   8.644   1.933   7.315
18462SOL    HW274167   8.639   1.840   7.296
18462SOL    HW374168   8.727   1.944   7.361
18462SOL    MW474169   8.652   1.922   7.319
18463SOL     OW74170   8.018   2.453   5.769
18463SOL    HW274171   7.984   2.509   5.839
18463SOL    HW374172   8.089   2.403   5.809
18463SOL    MW474173   8.024   2.454   5.783
18464SOL     OW74174   9.114   3.204   6.591
18464SOL    HW274175   9.149   3.186   6.504
18464SOL    HW374176   9.019   3.205   6.578
18464SOL    MW474177   9.106   3.201   6.578
18465SOL     OW74178   8.543   2.852   6.960
18465SOL    HW274179   8.586   2.887   7.038
18465SOL    HW374180   8.526   2.929   6.906
18465SOL    MW474181   8.546   2.867   6.963
18466SOL     OW74182   9.074   2.339   5.833
18466SOL    HW274183   9.066   2.410   5.770
18466SOL    HW374184   9.092   2.383   5.916
18466SOL    MW474185   9.075   2.353   5.835
18467SOL     OW74186   7.934   1.994   6.262
18467SOL    HW274187   7.984   2.037   6.193
18467SOL    HW374188   7.849   2.038   6.262
18467SOL    MW474189   7.931   2.007   6.253
18468SOL     OW74190   7.693   3.056   7.122
18468SOL    HW274191   7.721   3.009   7.200
18468SOL    HW374192   7.614   3.011   7.093
18468SOL    MW474193   7.686   3.045   7.128
18469SOL     OW74194   8.201   2.383   7.089
18469SOL    HW274195   8.173   2.471   7.113
18469SOL    HW374196   8.170   2.327   7.160
18469SOL    MW474197   8.193   2.386   7.101
18470SOL     OW74198   8.743   2.601   5.808
18470SOL    HW274199   8.790   2.619   5.727
18470SOL    HW374200   8.709   2.685   5.836
18470SOL    MW474201   8.745   2.615   5.801
18471SOL     OW74202   7.856   2.779   6.302
18471SOL    HW274203   7.914   2.835   6.250
18471SOL    HW374204   7.900   2.694   6.304
18471SOL    MW474205   7.869   2.776   6.295
18472SOL     OW74206   8.996   2.131   6.139
18472SOL    HW274207   8.918   2.081   6.164
18472SOL    HW374208   8.967   2.222   6.139
18472SOL    MW474209   8.982   2.135   6.142
18473SOL     OW74210   8.582   2.093   6.298
18473SOL    HW274211   8.602   2.168   6.242
18473SOL    HW374212   8.562   2.132   6.383
18473SOL    MW474213   8.583   2.109   6.302
18474SOL     OW74214   8.478   3.343   5.630
18474SOL    HW274215   8.505   3.421   5.582
18474SOL    HW374216   8.385   3.358   5.649
18474SOL    MW474217   8.469   3.356   5.626
18475SOL     OW74218   9.342   2.866   7.317
18475SOL    HW274219   9.255   2.846   7.353
18475SOL    HW374220   9.396   2.792   7.342
18475SOL    MW474221   9.337   2.855   7.325
18476SOL     OW74222   7.563   3.379   6.474
18476SOL    HW274223   7.595   3.383   6.565
18476SOL    HW374224   7.468   3.387   6.482
18476SOL    MW474225   7.555   3.382   6.487
18477SOL     OW74226   7.518   2.505   6.021
18477SOL    HW274227   7.458   2.477   6.091
18477SOL    HW374228   7.592   2.445   6.027
18477SOL    MW474229   7.520   2.494   6.030
18478SOL     OW74230   9.086   3.717   7.455
18478SOL    HW274231   9.131   3.641   7.420
18478SOL    HW374232   9.124   3.730   7.542
18478SOL    MW474233   9.096   3.710   7.461
18479SOL     OW74234   8.686   3.236   6.181
18479SOL    HW274235   8.709   3.187   6.259
18479SOL    HW374236   8.767   3.278   6.153
18479SOL    MW474237   8.699   3.236   6.188
18480SOL     OW74238   7.944   2.244   6.910
18480SOL    HW274239   7.977   2.325   6.950
18480SOL    HW374240   7.917   2.270   6.822
18480SOL    MW474241   7.943   2.258   6.904
18481SOL     OW74242   7.898   2.211   6.646
18481SOL    HW274243   7.928   2.125   6.617
18481SOL    HW374244   7.803   2.204   6.649
18481SOL    MW474245   7.890   2.200   6.644
18482SOL     OW74246   8.727   2.420   7.337
18482SOL    HW274247   8.779   2.355   7.290
18482SOL    HW374248   8.685   2.471   7.267
18482SOL    MW474249   8.728   2.417   7.320
18483SOL     OW74250   8.826   2.215   7.198
18483SOL    HW274251   8.733   2.199   7.185
18483SOL    HW374252   8.852   2.153   7.266
18483SOL    MW474253   8.816   2.205   7.205
18484SOL     OW74254   8.041   1.989   6.537
18484SOL    HW274255   8.051   1.898   6.563
18484SOL    HW374256   7.997   1.985   6.452
18484SOL    MW474257   8.037   1.977   6.529
18485SOL     OW74258   8.135   3.604   7.083
18485SOL    HW274259   8.052   3.589   7.128
18485SOL    HW374260   8.194   3.537   7.118
18485SOL    MW474261   8.133   3.594   7.093
18486SOL     OW74262   9.192   2.311   6.708
18486SOL    HW274263   9.125   2.344   6.768
18486SOL    HW374264   9.235   2.389   6.674
18486SOL    MW474265   9.190   2.326   6.712
18487SOL     OW74266   9.370   3.031   6.678
18487SOL    HW274267   9.363   2.971   6.603
18487SOL    HW374268   9.296   3.091   6.667
18487SOL    MW474269   9.360   3.031   6.667
18488SOL     OW74270   8.752   2.893   6.596
18488SOL    HW274271   8.766   2.865   6.687
18488SOL    HW374272   8.838   2.924   6.568
18488SOL    MW474273   8.765   2.894   6.605
18489SOL     OW74274   8.835   2.388   6.875
18489SOL    HW274275   8.856   2.389   6.782
18489SOL    HW374276   8.880   2.310   6.908
18489SOL    MW474277   8.842   2.378   6.867
18490SOL     OW74278   9.328   2.519   7.417
18490SOL    HW274279   9.365   2.464   7.486
18490SOL    HW374280   9.353   2.476   7.335
18490SOL    MW474281   9.335   2.507   7.416
18491SOL     OW74282   8.875   2.817   7.468
18491SOL    HW274283   8.941   2.765   7.422
18491SOL    HW374284   8.895   2.804   7.561
18491SOL    MW474285   8.886   2.808   7.475
18492SOL     OW74286   8.826   1.903   5.817
18492SOL    HW274287   8.900   1.947   5.860
18492SOL    HW374288   8.750   1.957   5.839
18492SOL    MW474289   8.826   1.915   5.825
18493SOL     OW74290   8.886   2.678   6.095
18493SOL    HW274291   8.801   2.648   6.065
18493SOL    HW374292   8.878   2.685   6.190
18493SOL    MW474293   8.874   2.676   6.104
18494SOL     OW74294   7.962   3.141   6.826
18494SOL    HW274295   7.974   3.168   6.917
18494SOL    HW374296   7.943   3.222   6.779
18494SOL    MW474297   7.961   3.156   6.831
18495SOL     OW74298   8.246   2.121   6.649
18495SOL    HW274299   8.219   2.123   6.740
18495SOL    HW374300   8.176   2.073   6.604
18495SOL    MW474301   8.234   2.117   6.656
18496SOL     OW74302   8.100   3.613   6.811
18496SOL    HW274303   8.152   3.690   6.788
18496SOL    HW374304   8.109   3.605   6.906
18496SOL    MW474305   8.109   3.620   6.822
18497SOL     OW74306   9.002   3.198   7.043
18497SOL    HW274307   8.987   3.127   7.106
18497SOL    HW374308   9.048   3.156   6.971
18497SOL    MW474309   9.008   3.182   7.043
18498SOL     OW74310   8.076   2.929   7.160
18498SOL    HW274311   8.113   2.934   7.072
18498SOL    HW374312   8.115   3.002   7.207
18498SOL    MW474313   8.086   2.939   7.155
18499SOL     OW74314   8.256   2.972   6.972
18499SOL    HW274315   8.315   2.918   7.025
18499SOL    HW374316   8.271   2.944   6.882
18499SOL    MW474317   8.266   2.961   6.968
18500SOL     OW74318   8.259   2.344   5.821
18500SOL    HW274319   8.332   2.393   5.784
18500SOL    HW374320   8.275   2.253   5.795
18500SOL    MW474321   8.271   2.339   5.814
18501SOL     OW74322   9.067   3.461   7.144
18501SOL    HW274323   9.109   3.446   7.229
18501SOL    HW374324   9.058   3.374   7.106
18501SOL    MW474325   9.071   3.449   7.151
18502SOL     OW74326   8.727   1.940   6.735
18502SOL    HW274327   8.782   1.949   6.657
18502SOL    HW374328   8.782   1.974   6.806
18502SOL    MW474329   8.741   1.945   6.734
18503SOL     OW74330   7.734   2.853   5.919
18503SOL    HW274331   7.671   2.869   5.848
18503SOL    HW374332   7.681   2.816   5.990
18503SOL    MW474333   7.719   2.850   5.919
18504SOL     OW74334   8.090   3.207   5.778
18504SOL    HW274335   8.105   3.183   5.870
18504SOL    HW374336   7.998   3.185   5.762
18504SOL    MW474337   8.080   3.200   5.788
18505SOL     OW74338   8.629   3.438   5.930
18505SOL    HW274339   8.637   3.356   5.881
18505SOL    HW374340   8.548   3.477   5.897
18505SOL    MW474341   8.619   3.433   5.920
18506SOL     OW74342   7.888   3.596   6.499
18506SOL    HW274343   7.892   3.507   6.534
18506SOL    HW374344   7.914   3.587   6.408
18506SOL    MW474345   7.891   3.584   6.491
18507SOL     OW74346   8.505   3.074   6.742
18507SOL    HW274347   8.437   3.008   6.758
18507SOL    HW374348   8.523   3.068   6.649
18507SOL    MW474349   8.498   3.065   6.733
18508SOL     OW74350   7.594   3.349   6.993
18508SOL    HW274351   7.584   3.307   7.079
18508SOL    HW374352   7.515   3.402   6.983
18508SOL    MW474353   7.583   3.350   7.004
18509SOL     OW74354   8.498   2.213   6.563
18509SOL    HW274355   8.428   2.165   6.608
18509SOL    HW374356   8.530   2.276   6.627
18509SOL    MW474357   8.493   2.215   6.577
18510SOL     OW74358   8.149   2.649   7.183
18510SOL    HW274359   8.142   2.744   7.171
18510SOL    HW374360   8.158   2.638   7.278
18510SOL    MW474361   8.150   2.661   7.193
18511SOL     OW74362   7.870   3.164   7.441
18511SOL    HW274363   7.942   3.166   7.378
18511SOL    HW374364   7.840   3.073   7.440
18511SOL    MW474365   7.875   3.153   7.433
18512SOL     OW74366   8.954   1.927   6.908
18512SOL    HW274367   9.025   1.873   6.872
18512SOL    HW374368   8.953   1.906   7.001
18512SOL    MW474369   8.963   1.918   6.916
18513SOL     OW74370   9.154   3.457   7.392
18513SOL    HW274371   9.127   3.454   7.483
18513SOL    HW374372   9.250   3.461   7.395
18513SOL    MW474373   9.164   3.457   7.404
18514SOL     OW74374   7.965   2.319   6.376
18514SOL    HW274375   8.036   2.267   6.339
18514SOL    HW374376   7.951   2.284   6.463
18514SOL    MW474377   7.973   2.308   6.383
18515SOL     OW74378   7.520   3.654   7.448
18515SOL    HW274379   7.570   3.632   7.370
18515SOL    HW374380   7.528   3.749   7.456
18515SOL    MW474381   7.528   3.663   7.439
18516SOL     OW74382   8.281   3.412   6.452
18516SOL    HW274383   8.209   3.349   6.465
18516SOL    HW374384   8.242   3.497   6.470
18516SOL    MW474385   8.265   3.415   6.455
18517SOL     OW74386   8.601   2.260   6.100
18517SOL    HW274387   8.623   2.197   6.032
18517SOL    HW374388   8.506   2.252   6.111
18517SOL    MW474389   8.591   2.251   6.092
18518SOL     OW74390   7.686   1.950   6.032
18518SOL    HW274391   7.757   1.971   5.971
18518SOL    HW374392   7.640   1.878   5.990
18518SOL    MW474393   7.690   1.944   6.018
18519SOL     OW74394   7.517   2.417   7.175
18519SOL    HW274395   7.581   2.483   7.150
18519SOL    HW374396   7.436   2.444   7.132
18519SOL    MW474397   7.515   2.429   7.167
18520SOL     OW74398   9.255   3.324   6.132
18520SOL    HW274399   9.225   3.257   6.193
18520SOL    HW374400   9.349   3.330   6.146
18520SOL    MW474401   9.263   3.316   6.142
18521SOL     OW74402   8.811   3.001   6.062
18521SOL    HW274403   8.783   3.087   6.095
18521SOL    HW374404   8.839   3.017   5.972
18521SOL    MW474405   8.811   3.015   6.054
18522SOL     OW74406   8.473   1.921   6.115
18522SOL    HW274407   8.510   1.980   6.180
18522SOL    HW374408   8.450   1.977   6.041
18522SOL    MW474409   8.474   1.936   6.114
18523SOL     OW74410   9.326   2.803   6.537
18523SOL    HW274411   9.317   2.835   6.448
18523SOL    HW374412   9.279   2.719   6.537
18523SOL    MW474413   9.319   2.796   6.527
18524SOL     OW74414   7.702   2.643   7.116
18524SOL    HW274415   7.723   2.712   7.054
18524SOL    HW374416   7.782   2.590   7.121
18524SOL    MW474417   7.715   2.644   7.110
18525SOL     OW74418   9.238   2.734   6.238
18525SOL    HW274419   9.332   2.723   6.226
18525SOL    HW374420   9.214   2.806   6.179
18525SOL    MW474421   9.248   2.742   6.229
18526SOL     OW74422   7.687   2.658   7.383
18526SOL    HW274423   7.613   2.602   7.409
18526SOL    HW374424   7.682   2.661   7.288
18526SOL    MW474425   7.676   2.651   7.373
18527SOL     OW74426   7.853   1.945   6.833
18527SOL    HW274427   7.896   2.029   6.853
18527SOL    HW374428   7.926   1.883   6.826
18527SOL    MW474429   7.868   1.948   6.834
18528SOL     OW74430   7.894   2.612   6.011
18528SOL    HW274431   7.894   2.707   5.996
18528SOL    HW374432   7.971   2.596   6.065
18528SOL    MW474433   7.904   2.623   6.016
18529SOL     OW74434   8.670   2.471   7.075
18529SOL    HW274435   8.706   2.444   6.991
18529SOL    HW374436   8.583   2.505   7.054
18529SOL    MW474437   8.664   2.472   7.062
18530SOL     OW74438   7.653   2.343   6.300
18530SOL    HW274439   7.715   2.350   6.373
18530SOL    HW374440   7.653   2.250   6.277
18530SOL    MW474441   7.661   2.332   6.307
18531SOL     OW74442   9.200   3.683   5.832
18531SOL    HW274443   9.267   3.716   5.772
18531SOL    HW374444   9.157   3.762   5.866
18531SOL    MW474445   9.202   3.698   5.828
18532SOL     OW74446   8.335   2.604   6.784
18532SOL    HW274447   8.293   2.522   6.760
18532SOL    HW374448   8.336   2.603   6.880
18532SOL    MW474449   8.328   2.593   6.793
18533SOL     OW74450   9.006   3.737   7.183
18533SOL    HW274451   9.009   3.643   7.166
18533SOL    HW374452   9.029   3.745   7.275
18533SOL    MW474453   9.009   3.725   7.193
18534SOL     OW74454   8.139   2.074   6.889
18534SOL    HW274455   8.070   2.137   6.910
18534SOL    HW374456   8.166   2.038   6.974
18534SOL    MW474457   8.133   2.077   6.902
18535SOL     OW74458   7.522   2.915   5.758
18535SOL    HW274459   7.491   2.980   5.821
18535SOL    HW374460   7.471   2.837   5.777
18535SOL    MW474461   7.512   2.912   5.768
18536SOL     OW74462   8.934   1.927   6.506
18536SOL    HW274463   9.022   1.936   6.543
18536SOL    HW374464   8.944   1.868   6.432
18536SOL    MW474465   8.948   1.921   6.500
18537SOL     OW74466   8.966   2.666   6.350
18537SOL    HW274467   9.046   2.681   6.299
18537SOL    HW374468   8.959   2.571   6.356
18537SOL    MW474469   8.975   2.655   6.345
18538SOL     OW74470   8.106   3.715   5.700
18538SOL    HW274471   8.011   3.715   5.692
18538SOL    HW374472   8.122   3.661   5.778
18538SOL    MW474473   8.096   3.709   5.709
18539SOL     OW74474   8.416   2.592   7.047
18539SOL    HW274475   8.485   2.659   7.044
18539SOL    HW374476   8.349   2.630   7.103
18539SOL    MW474477   8.417   2.605   7.054
18540SOL     OW74478   7.834   2.892   7.295
18540SOL    HW274479   7.788   2.808   7.297
18540SOL    HW374480   7.891   2.886   7.219
18540SOL    MW474481   7.836   2.880   7.287
18541SOL     OW74482   8.951   2.535   5.615
18541SOL    HW274483   8.879   2.511   5.557
18541SOL    HW374484   9.017   2.572   5.557
18541SOL    MW474485   8.950   2.537   5.600
18542SOL     OW74486   8.085   3.267   6.296
18542SOL    HW274487   8.150   3.200   6.317
18542SOL    HW374488   8.137   3.344   6.273
18542SOL    MW474489   8.100   3.269   6.295
18543SOL     OW74490   8.346   2.432   6.426
18543SOL    HW274491   8.286   2.450   6.498
18543SOL    HW374492   8.380   2.344   6.445
18543SOL    MW474493   8.342   2.422   6.439
18544SOL     OW74494   9.287   1.931   7.095
18544SOL    HW274495   9.208   1.977   7.123
18544SOL    HW374496   9.322   1.985   7.024
18544SOL    MW474497   9.281   1.944   7.089
18545SOL     OW74498   8.571   3.015   6.445
18545SOL    HW274499   8.663   2.996   6.463
18545SOL    HW374500   8.544   2.945   6.385
18545SOL    MW474501   8.579   3.003   6.439
18546SOL     OW74502   8.364   2.835   5.800
18546SOL    HW274503   8.350   2.747   5.765
18546SOL    HW374504   8.315   2.892   5.741
18546SOL    MW474505   8.356   2.830   5.788
18547SOL     OW74506   8.845   3.253   6.541
18547SOL    HW274507   8.818   3.337   6.506
18547SOL    HW374508   8.805   3.248   6.628
18547SOL    MW474509   8.838   3.262   6.547
18548SOL     OW74510   8.764   3.201   6.809
18548SOL    HW274511   8.775   3.168   6.898
18548SOL    HW374512   8.683   3.160   6.778
18548SOL    MW474513   8.754   3.193   6.815
18549SOL     OW74514   7.777   2.559   6.579
18549SOL    HW274515   7.727   2.558   6.660
18549SOL    HW374516   7.797   2.651   6.563
18549SOL    MW474517   7.773   2.571   6.587
18550SOL     OW74518   8.844   3.323   7.341
18550SOL    HW274519   8.844   3.417   7.357
18550SOL    HW374520   8.889   3.313   7.257
18550SOL    MW474521   8.850   3.333   7.332
18551SOL     OW74522   9.083   2.041   5.902
18551SOL    HW274523   9.076   2.045   5.997
18551SOL    HW374524   9.095   2.132   5.875
18551SOL    MW474525   9.084   2.054   5.910
18552SOL     OW74526   8.372   2.604   6.016
18552SOL    HW274527   8.352   2.590   5.923
18552SOL    HW374528   8.465   2.583   6.023
18552SOL    MW474529   8.382   2.599   6.005
18553SOL     OW74530   7.699   2.227   7.320
18553SOL    HW274531   7.656   2.286   7.257
18553SOL    HW374532   7.767   2.282   7.360
18553SOL    MW474533   7.703   2.242   7.317
18554SOL     OW74534   8.811   2.847   6.865
18554SOL    HW274535   8.874   2.844   6.938
18554SOL    HW374536   8.727   2.865   6.907
18554SOL    MW474537   8.807   2.849   6.880
18555SOL     OW74538   8.355   3.562   6.054
18555SOL    HW274539   8.413   3.633   6.081
18555SOL    HW374540   8.378   3.490   6.112
18555SOL    MW474541   8.366   3.562   6.065
18556SOL     OW74542   9.150   2.024   6.644
18556SOL    HW274543   9.195   1.942   6.663
18556SOL    HW374544   9.170   2.080   6.720
18556SOL    MW474545   9.160   2.020   6.656
18557SOL     OW74546   7.598   1.867   6.743
18557SOL    HW274547   7.589   1.868   6.648
18557SOL    HW374548   7.692   1.879   6.758
18557SOL    MW474549   7.610   1.870   6.734
18558SOL     OW74550   9.235   3.060   6.363
18558SOL    HW274551   9.214   3.006   6.286
18558SOL    HW374552   9.331   3.058   6.367
18558SOL    MW474553   9.244   3.053   6.352
18559SOL     OW74554   7.927   3.205   7.106
18559SOL    HW274555   7.848   3.155   7.129
18559SOL    HW374556   7.997   3.164   7.156
18559SOL    MW474557   7.925   3.193   7.116
18560SOL     OW74558   7.811   1.994   5.789
18560SOL    HW274559   7.740   2.049   5.757
18560SOL    HW374560   7.853   1.960   5.710
18560SOL    MW474561   7.807   1.996   5.775
18561SOL     OW74562   8.935   2.491   6.625
18561SOL    HW274563   8.858   2.537   6.591
18561SOL    HW374564   8.992   2.560   6.659
18561SOL    MW474565   8.932   2.506   6.625
18562SOL     OW74566   7.567   2.093   5.638
18562SOL    HW274567   7.534   2.172   5.682
18562SOL    HW374568   7.622   2.126   5.567
18562SOL    MW474569   7.570   2.107   5.635
18563SOL     OW74570   7.601   3.350   5.827
18563SOL    HW274571   7.618   3.434   5.869
18563SOL    HW374572   7.636   3.359   5.739
18563SOL    MW474573   7.606   3.363   5.821
18564SOL     OW74574   8.873   3.439   6.044
18564SOL    HW274575   8.936   3.429   5.973
18564SOL    HW374576   8.790   3.459   5.999
18564SOL    MW474577   8.870   3.440   6.029
18565SOL     OW74578   9.102   4.507   1.252
18565SOL    HW274579   9.057   4.574   1.303
18565SOL    HW374580   9.190   4.543   1.238
18565SOL    MW474581   9.108   4.520   1.256
18566SOL     OW74582   8.030   4.758   0.486
18566SOL    HW274583   8.120   4.733   0.470
18566SOL    HW374584   8.026   4.851   0.463
18566SOL    MW474585   8.042   4.767   0.481
18567SOL     OW74586   9.146   5.461   0.628
18567SOL    HW274587   9.158   5.407   0.706
18567SOL    HW374588   9.183   5.409   0.557
18567SOL    MW474589   9.152   5.446   0.629
18568SOL     OW74590   8.525   5.346   1.629
18568SOL    HW274591   8.566   5.382   1.550
18568SOL    HW374592   8.560   5.257   1.636
18568SOL    MW474593   8.536   5.339   1.620
18569SOL     OW74594   9.082   4.901   1.233
18569SOL    HW274595   9.003   4.866   1.191
18569SOL    HW374596   9.109   4.973   1.177
18569SOL    MW474597   9.075   4.906   1.220
18570SOL     OW74598   7.756   4.242   0.427
18570SOL    HW274599   7.788   4.330   0.409
18570SOL    HW374600   7.744   4.240   0.522
18570SOL    MW474601   7.759   4.254   0.439
18571SOL     OW74602   7.834   4.655   1.328
18571SOL    HW274603   7.897   4.602   1.279
18571SOL    HW374604   7.815   4.729   1.271
18571SOL    MW474605   7.840   4.657   1.315
18572SOL     OW74606   8.155   3.997   0.514
18572SOL    HW274607   8.213   4.073   0.516
18572SOL    HW374608   8.090   4.018   0.447
18572SOL    MW474609   8.154   4.009   0.505
18573SOL     OW74610   8.242   4.924   0.689
18573SOL    HW274611   8.322   4.927   0.741
18573SOL    HW374612   8.270   4.891   0.603
18573SOL    MW474613   8.256   4.920   0.684
18574SOL     OW74614   8.267   5.265   1.592
18574SOL    HW274615   8.351   5.291   1.631
18574SOL    HW374616   8.291   5.209   1.518
18574SOL    MW474617   8.281   5.261   1.587
18575SOL     OW74618   8.019   4.428   0.680
18575SOL    HW274619   8.004   4.348   0.731
18575SOL    HW374620   8.101   4.463   0.714
18575SOL    MW474621   8.027   4.420   0.692
18576SOL     OW74622   8.356   5.114   1.365
18576SOL    HW274623   8.320   5.180   1.305
18576SOL    HW374624   8.284   5.052   1.378
18576SOL    MW474625   8.342   5.114   1.359
18577SOL     OW74626   8.161   4.254   1.057
18577SOL    HW274627   8.067   4.250   1.075
18577SOL    HW374628   8.191   4.163   1.066
18577SOL    MW474629   8.152   4.242   1.060
18578SOL     OW74630   7.907   4.668   0.961
18578SOL    HW274631   7.862   4.675   0.877
18578SOL    HW374632   7.887   4.751   1.005
18578SOL    MW474633   7.899   4.680   0.955
18579SOL     OW74634   7.604   5.514   0.836
18579SOL    HW274635   7.693   5.506   0.871
18579SOL    HW374636   7.568   5.426   0.841
18579SOL    MW474637   7.611   5.501   0.841
18580SOL     OW74638   7.868   5.041   0.871
18580SOL    HW274639   7.844   5.094   0.947
18580SOL    HW374640   7.924   5.099   0.819
18580SOL    MW474641   7.872   5.056   0.874
18581SOL     OW74642   8.430   4.685   0.681
18581SOL    HW274643   8.344   4.672   0.721
18581SOL    HW374644   8.483   4.612   0.713
18581SOL    MW474645   8.426   4.674   0.690
18582SOL     OW74646   7.838   5.337   1.466
18582SOL    HW274647   7.746   5.313   1.451
18582SOL    HW374648   7.882   5.254   1.483
18582SOL    MW474649   7.832   5.322   1.465
18583SOL     OW74650   9.294   4.048   0.854
18583SOL    HW274651   9.231   4.028   0.923
18583SOL    HW374652   9.284   3.977   0.791
18583SOL    MW474653   9.284   4.035   0.855
18584SOL     OW74654   7.918   4.020   0.366
18584SOL    HW274655   7.892   3.982   0.282
18584SOL    HW374656   7.855   4.090   0.382
18584SOL    MW474657   7.907   4.023   0.357
18585SOL     OW74658   7.753   4.981   0.403
18585SOL    HW274659   7.701   5.049   0.359
18585SOL    HW374660   7.750   4.907   0.343
18585SOL    MW474661   7.745   4.980   0.390
18586SOL     OW74662   9.095   4.820   0.506
18586SOL    HW274663   9.005   4.820   0.541
18586SOL    HW374664   9.088   4.866   0.423
18586SOL    MW474665   9.082   4.826   0.500
18587SOL     OW74666   8.895   4.455   1.578
18587SOL    HW274667   8.964   4.393   1.555
18587SOL    HW374668   8.820   4.429   1.525
18587SOL    MW474669   8.895   4.442   1.569
18588SOL     OW74670   7.636   5.335   1.130
18588SOL    HW274671   7.619   5.281   1.207
18588SOL    HW374672   7.624   5.425   1.160
18588SOL    MW474673   7.633   5.339   1.144
18589SOL     OW74674   8.631   4.842   1.570
18589SOL    HW274675   8.616   4.935   1.555
18589SOL    HW374676   8.726   4.832   1.570
18589SOL    MW474677   8.640   4.852   1.567
18590SOL     OW74678   8.427   4.266   1.771
18590SOL    HW274679   8.517   4.267   1.738
18590SOL    HW374680   8.386   4.191   1.729
18590SOL    MW474681   8.433   4.256   1.762
18591SOL     OW74682   9.002   4.798   0.898
18591SOL    HW274683   9.005   4.732   0.829
18591SOL    HW374684   9.087   4.841   0.894
18591SOL    MW474685   9.014   4.794   0.889
18592SOL     OW74686   8.622   4.401   0.467
18592SOL    HW274687   8.648   4.425   0.378
18592SOL    HW374688   8.604   4.308   0.463
18592SOL    MW474689   8.624   4.393   0.454
18593SOL     OW74690   8.207   4.070   1.721
18593SOL    HW274691   8.217   3.996   1.661
18593SOL    HW374692   8.243   4.039   1.804
18593SOL    MW474693   8.213   4.056   1.723
18594SOL     OW74694   7.943   5.437   0.636
18594SOL    HW274695   7.975   5.525   0.614
18594SOL    HW374696   7.896   5.409   0.558
18594SOL    MW474697   7.942   5.445   0.623
18595SOL     OW74698   9.327   3.799   0.685
18595SOL    HW274699   9.381   3.750   0.747
18595SOL    HW374700   9.270   3.733   0.646
18595SOL    MW474701   9.327   3.783   0.687
18596SOL     OW74702   8.446   3.752   1.098
18596SOL    HW274703   8.405   3.830   1.060
18596SOL    HW374704   8.540   3.770   1.093
18596SOL    MW474705   8.452   3.764   1.093
18597SOL     OW74706   9.075   4.356   0.464
18597SOL    HW274707   9.114   4.356   0.551
18597SOL    HW374708   9.016   4.432   0.464
18597SOL    MW474709   9.072   4.367   0.475
18598SOL     OW74710   8.392   4.723   1.593
18598SOL    HW274711   8.369   4.703   1.683
18598SOL    HW374712   8.477   4.767   1.598
18598SOL    MW474713   8.399   4.726   1.605
18599SOL     OW74714   8.472   3.860   1.353
18599SOL    HW274715   8.478   3.822   1.266
18599SOL    HW374716   8.461   3.954   1.338
18599SOL    MW474717   8.473   3.868   1.341
18600SOL     OW74718   8.561   4.349   1.187
18600SOL    HW274719   8.636   4.378   1.134
18600SOL    HW374720   8.493   4.414   1.171
18600SOL    MW474721   8.562   4.361   1.177
18601SOL     OW74722   9.111   4.317   1.464
18601SOL    HW274723   9.092   4.226   1.443
18601SOL    HW374724   9.089   4.366   1.385
18601SOL    MW474725   9.106   4.310   1.451
18602SOL     OW74726   9.253   5.411   1.368
18602SOL    HW274727   9.181   5.373   1.419
18602SOL    HW374728   9.270   5.496   1.409
18602SOL    MW474729   9.247   5.416   1.380
18603SOL     OW74730   8.558   4.055   1.570
18603SOL    HW274731   8.524   4.094   1.489
18603SOL    HW374732   8.536   3.963   1.563
18603SOL    MW474733   8.551   4.048   1.560
18604SOL     OW74734   8.967   4.869   1.646
18604SOL    HW274735   9.049   4.910   1.676
18604SOL    HW374736   8.930   4.831   1.726
18604SOL    MW474737   8.973   4.870   1.661
18605SOL     OW74738   9.262   4.242   0.630
18605SOL    HW274739   9.351   4.211   0.647
18605SOL    HW374740   9.205   4.182   0.678
18605SOL    MW474741   9.265   4.230   0.639
18606SOL     OW74742   7.688   3.956   0.659
18606SOL    HW274743   7.679   3.896   0.585
18606SOL    HW374744   7.621   3.927   0.722
18606SOL    MW474745   7.678   3.943   0.657
18607SOL     OW74746   7.635   4.129   1.022
18607SOL    HW274747   7.607   4.220   1.031
18607SOL    HW374748   7.572   4.090   0.961
18607SOL    MW474749   7.622   4.135   1.016
18608SOL     OW74750   8.094   5.467   0.328
18608SOL    HW274751   8.015   5.425   0.361
18608SOL    HW374752   8.160   5.450   0.395
18608SOL    MW474753   8.093   5.459   0.341
18609SOL     OW74754   9.222   4.987   1.725
18609SOL    HW274755   9.272   4.913   1.757
18609SOL    HW374756   9.168   5.014   1.800
18609SOL    MW474757   9.222   4.981   1.738
18610SOL     OW74758   9.356   4.622   1.227
18610SOL    HW274759   9.372   4.660   1.140
18610SOL    HW374760   9.390   4.688   1.288
18610SOL    MW474761   9.363   4.635   1.223
18611SOL     OW74762   9.148   5.331   0.896
18611SOL    HW274763   9.177   5.398   0.957
18611SOL    HW374764   9.129   5.255   0.951
18611SOL    MW474765   9.150   5.331   0.911
18612SOL     OW74766   8.811   5.398   0.103
18612SOL    HW274767   8.737   5.361   0.153
18612SOL    HW374768   8.819   5.488   0.136
18612SOL    MW474769   8.802   5.405   0.115
18613SOL     OW74770   7.619   4.404   1.192
18613SOL    HW274771   7.681   4.434   1.258
18613SOL    HW374772   7.553   4.473   1.186
18613SOL    MW474773   7.618   4.417   1.199
18614SOL     OW74774   7.714   5.513   1.644
18614SOL    HW274775   7.688   5.581   1.582
18614SOL    HW374776   7.762   5.450   1.592
18614SOL    MW474777   7.716   5.513   1.630
18615SOL     OW74778   7.766   4.832   1.151
18615SOL    HW274779   7.819   4.907   1.176
18615SOL    HW374780   7.685   4.870   1.117
18615SOL    MW474781   7.762   4.847   1.151
18616SOL     OW74782   8.306   4.736   1.139
18616SOL    HW274783   8.334   4.645   1.151
18616SOL    HW374784   8.235   4.730   1.075
18616SOL    MW474785   8.299   4.724   1.134
18617SOL     OW74786   7.621   4.601   0.557
18617SOL    HW274787   7.712   4.616   0.584
18617SOL    HW374788   7.624   4.522   0.503
18617SOL    MW474789   7.633   4.593   0.555
18618SOL     OW74790   7.857   4.309   1.811
18618SOL    HW274791   7.804   4.389   1.818
18618SOL    HW374792   7.927   4.321   1.876
18618SOL    MW474793   7.859   4.322   1.819
18619SOL     OW74794   8.243   3.859   1.518
18619SOL    HW274795   8.220   3.767   1.520
18619SOL    HW374796   8.329   3.861   1.475
18619SOL    MW474797   8.250   3.849   1.514
18620SOL     OW74798   7.927   4.383   1.557
18620SOL    HW274799   8.007   4.433   1.543
18620SOL    HW374800   7.918   4.377   1.652
18620SOL    MW474801   7.936   4.389   1.567
18621SOL     OW74802   8.248   5.533   0.931
18621SOL    HW274803   8.337   5.548   0.961
18621SOL    HW374804   8.243   5.580   0.847
18621SOL    MW474805   8.258   5.541   0.924
18622SOL     OW74806   8.904   3.908   1.828
18622SOL    HW274807   8.960   3.835   1.854
18622SOL    HW374808   8.874   3.946   1.910
18622SOL    MW474809   8.908   3.903   1.841
18623SOL     OW74810   7.629   5.213   0.596
18623SOL    HW274811   7.601   5.252   0.678
18623SOL    HW374812   7.649   5.122   0.618
18623SOL    MW474813   7.627   5.205   0.609
18624SOL     OW74814   8.462   5.256   0.631
18624SOL    HW274815   8.545   5.210   0.615
18624SOL    HW374816   8.452   5.255   0.727
18624SOL    MW474817   8.472   5.249   0.641
18625SOL     OW74818   9.294   4.401   0.945
18625SOL    HW274819   9.383   4.431   0.927
18625SOL    HW374820   9.274   4.341   0.874
18625SOL    MW474821   9.303   4.398   0.934
18626SOL     OW74822   9.145   4.580   1.825
18626SOL    HW274823   9.200   4.504   1.806
18626SOL    HW374824   9.147   4.588   1.920
18626SOL    MW474825   9.153   4.571   1.833
18627SOL     OW74826   8.633   3.958   0.259
18627SOL    HW274827   8.566   3.934   0.196
18627SOL    HW374828   8.698   4.007   0.208
18627SOL    MW474829   8.633   3.960   0.244
18628SOL     OW74830   8.440   4.142   1.344
18628SOL    HW274831   8.359   4.183   1.372
18628SOL    HW374832   8.487   4.210   1.296
18628SOL    MW474833   8.435   4.157   1.342
18629SOL     OW74834   8.700   4.480   0.967
18629SOL    HW274835   8.713   4.574   0.977
18629SOL    HW374836   8.661   4.470   0.881
18629SOL    MW474837   8.696   4.491   0.957
18630SOL     OW74838   8.152   4.675   0.771
18630SOL    HW274839   8.063   4.666   0.804
18630SOL    HW374840   8.156   4.765   0.739
18630SOL    MW474841   8.141   4.686   0.771
18631SOL     OW74842   8.951   4.258   0.766
18631SOL    HW274843   8.896   4.179   0.765
18631SOL    HW374844   8.933   4.299   0.850
18631SOL    MW474845   8.941   4.253   0.775
18632SOL     OW74846   7.922   3.945   1.583
18632SOL    HW274847   7.843   3.963   1.635
18632SOL    HW374848   7.917   4.007   1.510
18632SOL    MW474849   7.912   3.955   1.580
18633SOL     OW74850   8.570   4.462   0.723
18633SOL    HW274851   8.507   4.394   0.747
18633SOL    HW374852   8.590   4.443   0.631
18633SOL    MW474853   8.564   4.449   0.715
18634SOL     OW74854   8.318   4.766   0.449
18634SOL    HW274855   8.320   4.740   0.356
18634SOL    HW374856   8.376   4.703   0.492
18634SOL    MW474857   8.326   4.755   0.443
18635SOL     OW74858   8.871   5.326   1.221
18635SOL    HW274859   8.796   5.372   1.259
18635SOL    HW374860   8.853   5.233   1.238
18635SOL    MW474861   8.860   5.320   1.229
18636SOL     OW74862   8.875   5.534   0.651
18636SOL    HW274863   8.818   5.487   0.590
18636SOL    HW374864   8.961   5.495   0.638
18636SOL    MW474865   8.878   5.525   0.641
18637SOL     OW74866   8.828   4.010   0.782
18637SOL    HW274867   8.856   3.942   0.843
18637SOL    HW374868   8.742   3.981   0.752
18637SOL    MW474869   8.821   3.997   0.786
18638SOL     OW74870   7.633   4.944   0.716
18638SOL    HW274871   7.697   4.976   0.779
18638SOL    HW374872   7.682   4.880   0.664
18638SOL    MW474873   7.648   4.940   0.717
18639SOL     OW74874   8.133   5.020   1.698
18639SOL    HW274875   8.181   5.103   1.685
18639SOL    HW374876   8.190   4.968   1.754
18639SOL    MW474877   8.147   5.024   1.704
18640SOL     OW74878   7.709   5.262   1.838
18640SOL    HW274879   7.765   5.186   1.853
18640SOL    HW374880   7.658   5.240   1.760
18640SOL    MW474881   7.709   5.249   1.829
18641SOL     OW74882   8.594   5.099   1.447
18641SOL    HW274883   8.505   5.105   1.415
18641SOL    HW374884   8.638   5.178   1.415
18641SOL    MW474885   8.589   5.109   1.439
18642SOL     OW74886   7.887   3.767   1.789
18642SOL    HW274887   7.815   3.732   1.737
18642SOL    HW374888   7.945   3.808   1.724
18642SOL    MW474889   7.885   3.768   1.774
18643SOL     OW74890   7.911   5.257   1.088
18643SOL    HW274891   7.956   5.319   1.145
18643SOL    HW374892   7.818   5.276   1.101
18643SOL    MW474893   7.904   5.267   1.095
18644SOL     OW74894   9.351   4.786   1.442
18644SOL    HW274895   9.266   4.799   1.401
18644SOL    HW374896   9.331   4.750   1.529
18644SOL    MW474897   9.338   4.782   1.447
18645SOL     OW74898   8.333   5.325   1.196
18645SOL    HW274899   8.357   5.314   1.105
18645SOL    HW374900   8.256   5.382   1.194
18645SOL    MW474901   8.325   5.330   1.185
18646SOL     OW74902   8.128   5.030   0.986
18646SOL    HW274903   8.121   5.009   1.080
18646SOL    HW374904   8.046   4.998   0.949
18646SOL    MW474905   8.116   5.024   0.993
18647SOL     OW74906   8.992   4.040   1.388
18647SOL    HW274907   8.939   4.042   1.468
18647SOL    HW374908   8.977   3.953   1.351
18647SOL    MW474909   8.984   4.030   1.393
18648SOL     OW74910   9.328   3.964   1.261
18648SOL    HW274911   9.309   4.031   1.196
18648SOL    HW374912   9.385   3.902   1.216
18648SOL    MW474913   9.332   3.965   1.247
18649SOL     OW74914   7.574   5.122   1.649
18649SOL    HW274915   7.618   5.055   1.595
18649SOL    HW374916   7.489   5.084   1.669
18649SOL    MW474917   7.569   5.108   1.645
18650SOL     OW74918   8.257   3.797   0.701
18650SOL    HW274919   8.186   3.858   0.683
18650SOL    HW374920   8.308   3.794   0.620
18650SOL    MW474921   8.253   3.803   0.688
18651SOL     OW74922   8.610   5.430   1.359
18651SOL    HW274923   8.530   5.415   1.309
18651SOL    HW374924   8.617   5.525   1.366
18651SOL    MW474925   8.601   5.441   1.353
18652SOL     OW74926   8.724   5.395   0.849
18652SOL    HW274927   8.771   5.468   0.808
18652SOL    HW374928   8.645   5.434   0.885
18652SOL    MW474929   8.719   5.410   0.848
18653SOL     OW74930   9.132   5.490   1.124
18653SOL    HW274931   9.175   5.460   1.204
18653SOL    HW374932   9.051   5.438   1.121
18653SOL    MW474933   9.127   5.479   1.134
18654SOL     OW74934   8.217   4.454   1.831
18654SOL    HW274935   8.287   4.396   1.803
18654SOL    HW374936   8.160   4.399   1.886
18654SOL    MW474937   8.219   4.441   1.835
18655SOL     OW74938   9.004   4.666   1.464
18655SOL    HW274939   9.009   4.719   1.544
18655SOL    HW374940   8.966   4.583   1.492
18655SOL    MW474941   9.000   4.661   1.479
18656SOL     OW74942   8.644   3.801   1.710
18656SOL    HW274943   8.639   3.708   1.691
18656SOL    HW374944   8.727   3.812   1.756
18656SOL    MW474945   8.652   3.790   1.714
18657SOL     OW74946   9.114   5.072   0.986
18657SOL    HW274947   9.149   5.054   0.899
18657SOL    HW374948   9.019   5.073   0.973
18657SOL    MW474949   9.106   5.069   0.973
18658SOL     OW74950   8.543   4.720   1.355
18658SOL    HW274951   8.586   4.755   1.433
18658SOL    HW374952   8.526   4.797   1.301
18658SOL    MW474953   8.546   4.735   1.358
18659SOL     OW74954   7.934   3.862   0.657
18659SOL    HW274955   7.984   3.905   0.588
18659SOL    HW374956   7.849   3.906   0.657
18659SOL    MW474957   7.931   3.875   0.648
18660SOL     OW74958   7.693   4.924   1.517
18660SOL    HW274959   7.721   4.877   1.595
18660SOL    HW374960   7.614   4.879   1.488
18660SOL    MW474961   7.686   4.913   1.523
18661SOL     OW74962   8.201   4.251   1.484
18661SOL    HW274963   8.173   4.339   1.508
18661SOL    HW374964   8.170   4.195   1.555
18661SOL    MW474965   8.193   4.254   1.496
18662SOL     OW74966   7.856   4.647   0.697
18662SOL    HW274967   7.914   4.703   0.645
18662SOL    HW374968   7.900   4.562   0.699
18662SOL    MW474969   7.869   4.644   0.690
18663SOL     OW74970   8.996   3.999   0.534
18663SOL    HW274971   8.918   3.949   0.559
18663SOL    HW374972   8.967   4.090   0.534
18663SOL    MW474973   8.982   4.003   0.537
18664SOL     OW74974   8.582   3.961   0.693
18664SOL    HW274975   8.602   4.036   0.637
18664SOL    HW374976   8.562   4.000   0.778
18664SOL    MW474977   8.583   3.977   0.697
18665SOL     OW74978   8.478   5.211   0.025
18665SOL    HW274979   8.505   5.289  -0.023
18665SOL    HW374980   8.385   5.226   0.044
18665SOL    MW474981   8.469   5.224   0.021
18666SOL     OW74982   9.342   4.734   1.712
18666SOL    HW274983   9.255   4.714   1.748
18666SOL    HW374984   9.396   4.660   1.737
18666SOL    MW474985   9.337   4.723   1.720
18667SOL     OW74986   7.563   5.247   0.869
18667SOL    HW274987   7.595   5.251   0.960
18667SOL    HW374988   7.468   5.255   0.877
18667SOL    MW474989   7.555   5.250   0.882
18668SOL     OW74990   7.518   4.373   0.416
18668SOL    HW274991   7.458   4.345   0.486
18668SOL    HW374992   7.592   4.313   0.422
18668SOL    MW474993   7.520   4.362   0.425
18669SOL     OW74994   9.086   5.585   1.850
18669SOL    HW274995   9.131   5.509   1.815
18669SOL    HW374996   9.124   5.598   1.937
18669SOL    MW474997   9.096   5.578   1.856
18670SOL     OW74998   8.686   5.104   0.576
18670SOL    HW274999   8.709   5.055   0.654
18670SOL    HW375000   8.767   5.146   0.548
18670SOL    MW475001   8.699   5.104   0.583
18671SOL     OW75002   7.944   4.112   1.305
18671SOL    HW275003   7.977   4.193   1.345
18671SOL    HW375004   7.917   4.138   1.217
18671SOL    MW475005   7.943   4.126   1.299
18672SOL     OW75006   7.898   4.079   1.041
18672SOL    HW275007   7.928   3.993   1.012
18672SOL    HW375008   7.803   4.072   1.044
18672SOL    MW475009   7.890   4.068   1.039
18673SOL     OW75010   8.727   4.288   1.732
18673SOL    HW275011   8.779   4.223   1.685
18673SOL    HW375012   8.685   4.339   1.662
18673SOL    MW475013   8.728   4.285   1.715
18674SOL     OW75014   8.826   4.083   1.593
18674SOL    HW275015   8.733   4.067   1.580
18674SOL    HW375016   8.852   4.021   1.661
18674SOL    MW475017   8.816   4.073   1.600
18675SOL     OW75018   8.041   3.857   0.932
18675SOL    HW275019   8.051   3.766   0.958
18675SOL    HW375020   7.997   3.853   0.847
18675SOL    MW475021   8.037   3.845   0.924
18676SOL     OW75022   8.135   5.472   1.478
18676SOL    HW275023   8.052   5.457   1.523
18676SOL    HW375024   8.194   5.405   1.513
18676SOL    MW475025   8.133   5.462   1.488
18677SOL     OW75026   9.192   4.179   1.103
18677SOL    HW275027   9.125   4.212   1.163
18677SOL    HW375028   9.235   4.257   1.069
18677SOL    MW475029   9.190   4.194   1.107
18678SOL     OW75030   9.370   4.899   1.073
18678SOL    HW275031   9.363   4.839   0.998
18678SOL    HW375032   9.296   4.959   1.062
18678SOL    MW475033   9.360   4.899   1.062
18679SOL     OW75034   8.752   4.761   0.991
18679SOL    HW275035   8.766   4.733   1.082
18679SOL    HW375036   8.838   4.792   0.963
18679SOL    MW475037   8.765   4.762   1.000
18680SOL     OW75038   8.835   4.256   1.270
18680SOL    HW275039   8.856   4.257   1.177
18680SOL    HW375040   8.880   4.178   1.303
18680SOL    MW475041   8.842   4.246   1.262
18681SOL     OW75042   9.328   4.387   1.812
18681SOL    HW275043   9.365   4.332   1.881
18681SOL    HW375044   9.353   4.344   1.730
18681SOL    MW475045   9.335   4.375   1.811
18682SOL     OW75046   8.875   4.685   1.863
18682SOL    HW275047   8.941   4.633   1.817
18682SOL    HW375048   8.895   4.672   1.956
18682SOL    MW475049   8.886   4.676   1.870
18683SOL     OW75050   8.886   4.546   0.490
18683SOL    HW275051   8.801   4.516   0.460
18683SOL    HW375052   8.878   4.553   0.585
18683SOL    MW475053   8.874   4.544   0.499
18684SOL     OW75054   7.962   5.009   1.221
18684SOL    HW275055   7.974   5.036   1.312
18684SOL    HW375056   7.943   5.090   1.174
18684SOL    MW475057   7.961   5.024   1.226
18685SOL     OW75058   8.246   3.989   1.044
18685SOL    HW275059   8.219   3.991   1.135
18685SOL    HW375060   8.176   3.941   0.999
18685SOL    MW475061   8.234   3.985   1.051
18686SOL     OW75062   8.100   5.481   1.206
18686SOL    HW275063   8.152   5.558   1.183
18686SOL    HW375064   8.109   5.473   1.301
18686SOL    MW475065   8.109   5.488   1.217
18687SOL     OW75066   9.002   5.066   1.438
18687SOL    HW275067   8.987   4.995   1.501
18687SOL    HW375068   9.048   5.024   1.366
18687SOL    MW475069   9.008   5.050   1.438
18688SOL     OW75070   8.076   4.797   1.555
18688SOL    HW275071   8.113   4.802   1.467
18688SOL    HW375072   8.115   4.870   1.602
18688SOL    MW475073   8.086   4.807   1.550
18689SOL     OW75074   8.256   4.840   1.367
18689SOL    HW275075   8.315   4.786   1.420
18689SOL    HW375076   8.271   4.812   1.277
18689SOL    MW475077   8.266   4.829   1.363
18690SOL     OW75078   9.067   5.329   1.539
18690SOL    HW275079   9.109   5.314   1.624
18690SOL    HW375080   9.058   5.242   1.501
18690SOL    MW475081   9.071   5.317   1.546
18691SOL     OW75082   8.727   3.808   1.130
18691SOL    HW275083   8.782   3.817   1.052
18691SOL    HW375084   8.782   3.842   1.201
18691SOL    MW475085   8.741   3.813   1.129
18692SOL     OW75086   7.734   4.721   0.314
18692SOL    HW275087   7.671   4.737   0.243
18692SOL    HW375088   7.681   4.684   0.385
18692SOL    MW475089   7.719   4.718   0.314
18693SOL     OW75090   7.888   5.464   0.894
18693SOL    HW275091   7.892   5.375   0.929
18693SOL    HW375092   7.914   5.455   0.803
18693SOL    MW475093   7.891   5.452   0.886
18694SOL     OW75094   8.505   4.942   1.137
18694SOL    HW275095   8.437   4.876   1.153
18694SOL    HW375096   8.523   4.936   1.044
18694SOL    MW475097   8.498   4.933   1.128
18695SOL     OW75098   7.594   5.217   1.388
18695SOL    HW275099   7.584   5.175   1.474
18695SOL    HW375100   7.515   5.270   1.378
18695SOL    MW475101   7.583   5.218   1.399
18696SOL     OW75102   8.498   4.081   0.958
18696SOL    HW275103   8.428   4.033   1.003
18696SOL    HW375104   8.530   4.144   1.022
18696SOL    MW475105   8.493   4.083   0.972
18697SOL     OW75106   8.149   4.517   1.578
18697SOL    HW275107   8.142   4.612   1.566
18697SOL    HW375108   8.158   4.506   1.673
18697SOL    MW475109   8.150   4.529   1.588
18698SOL     OW75110   7.870   5.032   1.836
18698SOL    HW275111   7.942   5.034   1.773
18698SOL    HW375112   7.840   4.941   1.835
18698SOL    MW475113   7.875   5.021   1.828
18699SOL     OW75114   8.954   3.795   1.303
18699SOL    HW275115   9.025   3.741   1.267
18699SOL    HW375116   8.953   3.774   1.396
18699SOL    MW475117   8.963   3.786   1.311
18700SOL     OW75118   9.154   5.325   1.787
18700SOL    HW275119   9.127   5.322   1.878
18700SOL    HW375120   9.250   5.329   1.790
18700SOL    MW475121   9.164   5.325   1.799
18701SOL     OW75122   7.965   4.187   0.771
18701SOL    HW275123   8.036   4.135   0.734
18701SOL    HW375124   7.951   4.152   0.858
18701SOL    MW475125   7.973   4.176   0.778
18702SOL     OW75126   7.520   5.522   1.843
18702SOL    HW275127   7.570   5.500   1.765
18702SOL    HW375128   7.528   5.617   1.851
18702SOL    MW475129   7.528   5.531   1.834
18703SOL     OW75130   8.281   5.280   0.847
18703SOL    HW275131   8.209   5.217   0.860
18703SOL    HW375132   8.242   5.365   0.865
18703SOL    MW475133   8.265   5.283   0.850
18704SOL     OW75134   8.601   4.128   0.495
18704SOL    HW275135   8.623   4.065   0.427
18704SOL    HW375136   8.506   4.120   0.506
18704SOL    MW475137   8.591   4.119   0.487
18705SOL     OW75138   7.686   3.818   0.427
18705SOL    HW275139   7.757   3.839   0.366
18705SOL    HW375140   7.640   3.746   0.385
18705SOL    MW475141   7.690   3.812   0.413
18706SOL     OW75142   7.517   4.285   1.570
18706SOL    HW275143   7.581   4.351   1.545
18706SOL    HW375144   7.436   4.312   1.527
18706SOL    MW475145   7.515   4.297   1.562
18707SOL     OW75146   9.255   5.192   0.527
18707SOL    HW275147   9.225   5.125   0.588
18707SOL    HW375148   9.349   5.198   0.541
18707SOL    MW475149   9.263   5.184   0.537
18708SOL     OW75150   8.473   3.789   0.510
18708SOL    HW275151   8.510   3.848   0.575
18708SOL    HW375152   8.450   3.845   0.436
18708SOL    MW475153   8.474   3.804   0.509
18709SOL     OW75154   9.326   4.671   0.932
18709SOL    HW275155   9.317   4.703   0.843
18709SOL    HW375156   9.279   4.587   0.932
18709SOL    MW475157   9.319   4.664   0.922
18710SOL     OW75158   7.702   4.511   1.511
18710SOL    HW275159   7.723   4.580   1.449
18710SOL    HW375160   7.782   4.458   1.516
18710SOL    MW475161   7.715   4.512   1.505
18711SOL     OW75162   9.238   4.602   0.633
18711SOL    HW275163   9.332   4.591   0.621
18711SOL    HW375164   9.214   4.674   0.574
18711SOL    MW475165   9.248   4.610   0.624
18712SOL     OW75166   7.687   4.526   1.778
18712SOL    HW275167   7.613   4.470   1.804
18712SOL    HW375168   7.682   4.529   1.683
18712SOL    MW475169   7.676   4.519   1.768
18713SOL     OW75170   7.853   3.813   1.228
18713SOL    HW275171   7.896   3.897   1.248
18713SOL    HW375172   7.926   3.751   1.221
18713SOL    MW475173   7.868   3.816   1.229
18714SOL     OW75174   7.894   4.480   0.406
18714SOL    HW275175   7.894   4.575   0.391
18714SOL    HW375176   7.971   4.464   0.460
18714SOL    MW475177   7.904   4.491   0.411
18715SOL     OW75178   8.670   4.339   1.470
18715SOL    HW275179   8.706   4.312   1.386
18715SOL    HW375180   8.583   4.373   1.449
18715SOL    MW475181   8.664   4.340   1.457
18716SOL     OW75182   7.653   4.211   0.695
18716SOL    HW275183   7.715   4.218   0.768
18716SOL    HW375184   7.653   4.118   0.672
18716SOL    MW475185   7.661   4.200   0.702
18717SOL     OW75186   8.335   4.472   1.179
18717SOL    HW275187   8.293   4.390   1.155
18717SOL    HW375188   8.336   4.471   1.275
18717SOL    MW475189   8.328   4.461   1.188
18718SOL     OW75190   9.006   5.605   1.578
18718SOL    HW275191   9.009   5.511   1.561
18718SOL    HW375192   9.029   5.613   1.670
18718SOL    MW475193   9.009   5.593   1.588
18719SOL     OW75194   8.139   3.942   1.284
18719SOL    HW275195   8.070   4.005   1.305
18719SOL    HW375196   8.166   3.906   1.369
18719SOL    MW475197   8.133   3.945   1.297
18720SOL     OW75198   8.934   3.795   0.901
18720SOL    HW275199   9.022   3.804   0.938
18720SOL    HW375200   8.944   3.736   0.827
18720SOL    MW475201   8.948   3.789   0.895
18721SOL     OW75202   8.966   4.534   0.745
18721SOL    HW275203   9.046   4.549   0.694
18721SOL    HW375204   8.959   4.439   0.751
18721SOL    MW475205   8.975   4.523   0.740
18722SOL     OW75206   8.416   4.460   1.442
18722SOL    HW275207   8.485   4.527   1.439
18722SOL    HW375208   8.349   4.498   1.498
18722SOL    MW475209   8.417   4.473   1.449
18723SOL     OW75210   7.834   4.760   1.690
18723SOL    HW275211   7.788   4.676   1.692
18723SOL    HW375212   7.891   4.754   1.614
18723SOL    MW475213   7.836   4.748   1.682
18724SOL     OW75214   8.085   5.135   0.691
18724SOL    HW275215   8.150   5.068   0.712
18724SOL    HW375216   8.137   5.212   0.668
18724SOL    MW475217   8.100   5.137   0.690
18725SOL     OW75218   8.346   4.300   0.821
18725SOL    HW275219   8.286   4.318   0.893
18725SOL    HW375220   8.380   4.212   0.840
18725SOL    MW475221   8.342   4.290   0.834
18726SOL     OW75222   9.287   3.799   1.490
18726SOL    HW275223   9.208   3.845   1.518
18726SOL    HW375224   9.322   3.853   1.419
18726SOL    MW475225   9.281   3.812   1.484
18727SOL     OW75226   8.571   4.883   0.840
18727SOL    HW275227   8.663   4.864   0.858
18727SOL    HW375228   8.544   4.813   0.780
18727SOL    MW475229   8.579   4.871   0.834
18728SOL     OW75230   8.845   5.121   0.936
18728SOL    HW275231   8.818   5.205   0.901
18728SOL    HW375232   8.805   5.116   1.023
18728SOL    MW475233   8.838   5.130   0.942
18729SOL     OW75234   8.764   5.069   1.204
18729SOL    HW275235   8.775   5.036   1.293
18729SOL    HW375236   8.683   5.028   1.173
18729SOL    MW475237   8.754   5.061   1.210
18730SOL     OW75238   7.777   4.427   0.974
18730SOL    HW275239   7.727   4.426   1.055
18730SOL    HW375240   7.797   4.519   0.958
18730SOL    MW475241   7.773   4.439   0.982
18731SOL     OW75242   8.844   5.191   1.736
18731SOL    HW275243   8.844   5.285   1.752
18731SOL    HW375244   8.889   5.181   1.652
18731SOL    MW475245   8.850   5.201   1.727
18732SOL     OW75246   7.699   4.095   1.715
18732SOL    HW275247   7.656   4.154   1.652
18732SOL    HW375248   7.767   4.150   1.755
18732SOL    MW475249   7.703   4.110   1.712
18733SOL     OW75250   8.811   4.715   1.260
18733SOL    HW275251   8.874   4.712   1.333
18733SOL    HW375252   8.727   4.733   1.302
18733SOL    MW475253   8.807   4.717   1.275
18734SOL     OW75254   8.355   5.430   0.449
18734SOL    HW275255   8.413   5.501   0.476
18734SOL    HW375256   8.378   5.358   0.507
18734SOL    MW475257   8.366   5.430   0.460
18735SOL     OW75258   9.150   3.892   1.039
18735SOL    HW275259   9.195   3.810   1.058
18735SOL    HW375260   9.170   3.948   1.115
18735SOL    MW475261   9.160   3.888   1.051
18736SOL     OW75262   7.598   3.735   1.138
18736SOL    HW275263   7.589   3.736   1.043
18736SOL    HW375264   7.692   3.747   1.153
18736SOL    MW475265   7.610   3.738   1.129
18737SOL     OW75266   9.235   4.928   0.758
18737SOL    HW275267   9.214   4.874   0.681
18737SOL    HW375268   9.331   4.926   0.762
18737SOL    MW475269   9.244   4.921   0.747
18738SOL     OW75270   7.927   5.073   1.501
18738SOL    HW275271   7.848   5.023   1.524
18738SOL    HW375272   7.997   5.032   1.551
18738SOL    MW475273   7.925   5.061   1.511
18739SOL     OW75274   8.935   4.359   1.020
18739SOL    HW275275   8.858   4.405   0.986
18739SOL    HW375276   8.992   4.428   1.054
18739SOL    MW475277   8.932   4.374   1.020
18740SOL     OW75278   8.873   5.307   0.439
18740SOL    HW275279   8.936   5.297   0.368
18740SOL    HW375280   8.790   5.327   0.394
18740SOL    MW475281   8.870   5.308   0.424
18741SOL     OW75282   9.236   4.575   2.125
18741SOL    HW275283   9.277   4.517   2.190
18741SOL    HW375284   9.143   4.567   2.142
18741SOL    MW475285   9.230   4.567   2.135
18742SOL     OW75286   9.102   4.507   3.120
18742SOL    HW275287   9.057   4.574   3.171
18742SOL    HW375288   9.190   4.543   3.106
18742SOL    MW475289   9.108   4.520   3.124
18743SOL     OW75290   8.030   4.758   2.354
18743SOL    HW275291   8.120   4.733   2.338
18743SOL    HW375292   8.026   4.851   2.331
18743SOL    MW475293   8.042   4.767   2.349
18744SOL     OW75294   9.146   5.461   2.496
18744SOL    HW275295   9.158   5.407   2.574
18744SOL    HW375296   9.183   5.409   2.425
18744SOL    MW475297   9.152   5.446   2.497
18745SOL     OW75298   8.525   5.346   3.497
18745SOL    HW275299   8.566   5.382   3.418
18745SOL    HW375300   8.560   5.257   3.504
18745SOL    MW475301   8.536   5.339   3.488
18746SOL     OW75302   9.082   4.901   3.101
18746SOL    HW275303   9.003   4.866   3.059
18746SOL    HW375304   9.109   4.973   3.045
18746SOL    MW475305   9.075   4.906   3.088
18747SOL     OW75306   8.314   4.214   2.367
18747SOL    HW275307   8.289   4.302   2.395
18747SOL    HW375308   8.311   4.217   2.271
18747SOL    MW475309   8.310   4.226   2.359
18748SOL     OW75310   7.756   4.242   2.295
18748SOL    HW275311   7.788   4.330   2.277
18748SOL    HW375312   7.744   4.240   2.390
18748SOL    MW475313   7.759   4.254   2.307
18749SOL     OW75314   7.834   4.655   3.196
18749SOL    HW275315   7.897   4.602   3.147
18749SOL    HW375316   7.815   4.729   3.139
18749SOL    MW475317   7.840   4.657   3.183
18750SOL     OW75318   8.155   3.997   2.382
18750SOL    HW275319   8.213   4.073   2.384
18750SOL    HW375320   8.090   4.018   2.315
18750SOL    MW475321   8.154   4.009   2.373
18751SOL     OW75322   8.242   4.924   2.557
18751SOL    HW275323   8.322   4.927   2.609
18751SOL    HW375324   8.270   4.891   2.471
18751SOL    MW475325   8.256   4.920   2.552
18752SOL     OW75326   8.267   5.265   3.460
18752SOL    HW275327   8.351   5.291   3.499
18752SOL    HW375328   8.291   5.209   3.386
18752SOL    MW475329   8.281   5.261   3.455
18753SOL     OW75330   8.019   4.428   2.548
18753SOL    HW275331   8.004   4.348   2.599
18753SOL    HW375332   8.101   4.463   2.582
18753SOL    MW475333   8.027   4.420   2.560
18754SOL     OW75334   8.356   5.114   3.233
18754SOL    HW275335   8.320   5.180   3.173
18754SOL    HW375336   8.284   5.052   3.246
18754SOL    MW475337   8.342   5.114   3.227
18755SOL     OW75338   8.161   4.254   2.925
18755SOL    HW275339   8.067   4.250   2.943
18755SOL    HW375340   8.191   4.163   2.934
18755SOL    MW475341   8.152   4.242   2.928
18756SOL     OW75342   7.907   4.668   2.829
18756SOL    HW275343   7.862   4.675   2.745
18756SOL    HW375344   7.887   4.751   2.873
18756SOL    MW475345   7.899   4.680   2.823
18757SOL     OW75346   7.604   5.514   2.704
18757SOL    HW275347   7.693   5.506   2.739
18757SOL    HW375348   7.568   5.426   2.709
18757SOL    MW475349   7.611   5.501   2.709
18758SOL     OW75350   8.869   4.906   2.073
18758SOL    HW275351   8.787   4.942   2.039
18758SOL    HW375352   8.937   4.949   2.022
18758SOL    MW475353   8.867   4.916   2.061
18759SOL     OW75354   7.868   5.041   2.739
18759SOL    HW275355   7.844   5.094   2.815
18759SOL    HW375356   7.924   5.099   2.687
18759SOL    MW475357   7.872   5.056   2.742
18760SOL     OW75358   8.430   4.685   2.549
18760SOL    HW275359   8.344   4.672   2.589
18760SOL    HW375360   8.483   4.612   2.581
18760SOL    MW475361   8.426   4.674   2.558
18761SOL     OW75362   7.838   5.337   3.334
18761SOL    HW275363   7.746   5.313   3.319
18761SOL    HW375364   7.882   5.254   3.351
18761SOL    MW475365   7.832   5.322   3.333
18762SOL     OW75366   8.421   5.047   2.266
18762SOL    HW275367   8.398   5.109   2.334
18762SOL    HW375368   8.378   4.965   2.292
18762SOL    MW475369   8.413   5.043   2.277
18763SOL     OW75370   9.294   4.048   2.722
18763SOL    HW275371   9.231   4.028   2.791
18763SOL    HW375372   9.284   3.977   2.659
18763SOL    MW475373   9.284   4.035   2.723
18764SOL     OW75374   7.918   4.020   2.234
18764SOL    HW275375   7.892   3.982   2.150
18764SOL    HW375376   7.855   4.090   2.250
18764SOL    MW475377   7.907   4.023   2.225
18765SOL     OW75378   7.753   4.981   2.271
18765SOL    HW275379   7.701   5.049   2.227
18765SOL    HW375380   7.750   4.907   2.211
18765SOL    MW475381   7.745   4.980   2.258
18766SOL     OW75382   8.415   5.444   2.049
18766SOL    HW275383   8.370   5.460   2.132
18766SOL    HW375384   8.346   5.409   1.991
18766SOL    MW475385   8.401   5.441   2.051
18767SOL     OW75386   9.350   4.217   2.024
18767SOL    HW275387   9.259   4.219   2.052
18767SOL    HW375388   9.395   4.279   2.082
18767SOL    MW475389   9.343   4.225   2.034
18768SOL     OW75390   9.095   4.820   2.374
18768SOL    HW275391   9.005   4.820   2.409
18768SOL    HW375392   9.088   4.866   2.291
18768SOL    MW475393   9.082   4.826   2.368
18769SOL     OW75394   8.895   4.455   3.446
18769SOL    HW275395   8.964   4.393   3.423
18769SOL    HW375396   8.820   4.429   3.393
18769SOL    MW475397   8.895   4.442   3.437
18770SOL     OW75398   7.636   5.335   2.998
18770SOL    HW275399   7.619   5.281   3.075
18770SOL    HW375400   7.624   5.425   3.028
18770SOL    MW475401   7.633   5.339   3.012
18771SOL     OW75402   8.631   4.842   3.438
18771SOL    HW275403   8.616   4.935   3.423
18771SOL    HW375404   8.726   4.832   3.438
18771SOL    MW475405   8.640   4.852   3.435
18772SOL     OW75406   8.427   4.266   3.639
18772SOL    HW275407   8.517   4.267   3.606
18772SOL    HW375408   8.386   4.191   3.597
18772SOL    MW475409   8.433   4.256   3.630
18773SOL     OW75410   9.002   4.798   2.766
18773SOL    HW275411   9.005   4.732   2.697
18773SOL    HW375412   9.087   4.841   2.762
18773SOL    MW475413   9.014   4.794   2.757
18774SOL     OW75414   8.622   4.401   2.335
18774SOL    HW275415   8.648   4.425   2.246
18774SOL    HW375416   8.604   4.308   2.331
18774SOL    MW475417   8.624   4.393   2.322
18775SOL     OW75418   9.287   5.021   2.186
18775SOL    HW275419   9.243   5.062   2.261
18775SOL    HW375420   9.344   5.089   2.151
18775SOL    MW475421   9.289   5.035   2.191
18776SOL     OW75422   8.207   4.070   3.589
18776SOL    HW275423   8.217   3.996   3.529
18776SOL    HW375424   8.243   4.039   3.672
18776SOL    MW475425   8.213   4.056   3.591
18777SOL     OW75426   7.943   5.437   2.504
18777SOL    HW275427   7.975   5.525   2.482
18777SOL    HW375428   7.896   5.409   2.426
18777SOL    MW475429   7.942   5.445   2.491
18778SOL     OW75430   9.327   3.799   2.553
18778SOL    HW275431   9.381   3.750   2.615
18778SOL    HW375432   9.270   3.733   2.514
18778SOL    MW475433   9.327   3.783   2.555
18779SOL     OW75434   7.659   5.497   2.081
18779SOL    HW275435   7.688   5.587   2.073
18779SOL    HW375436   7.609   5.480   2.002
18779SOL    MW475437   7.657   5.505   2.070
18780SOL     OW75438   8.446   3.752   2.966
18780SOL    HW275439   8.405   3.830   2.928
18780SOL    HW375440   8.540   3.770   2.961
18780SOL    MW475441   8.452   3.764   2.961
18781SOL     OW75442   9.063   5.305   2.052
18781SOL    HW275443   9.111   5.374   2.098
18781SOL    HW375444   8.984   5.349   2.021
18781SOL    MW475445   9.058   5.319   2.055
18782SOL     OW75446   8.461   4.430   1.996
18782SOL    HW275447   8.463   4.377   1.917
18782SOL    HW375448   8.549   4.467   2.002
18782SOL    MW475449   8.473   4.429   1.985
18783SOL     OW75450   9.075   4.356   2.332
18783SOL    HW275451   9.114   4.356   2.419
18783SOL    HW375452   9.016   4.432   2.332
18783SOL    MW475453   9.072   4.367   2.343
18784SOL     OW75454   8.392   4.723   3.461
18784SOL    HW275455   8.369   4.703   3.551
18784SOL    HW375456   8.477   4.767   3.466
18784SOL    MW475457   8.399   4.726   3.473
18785SOL     OW75458   8.472   3.860   3.221
18785SOL    HW275459   8.478   3.822   3.134
18785SOL    HW375460   8.461   3.954   3.206
18785SOL    MW475461   8.473   3.868   3.209
18786SOL     OW75462   8.561   4.349   3.055
18786SOL    HW275463   8.636   4.378   3.002
18786SOL    HW375464   8.493   4.414   3.039
18786SOL    MW475465   8.562   4.361   3.045
18787SOL     OW75466   9.111   4.317   3.332
18787SOL    HW275467   9.092   4.226   3.311
18787SOL    HW375468   9.089   4.366   3.253
18787SOL    MW475469   9.106   4.310   3.319
18788SOL     OW75470   9.253   5.411   3.236
18788SOL    HW275471   9.181   5.373   3.287
18788SOL    HW375472   9.270   5.496   3.277
18788SOL    MW475473   9.247   5.416   3.248
18789SOL     OW75474   8.558   4.055   3.438
18789SOL    HW275475   8.524   4.094   3.357
18789SOL    HW375476   8.536   3.963   3.431
18789SOL    MW475477   8.551   4.048   3.428
18790SOL     OW75478   8.967   4.869   3.514
18790SOL    HW275479   9.049   4.910   3.544
18790SOL    HW375480   8.930   4.831   3.594
18790SOL    MW475481   8.973   4.870   3.529
18791SOL     OW75482   9.262   4.242   2.498
18791SOL    HW275483   9.351   4.211   2.515
18791SOL    HW375484   9.205   4.182   2.546
18791SOL    MW475485   9.265   4.230   2.507
18792SOL     OW75486   7.688   3.956   2.527
18792SOL    HW275487   7.679   3.896   2.453
18792SOL    HW375488   7.621   3.927   2.590
18792SOL    MW475489   7.678   3.943   2.525
18793SOL     OW75490   8.631   5.049   2.088
18793SOL    HW275491   8.581   5.051   2.170
18793SOL    HW375492   8.565   5.067   2.020
18793SOL    MW475493   8.617   5.051   2.090
18794SOL     OW75494   7.635   4.129   2.890
18794SOL    HW275495   7.607   4.220   2.899
18794SOL    HW375496   7.572   4.090   2.829
18794SOL    MW475497   7.622   4.135   2.884
18795SOL     OW75498   8.094   5.467   2.196
18795SOL    HW275499   8.015   5.425   2.229
18795SOL    HW375500   8.160   5.450   2.263
18795SOL    MW475501   8.093   5.459   2.209
18796SOL     OW75502   9.222   4.987   3.593
18796SOL    HW275503   9.272   4.913   3.625
18796SOL    HW375504   9.168   5.014   3.668
18796SOL    MW475505   9.222   4.981   3.606
18797SOL     OW75506   8.230   4.882   1.903
18797SOL    HW275507   8.152   4.828   1.890
18797SOL    HW375508   8.201   4.955   1.956
18797SOL    MW475509   8.216   4.884   1.908
18798SOL     OW75510   9.356   4.622   3.095
18798SOL    HW275511   9.372   4.660   3.008
18798SOL    HW375512   9.390   4.688   3.156
18798SOL    MW475513   9.363   4.635   3.091
18799SOL     OW75514   9.148   5.331   2.764
18799SOL    HW275515   9.177   5.398   2.825
18799SOL    HW375516   9.129   5.255   2.819
18799SOL    MW475517   9.150   5.331   2.779
18800SOL     OW75518   8.811   5.398   1.971
18800SOL    HW275519   8.737   5.361   2.021
18800SOL    HW375520   8.819   5.488   2.004
18800SOL    MW475521   8.802   5.405   1.983
18801SOL     OW75522   7.619   4.404   3.060
18801SOL    HW275523   7.681   4.434   3.126
18801SOL    HW375524   7.553   4.473   3.054
18801SOL    MW475525   7.618   4.417   3.067
18802SOL     OW75526   9.035   5.072   1.913
18802SOL    HW275527   8.982   5.121   1.849
18802SOL    HW375528   9.066   5.138   1.974
18802SOL    MW475529   9.033   5.086   1.911
18803SOL     OW75530   8.260   3.961   1.968
18803SOL    HW275531   8.208   3.881   1.956
18803SOL    HW375532   8.347   3.938   1.936
18803SOL    MW475533   8.263   3.947   1.962
18804SOL     OW75534   7.714   5.513   3.512
18804SOL    HW275535   7.688   5.581   3.450
18804SOL    HW375536   7.762   5.450   3.460
18804SOL    MW475537   7.716   5.513   3.498
18805SOL     OW75538   7.766   4.832   3.019
18805SOL    HW275539   7.819   4.907   3.044
18805SOL    HW375540   7.685   4.870   2.985
18805SOL    MW475541   7.762   4.847   3.019
18806SOL     OW75542   8.306   4.736   3.007
18806SOL    HW275543   8.334   4.645   3.019
18806SOL    HW375544   8.235   4.730   2.943
18806SOL    MW475545   8.299   4.724   3.002
18807SOL     OW75546   7.621   4.601   2.425
18807SOL    HW275547   7.712   4.616   2.452
18807SOL    HW375548   7.624   4.522   2.371
18807SOL    MW475549   7.633   4.593   2.423
18808SOL     OW75550   7.857   4.309   3.679
18808SOL    HW275551   7.804   4.389   3.686
18808SOL    HW375552   7.927   4.321   3.744
18808SOL    MW475553   7.859   4.322   3.687
18809SOL     OW75554   8.243   3.859   3.386
18809SOL    HW275555   8.220   3.767   3.388
18809SOL    HW375556   8.329   3.861   3.343
18809SOL    MW475557   8.250   3.849   3.382
18810SOL     OW75558   7.927   4.383   3.425
18810SOL    HW275559   8.007   4.433   3.411
18810SOL    HW375560   7.918   4.377   3.520
18810SOL    MW475561   7.936   4.389   3.435
18811SOL     OW75562   8.248   5.533   2.799
18811SOL    HW275563   8.337   5.548   2.829
18811SOL    HW375564   8.243   5.580   2.715
18811SOL    MW475565   8.258   5.541   2.792
18812SOL     OW75566   8.904   3.908   3.696
18812SOL    HW275567   8.960   3.835   3.722
18812SOL    HW375568   8.874   3.946   3.778
18812SOL    MW475569   8.908   3.903   3.709
18813SOL     OW75570   7.629   5.213   2.464
18813SOL    HW275571   7.601   5.252   2.546
18813SOL    HW375572   7.649   5.122   2.486
18813SOL    MW475573   7.627   5.205   2.477
18814SOL     OW75574   8.462   5.256   2.499
18814SOL    HW275575   8.545   5.210   2.483
18814SOL    HW375576   8.452   5.255   2.595
18814SOL    MW475577   8.472   5.249   2.509
18815SOL     OW75578   9.294   4.401   2.813
18815SOL    HW275579   9.383   4.431   2.795
18815SOL    HW375580   9.274   4.341   2.742
18815SOL    MW475581   9.303   4.398   2.802
18816SOL     OW75582   9.145   4.580   3.693
18816SOL    HW275583   9.200   4.504   3.674
18816SOL    HW375584   9.147   4.588   3.788
18816SOL    MW475585   9.153   4.571   3.701
18817SOL     OW75586   8.195   5.313   1.904
18817SOL    HW275587   8.135   5.382   1.874
18817SOL    HW375588   8.140   5.255   1.957
18817SOL    MW475589   8.179   5.315   1.906
18818SOL     OW75590   8.633   3.958   2.127
18818SOL    HW275591   8.566   3.934   2.064
18818SOL    HW375592   8.698   4.007   2.076
18818SOL    MW475593   8.633   3.960   2.112
18819SOL     OW75594   8.440   4.142   3.212
18819SOL    HW275595   8.359   4.183   3.240
18819SOL    HW375596   8.487   4.210   3.164
18819SOL    MW475597   8.435   4.157   3.210
18820SOL     OW75598   8.700   4.480   2.835
18820SOL    HW275599   8.713   4.574   2.845
18820SOL    HW375600   8.661   4.470   2.749
18820SOL    MW475601   8.696   4.491   2.825
18821SOL     OW75602   8.152   4.675   2.639
18821SOL    HW275603   8.063   4.666   2.672
18821SOL    HW375604   8.156   4.765   2.607
18821SOL    MW475605   8.141   4.686   2.639
18822SOL     OW75606   8.951   4.258   2.634
18822SOL    HW275607   8.896   4.179   2.633
18822SOL    HW375608   8.933   4.299   2.718
18822SOL    MW475609   8.941   4.253   2.643
18823SOL     OW75610   7.922   3.945   3.451
18823SOL    HW275611   7.843   3.963   3.503
18823SOL    HW375612   7.917   4.007   3.378
18823SOL    MW475613   7.912   3.955   3.448
18824SOL     OW75614   8.570   4.462   2.591
18824SOL    HW275615   8.507   4.394   2.615
18824SOL    HW375616   8.590   4.443   2.499
18824SOL    MW475617   8.564   4.449   2.583
18825SOL     OW75618   7.826   5.357   2.293
18825SOL    HW275619   7.787   5.404   2.219
18825SOL    HW375620   7.760   5.292   2.318
18825SOL    MW475621   7.813   5.355   2.287
18826SOL     OW75622   8.318   4.766   2.317
18826SOL    HW275623   8.320   4.740   2.224
18826SOL    HW375624   8.376   4.703   2.360
18826SOL    MW475625   8.326   4.755   2.311
18827SOL     OW75626   8.871   5.326   3.089
18827SOL    HW275627   8.796   5.372   3.127
18827SOL    HW375628   8.853   5.233   3.106
18827SOL    MW475629   8.860   5.320   3.097
18828SOL     OW75630   8.875   5.534   2.519
18828SOL    HW275631   8.818   5.487   2.458
18828SOL    HW375632   8.961   5.495   2.506
18828SOL    MW475633   8.878   5.525   2.509
18829SOL     OW75634   8.828   4.010   2.650
18829SOL    HW275635   8.856   3.942   2.711
18829SOL    HW375636   8.742   3.981   2.620
18829SOL    MW475637   8.821   3.997   2.654
18830SOL     OW75638   7.633   4.944   2.584
18830SOL    HW275639   7.697   4.976   2.647
18830SOL    HW375640   7.682   4.880   2.532
18830SOL    MW475641   7.648   4.940   2.585
18831SOL     OW75642   8.133   5.020   3.566
18831SOL    HW275643   8.181   5.103   3.553
18831SOL    HW375644   8.190   4.968   3.622
18831SOL    MW475645   8.147   5.024   3.572
18832SOL     OW75646   7.709   5.262   3.706
18832SOL    HW275647   7.765   5.186   3.721
18832SOL    HW375648   7.658   5.240   3.628
18832SOL    MW475649   7.709   5.249   3.697
18833SOL     OW75650   8.808   4.114   1.985
18833SOL    HW275651   8.781   4.180   1.921
18833SOL    HW375652   8.878   4.157   2.035
18833SOL    MW475653   8.813   4.127   1.982
18834SOL     OW75654   8.476   3.819   1.922
18834SOL    HW275655   8.532   3.811   1.844
18834SOL    HW375656   8.453   3.729   1.944
18834SOL    MW475657   8.481   3.806   1.915
18835SOL     OW75658   8.981   4.670   2.127
18835SOL    HW275659   8.948   4.759   2.117
18835SOL    HW375660   8.946   4.641   2.212
18835SOL    MW475661   8.971   4.679   2.138
18836SOL     OW75662   8.594   5.099   3.315
18836SOL    HW275663   8.505   5.105   3.283
18836SOL    HW375664   8.638   5.178   3.283
18836SOL    MW475665   8.589   5.109   3.307
18837SOL     OW75666   7.887   3.767   3.657
18837SOL    HW275667   7.815   3.732   3.605
18837SOL    HW375668   7.945   3.808   3.592
18837SOL    MW475669   7.885   3.768   3.642
18838SOL     OW75670   7.911   5.257   2.956
18838SOL    HW275671   7.956   5.319   3.013
18838SOL    HW375672   7.818   5.276   2.969
18838SOL    MW475673   7.904   5.267   2.963
18839SOL     OW75674   9.351   4.786   3.310
18839SOL    HW275675   9.266   4.799   3.269
18839SOL    HW375676   9.331   4.750   3.397
18839SOL    MW475677   9.338   4.782   3.315
18840SOL     OW75678   8.333   5.325   3.064
18840SOL    HW275679   8.357   5.314   2.973
18840SOL    HW375680   8.256   5.382   3.062
18840SOL    MW475681   8.325   5.330   3.053
18841SOL     OW75682   7.975   4.708   1.919
18841SOL    HW275683   7.898   4.721   1.975
18841SOL    HW375684   7.939   4.672   1.838
18841SOL    MW475685   7.961   4.704   1.916
18842SOL     OW75686   8.628   4.681   2.162
18842SOL    HW275687   8.538   4.702   2.137
18842SOL    HW375688   8.655   4.754   2.218
18842SOL    MW475689   8.620   4.693   2.165
18843SOL     OW75690   8.128   5.030   2.854
18843SOL    HW275691   8.121   5.009   2.948
18843SOL    HW375692   8.046   4.998   2.817
18843SOL    MW475693   8.116   5.024   2.861
18844SOL     OW75694   8.992   4.040   3.256
18844SOL    HW275695   8.939   4.042   3.336
18844SOL    HW375696   8.977   3.953   3.219
18844SOL    MW475697   8.984   4.030   3.261
18845SOL     OW75698   9.328   3.964   3.129
18845SOL    HW275699   9.309   4.031   3.064
18845SOL    HW375700   9.385   3.902   3.084
18845SOL    MW475701   9.332   3.965   3.115
18846SOL     OW75702   7.574   5.122   3.517
18846SOL    HW275703   7.618   5.055   3.463
18846SOL    HW375704   7.489   5.084   3.537
18846SOL    MW475705   7.569   5.108   3.513
18847SOL     OW75706   8.257   3.797   2.569
18847SOL    HW275707   8.186   3.858   2.551
18847SOL    HW375708   8.308   3.794   2.488
18847SOL    MW475709   8.253   3.803   2.556
18848SOL     OW75710   8.015   5.037   2.318
18848SOL    HW275711   8.008   5.069   2.408
18848SOL    HW375712   7.925   5.021   2.290
18848SOL    MW475713   8.003   5.039   2.325
18849SOL     OW75714   8.610   5.430   3.227
18849SOL    HW275715   8.530   5.415   3.177
18849SOL    HW375716   8.617   5.525   3.234
18849SOL    MW475717   8.601   5.441   3.221
18850SOL     OW75718   8.724   5.395   2.717
18850SOL    HW275719   8.771   5.468   2.676
18850SOL    HW375720   8.645   5.434   2.753
18850SOL    MW475721   8.719   5.410   2.716
18851SOL     OW75722   9.132   5.490   2.992
18851SOL    HW275723   9.175   5.460   3.072
18851SOL    HW375724   9.051   5.438   2.989
18851SOL    MW475725   9.127   5.479   3.002
18852SOL     OW75726   8.217   4.454   3.699
18852SOL    HW275727   8.287   4.396   3.671
18852SOL    HW375728   8.160   4.399   3.754
18852SOL    MW475729   8.219   4.441   3.703
18853SOL     OW75730   9.004   4.666   3.332
18853SOL    HW275731   9.009   4.719   3.412
18853SOL    HW375732   8.966   4.583   3.360
18853SOL    MW475733   9.000   4.661   3.347
18854SOL     OW75734   8.644   3.801   3.578
18854SOL    HW275735   8.639   3.708   3.559
18854SOL    HW375736   8.727   3.812   3.624
18854SOL    MW475737   8.652   3.790   3.582
18855SOL     OW75738   8.018   4.321   2.032
18855SOL    HW275739   7.984   4.377   2.102
18855SOL    HW375740   8.089   4.271   2.072
18855SOL    MW475741   8.024   4.322   2.046
18856SOL     OW75742   9.114   5.072   2.854
18856SOL    HW275743   9.149   5.054   2.767
18856SOL    HW375744   9.019   5.073   2.841
18856SOL    MW475745   9.106   5.069   2.841
18857SOL     OW75746   8.543   4.720   3.223
18857SOL    HW275747   8.586   4.755   3.301
18857SOL    HW375748   8.526   4.797   3.169
18857SOL    MW475749   8.546   4.735   3.226
18858SOL     OW75750   9.074   4.207   2.096
18858SOL    HW275751   9.066   4.278   2.033
18858SOL    HW375752   9.092   4.251   2.179
18858SOL    MW475753   9.075   4.221   2.098
18859SOL     OW75754   7.934   3.862   2.525
18859SOL    HW275755   7.984   3.905   2.456
18859SOL    HW375756   7.849   3.906   2.525
18859SOL    MW475757   7.931   3.875   2.516
18860SOL     OW75758   7.693   4.924   3.385
18860SOL    HW275759   7.721   4.877   3.463
18860SOL    HW375760   7.614   4.879   3.356
18860SOL    MW475761   7.686   4.913   3.391
18861SOL     OW75762   8.201   4.251   3.352
18861SOL    HW275763   8.173   4.339   3.376
18861SOL    HW375764   8.170   4.195   3.423
18861SOL    MW475765   8.193   4.254   3.364
18862SOL     OW75766   8.743   4.469   2.071
18862SOL    HW275767   8.790   4.487   1.990
18862SOL    HW375768   8.709   4.553   2.099
18862SOL    MW475769   8.745   4.483   2.064
18863SOL     OW75770   7.856   4.647   2.565
18863SOL    HW275771   7.914   4.703   2.513
18863SOL    HW375772   7.900   4.562   2.567
18863SOL    MW475773   7.869   4.644   2.558
18864SOL     OW75774   8.996   3.999   2.402
18864SOL    HW275775   8.918   3.949   2.427
18864SOL    HW375776   8.967   4.090   2.402
18864SOL    MW475777   8.982   4.003   2.405
18865SOL     OW75778   8.582   3.961   2.561
18865SOL    HW275779   8.602   4.036   2.505
18865SOL    HW375780   8.562   4.000   2.646
18865SOL    MW475781   8.583   3.977   2.565
18866SOL     OW75782   8.478   5.211   1.893
18866SOL    HW275783   8.505   5.289   1.845
18866SOL    HW375784   8.385   5.226   1.912
18866SOL    MW475785   8.469   5.224   1.889
18867SOL     OW75786   9.342   4.734   3.580
18867SOL    HW275787   9.255   4.714   3.616
18867SOL    HW375788   9.396   4.660   3.605
18867SOL    MW475789   9.337   4.723   3.588
18868SOL     OW75790   7.563   5.247   2.737
18868SOL    HW275791   7.595   5.251   2.828
18868SOL    HW375792   7.468   5.255   2.745
18868SOL    MW475793   7.555   5.250   2.750
18869SOL     OW75794   7.518   4.373   2.284
18869SOL    HW275795   7.458   4.345   2.354
18869SOL    HW375796   7.592   4.313   2.290
18869SOL    MW475797   7.520   4.362   2.293
18870SOL     OW75798   9.086   5.585   3.718
18870SOL    HW275799   9.131   5.509   3.683
18870SOL    HW375800   9.124   5.598   3.805
18870SOL    MW475801   9.096   5.578   3.724
18871SOL     OW75802   8.686   5.104   2.444
18871SOL    HW275803   8.709   5.055   2.522
18871SOL    HW375804   8.767   5.146   2.416
18871SOL    MW475805   8.699   5.104   2.451
18872SOL     OW75806   7.944   4.112   3.173
18872SOL    HW275807   7.977   4.193   3.213
18872SOL    HW375808   7.917   4.138   3.085
18872SOL    MW475809   7.943   4.126   3.167
18873SOL     OW75810   7.898   4.079   2.909
18873SOL    HW275811   7.928   3.993   2.880
18873SOL    HW375812   7.803   4.072   2.912
18873SOL    MW475813   7.890   4.068   2.907
18874SOL     OW75814   8.727   4.288   3.600
18874SOL    HW275815   8.779   4.223   3.553
18874SOL    HW375816   8.685   4.339   3.530
18874SOL    MW475817   8.728   4.285   3.583
18875SOL     OW75818   8.826   4.083   3.461
18875SOL    HW275819   8.733   4.067   3.448
18875SOL    HW375820   8.852   4.021   3.529
18875SOL    MW475821   8.816   4.073   3.468
18876SOL     OW75822   8.041   3.857   2.800
18876SOL    HW275823   8.051   3.766   2.826
18876SOL    HW375824   7.997   3.853   2.715
18876SOL    MW475825   8.037   3.845   2.792
18877SOL     OW75826   8.135   5.472   3.346
18877SOL    HW275827   8.052   5.457   3.391
18877SOL    HW375828   8.194   5.405   3.381
18877SOL    MW475829   8.133   5.462   3.356
18878SOL     OW75830   9.192   4.179   2.971
18878SOL    HW275831   9.125   4.212   3.031
18878SOL    HW375832   9.235   4.257   2.937
18878SOL    MW475833   9.190   4.194   2.975
18879SOL     OW75834   9.370   4.899   2.941
18879SOL    HW275835   9.363   4.839   2.866
18879SOL    HW375836   9.296   4.959   2.930
18879SOL    MW475837   9.360   4.899   2.930
18880SOL     OW75838   8.752   4.761   2.859
18880SOL    HW275839   8.766   4.733   2.950
18880SOL    HW375840   8.838   4.792   2.831
18880SOL    MW475841   8.765   4.762   2.868
18881SOL     OW75842   8.835   4.256   3.138
18881SOL    HW275843   8.856   4.257   3.045
18881SOL    HW375844   8.880   4.178   3.171
18881SOL    MW475845   8.842   4.246   3.130
18882SOL     OW75846   9.328   4.387   3.680
18882SOL    HW275847   9.365   4.332   3.749
18882SOL    HW375848   9.353   4.344   3.598
18882SOL    MW475849   9.335   4.375   3.679
18883SOL     OW75850   8.875   4.685   3.731
18883SOL    HW275851   8.941   4.633   3.685
18883SOL    HW375852   8.895   4.672   3.824
18883SOL    MW475853   8.886   4.676   3.738
18884SOL     OW75854   8.826   3.771   2.080
18884SOL    HW275855   8.900   3.815   2.123
18884SOL    HW375856   8.750   3.825   2.102
18884SOL    MW475857   8.826   3.783   2.088
18885SOL     OW75858   8.886   4.546   2.358
18885SOL    HW275859   8.801   4.516   2.328
18885SOL    HW375860   8.878   4.553   2.453
18885SOL    MW475861   8.874   4.544   2.367
18886SOL     OW75862   7.962   5.009   3.089
18886SOL    HW275863   7.974   5.036   3.180
18886SOL    HW375864   7.943   5.090   3.042
18886SOL    MW475865   7.961   5.024   3.094
18887SOL     OW75866   8.246   3.989   2.912
18887SOL    HW275867   8.219   3.991   3.003
18887SOL    HW375868   8.176   3.941   2.867
18887SOL    MW475869   8.234   3.985   2.919
18888SOL     OW75870   8.100   5.481   3.074
18888SOL    HW275871   8.152   5.558   3.051
18888SOL    HW375872   8.109   5.473   3.169
18888SOL    MW475873   8.109   5.488   3.085
18889SOL     OW75874   9.002   5.066   3.306
18889SOL    HW275875   8.987   4.995   3.369
18889SOL    HW375876   9.048   5.024   3.234
18889SOL    MW475877   9.008   5.050   3.306
18890SOL     OW75878   8.076   4.797   3.423
18890SOL    HW275879   8.113   4.802   3.335
18890SOL    HW375880   8.115   4.870   3.470
18890SOL    MW475881   8.086   4.807   3.418
18891SOL     OW75882   8.256   4.840   3.235
18891SOL    HW275883   8.315   4.786   3.288
18891SOL    HW375884   8.271   4.812   3.145
18891SOL    MW475885   8.266   4.829   3.231
18892SOL     OW75886   8.259   4.212   2.084
18892SOL    HW275887   8.332   4.261   2.047
18892SOL    HW375888   8.275   4.121   2.058
18892SOL    MW475889   8.271   4.207   2.077
18893SOL     OW75890   9.067   5.329   3.407
18893SOL    HW275891   9.109   5.314   3.492
18893SOL    HW375892   9.058   5.242   3.369
18893SOL    MW475893   9.071   5.317   3.414
18894SOL     OW75894   8.727   3.808   2.998
18894SOL    HW275895   8.782   3.817   2.920
18894SOL    HW375896   8.782   3.842   3.069
18894SOL    MW475897   8.741   3.813   2.997
18895SOL     OW75898   7.734   4.721   2.182
18895SOL    HW275899   7.671   4.737   2.111
18895SOL    HW375900   7.681   4.684   2.253
18895SOL    MW475901   7.719   4.718   2.182
18896SOL     OW75902   8.090   5.075   2.041
18896SOL    HW275903   8.105   5.051   2.133
18896SOL    HW375904   7.998   5.053   2.025
18896SOL    MW475905   8.080   5.068   2.051
18897SOL     OW75906   8.629   5.306   2.193
18897SOL    HW275907   8.637   5.224   2.144
18897SOL    HW375908   8.548   5.345   2.160
18897SOL    MW475909   8.619   5.301   2.183
18898SOL     OW75910   7.888   5.464   2.762
18898SOL    HW275911   7.892   5.375   2.797
18898SOL    HW375912   7.914   5.455   2.671
18898SOL    MW475913   7.891   5.452   2.754
18899SOL     OW75914   8.505   4.942   3.005
18899SOL    HW275915   8.437   4.876   3.021
18899SOL    HW375916   8.523   4.936   2.912
18899SOL    MW475917   8.498   4.933   2.996
18900SOL     OW75918   7.594   5.217   3.256
18900SOL    HW275919   7.584   5.175   3.342
18900SOL    HW375920   7.515   5.270   3.246
18900SOL    MW475921   7.583   5.218   3.267
18901SOL     OW75922   8.498   4.081   2.826
18901SOL    HW275923   8.428   4.033   2.871
18901SOL    HW375924   8.530   4.144   2.890
18901SOL    MW475925   8.493   4.083   2.840
18902SOL     OW75926   8.149   4.517   3.446
18902SOL    HW275927   8.142   4.612   3.434
18902SOL    HW375928   8.158   4.506   3.541
18902SOL    MW475929   8.150   4.529   3.456
18903SOL     OW75930   7.870   5.032   3.704
18903SOL    HW275931   7.942   5.034   3.641
18903SOL    HW375932   7.840   4.941   3.703
18903SOL    MW475933   7.875   5.021   3.696
18904SOL     OW75934   8.954   3.795   3.171
18904SOL    HW275935   9.025   3.741   3.135
18904SOL    HW375936   8.953   3.774   3.264
18904SOL    MW475937   8.963   3.786   3.179
18905SOL     OW75938   9.154   5.325   3.655
18905SOL    HW275939   9.127   5.322   3.746
18905SOL    HW375940   9.250   5.329   3.658
18905SOL    MW475941   9.164   5.325   3.667
18906SOL     OW75942   7.965   4.187   2.639
18906SOL    HW275943   8.036   4.135   2.602
18906SOL    HW375944   7.951   4.152   2.726
18906SOL    MW475945   7.973   4.176   2.646
18907SOL     OW75946   7.520   5.522   3.711
18907SOL    HW275947   7.570   5.500   3.633
18907SOL    HW375948   7.528   5.617   3.719
18907SOL    MW475949   7.528   5.531   3.702
18908SOL     OW75950   8.281   5.280   2.715
18908SOL    HW275951   8.209   5.217   2.728
18908SOL    HW375952   8.242   5.365   2.733
18908SOL    MW475953   8.265   5.283   2.718
18909SOL     OW75954   8.601   4.128   2.363
18909SOL    HW275955   8.623   4.065   2.295
18909SOL    HW375956   8.506   4.120   2.374
18909SOL    MW475957   8.591   4.119   2.355
18910SOL     OW75958   7.686   3.818   2.295
18910SOL    HW275959   7.757   3.839   2.234
18910SOL    HW375960   7.640   3.746   2.253
18910SOL    MW475961   7.690   3.812   2.281
18911SOL     OW75962   7.517   4.285   3.438
18911SOL    HW275963   7.581   4.351   3.413
18911SOL    HW375964   7.436   4.312   3.395
18911SOL    MW475965   7.515   4.297   3.430
18912SOL     OW75966   9.255   5.192   2.395
18912SOL    HW275967   9.225   5.125   2.456
18912SOL    HW375968   9.349   5.198   2.409
18912SOL    MW475969   9.263   5.184   2.405
18913SOL     OW75970   8.811   4.869   2.325
18913SOL    HW275971   8.783   4.955   2.358
18913SOL    HW375972   8.839   4.885   2.235
18913SOL    MW475973   8.811   4.883   2.317
18914SOL     OW75974   8.473   3.789   2.378
18914SOL    HW275975   8.510   3.848   2.443
18914SOL    HW375976   8.450   3.845   2.304
18914SOL    MW475977   8.474   3.804   2.377
18915SOL     OW75978   9.326   4.671   2.800
18915SOL    HW275979   9.317   4.703   2.711
18915SOL    HW375980   9.279   4.587   2.800
18915SOL    MW475981   9.319   4.664   2.790
18916SOL     OW75982   7.702   4.511   3.379
18916SOL    HW275983   7.723   4.580   3.317
18916SOL    HW375984   7.782   4.458   3.384
18916SOL    MW475985   7.715   4.512   3.373
18917SOL     OW75986   9.238   4.602   2.501
18917SOL    HW275987   9.332   4.591   2.489
18917SOL    HW375988   9.214   4.674   2.442
18917SOL    MW475989   9.248   4.610   2.492
18918SOL     OW75990   7.687   4.526   3.646
18918SOL    HW275991   7.613   4.470   3.672
18918SOL    HW375992   7.682   4.529   3.551
18918SOL    MW475993   7.676   4.519   3.636
18919SOL     OW75994   7.853   3.813   3.096
18919SOL    HW275995   7.896   3.897   3.116
18919SOL    HW375996   7.926   3.751   3.089
18919SOL    MW475997   7.868   3.816   3.097
18920SOL     OW75998   7.894   4.480   2.274
18920SOL    HW275999   7.894   4.575   2.259
18920SOL    HW376000   7.971   4.464   2.328
18920SOL    MW476001   7.904   4.491   2.279
18921SOL     OW76002   8.670   4.339   3.338
18921SOL    HW276003   8.706   4.312   3.254
18921SOL    HW376004   8.583   4.373   3.317
18921SOL    MW476005   8.664   4.340   3.325
18922SOL     OW76006   7.653   4.211   2.563
18922SOL    HW276007   7.715   4.218   2.636
18922SOL    HW376008   7.653   4.118   2.540
18922SOL    MW476009   7.661   4.200   2.570
18923SOL     OW76010   9.200   5.551   2.095
18923SOL    HW276011   9.267   5.584   2.035
18923SOL    HW376012   9.157   5.630   2.129
18923SOL    MW476013   9.202   5.566   2.091
18924SOL     OW76014   8.335   4.472   3.047
18924SOL    HW276015   8.293   4.390   3.023
18924SOL    HW376016   8.336   4.471   3.143
18924SOL    MW476017   8.328   4.461   3.056
18925SOL     OW76018   9.006   5.605   3.446
18925SOL    HW276019   9.009   5.511   3.429
18925SOL    HW376020   9.029   5.613   3.538
18925SOL    MW476021   9.009   5.593   3.456
18926SOL     OW76022   8.139   3.942   3.152
18926SOL    HW276023   8.070   4.005   3.173
18926SOL    HW376024   8.166   3.906   3.237
18926SOL    MW476025   8.133   3.945   3.165
18927SOL     OW76026   7.522   4.783   2.021
18927SOL    HW276027   7.491   4.848   2.084
18927SOL    HW376028   7.471   4.705   2.040
18927SOL    MW476029   7.512   4.780   2.031
18928SOL     OW76030   8.934   3.795   2.769
18928SOL    HW276031   9.022   3.804   2.806
18928SOL    HW376032   8.944   3.736   2.695
18928SOL    MW476033   8.948   3.789   2.763
18929SOL     OW76034   8.966   4.534   2.613
18929SOL    HW276035   9.046   4.549   2.562
18929SOL    HW376036   8.959   4.439   2.619
18929SOL    MW476037   8.975   4.523   2.608
18930SOL     OW76038   8.106   5.583   1.963
18930SOL    HW276039   8.011   5.583   1.955
18930SOL    HW376040   8.122   5.529   2.041
18930SOL    MW476041   8.096   5.577   1.972
18931SOL     OW76042   8.416   4.460   3.310
18931SOL    HW276043   8.485   4.527   3.307
18931SOL    HW376044   8.349   4.498   3.366
18931SOL    MW476045   8.417   4.473   3.317
18932SOL     OW76046   7.834   4.760   3.558
18932SOL    HW276047   7.788   4.676   3.560
18932SOL    HW376048   7.891   4.754   3.482
18932SOL    MW476049   7.836   4.748   3.550
18933SOL     OW76050   8.951   4.403   1.879
18933SOL    HW276051   8.879   4.379   1.821
18933SOL    HW376052   9.017   4.440   1.821
18933SOL    MW476053   8.950   4.405   1.864
18934SOL     OW76054   8.085   5.135   2.559
18934SOL    HW276055   8.150   5.068   2.580
18934SOL    HW376056   8.137   5.212   2.536
18934SOL    MW476057   8.100   5.137   2.558
18935SOL     OW76058   8.346   4.300   2.689
18935SOL    HW276059   8.286   4.318   2.761
18935SOL    HW376060   8.380   4.212   2.708
18935SOL    MW476061   8.342   4.290   2.702
18936SOL     OW76062   9.287   3.799   3.358
18936SOL    HW276063   9.208   3.845   3.386
18936SOL    HW376064   9.322   3.853   3.287
18936SOL    MW476065   9.281   3.812   3.352
18937SOL     OW76066   8.571   4.883   2.708
18937SOL    HW276067   8.663   4.864   2.726
18937SOL    HW376068   8.544   4.813   2.648
18937SOL    MW476069   8.579   4.871   2.702
18938SOL     OW76070   8.364   4.703   2.063
18938SOL    HW276071   8.350   4.615   2.028
18938SOL    HW376072   8.315   4.760   2.004
18938SOL    MW476073   8.356   4.698   2.051
18939SOL     OW76074   8.845   5.121   2.804
18939SOL    HW276075   8.818   5.205   2.769
18939SOL    HW376076   8.805   5.116   2.891
18939SOL    MW476077   8.838   5.130   2.810
18940SOL     OW76078   8.764   5.069   3.072
18940SOL    HW276079   8.775   5.036   3.161
18940SOL    HW376080   8.683   5.028   3.041
18940SOL    MW476081   8.754   5.061   3.078
18941SOL     OW76082   7.777   4.427   2.842
18941SOL    HW276083   7.727   4.426   2.923
18941SOL    HW376084   7.797   4.519   2.826
18941SOL    MW476085   7.773   4.439   2.850
18942SOL     OW76086   8.844   5.191   3.604
18942SOL    HW276087   8.844   5.285   3.620
18942SOL    HW376088   8.889   5.181   3.520
18942SOL    MW476089   8.850   5.201   3.595
18943SOL     OW76090   9.083   3.909   2.165
18943SOL    HW276091   9.076   3.913   2.260
18943SOL    HW376092   9.095   4.000   2.138
18943SOL    MW476093   9.084   3.922   2.173
18944SOL     OW76094   8.372   4.472   2.279
18944SOL    HW276095   8.352   4.458   2.186
18944SOL    HW376096   8.465   4.451   2.286
18944SOL    MW476097   8.382   4.467   2.268
18945SOL     OW76098   7.699   4.095   3.583
18945SOL    HW276099   7.656   4.154   3.520
18945SOL    HW376100   7.767   4.150   3.623
18945SOL    MW476101   7.703   4.110   3.580
18946SOL     OW76102   8.811   4.715   3.128
18946SOL    HW276103   8.874   4.712   3.201
18946SOL    HW376104   8.727   4.733   3.170
18946SOL    MW476105   8.807   4.717   3.143
18947SOL     OW76106   8.355   5.430   2.317
18947SOL    HW276107   8.413   5.501   2.344
18947SOL    HW376108   8.378   5.358   2.375
18947SOL    MW476109   8.366   5.430   2.328
18948SOL     OW76110   9.150   3.892   2.907
18948SOL    HW276111   9.195   3.810   2.926
18948SOL    HW376112   9.170   3.948   2.983
18948SOL    MW476113   9.160   3.888   2.919
18949SOL     OW76114   7.598   3.735   3.006
18949SOL    HW276115   7.589   3.736   2.911
18949SOL    HW376116   7.692   3.747   3.021
18949SOL    MW476117   7.610   3.738   2.997
18950SOL     OW76118   9.235   4.928   2.626
18950SOL    HW276119   9.214   4.874   2.549
18950SOL    HW376120   9.331   4.926   2.630
18950SOL    MW476121   9.244   4.921   2.615
18951SOL     OW76122   7.927   5.073   3.369
18951SOL    HW276123   7.848   5.023   3.392
18951SOL    HW376124   7.997   5.032   3.419
18951SOL    MW476125   7.925   5.061   3.379
18952SOL     OW76126   7.811   3.862   2.052
18952SOL    HW276127   7.740   3.917   2.020
18952SOL    HW376128   7.853   3.828   1.973
18952SOL    MW476129   7.807   3.864   2.038
18953SOL     OW76130   8.935   4.359   2.888
18953SOL    HW276131   8.858   4.405   2.854
18953SOL    HW376132   8.992   4.428   2.922
18953SOL    MW476133   8.932   4.374   2.888
18954SOL     OW76134   7.567   3.961   1.901
18954SOL    HW276135   7.534   4.040   1.945
18954SOL    HW376136   7.622   3.994   1.830
18954SOL    MW476137   7.570   3.975   1.898
18955SOL     OW76138   7.601   5.218   2.090
18955SOL    HW276139   7.618   5.302   2.132
18955SOL    HW376140   7.636   5.227   2.002
18955SOL    MW476141   7.606   5.231   2.084
18956SOL     OW76142   8.873   5.307   2.307
18956SOL    HW276143   8.936   5.297   2.236
18956SOL    HW376144   8.790   5.327   2.262
18956SOL    MW476145   8.870   5.308   2.292
18957SOL     OW76146   9.236   4.575   3.993
18957SOL    HW276147   9.277   4.517   4.058
18957SOL    HW376148   9.143   4.567   4.010
18957SOL    MW476149   9.230   4.567   4.003
18958SOL     OW76150   9.102   4.507   4.988
18958SOL    HW276151   9.057   4.574   5.039
18958SOL    HW376152   9.190   4.543   4.974
18958SOL    MW476153   9.108   4.520   4.992
18959SOL     OW76154   8.030   4.758   4.222
18959SOL    HW276155   8.120   4.733   4.206
18959SOL    HW376156   8.026   4.851   4.199
18959SOL    MW476157   8.042   4.767   4.217
18960SOL     OW76158   9.146   5.461   4.364
18960SOL    HW276159   9.158   5.407   4.442
18960SOL    HW376160   9.183   5.409   4.293
18960SOL    MW476161   9.152   5.446   4.365
18961SOL     OW76162   8.525   5.346   5.365
18961SOL    HW276163   8.566   5.382   5.286
18961SOL    HW376164   8.560   5.257   5.372
18961SOL    MW476165   8.536   5.339   5.356
18962SOL     OW76166   9.082   4.901   4.969
18962SOL    HW276167   9.003   4.866   4.927
18962SOL    HW376168   9.109   4.973   4.913
18962SOL    MW476169   9.075   4.906   4.956
18963SOL     OW76170   8.314   4.214   4.235
18963SOL    HW276171   8.289   4.302   4.263
18963SOL    HW376172   8.311   4.217   4.139
18963SOL    MW476173   8.310   4.226   4.227
18964SOL     OW76174   7.756   4.242   4.163
18964SOL    HW276175   7.788   4.330   4.145
18964SOL    HW376176   7.744   4.240   4.258
18964SOL    MW476177   7.759   4.254   4.175
18965SOL     OW76178   7.834   4.655   5.064
18965SOL    HW276179   7.897   4.602   5.015
18965SOL    HW376180   7.815   4.729   5.007
18965SOL    MW476181   7.840   4.657   5.051
18966SOL     OW76182   8.155   3.997   4.250
18966SOL    HW276183   8.213   4.073   4.252
18966SOL    HW376184   8.090   4.018   4.183
18966SOL    MW476185   8.154   4.009   4.241
18967SOL     OW76186   8.242   4.924   4.425
18967SOL    HW276187   8.322   4.927   4.477
18967SOL    HW376188   8.270   4.891   4.339
18967SOL    MW476189   8.256   4.920   4.420
18968SOL     OW76190   8.267   5.265   5.328
18968SOL    HW276191   8.351   5.291   5.367
18968SOL    HW376192   8.291   5.209   5.254
18968SOL    MW476193   8.281   5.261   5.323
18969SOL     OW76194   8.019   4.428   4.416
18969SOL    HW276195   8.004   4.348   4.467
18969SOL    HW376196   8.101   4.463   4.450
18969SOL    MW476197   8.027   4.420   4.428
18970SOL     OW76198   8.356   5.114   5.101
18970SOL    HW276199   8.320   5.180   5.041
18970SOL    HW376200   8.284   5.052   5.114
18970SOL    MW476201   8.342   5.114   5.095
18971SOL     OW76202   8.161   4.254   4.793
18971SOL    HW276203   8.067   4.250   4.811
18971SOL    HW376204   8.191   4.163   4.802
18971SOL    MW476205   8.152   4.242   4.796
18972SOL     OW76206   7.907   4.668   4.697
18972SOL    HW276207   7.862   4.675   4.613
18972SOL    HW376208   7.887   4.751   4.741
18972SOL    MW476209   7.899   4.680   4.691
18973SOL     OW76210   7.604   5.514   4.572
18973SOL    HW276211   7.693   5.506   4.607
18973SOL    HW376212   7.568   5.426   4.577
18973SOL    MW476213   7.611   5.501   4.577
18974SOL     OW76214   8.869   4.906   3.941
18974SOL    HW276215   8.787   4.942   3.907
18974SOL    HW376216   8.937   4.949   3.890
18974SOL    MW476217   8.867   4.916   3.929
18975SOL     OW76218   7.868   5.041   4.607
18975SOL    HW276219   7.844   5.094   4.683
18975SOL    HW376220   7.924   5.099   4.555
18975SOL    MW476221   7.872   5.056   4.610
18976SOL     OW76222   8.430   4.685   4.417
18976SOL    HW276223   8.344   4.672   4.457
18976SOL    HW376224   8.483   4.612   4.449
18976SOL    MW476225   8.426   4.674   4.426
18977SOL     OW76226   7.838   5.337   5.202
18977SOL    HW276227   7.746   5.313   5.187
18977SOL    HW376228   7.882   5.254   5.219
18977SOL    MW476229   7.832   5.322   5.201
18978SOL     OW76230   8.421   5.047   4.134
18978SOL    HW276231   8.398   5.109   4.202
18978SOL    HW376232   8.378   4.965   4.160
18978SOL    MW476233   8.413   5.043   4.145
18979SOL     OW76234   9.294   4.048   4.590
18979SOL    HW276235   9.231   4.028   4.659
18979SOL    HW376236   9.284   3.977   4.527
18979SOL    MW476237   9.284   4.035   4.591
18980SOL     OW76238   7.918   4.020   4.102
18980SOL    HW276239   7.892   3.982   4.018
18980SOL    HW376240   7.855   4.090   4.118
18980SOL    MW476241   7.907   4.023   4.093
18981SOL     OW76242   7.753   4.981   4.139
18981SOL    HW276243   7.701   5.049   4.095
18981SOL    HW376244   7.750   4.907   4.079
18981SOL    MW476245   7.745   4.980   4.126
18982SOL     OW76246   8.415   5.444   3.917
18982SOL    HW276247   8.370   5.460   4.000
18982SOL    HW376248   8.346   5.409   3.859
18982SOL    MW476249   8.401   5.441   3.919
18983SOL     OW76250   9.350   4.217   3.892
18983SOL    HW276251   9.259   4.219   3.920
18983SOL    HW376252   9.395   4.279   3.950
18983SOL    MW476253   9.343   4.225   3.902
18984SOL     OW76254   9.095   4.820   4.242
18984SOL    HW276255   9.005   4.820   4.277
18984SOL    HW376256   9.088   4.866   4.159
18984SOL    MW476257   9.082   4.826   4.236
18985SOL     OW76258   8.895   4.455   5.314
18985SOL    HW276259   8.964   4.393   5.291
18985SOL    HW376260   8.820   4.429   5.261
18985SOL    MW476261   8.895   4.442   5.305
18986SOL     OW76262   7.636   5.335   4.866
18986SOL    HW276263   7.619   5.281   4.943
18986SOL    HW376264   7.624   5.425   4.896
18986SOL    MW476265   7.633   5.339   4.880
18987SOL     OW76266   8.631   4.842   5.306
18987SOL    HW276267   8.616   4.935   5.291
18987SOL    HW376268   8.726   4.832   5.306
18987SOL    MW476269   8.640   4.852   5.303
18988SOL     OW76270   8.427   4.266   5.507
18988SOL    HW276271   8.517   4.267   5.474
18988SOL    HW376272   8.386   4.191   5.465
18988SOL    MW476273   8.433   4.256   5.498
18989SOL     OW76274   9.002   4.798   4.634
18989SOL    HW276275   9.005   4.732   4.565
18989SOL    HW376276   9.087   4.841   4.630
18989SOL    MW476277   9.014   4.794   4.625
18990SOL     OW76278   8.622   4.401   4.203
18990SOL    HW276279   8.648   4.425   4.114
18990SOL    HW376280   8.604   4.308   4.199
18990SOL    MW476281   8.624   4.393   4.190
18991SOL     OW76282   9.287   5.021   4.054
18991SOL    HW276283   9.243   5.062   4.129
18991SOL    HW376284   9.344   5.089   4.019
18991SOL    MW476285   9.289   5.035   4.059
18992SOL     OW76286   8.207   4.070   5.457
18992SOL    HW276287   8.217   3.996   5.397
18992SOL    HW376288   8.243   4.039   5.540
18992SOL    MW476289   8.213   4.056   5.459
18993SOL     OW76290   7.943   5.437   4.372
18993SOL    HW276291   7.975   5.525   4.350
18993SOL    HW376292   7.896   5.409   4.294
18993SOL    MW476293   7.942   5.445   4.359
18994SOL     OW76294   9.327   3.799   4.421
18994SOL    HW276295   9.381   3.750   4.483
18994SOL    HW376296   9.270   3.733   4.382
18994SOL    MW476297   9.327   3.783   4.423
18995SOL     OW76298   7.659   5.497   3.949
18995SOL    HW276299   7.688   5.587   3.941
18995SOL    HW376300   7.609   5.480   3.870
18995SOL    MW476301   7.657   5.505   3.938
18996SOL     OW76302   8.446   3.752   4.834
18996SOL    HW276303   8.405   3.830   4.796
18996SOL    HW376304   8.540   3.770   4.829
18996SOL    MW476305   8.452   3.764   4.829
18997SOL     OW76306   9.063   5.305   3.920
18997SOL    HW276307   9.111   5.374   3.966
18997SOL    HW376308   8.984   5.349   3.889
18997SOL    MW476309   9.058   5.319   3.923
18998SOL     OW76310   8.461   4.430   3.864
18998SOL    HW276311   8.463   4.377   3.785
18998SOL    HW376312   8.549   4.467   3.870
18998SOL    MW476313   8.473   4.429   3.853
18999SOL     OW76314   9.075   4.356   4.200
18999SOL    HW276315   9.114   4.356   4.287
18999SOL    HW376316   9.016   4.432   4.200
18999SOL    MW476317   9.072   4.367   4.211
19000SOL     OW76318   8.392   4.723   5.329
19000SOL    HW276319   8.369   4.703   5.419
19000SOL    HW376320   8.477   4.767   5.334
19000SOL    MW476321   8.399   4.726   5.341
19001SOL     OW76322   8.472   3.860   5.089
19001SOL    HW276323   8.478   3.822   5.002
19001SOL    HW376324   8.461   3.954   5.074
19001SOL    MW476325   8.473   3.868   5.077
19002SOL     OW76326   8.561   4.349   4.923
19002SOL    HW276327   8.636   4.378   4.870
19002SOL    HW376328   8.493   4.414   4.907
19002SOL    MW476329   8.562   4.361   4.913
19003SOL     OW76330   9.111   4.317   5.200
19003SOL    HW276331   9.092   4.226   5.179
19003SOL    HW376332   9.089   4.366   5.121
19003SOL    MW476333   9.106   4.310   5.187
19004SOL     OW76334   9.253   5.411   5.104
19004SOL    HW276335   9.181   5.373   5.155
19004SOL    HW376336   9.270   5.496   5.145
19004SOL    MW476337   9.247   5.416   5.116
19005SOL     OW76338   8.558   4.055   5.306
19005SOL    HW276339   8.524   4.094   5.225
19005SOL    HW376340   8.536   3.963   5.299
19005SOL    MW476341   8.551   4.048   5.296
19006SOL     OW76342   8.967   4.869   5.382
19006SOL    HW276343   9.049   4.910   5.412
19006SOL    HW376344   8.930   4.831   5.462
19006SOL    MW476345   8.973   4.870   5.397
19007SOL     OW76346   9.262   4.242   4.366
19007SOL    HW276347   9.351   4.211   4.383
19007SOL    HW376348   9.205   4.182   4.414
19007SOL    MW476349   9.265   4.230   4.375
19008SOL     OW76350   7.688   3.956   4.395
19008SOL    HW276351   7.679   3.896   4.321
19008SOL    HW376352   7.621   3.927   4.458
19008SOL    MW476353   7.678   3.943   4.393
19009SOL     OW76354   8.631   5.049   3.956
19009SOL    HW276355   8.581   5.051   4.038
19009SOL    HW376356   8.565   5.067   3.888
19009SOL    MW476357   8.617   5.051   3.958
19010SOL     OW76358   7.635   4.129   4.758
19010SOL    HW276359   7.607   4.220   4.767
19010SOL    HW376360   7.572   4.090   4.697
19010SOL    MW476361   7.622   4.135   4.752
19011SOL     OW76362   8.094   5.467   4.064
19011SOL    HW276363   8.015   5.425   4.097
19011SOL    HW376364   8.160   5.450   4.131
19011SOL    MW476365   8.093   5.459   4.077
19012SOL     OW76366   9.222   4.987   5.461
19012SOL    HW276367   9.272   4.913   5.493
19012SOL    HW376368   9.168   5.014   5.536
19012SOL    MW476369   9.222   4.981   5.474
19013SOL     OW76370   8.230   4.882   3.771
19013SOL    HW276371   8.152   4.828   3.758
19013SOL    HW376372   8.201   4.955   3.824
19013SOL    MW476373   8.216   4.884   3.776
19014SOL     OW76374   9.356   4.622   4.963
19014SOL    HW276375   9.372   4.660   4.876
19014SOL    HW376376   9.390   4.688   5.024
19014SOL    MW476377   9.363   4.635   4.959
19015SOL     OW76378   9.148   5.331   4.632
19015SOL    HW276379   9.177   5.398   4.693
19015SOL    HW376380   9.129   5.255   4.687
19015SOL    MW476381   9.150   5.331   4.647
19016SOL     OW76382   8.811   5.398   3.839
19016SOL    HW276383   8.737   5.361   3.889
19016SOL    HW376384   8.819   5.488   3.872
19016SOL    MW476385   8.802   5.405   3.851
19017SOL     OW76386   7.619   4.404   4.928
19017SOL    HW276387   7.681   4.434   4.994
19017SOL    HW376388   7.553   4.473   4.922
19017SOL    MW476389   7.618   4.417   4.935
19018SOL     OW76390   9.035   5.072   3.781
19018SOL    HW276391   8.982   5.121   3.717
19018SOL    HW376392   9.066   5.138   3.842
19018SOL    MW476393   9.033   5.086   3.779
19019SOL     OW76394   8.260   3.961   3.836
19019SOL    HW276395   8.208   3.881   3.824
19019SOL    HW376396   8.347   3.938   3.804
19019SOL    MW476397   8.263   3.947   3.830
19020SOL     OW76398   7.714   5.513   5.380
19020SOL    HW276399   7.688   5.581   5.318
19020SOL    HW376400   7.762   5.450   5.328
19020SOL    MW476401   7.716   5.513   5.366
19021SOL     OW76402   7.766   4.832   4.887
19021SOL    HW276403   7.819   4.907   4.912
19021SOL    HW376404   7.685   4.870   4.853
19021SOL    MW476405   7.762   4.847   4.887
19022SOL     OW76406   8.306   4.736   4.875
19022SOL    HW276407   8.334   4.645   4.887
19022SOL    HW376408   8.235   4.730   4.811
19022SOL    MW476409   8.299   4.724   4.870
19023SOL     OW76410   7.621   4.601   4.293
19023SOL    HW276411   7.712   4.616   4.320
19023SOL    HW376412   7.624   4.522   4.239
19023SOL    MW476413   7.633   4.593   4.291
19024SOL     OW76414   7.857   4.309   5.547
19024SOL    HW276415   7.804   4.389   5.554
19024SOL    HW376416   7.927   4.321   5.612
19024SOL    MW476417   7.859   4.322   5.555
19025SOL     OW76418   8.243   3.859   5.254
19025SOL    HW276419   8.220   3.767   5.256
19025SOL    HW376420   8.329   3.861   5.211
19025SOL    MW476421   8.250   3.849   5.250
19026SOL     OW76422   7.927   4.383   5.293
19026SOL    HW276423   8.007   4.433   5.279
19026SOL    HW376424   7.918   4.377   5.388
19026SOL    MW476425   7.936   4.389   5.303
19027SOL     OW76426   8.248   5.533   4.667
19027SOL    HW276427   8.337   5.548   4.697
19027SOL    HW376428   8.243   5.580   4.583
19027SOL    MW476429   8.258   5.541   4.660
19028SOL     OW76430   8.904   3.908   5.564
19028SOL    HW276431   8.960   3.835   5.590
19028SOL    HW376432   8.874   3.946   5.646
19028SOL    MW476433   8.908   3.903   5.577
19029SOL     OW76434   7.629   5.213   4.332
19029SOL    HW276435   7.601   5.252   4.414
19029SOL    HW376436   7.649   5.122   4.354
19029SOL    MW476437   7.627   5.205   4.345
19030SOL     OW76438   8.462   5.256   4.367
19030SOL    HW276439   8.545   5.210   4.351
19030SOL    HW376440   8.452   5.255   4.463
19030SOL    MW476441   8.472   5.249   4.377
19031SOL     OW76442   9.294   4.401   4.681
19031SOL    HW276443   9.383   4.431   4.663
19031SOL    HW376444   9.274   4.341   4.610
19031SOL    MW476445   9.303   4.398   4.670
19032SOL     OW76446   9.145   4.580   5.561
19032SOL    HW276447   9.200   4.504   5.542
19032SOL    HW376448   9.147   4.588   5.656
19032SOL    MW476449   9.153   4.571   5.569
19033SOL     OW76450   8.195   5.313   3.772
19033SOL    HW276451   8.135   5.382   3.742
19033SOL    HW376452   8.140   5.255   3.825
19033SOL    MW476453   8.179   5.315   3.774
19034SOL     OW76454   8.633   3.958   3.995
19034SOL    HW276455   8.566   3.934   3.932
19034SOL    HW376456   8.698   4.007   3.944
19034SOL    MW476457   8.633   3.960   3.980
19035SOL     OW76458   8.440   4.142   5.080
19035SOL    HW276459   8.359   4.183   5.108
19035SOL    HW376460   8.487   4.210   5.032
19035SOL    MW476461   8.435   4.157   5.078
19036SOL     OW76462   8.700   4.480   4.703
19036SOL    HW276463   8.713   4.574   4.713
19036SOL    HW376464   8.661   4.470   4.617
19036SOL    MW476465   8.696   4.491   4.693
19037SOL     OW76466   8.152   4.675   4.507
19037SOL    HW276467   8.063   4.666   4.540
19037SOL    HW376468   8.156   4.765   4.475
19037SOL    MW476469   8.141   4.686   4.507
19038SOL     OW76470   8.951   4.258   4.502
19038SOL    HW276471   8.896   4.179   4.501
19038SOL    HW376472   8.933   4.299   4.586
19038SOL    MW476473   8.941   4.253   4.511
19039SOL     OW76474   7.922   3.945   5.319
19039SOL    HW276475   7.843   3.963   5.371
19039SOL    HW376476   7.917   4.007   5.246
19039SOL    MW476477   7.912   3.955   5.316
19040SOL     OW76478   8.570   4.462   4.459
19040SOL    HW276479   8.507   4.394   4.483
19040SOL    HW376480   8.590   4.443   4.367
19040SOL    MW476481   8.564   4.449   4.451
19041SOL     OW76482   7.826   5.357   4.161
19041SOL    HW276483   7.787   5.404   4.087
19041SOL    HW376484   7.760   5.292   4.186
19041SOL    MW476485   7.813   5.355   4.155
19042SOL     OW76486   8.318   4.766   4.185
19042SOL    HW276487   8.320   4.740   4.092
19042SOL    HW376488   8.376   4.703   4.228
19042SOL    MW476489   8.326   4.755   4.179
19043SOL     OW76490   8.871   5.326   4.957
19043SOL    HW276491   8.796   5.372   4.995
19043SOL    HW376492   8.853   5.233   4.974
19043SOL    MW476493   8.860   5.320   4.965
19044SOL     OW76494   8.875   5.534   4.387
19044SOL    HW276495   8.818   5.487   4.326
19044SOL    HW376496   8.961   5.495   4.374
19044SOL    MW476497   8.878   5.525   4.377
19045SOL     OW76498   8.828   4.010   4.518
19045SOL    HW276499   8.856   3.942   4.579
19045SOL    HW376500   8.742   3.981   4.488
19045SOL    MW476501   8.821   3.997   4.522
19046SOL     OW76502   7.633   4.944   4.452
19046SOL    HW276503   7.697   4.976   4.515
19046SOL    HW376504   7.682   4.880   4.400
19046SOL    MW476505   7.648   4.940   4.453
19047SOL     OW76506   8.133   5.020   5.434
19047SOL    HW276507   8.181   5.103   5.421
19047SOL    HW376508   8.190   4.968   5.490
19047SOL    MW476509   8.147   5.024   5.440
19048SOL     OW76510   7.709   5.262   5.574
19048SOL    HW276511   7.765   5.186   5.589
19048SOL    HW376512   7.658   5.240   5.496
19048SOL    MW476513   7.709   5.249   5.565
19049SOL     OW76514   8.808   4.114   3.853
19049SOL    HW276515   8.781   4.180   3.789
19049SOL    HW376516   8.878   4.157   3.903
19049SOL    MW476517   8.813   4.127   3.850
19050SOL     OW76518   8.476   3.819   3.790
19050SOL    HW276519   8.532   3.811   3.712
19050SOL    HW376520   8.453   3.729   3.812
19050SOL    MW476521   8.481   3.806   3.783
19051SOL     OW76522   8.981   4.670   3.995
19051SOL    HW276523   8.948   4.759   3.985
19051SOL    HW376524   8.946   4.641   4.080
19051SOL    MW476525   8.971   4.679   4.006
19052SOL     OW76526   8.594   5.099   5.183
19052SOL    HW276527   8.505   5.105   5.151
19052SOL    HW376528   8.638   5.178   5.151
19052SOL    MW476529   8.589   5.109   5.175
19053SOL     OW76530   7.887   3.767   5.525
19053SOL    HW276531   7.815   3.732   5.473
19053SOL    HW376532   7.945   3.808   5.460
19053SOL    MW476533   7.885   3.768   5.510
19054SOL     OW76534   7.911   5.257   4.824
19054SOL    HW276535   7.956   5.319   4.881
19054SOL    HW376536   7.818   5.276   4.837
19054SOL    MW476537   7.904   5.267   4.831
19055SOL     OW76538   9.351   4.786   5.178
19055SOL    HW276539   9.266   4.799   5.137
19055SOL    HW376540   9.331   4.750   5.265
19055SOL    MW476541   9.338   4.782   5.183
19056SOL     OW76542   8.333   5.325   4.932
19056SOL    HW276543   8.357   5.314   4.841
19056SOL    HW376544   8.256   5.382   4.930
19056SOL    MW476545   8.325   5.330   4.921
19057SOL     OW76546   7.975   4.708   3.787
19057SOL    HW276547   7.898   4.721   3.843
19057SOL    HW376548   7.939   4.672   3.706
19057SOL    MW476549   7.961   4.704   3.784
19058SOL     OW76550   8.628   4.681   4.030
19058SOL    HW276551   8.538   4.702   4.005
19058SOL    HW376552   8.655   4.754   4.086
19058SOL    MW476553   8.620   4.693   4.033
19059SOL     OW76554   8.128   5.030   4.722
19059SOL    HW276555   8.121   5.009   4.816
19059SOL    HW376556   8.046   4.998   4.685
19059SOL    MW476557   8.116   5.024   4.729
19060SOL     OW76558   8.992   4.040   5.124
19060SOL    HW276559   8.939   4.042   5.204
19060SOL    HW376560   8.977   3.953   5.087
19060SOL    MW476561   8.984   4.030   5.129
19061SOL     OW76562   9.328   3.964   4.997
19061SOL    HW276563   9.309   4.031   4.932
19061SOL    HW376564   9.385   3.902   4.952
19061SOL    MW476565   9.332   3.965   4.983
19062SOL     OW76566   7.574   5.122   5.385
19062SOL    HW276567   7.618   5.055   5.331
19062SOL    HW376568   7.489   5.084   5.405
19062SOL    MW476569   7.569   5.108   5.381
19063SOL     OW76570   8.257   3.797   4.437
19063SOL    HW276571   8.186   3.858   4.419
19063SOL    HW376572   8.308   3.794   4.356
19063SOL    MW476573   8.253   3.803   4.424
19064SOL     OW76574   8.015   5.037   4.186
19064SOL    HW276575   8.008   5.069   4.276
19064SOL    HW376576   7.925   5.021   4.158
19064SOL    MW476577   8.003   5.039   4.193
19065SOL     OW76578   8.610   5.430   5.095
19065SOL    HW276579   8.530   5.415   5.045
19065SOL    HW376580   8.617   5.525   5.102
19065SOL    MW476581   8.601   5.441   5.089
19066SOL     OW76582   8.724   5.395   4.585
19066SOL    HW276583   8.771   5.468   4.544
19066SOL    HW376584   8.645   5.434   4.621
19066SOL    MW476585   8.719   5.410   4.584
19067SOL     OW76586   9.132   5.490   4.860
19067SOL    HW276587   9.175   5.460   4.940
19067SOL    HW376588   9.051   5.438   4.857
19067SOL    MW476589   9.127   5.479   4.870
19068SOL     OW76590   8.217   4.454   5.567
19068SOL    HW276591   8.287   4.396   5.539
19068SOL    HW376592   8.160   4.399   5.622
19068SOL    MW476593   8.219   4.441   5.571
19069SOL     OW76594   9.004   4.666   5.200
19069SOL    HW276595   9.009   4.719   5.280
19069SOL    HW376596   8.966   4.583   5.228
19069SOL    MW476597   9.000   4.661   5.215
19070SOL     OW76598   8.644   3.801   5.446
19070SOL    HW276599   8.639   3.708   5.427
19070SOL    HW376600   8.727   3.812   5.492
19070SOL    MW476601   8.652   3.790   5.450
19071SOL     OW76602   8.018   4.321   3.900
19071SOL    HW276603   7.984   4.377   3.970
19071SOL    HW376604   8.089   4.271   3.940
19071SOL    MW476605   8.024   4.322   3.914
19072SOL     OW76606   9.114   5.072   4.722
19072SOL    HW276607   9.149   5.054   4.635
19072SOL    HW376608   9.019   5.073   4.709
19072SOL    MW476609   9.106   5.069   4.709
19073SOL     OW76610   8.543   4.720   5.091
19073SOL    HW276611   8.586   4.755   5.169
19073SOL    HW376612   8.526   4.797   5.037
19073SOL    MW476613   8.546   4.735   5.094
19074SOL     OW76614   9.074   4.207   3.964
19074SOL    HW276615   9.066   4.278   3.901
19074SOL    HW376616   9.092   4.251   4.047
19074SOL    MW476617   9.075   4.221   3.966
19075SOL     OW76618   7.934   3.862   4.393
19075SOL    HW276619   7.984   3.905   4.324
19075SOL    HW376620   7.849   3.906   4.393
19075SOL    MW476621   7.931   3.875   4.384
19076SOL     OW76622   7.693   4.924   5.253
19076SOL    HW276623   7.721   4.877   5.331
19076SOL    HW376624   7.614   4.879   5.224
19076SOL    MW476625   7.686   4.913   5.259
19077SOL     OW76626   8.201   4.251   5.220
19077SOL    HW276627   8.173   4.339   5.244
19077SOL    HW376628   8.170   4.195   5.291
19077SOL    MW476629   8.193   4.254   5.232
19078SOL     OW76630   8.743   4.469   3.939
19078SOL    HW276631   8.790   4.487   3.858
19078SOL    HW376632   8.709   4.553   3.967
19078SOL    MW476633   8.745   4.483   3.932
19079SOL     OW76634   7.856   4.647   4.433
19079SOL    HW276635   7.914   4.703   4.381
19079SOL    HW376636   7.900   4.562   4.435
19079SOL    MW476637   7.869   4.644   4.426
19080SOL     OW76638   8.996   3.999   4.270
19080SOL    HW276639   8.918   3.949   4.295
19080SOL    HW376640   8.967   4.090   4.270
19080SOL    MW476641   8.982   4.003   4.273
19081SOL     OW76642   8.582   3.961   4.429
19081SOL    HW276643   8.602   4.036   4.373
19081SOL    HW376644   8.562   4.000   4.514
19081SOL    MW476645   8.583   3.977   4.433
19082SOL     OW76646   8.478   5.211   3.761
19082SOL    HW276647   8.505   5.289   3.713
19082SOL    HW376648   8.385   5.226   3.780
19082SOL    MW476649   8.469   5.224   3.757
19083SOL     OW76650   9.342   4.734   5.448
19083SOL    HW276651   9.255   4.714   5.484
19083SOL    HW376652   9.396   4.660   5.473
19083SOL    MW476653   9.337   4.723   5.456
19084SOL     OW76654   7.563   5.247   4.605
19084SOL    HW276655   7.595   5.251   4.696
19084SOL    HW376656   7.468   5.255   4.613
19084SOL    MW476657   7.555   5.250   4.618
19085SOL     OW76658   7.518   4.373   4.152
19085SOL    HW276659   7.458   4.345   4.222
19085SOL    HW376660   7.592   4.313   4.158
19085SOL    MW476661   7.520   4.362   4.161
19086SOL     OW76662   9.086   5.585   5.586
19086SOL    HW276663   9.131   5.509   5.551
19086SOL    HW376664   9.124   5.598   5.673
19086SOL    MW476665   9.096   5.578   5.592
19087SOL     OW76666   8.686   5.104   4.312
19087SOL    HW276667   8.709   5.055   4.390
19087SOL    HW376668   8.767   5.146   4.284
19087SOL    MW476669   8.699   5.104   4.319
19088SOL     OW76670   7.944   4.112   5.041
19088SOL    HW276671   7.977   4.193   5.081
19088SOL    HW376672   7.917   4.138   4.953
19088SOL    MW476673   7.943   4.126   5.035
19089SOL     OW76674   7.898   4.079   4.777
19089SOL    HW276675   7.928   3.993   4.748
19089SOL    HW376676   7.803   4.072   4.780
19089SOL    MW476677   7.890   4.068   4.775
19090SOL     OW76678   8.727   4.288   5.468
19090SOL    HW276679   8.779   4.223   5.421
19090SOL    HW376680   8.685   4.339   5.398
19090SOL    MW476681   8.728   4.285   5.451
19091SOL     OW76682   8.826   4.083   5.329
19091SOL    HW276683   8.733   4.067   5.316
19091SOL    HW376684   8.852   4.021   5.397
19091SOL    MW476685   8.816   4.073   5.336
19092SOL     OW76686   8.041   3.857   4.668
19092SOL    HW276687   8.051   3.766   4.694
19092SOL    HW376688   7.997   3.853   4.583
19092SOL    MW476689   8.037   3.845   4.660
19093SOL     OW76690   8.135   5.472   5.214
19093SOL    HW276691   8.052   5.457   5.259
19093SOL    HW376692   8.194   5.405   5.249
19093SOL    MW476693   8.133   5.462   5.224
19094SOL     OW76694   9.192   4.179   4.839
19094SOL    HW276695   9.125   4.212   4.899
19094SOL    HW376696   9.235   4.257   4.805
19094SOL    MW476697   9.190   4.194   4.843
19095SOL     OW76698   9.370   4.899   4.809
19095SOL    HW276699   9.363   4.839   4.734
19095SOL    HW376700   9.296   4.959   4.798
19095SOL    MW476701   9.360   4.899   4.798
19096SOL     OW76702   8.752   4.761   4.727
19096SOL    HW276703   8.766   4.733   4.818
19096SOL    HW376704   8.838   4.792   4.699
19096SOL    MW476705   8.765   4.762   4.736
19097SOL     OW76706   8.835   4.256   5.006
19097SOL    HW276707   8.856   4.257   4.913
19097SOL    HW376708   8.880   4.178   5.039
19097SOL    MW476709   8.842   4.246   4.998
19098SOL     OW76710   9.328   4.387   5.548
19098SOL    HW276711   9.365   4.332   5.617
19098SOL    HW376712   9.353   4.344   5.466
19098SOL    MW476713   9.335   4.375   5.547
19099SOL     OW76714   8.875   4.685   5.600
19099SOL    HW276715   8.941   4.633   5.554
19099SOL    HW376716   8.895   4.672   5.693
19099SOL    MW476717   8.886   4.676   5.607
19100SOL     OW76718   8.826   3.771   3.948
19100SOL    HW276719   8.900   3.815   3.991
19100SOL    HW376720   8.750   3.825   3.970
19100SOL    MW476721   8.826   3.783   3.956
19101SOL     OW76722   8.886   4.546   4.226
19101SOL    HW276723   8.801   4.516   4.196
19101SOL    HW376724   8.878   4.553   4.321
19101SOL    MW476725   8.874   4.544   4.235
19102SOL     OW76726   7.962   5.009   4.957
19102SOL    HW276727   7.974   5.036   5.048
19102SOL    HW376728   7.943   5.090   4.910
19102SOL    MW476729   7.961   5.024   4.962
19103SOL     OW76730   8.246   3.989   4.780
19103SOL    HW276731   8.219   3.991   4.871
19103SOL    HW376732   8.176   3.941   4.735
19103SOL    MW476733   8.234   3.985   4.787
19104SOL     OW76734   8.100   5.481   4.942
19104SOL    HW276735   8.152   5.558   4.919
19104SOL    HW376736   8.109   5.473   5.037
19104SOL    MW476737   8.109   5.488   4.953
19105SOL     OW76738   9.002   5.066   5.174
19105SOL    HW276739   8.987   4.995   5.237
19105SOL    HW376740   9.048   5.024   5.102
19105SOL    MW476741   9.008   5.050   5.174
19106SOL     OW76742   8.076   4.797   5.291
19106SOL    HW276743   8.113   4.802   5.203
19106SOL    HW376744   8.115   4.870   5.338
19106SOL    MW476745   8.086   4.807   5.286
19107SOL     OW76746   8.256   4.840   5.103
19107SOL    HW276747   8.315   4.786   5.156
19107SOL    HW376748   8.271   4.812   5.013
19107SOL    MW476749   8.266   4.829   5.099
19108SOL     OW76750   8.259   4.212   3.952
19108SOL    HW276751   8.332   4.261   3.915
19108SOL    HW376752   8.275   4.121   3.926
19108SOL    MW476753   8.271   4.207   3.945
19109SOL     OW76754   9.067   5.329   5.275
19109SOL    HW276755   9.109   5.314   5.360
19109SOL    HW376756   9.058   5.242   5.237
19109SOL    MW476757   9.071   5.317   5.282
19110SOL     OW76758   8.727   3.808   4.866
19110SOL    HW276759   8.782   3.817   4.788
19110SOL    HW376760   8.782   3.842   4.937
19110SOL    MW476761   8.741   3.813   4.865
19111SOL     OW76762   7.734   4.721   4.050
19111SOL    HW276763   7.671   4.737   3.979
19111SOL    HW376764   7.681   4.684   4.121
19111SOL    MW476765   7.719   4.718   4.050
19112SOL     OW76766   8.090   5.075   3.909
19112SOL    HW276767   8.105   5.051   4.001
19112SOL    HW376768   7.998   5.053   3.893
19112SOL    MW476769   8.080   5.068   3.919
19113SOL     OW76770   8.629   5.306   4.061
19113SOL    HW276771   8.637   5.224   4.012
19113SOL    HW376772   8.548   5.345   4.028
19113SOL    MW476773   8.619   5.301   4.051
19114SOL     OW76774   7.888   5.464   4.630
19114SOL    HW276775   7.892   5.375   4.665
19114SOL    HW376776   7.914   5.455   4.539
19114SOL    MW476777   7.891   5.452   4.622
19115SOL     OW76778   8.505   4.942   4.873
19115SOL    HW276779   8.437   4.876   4.889
19115SOL    HW376780   8.523   4.936   4.780
19115SOL    MW476781   8.498   4.933   4.864
19116SOL     OW76782   7.594   5.217   5.124
19116SOL    HW276783   7.584   5.175   5.210
19116SOL    HW376784   7.515   5.270   5.114
19116SOL    MW476785   7.583   5.218   5.135
19117SOL     OW76786   8.498   4.081   4.694
19117SOL    HW276787   8.428   4.033   4.739
19117SOL    HW376788   8.530   4.144   4.758
19117SOL    MW476789   8.493   4.083   4.708
19118SOL     OW76790   8.149   4.517   5.314
19118SOL    HW276791   8.142   4.612   5.302
19118SOL    HW376792   8.158   4.506   5.409
19118SOL    MW476793   8.150   4.529   5.324
19119SOL     OW76794   7.870   5.032   5.572
19119SOL    HW276795   7.942   5.034   5.509
19119SOL    HW376796   7.840   4.941   5.571
19119SOL    MW476797   7.875   5.021   5.564
19120SOL     OW76798   8.954   3.795   5.039
19120SOL    HW276799   9.025   3.741   5.003
19120SOL    HW376800   8.953   3.774   5.132
19120SOL    MW476801   8.963   3.786   5.047
19121SOL     OW76802   9.154   5.325   5.523
19121SOL    HW276803   9.127   5.322   5.614
19121SOL    HW376804   9.250   5.329   5.526
19121SOL    MW476805   9.164   5.325   5.535
19122SOL     OW76806   7.965   4.187   4.507
19122SOL    HW276807   8.036   4.135   4.470
19122SOL    HW376808   7.951   4.152   4.594
19122SOL    MW476809   7.973   4.176   4.514
19123SOL     OW76810   7.520   5.522   5.579
19123SOL    HW276811   7.570   5.500   5.501
19123SOL    HW376812   7.528   5.617   5.587
19123SOL    MW476813   7.528   5.531   5.570
19124SOL     OW76814   8.281   5.280   4.583
19124SOL    HW276815   8.209   5.217   4.596
19124SOL    HW376816   8.242   5.365   4.601
19124SOL    MW476817   8.265   5.283   4.586
19125SOL     OW76818   8.601   4.128   4.231
19125SOL    HW276819   8.623   4.065   4.163
19125SOL    HW376820   8.506   4.120   4.242
19125SOL    MW476821   8.591   4.119   4.223
19126SOL     OW76822   7.686   3.818   4.163
19126SOL    HW276823   7.757   3.839   4.102
19126SOL    HW376824   7.640   3.746   4.121
19126SOL    MW476825   7.690   3.812   4.149
19127SOL     OW76826   7.517   4.285   5.306
19127SOL    HW276827   7.581   4.351   5.281
19127SOL    HW376828   7.436   4.312   5.263
19127SOL    MW476829   7.515   4.297   5.298
19128SOL     OW76830   9.255   5.192   4.263
19128SOL    HW276831   9.225   5.125   4.324
19128SOL    HW376832   9.349   5.198   4.277
19128SOL    MW476833   9.263   5.184   4.273
19129SOL     OW76834   8.811   4.869   4.193
19129SOL    HW276835   8.783   4.955   4.226
19129SOL    HW376836   8.839   4.885   4.103
19129SOL    MW476837   8.811   4.883   4.185
19130SOL     OW76838   8.473   3.789   4.246
19130SOL    HW276839   8.510   3.848   4.311
19130SOL    HW376840   8.450   3.845   4.172
19130SOL    MW476841   8.474   3.804   4.245
19131SOL     OW76842   9.326   4.671   4.668
19131SOL    HW276843   9.317   4.703   4.579
19131SOL    HW376844   9.279   4.587   4.668
19131SOL    MW476845   9.319   4.664   4.658
19132SOL     OW76846   7.702   4.511   5.247
19132SOL    HW276847   7.723   4.580   5.185
19132SOL    HW376848   7.782   4.458   5.252
19132SOL    MW476849   7.715   4.512   5.241
19133SOL     OW76850   9.238   4.602   4.369
19133SOL    HW276851   9.332   4.591   4.357
19133SOL    HW376852   9.214   4.674   4.310
19133SOL    MW476853   9.248   4.610   4.360
19134SOL     OW76854   7.687   4.526   5.514
19134SOL    HW276855   7.613   4.470   5.540
19134SOL    HW376856   7.682   4.529   5.419
19134SOL    MW476857   7.676   4.519   5.504
19135SOL     OW76858   7.853   3.813   4.964
19135SOL    HW276859   7.896   3.897   4.984
19135SOL    HW376860   7.926   3.751   4.957
19135SOL    MW476861   7.868   3.816   4.965
19136SOL     OW76862   7.894   4.480   4.142
19136SOL    HW276863   7.894   4.575   4.127
19136SOL    HW376864   7.971   4.464   4.196
19136SOL    MW476865   7.904   4.491   4.147
19137SOL     OW76866   8.670   4.339   5.206
19137SOL    HW276867   8.706   4.312   5.122
19137SOL    HW376868   8.583   4.373   5.185
19137SOL    MW476869   8.664   4.340   5.193
19138SOL     OW76870   7.653   4.211   4.431
19138SOL    HW276871   7.715   4.218   4.504
19138SOL    HW376872   7.653   4.118   4.408
19138SOL    MW476873   7.661   4.200   4.438
19139SOL     OW76874   9.200   5.551   3.963
19139SOL    HW276875   9.267   5.584   3.903
19139SOL    HW376876   9.157   5.630   3.997
19139SOL    MW476877   9.202   5.566   3.959
19140SOL     OW76878   8.335   4.472   4.915
19140SOL    HW276879   8.293   4.390   4.891
19140SOL    HW376880   8.336   4.471   5.011
19140SOL    MW476881   8.328   4.461   4.924
19141SOL     OW76882   9.006   5.605   5.314
19141SOL    HW276883   9.009   5.511   5.297
19141SOL    HW376884   9.029   5.613   5.406
19141SOL    MW476885   9.009   5.593   5.324
19142SOL     OW76886   8.139   3.942   5.020
19142SOL    HW276887   8.070   4.005   5.041
19142SOL    HW376888   8.166   3.906   5.105
19142SOL    MW476889   8.133   3.945   5.033
19143SOL     OW76890   7.522   4.783   3.889
19143SOL    HW276891   7.491   4.848   3.952
19143SOL    HW376892   7.471   4.705   3.908
19143SOL    MW476893   7.512   4.780   3.899
19144SOL     OW76894   8.934   3.795   4.637
19144SOL    HW276895   9.022   3.804   4.674
19144SOL    HW376896   8.944   3.736   4.563
19144SOL    MW476897   8.948   3.789   4.631
19145SOL     OW76898   8.966   4.534   4.481
19145SOL    HW276899   9.046   4.549   4.430
19145SOL    HW376900   8.959   4.439   4.487
19145SOL    MW476901   8.975   4.523   4.476
19146SOL     OW76902   8.106   5.583   3.831
19146SOL    HW276903   8.011   5.583   3.823
19146SOL    HW376904   8.122   5.529   3.909
19146SOL    MW476905   8.096   5.577   3.840
19147SOL     OW76906   8.416   4.460   5.178
19147SOL    HW276907   8.485   4.527   5.175
19147SOL    HW376908   8.349   4.498   5.234
19147SOL    MW476909   8.417   4.473   5.185
19148SOL     OW76910   7.834   4.760   5.426
19148SOL    HW276911   7.788   4.676   5.428
19148SOL    HW376912   7.891   4.754   5.350
19148SOL    MW476913   7.836   4.748   5.418
19149SOL     OW76914   8.951   4.403   3.747
19149SOL    HW276915   8.879   4.379   3.689
19149SOL    HW376916   9.017   4.440   3.689
19149SOL    MW476917   8.950   4.405   3.732
19150SOL     OW76918   8.085   5.135   4.427
19150SOL    HW276919   8.150   5.068   4.448
19150SOL    HW376920   8.137   5.212   4.404
19150SOL    MW476921   8.100   5.137   4.426
19151SOL     OW76922   8.346   4.300   4.557
19151SOL    HW276923   8.286   4.318   4.629
19151SOL    HW376924   8.380   4.212   4.576
19151SOL    MW476925   8.342   4.290   4.570
19152SOL     OW76926   9.287   3.799   5.226
19152SOL    HW276927   9.208   3.845   5.254
19152SOL    HW376928   9.322   3.853   5.155
19152SOL    MW476929   9.281   3.812   5.220
19153SOL     OW76930   8.571   4.883   4.576
19153SOL    HW276931   8.663   4.864   4.594
19153SOL    HW376932   8.544   4.813   4.516
19153SOL    MW476933   8.579   4.871   4.570
19154SOL     OW76934   8.364   4.703   3.931
19154SOL    HW276935   8.350   4.615   3.896
19154SOL    HW376936   8.315   4.760   3.872
19154SOL    MW476937   8.356   4.698   3.919
19155SOL     OW76938   8.845   5.121   4.672
19155SOL    HW276939   8.818   5.205   4.637
19155SOL    HW376940   8.805   5.116   4.759
19155SOL    MW476941   8.838   5.130   4.678
19156SOL     OW76942   8.764   5.069   4.940
19156SOL    HW276943   8.775   5.036   5.029
19156SOL    HW376944   8.683   5.028   4.909
19156SOL    MW476945   8.754   5.061   4.946
19157SOL     OW76946   7.777   4.427   4.710
19157SOL    HW276947   7.727   4.426   4.791
19157SOL    HW376948   7.797   4.519   4.694
19157SOL    MW476949   7.773   4.439   4.718
19158SOL     OW76950   8.844   5.191   5.472
19158SOL    HW276951   8.844   5.285   5.488
19158SOL    HW376952   8.889   5.181   5.388
19158SOL    MW476953   8.850   5.201   5.463
19159SOL     OW76954   9.083   3.909   4.033
19159SOL    HW276955   9.076   3.913   4.128
19159SOL    HW376956   9.095   4.000   4.006
19159SOL    MW476957   9.084   3.922   4.041
19160SOL     OW76958   8.372   4.472   4.147
19160SOL    HW276959   8.352   4.458   4.054
19160SOL    HW376960   8.465   4.451   4.154
19160SOL    MW476961   8.382   4.467   4.136
19161SOL     OW76962   7.699   4.095   5.451
19161SOL    HW276963   7.656   4.154   5.388
19161SOL    HW376964   7.767   4.150   5.491
19161SOL    MW476965   7.703   4.110   5.448
19162SOL     OW76966   8.811   4.715   4.996
19162SOL    HW276967   8.874   4.712   5.069
19162SOL    HW376968   8.727   4.733   5.038
19162SOL    MW476969   8.807   4.717   5.011
19163SOL     OW76970   8.355   5.430   4.185
19163SOL    HW276971   8.413   5.501   4.212
19163SOL    HW376972   8.378   5.358   4.243
19163SOL    MW476973   8.366   5.430   4.196
19164SOL     OW76974   9.150   3.892   4.775
19164SOL    HW276975   9.195   3.810   4.794
19164SOL    HW376976   9.170   3.948   4.851
19164SOL    MW476977   9.160   3.888   4.787
19165SOL     OW76978   7.598   3.735   4.874
19165SOL    HW276979   7.589   3.736   4.779
19165SOL    HW376980   7.692   3.747   4.889
19165SOL    MW476981   7.610   3.738   4.865
19166SOL     OW76982   9.235   4.928   4.494
19166SOL    HW276983   9.214   4.874   4.417
19166SOL    HW376984   9.331   4.926   4.498
19166SOL    MW476985   9.244   4.921   4.483
19167SOL     OW76986   7.927   5.073   5.237
19167SOL    HW276987   7.848   5.023   5.260
19167SOL    HW376988   7.997   5.032   5.287
19167SOL    MW476989   7.925   5.061   5.247
19168SOL     OW76990   7.811   3.862   3.920
19168SOL    HW276991   7.740   3.917   3.888
19168SOL    HW376992   7.853   3.828   3.841
19168SOL    MW476993   7.807   3.864   3.906
19169SOL     OW76994   8.935   4.359   4.756
19169SOL    HW276995   8.858   4.405   4.722
19169SOL    HW376996   8.992   4.428   4.790
19169SOL    MW476997   8.932   4.374   4.756
19170SOL     OW76998   7.567   3.961   3.769
19170SOL    HW276999   7.534   4.040   3.813
19170SOL    HW377000   7.622   3.994   3.698
19170SOL    MW477001   7.570   3.975   3.766
19171SOL     OW77002   7.601   5.218   3.958
19171SOL    HW277003   7.618   5.302   4.000
19171SOL    HW377004   7.636   5.227   3.870
19171SOL    MW477005   7.606   5.231   3.952
19172SOL     OW77006   8.873   5.307   4.175
19172SOL    HW277007   8.936   5.297   4.104
19172SOL    HW377008   8.790   5.327   4.130
19172SOL    MW477009   8.870   5.308   4.160
19173SOL     OW77010   9.236   4.575   5.862
19173SOL    HW277011   9.277   4.517   5.927
19173SOL    HW377012   9.143   4.567   5.879
19173SOL    MW477013   9.230   4.567   5.872
19174SOL     OW77014   9.102   4.507   6.857
19174SOL    HW277015   9.057   4.574   6.908
19174SOL    HW377016   9.190   4.543   6.843
19174SOL    MW477017   9.108   4.520   6.861
19175SOL     OW77018   8.030   4.758   6.091
19175SOL    HW277019   8.120   4.733   6.075
19175SOL    HW377020   8.026   4.851   6.068
19175SOL    MW477021   8.042   4.767   6.086
19176SOL     OW77022   9.146   5.461   6.233
19176SOL    HW277023   9.158   5.407   6.311
19176SOL    HW377024   9.183   5.409   6.162
19176SOL    MW477025   9.152   5.446   6.234
19177SOL     OW77026   8.525   5.346   7.234
19177SOL    HW277027   8.566   5.382   7.155
19177SOL    HW377028   8.560   5.257   7.241
19177SOL    MW477029   8.536   5.339   7.225
19178SOL     OW77030   9.082   4.901   6.838
19178SOL    HW277031   9.003   4.866   6.796
19178SOL    HW377032   9.109   4.973   6.782
19178SOL    MW477033   9.075   4.906   6.825
19179SOL     OW77034   8.314   4.214   6.104
19179SOL    HW277035   8.289   4.302   6.132
19179SOL    HW377036   8.311   4.217   6.008
19179SOL    MW477037   8.310   4.226   6.096
19180SOL     OW77038   7.756   4.242   6.032
19180SOL    HW277039   7.788   4.330   6.014
19180SOL    HW377040   7.744   4.240   6.127
19180SOL    MW477041   7.759   4.254   6.044
19181SOL     OW77042   7.834   4.655   6.933
19181SOL    HW277043   7.897   4.602   6.884
19181SOL    HW377044   7.815   4.729   6.876
19181SOL    MW477045   7.840   4.657   6.920
19182SOL     OW77046   8.155   3.997   6.119
19182SOL    HW277047   8.213   4.073   6.121
19182SOL    HW377048   8.090   4.018   6.052
19182SOL    MW477049   8.154   4.009   6.110
19183SOL     OW77050   8.242   4.924   6.294
19183SOL    HW277051   8.322   4.927   6.346
19183SOL    HW377052   8.270   4.891   6.208
19183SOL    MW477053   8.256   4.920   6.289
19184SOL     OW77054   8.267   5.265   7.197
19184SOL    HW277055   8.351   5.291   7.236
19184SOL    HW377056   8.291   5.209   7.123
19184SOL    MW477057   8.281   5.261   7.192
19185SOL     OW77058   8.019   4.428   6.285
19185SOL    HW277059   8.004   4.348   6.336
19185SOL    HW377060   8.101   4.463   6.319
19185SOL    MW477061   8.027   4.420   6.297
19186SOL     OW77062   8.356   5.114   6.970
19186SOL    HW277063   8.320   5.180   6.910
19186SOL    HW377064   8.284   5.052   6.983
19186SOL    MW477065   8.342   5.114   6.964
19187SOL     OW77066   8.161   4.254   6.662
19187SOL    HW277067   8.067   4.250   6.680
19187SOL    HW377068   8.191   4.163   6.671
19187SOL    MW477069   8.152   4.242   6.665
19188SOL     OW77070   7.907   4.668   6.566
19188SOL    HW277071   7.862   4.675   6.482
19188SOL    HW377072   7.887   4.751   6.610
19188SOL    MW477073   7.899   4.680   6.560
19189SOL     OW77074   7.604   5.514   6.441
19189SOL    HW277075   7.693   5.506   6.476
19189SOL    HW377076   7.568   5.426   6.446
19189SOL    MW477077   7.611   5.501   6.446
19190SOL     OW77078   8.869   4.906   5.810
19190SOL    HW277079   8.787   4.942   5.776
19190SOL    HW377080   8.937   4.949   5.759
19190SOL    MW477081   8.867   4.916   5.798
19191SOL     OW77082   7.868   5.041   6.476
19191SOL    HW277083   7.844   5.094   6.552
19191SOL    HW377084   7.924   5.099   6.424
19191SOL    MW477085   7.872   5.056   6.479
19192SOL     OW77086   8.430   4.685   6.286
19192SOL    HW277087   8.344   4.672   6.326
19192SOL    HW377088   8.483   4.612   6.318
19192SOL    MW477089   8.426   4.674   6.295
19193SOL     OW77090   7.838   5.337   7.071
19193SOL    HW277091   7.746   5.313   7.056
19193SOL    HW377092   7.882   5.254   7.088
19193SOL    MW477093   7.832   5.322   7.070
19194SOL     OW77094   8.421   5.047   6.003
19194SOL    HW277095   8.398   5.109   6.071
19194SOL    HW377096   8.378   4.965   6.029
19194SOL    MW477097   8.413   5.043   6.014
19195SOL     OW77098   9.294   4.048   6.459
19195SOL    HW277099   9.231   4.028   6.528
19195SOL    HW377100   9.284   3.977   6.396
19195SOL    MW477101   9.284   4.035   6.460
19196SOL     OW77102   7.918   4.020   5.971
19196SOL    HW277103   7.892   3.982   5.887
19196SOL    HW377104   7.855   4.090   5.987
19196SOL    MW477105   7.907   4.023   5.962
19197SOL     OW77106   7.753   4.981   6.008
19197SOL    HW277107   7.701   5.049   5.964
19197SOL    HW377108   7.750   4.907   5.948
19197SOL    MW477109   7.745   4.980   5.995
19198SOL     OW77110   8.415   5.444   5.786
19198SOL    HW277111   8.370   5.460   5.869
19198SOL    HW377112   8.346   5.409   5.728
19198SOL    MW477113   8.401   5.441   5.788
19199SOL     OW77114   9.350   4.217   5.761
19199SOL    HW277115   9.259   4.219   5.789
19199SOL    HW377116   9.395   4.279   5.819
19199SOL    MW477117   9.343   4.225   5.771
19200SOL     OW77118   9.095   4.820   6.111
19200SOL    HW277119   9.005   4.820   6.146
19200SOL    HW377120   9.088   4.866   6.028
19200SOL    MW477121   9.082   4.826   6.105
19201SOL     OW77122   8.895   4.455   7.183
19201SOL    HW277123   8.964   4.393   7.160
19201SOL    HW377124   8.820   4.429   7.130
19201SOL    MW477125   8.895   4.442   7.174
19202SOL     OW77126   7.636   5.335   6.735
19202SOL    HW277127   7.619   5.281   6.812
19202SOL    HW377128   7.624   5.425   6.765
19202SOL    MW477129   7.633   5.339   6.749
19203SOL     OW77130   8.631   4.842   7.175
19203SOL    HW277131   8.616   4.935   7.160
19203SOL    HW377132   8.726   4.832   7.175
19203SOL    MW477133   8.640   4.852   7.172
19204SOL     OW77134   8.427   4.266   7.376
19204SOL    HW277135   8.517   4.267   7.343
19204SOL    HW377136   8.386   4.191   7.334
19204SOL    MW477137   8.433   4.256   7.367
19205SOL     OW77138   9.002   4.798   6.503
19205SOL    HW277139   9.005   4.732   6.434
19205SOL    HW377140   9.087   4.841   6.499
19205SOL    MW477141   9.014   4.794   6.494
19206SOL     OW77142   8.622   4.401   6.072
19206SOL    HW277143   8.648   4.425   5.983
19206SOL    HW377144   8.604   4.308   6.068
19206SOL    MW477145   8.624   4.393   6.059
19207SOL     OW77146   9.287   5.021   5.923
19207SOL    HW277147   9.243   5.062   5.998
19207SOL    HW377148   9.344   5.089   5.888
19207SOL    MW477149   9.289   5.035   5.928
19208SOL     OW77150   8.207   4.070   7.326
19208SOL    HW277151   8.217   3.996   7.266
19208SOL    HW377152   8.243   4.039   7.409
19208SOL    MW477153   8.213   4.056   7.328
19209SOL     OW77154   7.943   5.437   6.241
19209SOL    HW277155   7.975   5.525   6.219
19209SOL    HW377156   7.896   5.409   6.163
19209SOL    MW477157   7.942   5.445   6.228
19210SOL     OW77158   9.327   3.799   6.290
19210SOL    HW277159   9.381   3.750   6.352
19210SOL    HW377160   9.270   3.733   6.251
19210SOL    MW477161   9.327   3.783   6.292
19211SOL     OW77162   7.659   5.497   5.818
19211SOL    HW277163   7.688   5.587   5.810
19211SOL    HW377164   7.609   5.480   5.739
19211SOL    MW477165   7.657   5.505   5.807
19212SOL     OW77166   8.446   3.752   6.703
19212SOL    HW277167   8.405   3.830   6.665
19212SOL    HW377168   8.540   3.770   6.698
19212SOL    MW477169   8.452   3.764   6.698
19213SOL     OW77170   9.063   5.305   5.789
19213SOL    HW277171   9.111   5.374   5.835
19213SOL    HW377172   8.984   5.349   5.758
19213SOL    MW477173   9.058   5.319   5.792
19214SOL     OW77174   8.461   4.430   5.733
19214SOL    HW277175   8.463   4.377   5.654
19214SOL    HW377176   8.549   4.467   5.739
19214SOL    MW477177   8.473   4.429   5.722
19215SOL     OW77178   9.075   4.356   6.069
19215SOL    HW277179   9.114   4.356   6.156
19215SOL    HW377180   9.016   4.432   6.069
19215SOL    MW477181   9.072   4.367   6.080
19216SOL     OW77182   8.392   4.723   7.198
19216SOL    HW277183   8.369   4.703   7.288
19216SOL    HW377184   8.477   4.767   7.203
19216SOL    MW477185   8.399   4.726   7.210
19217SOL     OW77186   8.472   3.860   6.958
19217SOL    HW277187   8.478   3.822   6.871
19217SOL    HW377188   8.461   3.954   6.943
19217SOL    MW477189   8.473   3.868   6.946
19218SOL     OW77190   8.561   4.349   6.792
19218SOL    HW277191   8.636   4.378   6.739
19218SOL    HW377192   8.493   4.414   6.776
19218SOL    MW477193   8.562   4.361   6.782
19219SOL     OW77194   9.111   4.317   7.069
19219SOL    HW277195   9.092   4.226   7.048
19219SOL    HW377196   9.089   4.366   6.990
19219SOL    MW477197   9.106   4.310   7.056
19220SOL     OW77198   9.253   5.411   6.973
19220SOL    HW277199   9.181   5.373   7.024
19220SOL    HW377200   9.270   5.496   7.014
19220SOL    MW477201   9.247   5.416   6.985
19221SOL     OW77202   8.558   4.055   7.175
19221SOL    HW277203   8.524   4.094   7.094
19221SOL    HW377204   8.536   3.963   7.168
19221SOL    MW477205   8.551   4.048   7.165
19222SOL     OW77206   8.967   4.869   7.251
19222SOL    HW277207   9.049   4.910   7.281
19222SOL    HW377208   8.930   4.831   7.331
19222SOL    MW477209   8.973   4.870   7.266
19223SOL     OW77210   9.262   4.242   6.235
19223SOL    HW277211   9.351   4.211   6.252
19223SOL    HW377212   9.205   4.182   6.283
19223SOL    MW477213   9.265   4.230   6.244
19224SOL     OW77214   7.688   3.956   6.264
19224SOL    HW277215   7.679   3.896   6.190
19224SOL    HW377216   7.621   3.927   6.327
19224SOL    MW477217   7.678   3.943   6.262
19225SOL     OW77218   8.631   5.049   5.825
19225SOL    HW277219   8.581   5.051   5.907
19225SOL    HW377220   8.565   5.067   5.757
19225SOL    MW477221   8.617   5.051   5.827
19226SOL     OW77222   7.635   4.129   6.627
19226SOL    HW277223   7.607   4.220   6.636
19226SOL    HW377224   7.572   4.090   6.566
19226SOL    MW477225   7.622   4.135   6.621
19227SOL     OW77226   8.094   5.467   5.933
19227SOL    HW277227   8.015   5.425   5.966
19227SOL    HW377228   8.160   5.450   6.000
19227SOL    MW477229   8.093   5.459   5.946
19228SOL     OW77230   9.222   4.987   7.330
19228SOL    HW277231   9.272   4.913   7.362
19228SOL    HW377232   9.168   5.014   7.405
19228SOL    MW477233   9.222   4.981   7.343
19229SOL     OW77234   8.230   4.882   5.640
19229SOL    HW277235   8.152   4.828   5.627
19229SOL    HW377236   8.201   4.955   5.693
19229SOL    MW477237   8.216   4.884   5.645
19230SOL     OW77238   9.356   4.622   6.832
19230SOL    HW277239   9.372   4.660   6.745
19230SOL    HW377240   9.390   4.688   6.893
19230SOL    MW477241   9.363   4.635   6.828
19231SOL     OW77242   9.148   5.331   6.501
19231SOL    HW277243   9.177   5.398   6.562
19231SOL    HW377244   9.129   5.255   6.556
19231SOL    MW477245   9.150   5.331   6.516
19232SOL     OW77246   8.811   5.398   5.708
19232SOL    HW277247   8.737   5.361   5.758
19232SOL    HW377248   8.819   5.488   5.741
19232SOL    MW477249   8.802   5.405   5.720
19233SOL     OW77250   7.619   4.404   6.797
19233SOL    HW277251   7.681   4.434   6.863
19233SOL    HW377252   7.553   4.473   6.791
19233SOL    MW477253   7.618   4.417   6.804
19234SOL     OW77254   9.035   5.072   5.650
19234SOL    HW277255   8.982   5.121   5.586
19234SOL    HW377256   9.066   5.138   5.711
19234SOL    MW477257   9.033   5.086   5.648
19235SOL     OW77258   8.260   3.961   5.705
19235SOL    HW277259   8.208   3.881   5.693
19235SOL    HW377260   8.347   3.938   5.673
19235SOL    MW477261   8.263   3.947   5.699
19236SOL     OW77262   7.714   5.513   7.249
19236SOL    HW277263   7.688   5.581   7.187
19236SOL    HW377264   7.762   5.450   7.197
19236SOL    MW477265   7.716   5.513   7.235
19237SOL     OW77266   7.766   4.832   6.756
19237SOL    HW277267   7.819   4.907   6.781
19237SOL    HW377268   7.685   4.870   6.722
19237SOL    MW477269   7.762   4.847   6.756
19238SOL     OW77270   8.306   4.736   6.744
19238SOL    HW277271   8.334   4.645   6.756
19238SOL    HW377272   8.235   4.730   6.680
19238SOL    MW477273   8.299   4.724   6.739
19239SOL     OW77274   7.621   4.601   6.162
19239SOL    HW277275   7.712   4.616   6.189
19239SOL    HW377276   7.624   4.522   6.108
19239SOL    MW477277   7.633   4.593   6.160
19240SOL     OW77278   7.857   4.309   7.416
19240SOL    HW277279   7.804   4.389   7.423
19240SOL    HW377280   7.927   4.321   7.481
19240SOL    MW477281   7.859   4.322   7.424
19241SOL     OW77282   8.243   3.859   7.123
19241SOL    HW277283   8.220   3.767   7.125
19241SOL    HW377284   8.329   3.861   7.080
19241SOL    MW477285   8.250   3.849   7.119
19242SOL     OW77286   7.927   4.383   7.162
19242SOL    HW277287   8.007   4.433   7.148
19242SOL    HW377288   7.918   4.377   7.257
19242SOL    MW477289   7.936   4.389   7.172
19243SOL     OW77290   8.248   5.533   6.536
19243SOL    HW277291   8.337   5.548   6.566
19243SOL    HW377292   8.243   5.580   6.452
19243SOL    MW477293   8.258   5.541   6.529
19244SOL     OW77294   8.904   3.908   7.433
19244SOL    HW277295   8.960   3.835   7.459
19244SOL    HW377296   8.874   3.946   7.515
19244SOL    MW477297   8.908   3.903   7.446
19245SOL     OW77298   7.629   5.213   6.201
19245SOL    HW277299   7.601   5.252   6.283
19245SOL    HW377300   7.649   5.122   6.223
19245SOL    MW477301   7.627   5.205   6.214
19246SOL     OW77302   8.462   5.256   6.236
19246SOL    HW277303   8.545   5.210   6.220
19246SOL    HW377304   8.452   5.255   6.332
19246SOL    MW477305   8.472   5.249   6.246
19247SOL     OW77306   9.294   4.401   6.550
19247SOL    HW277307   9.383   4.431   6.532
19247SOL    HW377308   9.274   4.341   6.479
19247SOL    MW477309   9.303   4.398   6.539
19248SOL     OW77310   9.145   4.580   7.430
19248SOL    HW277311   9.200   4.504   7.411
19248SOL    HW377312   9.147   4.588   7.525
19248SOL    MW477313   9.153   4.571   7.438
19249SOL     OW77314   8.195   5.313   5.641
19249SOL    HW277315   8.135   5.382   5.611
19249SOL    HW377316   8.140   5.255   5.694
19249SOL    MW477317   8.179   5.315   5.643
19250SOL     OW77318   8.633   3.958   5.864
19250SOL    HW277319   8.566   3.934   5.801
19250SOL    HW377320   8.698   4.007   5.813
19250SOL    MW477321   8.633   3.960   5.849
19251SOL     OW77322   8.440   4.142   6.949
19251SOL    HW277323   8.359   4.183   6.977
19251SOL    HW377324   8.487   4.210   6.901
19251SOL    MW477325   8.435   4.157   6.947
19252SOL     OW77326   8.700   4.480   6.572
19252SOL    HW277327   8.713   4.574   6.582
19252SOL    HW377328   8.661   4.470   6.486
19252SOL    MW477329   8.696   4.491   6.562
19253SOL     OW77330   8.152   4.675   6.376
19253SOL    HW277331   8.063   4.666   6.409
19253SOL    HW377332   8.156   4.765   6.344
19253SOL    MW477333   8.141   4.686   6.376
19254SOL     OW77334   8.951   4.258   6.371
19254SOL    HW277335   8.896   4.179   6.370
19254SOL    HW377336   8.933   4.299   6.455
19254SOL    MW477337   8.941   4.253   6.380
19255SOL     OW77338   7.922   3.945   7.188
19255SOL    HW277339   7.843   3.963   7.240
19255SOL    HW377340   7.917   4.007   7.115
19255SOL    MW477341   7.912   3.955   7.185
19256SOL     OW77342   8.570   4.462   6.328
19256SOL    HW277343   8.507   4.394   6.352
19256SOL    HW377344   8.590   4.443   6.236
19256SOL    MW477345   8.564   4.449   6.320
19257SOL     OW77346   7.826   5.357   6.030
19257SOL    HW277347   7.787   5.404   5.956
19257SOL    HW377348   7.760   5.292   6.055
19257SOL    MW477349   7.813   5.355   6.024
19258SOL     OW77350   8.318   4.766   6.054
19258SOL    HW277351   8.320   4.740   5.961
19258SOL    HW377352   8.376   4.703   6.097
19258SOL    MW477353   8.326   4.755   6.048
19259SOL     OW77354   8.871   5.326   6.826
19259SOL    HW277355   8.796   5.372   6.864
19259SOL    HW377356   8.853   5.233   6.843
19259SOL    MW477357   8.860   5.320   6.834
19260SOL     OW77358   8.875   5.534   6.256
19260SOL    HW277359   8.818   5.487   6.195
19260SOL    HW377360   8.961   5.495   6.243
19260SOL    MW477361   8.878   5.525   6.246
19261SOL     OW77362   8.828   4.010   6.387
19261SOL    HW277363   8.856   3.942   6.448
19261SOL    HW377364   8.742   3.981   6.357
19261SOL    MW477365   8.821   3.997   6.391
19262SOL     OW77366   7.633   4.944   6.321
19262SOL    HW277367   7.697   4.976   6.384
19262SOL    HW377368   7.682   4.880   6.269
19262SOL    MW477369   7.648   4.940   6.322
19263SOL     OW77370   8.133   5.020   7.303
19263SOL    HW277371   8.181   5.103   7.290
19263SOL    HW377372   8.190   4.968   7.359
19263SOL    MW477373   8.147   5.024   7.309
19264SOL     OW77374   7.709   5.262   7.443
19264SOL    HW277375   7.765   5.186   7.458
19264SOL    HW377376   7.658   5.240   7.365
19264SOL    MW477377   7.709   5.249   7.434
19265SOL     OW77378   8.808   4.114   5.722
19265SOL    HW277379   8.781   4.180   5.658
19265SOL    HW377380   8.878   4.157   5.772
19265SOL    MW477381   8.813   4.127   5.719
19266SOL     OW77382   8.476   3.819   5.659
19266SOL    HW277383   8.532   3.811   5.581
19266SOL    HW377384   8.453   3.729   5.681
19266SOL    MW477385   8.481   3.806   5.652
19267SOL     OW77386   8.981   4.670   5.864
19267SOL    HW277387   8.948   4.759   5.854
19267SOL    HW377388   8.946   4.641   5.949
19267SOL    MW477389   8.971   4.679   5.875
19268SOL     OW77390   8.594   5.099   7.052
19268SOL    HW277391   8.505   5.105   7.020
19268SOL    HW377392   8.638   5.178   7.020
19268SOL    MW477393   8.589   5.109   7.044
19269SOL     OW77394   7.887   3.767   7.394
19269SOL    HW277395   7.815   3.732   7.342
19269SOL    HW377396   7.945   3.808   7.329
19269SOL    MW477397   7.885   3.768   7.379
19270SOL     OW77398   7.911   5.257   6.693
19270SOL    HW277399   7.956   5.319   6.750
19270SOL    HW377400   7.818   5.276   6.706
19270SOL    MW477401   7.904   5.267   6.700
19271SOL     OW77402   9.351   4.786   7.047
19271SOL    HW277403   9.266   4.799   7.006
19271SOL    HW377404   9.331   4.750   7.134
19271SOL    MW477405   9.338   4.782   7.052
19272SOL     OW77406   8.333   5.325   6.801
19272SOL    HW277407   8.357   5.314   6.710
19272SOL    HW377408   8.256   5.382   6.799
19272SOL    MW477409   8.325   5.330   6.790
19273SOL     OW77410   7.975   4.708   5.656
19273SOL    HW277411   7.898   4.721   5.712
19273SOL    HW377412   7.939   4.672   5.575
19273SOL    MW477413   7.961   4.704   5.653
19274SOL     OW77414   8.628   4.681   5.899
19274SOL    HW277415   8.538   4.702   5.874
19274SOL    HW377416   8.655   4.754   5.955
19274SOL    MW477417   8.620   4.693   5.902
19275SOL     OW77418   8.128   5.030   6.591
19275SOL    HW277419   8.121   5.009   6.685
19275SOL    HW377420   8.046   4.998   6.554
19275SOL    MW477421   8.116   5.024   6.598
19276SOL     OW77422   8.992   4.040   6.993
19276SOL    HW277423   8.939   4.042   7.073
19276SOL    HW377424   8.977   3.953   6.956
19276SOL    MW477425   8.984   4.030   6.998
19277SOL     OW77426   9.328   3.964   6.866
19277SOL    HW277427   9.309   4.031   6.801
19277SOL    HW377428   9.385   3.902   6.821
19277SOL    MW477429   9.332   3.965   6.852
19278SOL     OW77430   7.574   5.122   7.254
19278SOL    HW277431   7.618   5.055   7.200
19278SOL    HW377432   7.489   5.084   7.274
19278SOL    MW477433   7.569   5.108   7.250
19279SOL     OW77434   8.257   3.797   6.306
19279SOL    HW277435   8.186   3.858   6.288
19279SOL    HW377436   8.308   3.794   6.225
19279SOL    MW477437   8.253   3.803   6.293
19280SOL     OW77438   8.015   5.037   6.055
19280SOL    HW277439   8.008   5.069   6.145
19280SOL    HW377440   7.925   5.021   6.027
19280SOL    MW477441   8.003   5.039   6.062
19281SOL     OW77442   8.610   5.430   6.964
19281SOL    HW277443   8.530   5.415   6.914
19281SOL    HW377444   8.617   5.525   6.971
19281SOL    MW477445   8.601   5.441   6.958
19282SOL     OW77446   8.724   5.395   6.454
19282SOL    HW277447   8.771   5.468   6.413
19282SOL    HW377448   8.645   5.434   6.490
19282SOL    MW477449   8.719   5.410   6.453
19283SOL     OW77450   9.132   5.490   6.729
19283SOL    HW277451   9.175   5.460   6.809
19283SOL    HW377452   9.051   5.438   6.726
19283SOL    MW477453   9.127   5.479   6.739
19284SOL     OW77454   8.217   4.454   7.436
19284SOL    HW277455   8.287   4.396   7.408
19284SOL    HW377456   8.160   4.399   7.491
19284SOL    MW477457   8.219   4.441   7.440
19285SOL     OW77458   9.004   4.666   7.069
19285SOL    HW277459   9.009   4.719   7.149
19285SOL    HW377460   8.966   4.583   7.097
19285SOL    MW477461   9.000   4.661   7.084
19286SOL     OW77462   8.644   3.801   7.315
19286SOL    HW277463   8.639   3.708   7.296
19286SOL    HW377464   8.727   3.812   7.361
19286SOL    MW477465   8.652   3.790   7.319
19287SOL     OW77466   8.018   4.321   5.769
19287SOL    HW277467   7.984   4.377   5.839
19287SOL    HW377468   8.089   4.271   5.809
19287SOL    MW477469   8.024   4.322   5.783
19288SOL     OW77470   9.114   5.072   6.591
19288SOL    HW277471   9.149   5.054   6.504
19288SOL    HW377472   9.019   5.073   6.578
19288SOL    MW477473   9.106   5.069   6.578
19289SOL     OW77474   8.543   4.720   6.960
19289SOL    HW277475   8.586   4.755   7.038
19289SOL    HW377476   8.526   4.797   6.906
19289SOL    MW477477   8.546   4.735   6.963
19290SOL     OW77478   9.074   4.207   5.833
19290SOL    HW277479   9.066   4.278   5.770
19290SOL    HW377480   9.092   4.251   5.916
19290SOL    MW477481   9.075   4.221   5.835
19291SOL     OW77482   7.934   3.862   6.262
19291SOL    HW277483   7.984   3.905   6.193
19291SOL    HW377484   7.849   3.906   6.262
19291SOL    MW477485   7.931   3.875   6.253
19292SOL     OW77486   7.693   4.924   7.122
19292SOL    HW277487   7.721   4.877   7.200
19292SOL    HW377488   7.614   4.879   7.093
19292SOL    MW477489   7.686   4.913   7.128
19293SOL     OW77490   8.201   4.251   7.089
19293SOL    HW277491   8.173   4.339   7.113
19293SOL    HW377492   8.170   4.195   7.160
19293SOL    MW477493   8.193   4.254   7.101
19294SOL     OW77494   8.743   4.469   5.808
19294SOL    HW277495   8.790   4.487   5.727
19294SOL    HW377496   8.709   4.553   5.836
19294SOL    MW477497   8.745   4.483   5.801
19295SOL     OW77498   7.856   4.647   6.302
19295SOL    HW277499   7.914   4.703   6.250
19295SOL    HW377500   7.900   4.562   6.304
19295SOL    MW477501   7.869   4.644   6.295
19296SOL     OW77502   8.996   3.999   6.139
19296SOL    HW277503   8.918   3.949   6.164
19296SOL    HW377504   8.967   4.090   6.139
19296SOL    MW477505   8.982   4.003   6.142
19297SOL     OW77506   8.582   3.961   6.298
19297SOL    HW277507   8.602   4.036   6.242
19297SOL    HW377508   8.562   4.000   6.383
19297SOL    MW477509   8.583   3.977   6.302
19298SOL     OW77510   8.478   5.211   5.630
19298SOL    HW277511   8.505   5.289   5.582
19298SOL    HW377512   8.385   5.226   5.649
19298SOL    MW477513   8.469   5.224   5.626
19299SOL     OW77514   9.342   4.734   7.317
19299SOL    HW277515   9.255   4.714   7.353
19299SOL    HW377516   9.396   4.660   7.342
19299SOL    MW477517   9.337   4.723   7.325
19300SOL     OW77518   7.563   5.247   6.474
19300SOL    HW277519   7.595   5.251   6.565
19300SOL    HW377520   7.468   5.255   6.482
19300SOL    MW477521   7.555   5.250   6.487
19301SOL     OW77522   7.518   4.373   6.021
19301SOL    HW277523   7.458   4.345   6.091
19301SOL    HW377524   7.592   4.313   6.027
19301SOL    MW477525   7.520   4.362   6.030
19302SOL     OW77526   9.086   5.585   7.455
19302SOL    HW277527   9.131   5.509   7.420
19302SOL    HW377528   9.124   5.598   7.542
19302SOL    MW477529   9.096   5.578   7.461
19303SOL     OW77530   8.686   5.104   6.181
19303SOL    HW277531   8.709   5.055   6.259
19303SOL    HW377532   8.767   5.146   6.153
19303SOL    MW477533   8.699   5.104   6.188
19304SOL     OW77534   7.944   4.112   6.910
19304SOL    HW277535   7.977   4.193   6.950
19304SOL    HW377536   7.917   4.138   6.822
19304SOL    MW477537   7.943   4.126   6.904
19305SOL     OW77538   7.898   4.079   6.646
19305SOL    HW277539   7.928   3.993   6.617
19305SOL    HW377540   7.803   4.072   6.649
19305SOL    MW477541   7.890   4.068   6.644
19306SOL     OW77542   8.727   4.288   7.337
19306SOL    HW277543   8.779   4.223   7.290
19306SOL    HW377544   8.685   4.339   7.267
19306SOL    MW477545   8.728   4.285   7.320
19307SOL     OW77546   8.826   4.083   7.198
19307SOL    HW277547   8.733   4.067   7.185
19307SOL    HW377548   8.852   4.021   7.266
19307SOL    MW477549   8.816   4.073   7.205
19308SOL     OW77550   8.041   3.857   6.537
19308SOL    HW277551   8.051   3.766   6.563
19308SOL    HW377552   7.997   3.853   6.452
19308SOL    MW477553   8.037   3.845   6.529
19309SOL     OW77554   8.135   5.472   7.083
19309SOL    HW277555   8.052   5.457   7.128
19309SOL    HW377556   8.194   5.405   7.118
19309SOL    MW477557   8.133   5.462   7.093
19310SOL     OW77558   9.192   4.179   6.708
19310SOL    HW277559   9.125   4.212   6.768
19310SOL    HW377560   9.235   4.257   6.674
19310SOL    MW477561   9.190   4.194   6.712
19311SOL     OW77562   9.370   4.899   6.678
19311SOL    HW277563   9.363   4.839   6.603
19311SOL    HW377564   9.296   4.959   6.667
19311SOL    MW477565   9.360   4.899   6.667
19312SOL     OW77566   8.752   4.761   6.596
19312SOL    HW277567   8.766   4.733   6.687
19312SOL    HW377568   8.838   4.792   6.568
19312SOL    MW477569   8.765   4.762   6.605
19313SOL     OW77570   8.835   4.256   6.875
19313SOL    HW277571   8.856   4.257   6.782
19313SOL    HW377572   8.880   4.178   6.908
19313SOL    MW477573   8.842   4.246   6.867
19314SOL     OW77574   9.328   4.387   7.417
19314SOL    HW277575   9.365   4.332   7.486
19314SOL    HW377576   9.353   4.344   7.335
19314SOL    MW477577   9.335   4.375   7.416
19315SOL     OW77578   8.875   4.685   7.468
19315SOL    HW277579   8.941   4.633   7.422
19315SOL    HW377580   8.895   4.672   7.561
19315SOL    MW477581   8.886   4.676   7.475
19316SOL     OW77582   8.826   3.771   5.817
19316SOL    HW277583   8.900   3.815   5.860
19316SOL    HW377584   8.750   3.825   5.839
19316SOL    MW477585   8.826   3.783   5.825
19317SOL     OW77586   8.886   4.546   6.095
19317SOL    HW277587   8.801   4.516   6.065
19317SOL    HW377588   8.878   4.553   6.190
19317SOL    MW477589   8.874   4.544   6.104
19318SOL     OW77590   7.962   5.009   6.826
19318SOL    HW277591   7.974   5.036   6.917
19318SOL    HW377592   7.943   5.090   6.779
19318SOL    MW477593   7.961   5.024   6.831
19319SOL     OW77594   8.246   3.989   6.649
19319SOL    HW277595   8.219   3.991   6.740
19319SOL    HW377596   8.176   3.941   6.604
19319SOL    MW477597   8.234   3.985   6.656
19320SOL     OW77598   8.100   5.481   6.811
19320SOL    HW277599   8.152   5.558   6.788
19320SOL    HW377600   8.109   5.473   6.906
19320SOL    MW477601   8.109   5.488   6.822
19321SOL     OW77602   9.002   5.066   7.043
19321SOL    HW277603   8.987   4.995   7.106
19321SOL    HW377604   9.048   5.024   6.971
19321SOL    MW477605   9.008   5.050   7.043
19322SOL     OW77606   8.076   4.797   7.160
19322SOL    HW277607   8.113   4.802   7.072
19322SOL    HW377608   8.115   4.870   7.207
19322SOL    MW477609   8.086   4.807   7.155
19323SOL     OW77610   8.256   4.840   6.972
19323SOL    HW277611   8.315   4.786   7.025
19323SOL    HW377612   8.271   4.812   6.882
19323SOL    MW477613   8.266   4.829   6.968
19324SOL     OW77614   8.259   4.212   5.821
19324SOL    HW277615   8.332   4.261   5.784
19324SOL    HW377616   8.275   4.121   5.795
19324SOL    MW477617   8.271   4.207   5.814
19325SOL     OW77618   9.067   5.329   7.144
19325SOL    HW277619   9.109   5.314   7.229
19325SOL    HW377620   9.058   5.242   7.106
19325SOL    MW477621   9.071   5.317   7.151
19326SOL     OW77622   8.727   3.808   6.735
19326SOL    HW277623   8.782   3.817   6.657
19326SOL    HW377624   8.782   3.842   6.806
19326SOL    MW477625   8.741   3.813   6.734
19327SOL     OW77626   7.734   4.721   5.919
19327SOL    HW277627   7.671   4.737   5.848
19327SOL    HW377628   7.681   4.684   5.990
19327SOL    MW477629   7.719   4.718   5.919
19328SOL     OW77630   8.090   5.075   5.778
19328SOL    HW277631   8.105   5.051   5.870
19328SOL    HW377632   7.998   5.053   5.762
19328SOL    MW477633   8.080   5.068   5.788
19329SOL     OW77634   8.629   5.306   5.930
19329SOL    HW277635   8.637   5.224   5.881
19329SOL    HW377636   8.548   5.345   5.897
19329SOL    MW477637   8.619   5.301   5.920
19330SOL     OW77638   7.888   5.464   6.499
19330SOL    HW277639   7.892   5.375   6.534
19330SOL    HW377640   7.914   5.455   6.408
19330SOL    MW477641   7.891   5.452   6.491
19331SOL     OW77642   8.505   4.942   6.742
19331SOL    HW277643   8.437   4.876   6.758
19331SOL    HW377644   8.523   4.936   6.649
19331SOL    MW477645   8.498   4.933   6.733
19332SOL     OW77646   7.594   5.217   6.993
19332SOL    HW277647   7.584   5.175   7.079
19332SOL    HW377648   7.515   5.270   6.983
19332SOL    MW477649   7.583   5.218   7.004
19333SOL     OW77650   8.498   4.081   6.563
19333SOL    HW277651   8.428   4.033   6.608
19333SOL    HW377652   8.530   4.144   6.627
19333SOL    MW477653   8.493   4.083   6.577
19334SOL     OW77654   8.149   4.517   7.183
19334SOL    HW277655   8.142   4.612   7.171
19334SOL    HW377656   8.158   4.506   7.278
19334SOL    MW477657   8.150   4.529   7.193
19335SOL     OW77658   7.870   5.032   7.441
19335SOL    HW277659   7.942   5.034   7.378
19335SOL    HW377660   7.840   4.941   7.440
19335SOL    MW477661   7.875   5.021   7.433
19336SOL     OW77662   8.954   3.795   6.908
19336SOL    HW277663   9.025   3.741   6.872
19336SOL    HW377664   8.953   3.774   7.001
19336SOL    MW477665   8.963   3.786   6.916
19337SOL     OW77666   9.154   5.325   7.392
19337SOL    HW277667   9.127   5.322   7.483
19337SOL    HW377668   9.250   5.329   7.395
19337SOL    MW477669   9.164   5.325   7.404
19338SOL     OW77670   7.965   4.187   6.376
19338SOL    HW277671   8.036   4.135   6.339
19338SOL    HW377672   7.951   4.152   6.463
19338SOL    MW477673   7.973   4.176   6.383
19339SOL     OW77674   7.520   5.522   7.448
19339SOL    HW277675   7.570   5.500   7.370
19339SOL    HW377676   7.528   5.617   7.456
19339SOL    MW477677   7.528   5.531   7.439
19340SOL     OW77678   8.281   5.280   6.452
19340SOL    HW277679   8.209   5.217   6.465
19340SOL    HW377680   8.242   5.365   6.470
19340SOL    MW477681   8.265   5.283   6.455
19341SOL     OW77682   8.601   4.128   6.100
19341SOL    HW277683   8.623   4.065   6.032
19341SOL    HW377684   8.506   4.120   6.111
19341SOL    MW477685   8.591   4.119   6.092
19342SOL     OW77686   7.686   3.818   6.032
19342SOL    HW277687   7.757   3.839   5.971
19342SOL    HW377688   7.640   3.746   5.990
19342SOL    MW477689   7.690   3.812   6.018
19343SOL     OW77690   7.517   4.285   7.175
19343SOL    HW277691   7.581   4.351   7.150
19343SOL    HW377692   7.436   4.312   7.132
19343SOL    MW477693   7.515   4.297   7.167
19344SOL     OW77694   9.255   5.192   6.132
19344SOL    HW277695   9.225   5.125   6.193
19344SOL    HW377696   9.349   5.198   6.146
19344SOL    MW477697   9.263   5.184   6.142
19345SOL     OW77698   8.811   4.869   6.062
19345SOL    HW277699   8.783   4.955   6.095
19345SOL    HW377700   8.839   4.885   5.972
19345SOL    MW477701   8.811   4.883   6.054
19346SOL     OW77702   8.473   3.789   6.115
19346SOL    HW277703   8.510   3.848   6.180
19346SOL    HW377704   8.450   3.845   6.041
19346SOL    MW477705   8.474   3.804   6.114
19347SOL     OW77706   9.326   4.671   6.537
19347SOL    HW277707   9.317   4.703   6.448
19347SOL    HW377708   9.279   4.587   6.537
19347SOL    MW477709   9.319   4.664   6.527
19348SOL     OW77710   7.702   4.511   7.116
19348SOL    HW277711   7.723   4.580   7.054
19348SOL    HW377712   7.782   4.458   7.121
19348SOL    MW477713   7.715   4.512   7.110
19349SOL     OW77714   9.238   4.602   6.238
19349SOL    HW277715   9.332   4.591   6.226
19349SOL    HW377716   9.214   4.674   6.179
19349SOL    MW477717   9.248   4.610   6.229
19350SOL     OW77718   7.687   4.526   7.383
19350SOL    HW277719   7.613   4.470   7.409
19350SOL    HW377720   7.682   4.529   7.288
19350SOL    MW477721   7.676   4.519   7.373
19351SOL     OW77722   7.853   3.813   6.833
19351SOL    HW277723   7.896   3.897   6.853
19351SOL    HW377724   7.926   3.751   6.826
19351SOL    MW477725   7.868   3.816   6.834
19352SOL     OW77726   7.894   4.480   6.011
19352SOL    HW277727   7.894   4.575   5.996
19352SOL    HW377728   7.971   4.464   6.065
19352SOL    MW477729   7.904   4.491   6.016
19353SOL     OW77730   8.670   4.339   7.075
19353SOL    HW277731   8.706   4.312   6.991
19353SOL    HW377732   8.583   4.373   7.054
19353SOL    MW477733   8.664   4.340   7.062
19354SOL     OW77734   7.653   4.211   6.300
19354SOL    HW277735   7.715   4.218   6.373
19354SOL    HW377736   7.653   4.118   6.277
19354SOL    MW477737   7.661   4.200   6.307
19355SOL     OW77738   9.200   5.551   5.832
19355SOL    HW277739   9.267   5.584   5.772
19355SOL    HW377740   9.157   5.630   5.866
19355SOL    MW477741   9.202   5.566   5.828
19356SOL     OW77742   8.335   4.472   6.784
19356SOL    HW277743   8.293   4.390   6.760
19356SOL    HW377744   8.336   4.471   6.880
19356SOL    MW477745   8.328   4.461   6.793
19357SOL     OW77746   9.006   5.605   7.183
19357SOL    HW277747   9.009   5.511   7.166
19357SOL    HW377748   9.029   5.613   7.275
19357SOL    MW477749   9.009   5.593   7.193
19358SOL     OW77750   8.139   3.942   6.889
19358SOL    HW277751   8.070   4.005   6.910
19358SOL    HW377752   8.166   3.906   6.974
19358SOL    MW477753   8.133   3.945   6.902
19359SOL     OW77754   7.522   4.783   5.758
19359SOL    HW277755   7.491   4.848   5.821
19359SOL    HW377756   7.471   4.705   5.777
19359SOL    MW477757   7.512   4.780   5.768
19360SOL     OW77758   8.934   3.795   6.506
19360SOL    HW277759   9.022   3.804   6.543
19360SOL    HW377760   8.944   3.736   6.432
19360SOL    MW477761   8.948   3.789   6.500
19361SOL     OW77762   8.966   4.534   6.350
19361SOL    HW277763   9.046   4.549   6.299
19361SOL    HW377764   8.959   4.439   6.356
19361SOL    MW477765   8.975   4.523   6.345
19362SOL     OW77766   8.106   5.583   5.700
19362SOL    HW277767   8.011   5.583   5.692
19362SOL    HW377768   8.122   5.529   5.778
19362SOL    MW477769   8.096   5.577   5.709
19363SOL     OW77770   8.416   4.460   7.047
19363SOL    HW277771   8.485   4.527   7.044
19363SOL    HW377772   8.349   4.498   7.103
19363SOL    MW477773   8.417   4.473   7.054
19364SOL     OW77774   7.834   4.760   7.295
19364SOL    HW277775   7.788   4.676   7.297
19364SOL    HW377776   7.891   4.754   7.219
19364SOL    MW477777   7.836   4.748   7.287
19365SOL     OW77778   8.951   4.403   5.615
19365SOL    HW277779   8.879   4.379   5.557
19365SOL    HW377780   9.017   4.440   5.557
19365SOL    MW477781   8.950   4.405   5.600
19366SOL     OW77782   8.085   5.135   6.296
19366SOL    HW277783   8.150   5.068   6.317
19366SOL    HW377784   8.137   5.212   6.273
19366SOL    MW477785   8.100   5.137   6.295
19367SOL     OW77786   8.346   4.300   6.426
19367SOL    HW277787   8.286   4.318   6.498
19367SOL    HW377788   8.380   4.212   6.445
19367SOL    MW477789   8.342   4.290   6.439
19368SOL     OW77790   9.287   3.799   7.095
19368SOL    HW277791   9.208   3.845   7.123
19368SOL    HW377792   9.322   3.853   7.024
19368SOL    MW477793   9.281   3.812   7.089
19369SOL     OW77794   8.571   4.883   6.445
19369SOL    HW277795   8.663   4.864   6.463
19369SOL    HW377796   8.544   4.813   6.385
19369SOL    MW477797   8.579   4.871   6.439
19370SOL     OW77798   8.364   4.703   5.800
19370SOL    HW277799   8.350   4.615   5.765
19370SOL    HW377800   8.315   4.760   5.741
19370SOL    MW477801   8.356   4.698   5.788
19371SOL     OW77802   8.845   5.121   6.541
19371SOL    HW277803   8.818   5.205   6.506
19371SOL    HW377804   8.805   5.116   6.628
19371SOL    MW477805   8.838   5.130   6.547
19372SOL     OW77806   8.764   5.069   6.809
19372SOL    HW277807   8.775   5.036   6.898
19372SOL    HW377808   8.683   5.028   6.778
19372SOL    MW477809   8.754   5.061   6.815
19373SOL     OW77810   7.777   4.427   6.579
19373SOL    HW277811   7.727   4.426   6.660
19373SOL    HW377812   7.797   4.519   6.563
19373SOL    MW477813   7.773   4.439   6.587
19374SOL     OW77814   8.844   5.191   7.341
19374SOL    HW277815   8.844   5.285   7.357
19374SOL    HW377816   8.889   5.181   7.257
19374SOL    MW477817   8.850   5.201   7.332
19375SOL     OW77818   9.083   3.909   5.902
19375SOL    HW277819   9.076   3.913   5.997
19375SOL    HW377820   9.095   4.000   5.875
19375SOL    MW477821   9.084   3.922   5.910
19376SOL     OW77822   8.372   4.472   6.016
19376SOL    HW277823   8.352   4.458   5.923
19376SOL    HW377824   8.465   4.451   6.023
19376SOL    MW477825   8.382   4.467   6.005
19377SOL     OW77826   7.699   4.095   7.320
19377SOL    HW277827   7.656   4.154   7.257
19377SOL    HW377828   7.767   4.150   7.360
19377SOL    MW477829   7.703   4.110   7.317
19378SOL     OW77830   8.811   4.715   6.865
19378SOL    HW277831   8.874   4.712   6.938
19378SOL    HW377832   8.727   4.733   6.907
19378SOL    MW477833   8.807   4.717   6.880
19379SOL     OW77834   8.355   5.430   6.054
19379SOL    HW277835   8.413   5.501   6.081
19379SOL    HW377836   8.378   5.358   6.112
19379SOL    MW477837   8.366   5.430   6.065
19380SOL     OW77838   9.150   3.892   6.644
19380SOL    HW277839   9.195   3.810   6.663
19380SOL    HW377840   9.170   3.948   6.720
19380SOL    MW477841   9.160   3.888   6.656
19381SOL     OW77842   7.598   3.735   6.743
19381SOL    HW277843   7.589   3.736   6.648
19381SOL    HW377844   7.692   3.747   6.758
19381SOL    MW477845   7.610   3.738   6.734
19382SOL     OW77846   9.235   4.928   6.363
19382SOL    HW277847   9.214   4.874   6.286
19382SOL    HW377848   9.331   4.926   6.367
19382SOL    MW477849   9.244   4.921   6.352
19383SOL     OW77850   7.927   5.073   7.106
19383SOL    HW277851   7.848   5.023   7.129
19383SOL    HW377852   7.997   5.032   7.156
19383SOL    MW477853   7.925   5.061   7.116
19384SOL     OW77854   7.811   3.862   5.789
19384SOL    HW277855   7.740   3.917   5.757
19384SOL    HW377856   7.853   3.828   5.710
19384SOL    MW477857   7.807   3.864   5.775
19385SOL     OW77858   8.935   4.359   6.625
19385SOL    HW277859   8.858   4.405   6.591
19385SOL    HW377860   8.992   4.428   6.659
19385SOL    MW477861   8.932   4.374   6.625
19386SOL     OW77862   7.567   3.961   5.638
19386SOL    HW277863   7.534   4.040   5.682
19386SOL    HW377864   7.622   3.994   5.567
19386SOL    MW477865   7.570   3.975   5.635
19387SOL     OW77866   7.601   5.218   5.827
19387SOL    HW277867   7.618   5.302   5.869
19387SOL    HW377868   7.636   5.227   5.739
19387SOL    MW477869   7.606   5.231   5.821
19388SOL     OW77870   8.873   5.307   6.044
19388SOL    HW277871   8.936   5.297   5.973
19388SOL    HW377872   8.790   5.327   5.999
19388SOL    MW477873   8.870   5.308   6.029
19389SOL     OW77874   9.102   6.376   1.252
19389SOL    HW277875   9.057   6.443   1.303
19389SOL    HW377876   9.190   6.412   1.238
19389SOL    MW477877   9.108   6.389   1.256
19390SOL     OW77878   8.030   6.627   0.486
19390SOL    HW277879   8.120   6.602   0.470
19390SOL    HW377880   8.026   6.720   0.463
19390SOL    MW477881   8.042   6.636   0.481
19391SOL     OW77882   9.146   7.330   0.628
19391SOL    HW277883   9.158   7.276   0.706
19391SOL    HW377884   9.183   7.278   0.557
19391SOL    MW477885   9.152   7.315   0.629
19392SOL     OW77886   8.525   7.215   1.629
19392SOL    HW277887   8.566   7.251   1.550
19392SOL    HW377888   8.560   7.126   1.636
19392SOL    MW477889   8.536   7.208   1.620
19393SOL     OW77890   9.082   6.770   1.233
19393SOL    HW277891   9.003   6.735   1.191
19393SOL    HW377892   9.109   6.842   1.177
19393SOL    MW477893   9.075   6.775   1.220
19394SOL     OW77894   8.314   6.083   0.499
19394SOL    HW277895   8.289   6.171   0.527
19394SOL    HW377896   8.311   6.086   0.403
19394SOL    MW477897   8.310   6.095   0.491
19395SOL     OW77898   7.756   6.111   0.427
19395SOL    HW277899   7.788   6.199   0.409
19395SOL    HW377900   7.744   6.109   0.522
19395SOL    MW477901   7.759   6.123   0.439
19396SOL     OW77902   7.834   6.524   1.328
19396SOL    HW277903   7.897   6.471   1.279
19396SOL    HW377904   7.815   6.598   1.271
19396SOL    MW477905   7.840   6.526   1.315
19397SOL     OW77906   8.155   5.866   0.514
19397SOL    HW277907   8.213   5.942   0.516
19397SOL    HW377908   8.090   5.887   0.447
19397SOL    MW477909   8.154   5.878   0.505
19398SOL     OW77910   8.242   6.793   0.689
19398SOL    HW277911   8.322   6.796   0.741
19398SOL    HW377912   8.270   6.760   0.603
19398SOL    MW477913   8.256   6.789   0.684
19399SOL     OW77914   8.267   7.134   1.592
19399SOL    HW277915   8.351   7.160   1.631
19399SOL    HW377916   8.291   7.078   1.518
19399SOL    MW477917   8.281   7.130   1.587
19400SOL     OW77918   8.019   6.297   0.680
19400SOL    HW277919   8.004   6.217   0.731
19400SOL    HW377920   8.101   6.332   0.714
19400SOL    MW477921   8.027   6.289   0.692
19401SOL     OW77922   8.356   6.983   1.365
19401SOL    HW277923   8.320   7.049   1.305
19401SOL    HW377924   8.284   6.921   1.378
19401SOL    MW477925   8.342   6.983   1.359
19402SOL     OW77926   8.161   6.123   1.057
19402SOL    HW277927   8.067   6.119   1.075
19402SOL    HW377928   8.191   6.032   1.066
19402SOL    MW477929   8.152   6.111   1.060
19403SOL     OW77930   7.907   6.537   0.961
19403SOL    HW277931   7.862   6.544   0.877
19403SOL    HW377932   7.887   6.620   1.005
19403SOL    MW477933   7.899   6.549   0.955
19404SOL     OW77934   7.604   7.383   0.836
19404SOL    HW277935   7.693   7.375   0.871
19404SOL    HW377936   7.568   7.295   0.841
19404SOL    MW477937   7.611   7.370   0.841
19405SOL     OW77938   7.868   6.910   0.871
19405SOL    HW277939   7.844   6.963   0.947
19405SOL    HW377940   7.924   6.968   0.819
19405SOL    MW477941   7.872   6.925   0.874
19406SOL     OW77942   8.430   6.554   0.681
19406SOL    HW277943   8.344   6.541   0.721
19406SOL    HW377944   8.483   6.481   0.713
19406SOL    MW477945   8.426   6.543   0.690
19407SOL     OW77946   7.838   7.206   1.466
19407SOL    HW277947   7.746   7.182   1.451
19407SOL    HW377948   7.882   7.123   1.483
19407SOL    MW477949   7.832   7.191   1.465
19408SOL     OW77950   9.294   5.917   0.854
19408SOL    HW277951   9.231   5.897   0.923
19408SOL    HW377952   9.284   5.846   0.791
19408SOL    MW477953   9.284   5.904   0.855
19409SOL     OW77954   7.918   5.889   0.366
19409SOL    HW277955   7.892   5.851   0.282
19409SOL    HW377956   7.855   5.959   0.382
19409SOL    MW477957   7.907   5.892   0.357
19410SOL     OW77958   7.753   6.850   0.403
19410SOL    HW277959   7.701   6.918   0.359
19410SOL    HW377960   7.750   6.776   0.343
19410SOL    MW477961   7.745   6.849   0.390
19411SOL     OW77962   9.095   6.689   0.506
19411SOL    HW277963   9.005   6.689   0.541
19411SOL    HW377964   9.088   6.735   0.423
19411SOL    MW477965   9.082   6.695   0.500
19412SOL     OW77966   8.895   6.324   1.578
19412SOL    HW277967   8.964   6.262   1.555
19412SOL    HW377968   8.820   6.298   1.525
19412SOL    MW477969   8.895   6.311   1.569
19413SOL     OW77970   7.636   7.204   1.130
19413SOL    HW277971   7.619   7.150   1.207
19413SOL    HW377972   7.624   7.294   1.160
19413SOL    MW477973   7.633   7.208   1.144
19414SOL     OW77974   8.631   6.711   1.570
19414SOL    HW277975   8.616   6.804   1.555
19414SOL    HW377976   8.726   6.701   1.570
19414SOL    MW477977   8.640   6.721   1.567
19415SOL     OW77978   8.427   6.135   1.771
19415SOL    HW277979   8.517   6.136   1.738
19415SOL    HW377980   8.386   6.060   1.729
19415SOL    MW477981   8.433   6.125   1.762
19416SOL     OW77982   9.002   6.667   0.898
19416SOL    HW277983   9.005   6.601   0.829
19416SOL    HW377984   9.087   6.710   0.894
19416SOL    MW477985   9.014   6.663   0.889
19417SOL     OW77986   8.622   6.270   0.467
19417SOL    HW277987   8.648   6.294   0.378
19417SOL    HW377988   8.604   6.177   0.463
19417SOL    MW477989   8.624   6.262   0.454
19418SOL     OW77990   8.207   5.939   1.721
19418SOL    HW277991   8.217   5.865   1.661
19418SOL    HW377992   8.243   5.908   1.804
19418SOL    MW477993   8.213   5.925   1.723
19419SOL     OW77994   7.943   7.306   0.636
19419SOL    HW277995   7.975   7.394   0.614
19419SOL    HW377996   7.896   7.278   0.558
19419SOL    MW477997   7.942   7.314   0.623
19420SOL     OW77998   9.327   5.668   0.685
19420SOL    HW277999   9.381   5.619   0.747
19420SOL    HW378000   9.270   5.602   0.646
19420SOL    MW478001   9.327   5.652   0.687
19421SOL     OW78002   8.446   5.621   1.098
19421SOL    HW278003   8.405   5.699   1.060
19421SOL    HW378004   8.540   5.639   1.093
19421SOL    MW478005   8.452   5.633   1.093
19422SOL     OW78006   9.075   6.225   0.464
19422SOL    HW278007   9.114   6.225   0.551
19422SOL    HW378008   9.016   6.301   0.464
19422SOL    MW478009   9.072   6.236   0.475
19423SOL     OW78010   8.392   6.592   1.593
19423SOL    HW278011   8.369   6.572   1.683
19423SOL    HW378012   8.477   6.636   1.598
19423SOL    MW478013   8.399   6.595   1.605
19424SOL     OW78014   8.472   5.729   1.353
19424SOL    HW278015   8.478   5.691   1.266
19424SOL    HW378016   8.461   5.823   1.338
19424SOL    MW478017   8.473   5.737   1.341
19425SOL     OW78018   8.561   6.218   1.187
19425SOL    HW278019   8.636   6.247   1.134
19425SOL    HW378020   8.493   6.283   1.171
19425SOL    MW478021   8.562   6.230   1.177
19426SOL     OW78022   9.111   6.186   1.464
19426SOL    HW278023   9.092   6.095   1.443
19426SOL    HW378024   9.089   6.235   1.385
19426SOL    MW478025   9.106   6.179   1.451
19427SOL     OW78026   9.253   7.280   1.368
19427SOL    HW278027   9.181   7.242   1.419
19427SOL    HW378028   9.270   7.365   1.409
19427SOL    MW478029   9.247   7.285   1.380
19428SOL     OW78030   8.558   5.924   1.570
19428SOL    HW278031   8.524   5.963   1.489
19428SOL    HW378032   8.536   5.832   1.563
19428SOL    MW478033   8.551   5.917   1.560
19429SOL     OW78034   8.967   6.738   1.646
19429SOL    HW278035   9.049   6.779   1.676
19429SOL    HW378036   8.930   6.700   1.726
19429SOL    MW478037   8.973   6.739   1.661
19430SOL     OW78038   9.262   6.111   0.630
19430SOL    HW278039   9.351   6.080   0.647
19430SOL    HW378040   9.205   6.051   0.678
19430SOL    MW478041   9.265   6.099   0.639
19431SOL     OW78042   7.688   5.825   0.659
19431SOL    HW278043   7.679   5.765   0.585
19431SOL    HW378044   7.621   5.796   0.722
19431SOL    MW478045   7.678   5.812   0.657
19432SOL     OW78046   7.635   5.998   1.022
19432SOL    HW278047   7.607   6.089   1.031
19432SOL    HW378048   7.572   5.959   0.961
19432SOL    MW478049   7.622   6.004   1.016
19433SOL     OW78050   8.094   7.336   0.328
19433SOL    HW278051   8.015   7.294   0.361
19433SOL    HW378052   8.160   7.319   0.395
19433SOL    MW478053   8.093   7.328   0.341
19434SOL     OW78054   9.222   6.856   1.725
19434SOL    HW278055   9.272   6.782   1.757
19434SOL    HW378056   9.168   6.883   1.800
19434SOL    MW478057   9.222   6.850   1.738
19435SOL     OW78058   9.356   6.491   1.227
19435SOL    HW278059   9.372   6.529   1.140
19435SOL    HW378060   9.390   6.557   1.288
19435SOL    MW478061   9.363   6.504   1.223
19436SOL     OW78062   9.148   7.200   0.896
19436SOL    HW278063   9.177   7.267   0.957
19436SOL    HW378064   9.129   7.124   0.951
19436SOL    MW478065   9.150   7.200   0.911
19437SOL     OW78066   8.811   7.267   0.103
19437SOL    HW278067   8.737   7.230   0.153
19437SOL    HW378068   8.819   7.357   0.136
19437SOL    MW478069   8.802   7.274   0.115
19438SOL     OW78070   7.619   6.273   1.192
19438SOL    HW278071   7.681   6.303   1.258
19438SOL    HW378072   7.553   6.342   1.186
19438SOL    MW478073   7.618   6.286   1.199
19439SOL     OW78074   7.714   7.382   1.644
19439SOL    HW278075   7.688   7.450   1.582
19439SOL    HW378076   7.762   7.319   1.592
19439SOL    MW478077   7.716   7.382   1.630
19440SOL     OW78078   7.766   6.701   1.151
19440SOL    HW278079   7.819   6.776   1.176
19440SOL    HW378080   7.685   6.739   1.117
19440SOL    MW478081   7.762   6.716   1.151
19441SOL     OW78082   8.306   6.605   1.139
19441SOL    HW278083   8.334   6.514   1.151
19441SOL    HW378084   8.235   6.599   1.075
19441SOL    MW478085   8.299   6.593   1.134
19442SOL     OW78086   7.621   6.470   0.557
19442SOL    HW278087   7.712   6.485   0.584
19442SOL    HW378088   7.624   6.391   0.503
19442SOL    MW478089   7.633   6.462   0.555
19443SOL     OW78090   7.857   6.178   1.811
19443SOL    HW278091   7.804   6.258   1.818
19443SOL    HW378092   7.927   6.190   1.876
19443SOL    MW478093   7.859   6.191   1.819
19444SOL     OW78094   8.243   5.728   1.518
19444SOL    HW278095   8.220   5.636   1.520
19444SOL    HW378096   8.329   5.730   1.475
19444SOL    MW478097   8.250   5.718   1.514
19445SOL     OW78098   7.927   6.252   1.557
19445SOL    HW278099   8.007   6.302   1.543
19445SOL    HW378100   7.918   6.246   1.652
19445SOL    MW478101   7.936   6.258   1.567
19446SOL     OW78102   8.248   7.402   0.931
19446SOL    HW278103   8.337   7.417   0.961
19446SOL    HW378104   8.243   7.449   0.847
19446SOL    MW478105   8.258   7.410   0.924
19447SOL     OW78106   8.904   5.777   1.828
19447SOL    HW278107   8.960   5.704   1.854
19447SOL    HW378108   8.874   5.815   1.910
19447SOL    MW478109   8.908   5.772   1.841
19448SOL     OW78110   7.629   7.082   0.596
19448SOL    HW278111   7.601   7.121   0.678
19448SOL    HW378112   7.649   6.991   0.618
19448SOL    MW478113   7.627   7.074   0.609
19449SOL     OW78114   8.462   7.125   0.631
19449SOL    HW278115   8.545   7.079   0.615
19449SOL    HW378116   8.452   7.124   0.727
19449SOL    MW478117   8.472   7.118   0.641
19450SOL     OW78118   9.294   6.270   0.945
19450SOL    HW278119   9.383   6.300   0.927
19450SOL    HW378120   9.274   6.210   0.874
19450SOL    MW478121   9.303   6.267   0.934
19451SOL     OW78122   9.145   6.449   1.825
19451SOL    HW278123   9.200   6.373   1.806
19451SOL    HW378124   9.147   6.457   1.920
19451SOL    MW478125   9.153   6.440   1.833
19452SOL     OW78126   8.440   6.011   1.344
19452SOL    HW278127   8.359   6.052   1.372
19452SOL    HW378128   8.487   6.079   1.296
19452SOL    MW478129   8.435   6.026   1.342
19453SOL     OW78130   8.700   6.349   0.967
19453SOL    HW278131   8.713   6.443   0.977
19453SOL    HW378132   8.661   6.339   0.881
19453SOL    MW478133   8.696   6.360   0.957
19454SOL     OW78134   8.152   6.544   0.771
19454SOL    HW278135   8.063   6.535   0.804
19454SOL    HW378136   8.156   6.634   0.739
19454SOL    MW478137   8.141   6.555   0.771
19455SOL     OW78138   8.951   6.127   0.766
19455SOL    HW278139   8.896   6.048   0.765
19455SOL    HW378140   8.933   6.168   0.850
19455SOL    MW478141   8.941   6.122   0.775
19456SOL     OW78142   7.922   5.814   1.583
19456SOL    HW278143   7.843   5.832   1.635
19456SOL    HW378144   7.917   5.876   1.510
19456SOL    MW478145   7.912   5.824   1.580
19457SOL     OW78146   8.570   6.331   0.723
19457SOL    HW278147   8.507   6.263   0.747
19457SOL    HW378148   8.590   6.312   0.631
19457SOL    MW478149   8.564   6.318   0.715
19458SOL     OW78150   8.318   6.635   0.449
19458SOL    HW278151   8.320   6.609   0.356
19458SOL    HW378152   8.376   6.572   0.492
19458SOL    MW478153   8.326   6.624   0.443
19459SOL     OW78154   8.871   7.195   1.221
19459SOL    HW278155   8.796   7.241   1.259
19459SOL    HW378156   8.853   7.102   1.238
19459SOL    MW478157   8.860   7.189   1.229
19460SOL     OW78158   8.875   7.403   0.651
19460SOL    HW278159   8.818   7.356   0.590
19460SOL    HW378160   8.961   7.364   0.638
19460SOL    MW478161   8.878   7.394   0.641
19461SOL     OW78162   8.828   5.879   0.782
19461SOL    HW278163   8.856   5.811   0.843
19461SOL    HW378164   8.742   5.850   0.752
19461SOL    MW478165   8.821   5.866   0.786
19462SOL     OW78166   7.633   6.813   0.716
19462SOL    HW278167   7.697   6.845   0.779
19462SOL    HW378168   7.682   6.749   0.664
19462SOL    MW478169   7.648   6.809   0.717
19463SOL     OW78170   8.133   6.889   1.698
19463SOL    HW278171   8.181   6.972   1.685
19463SOL    HW378172   8.190   6.837   1.754
19463SOL    MW478173   8.147   6.893   1.704
19464SOL     OW78174   7.709   7.131   1.838
19464SOL    HW278175   7.765   7.055   1.853
19464SOL    HW378176   7.658   7.109   1.760
19464SOL    MW478177   7.709   7.118   1.829
19465SOL     OW78178   8.594   6.968   1.447
19465SOL    HW278179   8.505   6.974   1.415
19465SOL    HW378180   8.638   7.047   1.415
19465SOL    MW478181   8.589   6.978   1.439
19466SOL     OW78182   7.887   5.636   1.789
19466SOL    HW278183   7.815   5.601   1.737
19466SOL    HW378184   7.945   5.677   1.724
19466SOL    MW478185   7.885   5.637   1.774
19467SOL     OW78186   7.911   7.126   1.088
19467SOL    HW278187   7.956   7.188   1.145
19467SOL    HW378188   7.818   7.145   1.101
19467SOL    MW478189   7.904   7.136   1.095
19468SOL     OW78190   9.351   6.655   1.442
19468SOL    HW278191   9.266   6.668   1.401
19468SOL    HW378192   9.331   6.619   1.529
19468SOL    MW478193   9.338   6.651   1.447
19469SOL     OW78194   8.333   7.194   1.196
19469SOL    HW278195   8.357   7.183   1.105
19469SOL    HW378196   8.256   7.251   1.194
19469SOL    MW478197   8.325   7.199   1.185
19470SOL     OW78198   8.128   6.899   0.986
19470SOL    HW278199   8.121   6.878   1.080
19470SOL    HW378200   8.046   6.867   0.949
19470SOL    MW478201   8.116   6.893   0.993
19471SOL     OW78202   8.992   5.909   1.388
19471SOL    HW278203   8.939   5.911   1.468
19471SOL    HW378204   8.977   5.822   1.351
19471SOL    MW478205   8.984   5.899   1.393
19472SOL     OW78206   9.328   5.833   1.261
19472SOL    HW278207   9.309   5.900   1.196
19472SOL    HW378208   9.385   5.771   1.216
19472SOL    MW478209   9.332   5.834   1.247
19473SOL     OW78210   7.574   6.991   1.649
19473SOL    HW278211   7.618   6.924   1.595
19473SOL    HW378212   7.489   6.953   1.669
19473SOL    MW478213   7.569   6.977   1.645
19474SOL     OW78214   8.257   5.666   0.701
19474SOL    HW278215   8.186   5.727   0.683
19474SOL    HW378216   8.308   5.663   0.620
19474SOL    MW478217   8.253   5.672   0.688
19475SOL     OW78218   8.610   7.299   1.359
19475SOL    HW278219   8.530   7.284   1.309
19475SOL    HW378220   8.617   7.394   1.366
19475SOL    MW478221   8.601   7.310   1.353
19476SOL     OW78222   8.724   7.264   0.849
19476SOL    HW278223   8.771   7.337   0.808
19476SOL    HW378224   8.645   7.303   0.885
19476SOL    MW478225   8.719   7.279   0.848
19477SOL     OW78226   9.132   7.359   1.124
19477SOL    HW278227   9.175   7.329   1.204
19477SOL    HW378228   9.051   7.307   1.121
19477SOL    MW478229   9.127   7.348   1.134
19478SOL     OW78230   8.217   6.323   1.831
19478SOL    HW278231   8.287   6.265   1.803
19478SOL    HW378232   8.160   6.268   1.886
19478SOL    MW478233   8.219   6.310   1.835
19479SOL     OW78234   9.004   6.535   1.464
19479SOL    HW278235   9.009   6.588   1.544
19479SOL    HW378236   8.966   6.452   1.492
19479SOL    MW478237   9.000   6.530   1.479
19480SOL     OW78238   8.644   5.670   1.710
19480SOL    HW278239   8.639   5.577   1.691
19480SOL    HW378240   8.727   5.681   1.756
19480SOL    MW478241   8.652   5.659   1.714
19481SOL     OW78242   9.114   6.941   0.986
19481SOL    HW278243   9.149   6.923   0.899
19481SOL    HW378244   9.019   6.942   0.973
19481SOL    MW478245   9.106   6.938   0.973
19482SOL     OW78246   8.543   6.589   1.355
19482SOL    HW278247   8.586   6.624   1.433
19482SOL    HW378248   8.526   6.666   1.301
19482SOL    MW478249   8.546   6.604   1.358
19483SOL     OW78250   7.934   5.731   0.657
19483SOL    HW278251   7.984   5.774   0.588
19483SOL    HW378252   7.849   5.775   0.657
19483SOL    MW478253   7.931   5.744   0.648
19484SOL     OW78254   7.693   6.793   1.517
19484SOL    HW278255   7.721   6.746   1.595
19484SOL    HW378256   7.614   6.748   1.488
19484SOL    MW478257   7.686   6.782   1.523
19485SOL     OW78258   8.201   6.120   1.484
19485SOL    HW278259   8.173   6.208   1.508
19485SOL    HW378260   8.170   6.064   1.555
19485SOL    MW478261   8.193   6.123   1.496
19486SOL     OW78262   8.743   6.338   0.203
19486SOL    HW278263   8.790   6.356   0.122
19486SOL    HW378264   8.709   6.422   0.231
19486SOL    MW478265   8.745   6.352   0.196
19487SOL     OW78266   7.856   6.516   0.697
19487SOL    HW278267   7.914   6.572   0.645
19487SOL    HW378268   7.900   6.431   0.699
19487SOL    MW478269   7.869   6.513   0.690
19488SOL     OW78270   8.996   5.868   0.534
19488SOL    HW278271   8.918   5.818   0.559
19488SOL    HW378272   8.967   5.959   0.534
19488SOL    MW478273   8.982   5.872   0.537
19489SOL     OW78274   8.582   5.830   0.693
19489SOL    HW278275   8.602   5.905   0.637
19489SOL    HW378276   8.562   5.869   0.778
19489SOL    MW478277   8.583   5.846   0.697
19490SOL     OW78278   8.478   7.080   0.025
19490SOL    HW278279   8.505   7.158  -0.023
19490SOL    HW378280   8.385   7.095   0.044
19490SOL    MW478281   8.469   7.093   0.021
19491SOL     OW78282   9.342   6.603   1.712
19491SOL    HW278283   9.255   6.583   1.748
19491SOL    HW378284   9.396   6.529   1.737
19491SOL    MW478285   9.337   6.592   1.720
19492SOL     OW78286   7.563   7.116   0.869
19492SOL    HW278287   7.595   7.120   0.960
19492SOL    HW378288   7.468   7.124   0.877
19492SOL    MW478289   7.555   7.119   0.882
19493SOL     OW78290   7.518   6.242   0.416
19493SOL    HW278291   7.458   6.214   0.486
19493SOL    HW378292   7.592   6.182   0.422
19493SOL    MW478293   7.520   6.231   0.425
19494SOL     OW78294   9.086   7.454   1.850
19494SOL    HW278295   9.131   7.378   1.815
19494SOL    HW378296   9.124   7.467   1.937
19494SOL    MW478297   9.096   7.447   1.856
19495SOL     OW78298   8.686   6.973   0.576
19495SOL    HW278299   8.709   6.924   0.654
19495SOL    HW378300   8.767   7.015   0.548
19495SOL    MW478301   8.699   6.973   0.583
19496SOL     OW78302   7.944   5.981   1.305
19496SOL    HW278303   7.977   6.062   1.345
19496SOL    HW378304   7.917   6.007   1.217
19496SOL    MW478305   7.943   5.995   1.299
19497SOL     OW78306   7.898   5.948   1.041
19497SOL    HW278307   7.928   5.862   1.012
19497SOL    HW378308   7.803   5.941   1.044
19497SOL    MW478309   7.890   5.937   1.039
19498SOL     OW78310   8.727   6.157   1.732
19498SOL    HW278311   8.779   6.092   1.685
19498SOL    HW378312   8.685   6.208   1.662
19498SOL    MW478313   8.728   6.154   1.715
19499SOL     OW78314   8.826   5.952   1.593
19499SOL    HW278315   8.733   5.936   1.580
19499SOL    HW378316   8.852   5.890   1.661
19499SOL    MW478317   8.816   5.942   1.600
19500SOL     OW78318   8.041   5.726   0.932
19500SOL    HW278319   8.051   5.635   0.958
19500SOL    HW378320   7.997   5.722   0.847
19500SOL    MW478321   8.037   5.714   0.924
19501SOL     OW78322   8.135   7.341   1.478
19501SOL    HW278323   8.052   7.326   1.523
19501SOL    HW378324   8.194   7.274   1.513
19501SOL    MW478325   8.133   7.331   1.488
19502SOL     OW78326   9.192   6.048   1.103
19502SOL    HW278327   9.125   6.081   1.163
19502SOL    HW378328   9.235   6.126   1.069
19502SOL    MW478329   9.190   6.063   1.107
19503SOL     OW78330   9.370   6.768   1.073
19503SOL    HW278331   9.363   6.708   0.998
19503SOL    HW378332   9.296   6.828   1.062
19503SOL    MW478333   9.360   6.768   1.062
19504SOL     OW78334   8.752   6.630   0.991
19504SOL    HW278335   8.766   6.602   1.082
19504SOL    HW378336   8.838   6.661   0.963
19504SOL    MW478337   8.765   6.631   1.000
19505SOL     OW78338   8.835   6.125   1.270
19505SOL    HW278339   8.856   6.126   1.177
19505SOL    HW378340   8.880   6.047   1.303
19505SOL    MW478341   8.842   6.115   1.262
19506SOL     OW78342   9.328   6.256   1.812
19506SOL    HW278343   9.365   6.201   1.881
19506SOL    HW378344   9.353   6.213   1.730
19506SOL    MW478345   9.335   6.244   1.811
19507SOL     OW78346   8.875   6.554   1.863
19507SOL    HW278347   8.941   6.502   1.817
19507SOL    HW378348   8.895   6.541   1.956
19507SOL    MW478349   8.886   6.545   1.870
19508SOL     OW78350   8.886   6.415   0.490
19508SOL    HW278351   8.801   6.385   0.460
19508SOL    HW378352   8.878   6.422   0.585
19508SOL    MW478353   8.874   6.413   0.499
19509SOL     OW78354   7.962   6.878   1.221
19509SOL    HW278355   7.974   6.905   1.312
19509SOL    HW378356   7.943   6.959   1.174
19509SOL    MW478357   7.961   6.893   1.226
19510SOL     OW78358   8.246   5.858   1.044
19510SOL    HW278359   8.219   5.860   1.135
19510SOL    HW378360   8.176   5.810   0.999
19510SOL    MW478361   8.234   5.854   1.051
19511SOL     OW78362   8.100   7.350   1.206
19511SOL    HW278363   8.152   7.427   1.183
19511SOL    HW378364   8.109   7.342   1.301
19511SOL    MW478365   8.109   7.357   1.217
19512SOL     OW78366   9.002   6.935   1.438
19512SOL    HW278367   8.987   6.864   1.501
19512SOL    HW378368   9.048   6.893   1.366
19512SOL    MW478369   9.008   6.919   1.438
19513SOL     OW78370   8.076   6.666   1.555
19513SOL    HW278371   8.113   6.671   1.467
19513SOL    HW378372   8.115   6.739   1.602
19513SOL    MW478373   8.086   6.676   1.550
19514SOL     OW78374   8.256   6.709   1.367
19514SOL    HW278375   8.315   6.655   1.420
19514SOL    HW378376   8.271   6.681   1.277
19514SOL    MW478377   8.266   6.698   1.363
19515SOL     OW78378   9.067   7.198   1.539
19515SOL    HW278379   9.109   7.183   1.624
19515SOL    HW378380   9.058   7.111   1.501
19515SOL    MW478381   9.071   7.186   1.546
19516SOL     OW78382   8.727   5.677   1.130
19516SOL    HW278383   8.782   5.686   1.052
19516SOL    HW378384   8.782   5.711   1.201
19516SOL    MW478385   8.741   5.682   1.129
19517SOL     OW78386   7.734   6.590   0.314
19517SOL    HW278387   7.671   6.606   0.243
19517SOL    HW378388   7.681   6.553   0.385
19517SOL    MW478389   7.719   6.587   0.314
19518SOL     OW78390   7.888   7.333   0.894
19518SOL    HW278391   7.892   7.244   0.929
19518SOL    HW378392   7.914   7.324   0.803
19518SOL    MW478393   7.891   7.321   0.886
19519SOL     OW78394   8.505   6.811   1.137
19519SOL    HW278395   8.437   6.745   1.153
19519SOL    HW378396   8.523   6.805   1.044
19519SOL    MW478397   8.498   6.802   1.128
19520SOL     OW78398   7.594   7.086   1.388
19520SOL    HW278399   7.584   7.044   1.474
19520SOL    HW378400   7.515   7.139   1.378
19520SOL    MW478401   7.583   7.087   1.399
19521SOL     OW78402   8.498   5.950   0.958
19521SOL    HW278403   8.428   5.902   1.003
19521SOL    HW378404   8.530   6.013   1.022
19521SOL    MW478405   8.493   5.952   0.972
19522SOL     OW78406   8.149   6.386   1.578
19522SOL    HW278407   8.142   6.481   1.566
19522SOL    HW378408   8.158   6.375   1.673
19522SOL    MW478409   8.150   6.398   1.588
19523SOL     OW78410   7.870   6.901   1.836
19523SOL    HW278411   7.942   6.903   1.773
19523SOL    HW378412   7.840   6.810   1.835
19523SOL    MW478413   7.875   6.890   1.828
19524SOL     OW78414   8.954   5.664   1.303
19524SOL    HW278415   9.025   5.610   1.267
19524SOL    HW378416   8.953   5.643   1.396
19524SOL    MW478417   8.963   5.655   1.311
19525SOL     OW78418   9.154   7.194   1.787
19525SOL    HW278419   9.127   7.191   1.878
19525SOL    HW378420   9.250   7.198   1.790
19525SOL    MW478421   9.164   7.194   1.799
19526SOL     OW78422   7.965   6.056   0.771
19526SOL    HW278423   8.036   6.004   0.734
19526SOL    HW378424   7.951   6.021   0.858
19526SOL    MW478425   7.973   6.045   0.778
19527SOL     OW78426   7.520   7.391   1.843
19527SOL    HW278427   7.570   7.369   1.765
19527SOL    HW378428   7.528   7.486   1.851
19527SOL    MW478429   7.528   7.400   1.834
19528SOL     OW78430   8.281   7.149   0.847
19528SOL    HW278431   8.209   7.086   0.860
19528SOL    HW378432   8.242   7.234   0.865
19528SOL    MW478433   8.265   7.152   0.850
19529SOL     OW78434   8.601   5.997   0.495
19529SOL    HW278435   8.623   5.934   0.427
19529SOL    HW378436   8.506   5.989   0.506
19529SOL    MW478437   8.591   5.988   0.487
19530SOL     OW78438   7.517   6.154   1.570
19530SOL    HW278439   7.581   6.220   1.545
19530SOL    HW378440   7.436   6.181   1.527
19530SOL    MW478441   7.515   6.166   1.562
19531SOL     OW78442   9.255   7.061   0.527
19531SOL    HW278443   9.225   6.994   0.588
19531SOL    HW378444   9.349   7.067   0.541
19531SOL    MW478445   9.263   7.053   0.537
19532SOL     OW78446   8.473   5.658   0.510
19532SOL    HW278447   8.510   5.717   0.575
19532SOL    HW378448   8.450   5.714   0.436
19532SOL    MW478449   8.474   5.673   0.509
19533SOL     OW78450   9.326   6.540   0.932
19533SOL    HW278451   9.317   6.572   0.843
19533SOL    HW378452   9.279   6.456   0.932
19533SOL    MW478453   9.319   6.533   0.922
19534SOL     OW78454   7.702   6.380   1.511
19534SOL    HW278455   7.723   6.449   1.449
19534SOL    HW378456   7.782   6.327   1.516
19534SOL    MW478457   7.715   6.381   1.505
19535SOL     OW78458   9.238   6.471   0.633
19535SOL    HW278459   9.332   6.460   0.621
19535SOL    HW378460   9.214   6.543   0.574
19535SOL    MW478461   9.248   6.479   0.624
19536SOL     OW78462   7.687   6.395   1.778
19536SOL    HW278463   7.613   6.339   1.804
19536SOL    HW378464   7.682   6.398   1.683
19536SOL    MW478465   7.676   6.388   1.768
19537SOL     OW78466   7.853   5.682   1.228
19537SOL    HW278467   7.896   5.766   1.248
19537SOL    HW378468   7.926   5.620   1.221
19537SOL    MW478469   7.868   5.685   1.229
19538SOL     OW78470   7.894   6.349   0.406
19538SOL    HW278471   7.894   6.444   0.391
19538SOL    HW378472   7.971   6.333   0.460
19538SOL    MW478473   7.904   6.360   0.411
19539SOL     OW78474   8.670   6.208   1.470
19539SOL    HW278475   8.706   6.181   1.386
19539SOL    HW378476   8.583   6.242   1.449
19539SOL    MW478477   8.664   6.209   1.457
19540SOL     OW78478   7.653   6.080   0.695
19540SOL    HW278479   7.715   6.087   0.768
19540SOL    HW378480   7.653   5.987   0.672
19540SOL    MW478481   7.661   6.069   0.702
19541SOL     OW78482   8.335   6.341   1.179
19541SOL    HW278483   8.293   6.259   1.155
19541SOL    HW378484   8.336   6.340   1.275
19541SOL    MW478485   8.328   6.330   1.188
19542SOL     OW78486   9.006   7.474   1.578
19542SOL    HW278487   9.009   7.380   1.561
19542SOL    HW378488   9.029   7.482   1.670
19542SOL    MW478489   9.009   7.462   1.588
19543SOL     OW78490   8.139   5.811   1.284
19543SOL    HW278491   8.070   5.874   1.305
19543SOL    HW378492   8.166   5.775   1.369
19543SOL    MW478493   8.133   5.814   1.297
19544SOL     OW78494   8.934   5.664   0.901
19544SOL    HW278495   9.022   5.673   0.938
19544SOL    HW378496   8.944   5.605   0.827
19544SOL    MW478497   8.948   5.658   0.895
19545SOL     OW78498   8.966   6.403   0.745
19545SOL    HW278499   9.046   6.418   0.694
19545SOL    HW378500   8.959   6.308   0.751
19545SOL    MW478501   8.975   6.392   0.740
19546SOL     OW78502   8.416   6.329   1.442
19546SOL    HW278503   8.485   6.396   1.439
19546SOL    HW378504   8.349   6.367   1.498
19546SOL    MW478505   8.417   6.342   1.449
19547SOL     OW78506   7.834   6.629   1.690
19547SOL    HW278507   7.788   6.545   1.692
19547SOL    HW378508   7.891   6.623   1.614
19547SOL    MW478509   7.836   6.617   1.682
19548SOL     OW78510   8.085   7.004   0.691
19548SOL    HW278511   8.150   6.937   0.712
19548SOL    HW378512   8.137   7.081   0.668
19548SOL    MW478513   8.100   7.006   0.690
19549SOL     OW78514   8.346   6.169   0.821
19549SOL    HW278515   8.286   6.187   0.893
19549SOL    HW378516   8.380   6.081   0.840
19549SOL    MW478517   8.342   6.159   0.834
19550SOL     OW78518   9.287   5.668   1.490
19550SOL    HW278519   9.208   5.714   1.518
19550SOL    HW378520   9.322   5.722   1.419
19550SOL    MW478521   9.281   5.681   1.484
19551SOL     OW78522   8.571   6.752   0.840
19551SOL    HW278523   8.663   6.733   0.858
19551SOL    HW378524   8.544   6.682   0.780
19551SOL    MW478525   8.579   6.740   0.834
19552SOL     OW78526   8.845   6.990   0.936
19552SOL    HW278527   8.818   7.074   0.901
19552SOL    HW378528   8.805   6.985   1.023
19552SOL    MW478529   8.838   6.999   0.942
19553SOL     OW78530   8.764   6.938   1.204
19553SOL    HW278531   8.775   6.905   1.293
19553SOL    HW378532   8.683   6.897   1.173
19553SOL    MW478533   8.754   6.930   1.210
19554SOL     OW78534   7.777   6.296   0.974
19554SOL    HW278535   7.727   6.295   1.055
19554SOL    HW378536   7.797   6.388   0.958
19554SOL    MW478537   7.773   6.308   0.982
19555SOL     OW78538   8.844   7.060   1.736
19555SOL    HW278539   8.844   7.154   1.752
19555SOL    HW378540   8.889   7.050   1.652
19555SOL    MW478541   8.850   7.070   1.727
19556SOL     OW78542   7.699   5.964   1.715
19556SOL    HW278543   7.656   6.023   1.652
19556SOL    HW378544   7.767   6.019   1.755
19556SOL    MW478545   7.703   5.979   1.712
19557SOL     OW78546   8.811   6.584   1.260
19557SOL    HW278547   8.874   6.581   1.333
19557SOL    HW378548   8.727   6.602   1.302
19557SOL    MW478549   8.807   6.586   1.275
19558SOL     OW78550   8.355   7.299   0.449
19558SOL    HW278551   8.413   7.370   0.476
19558SOL    HW378552   8.378   7.227   0.507
19558SOL    MW478553   8.366   7.299   0.460
19559SOL     OW78554   9.150   5.761   1.039
19559SOL    HW278555   9.195   5.679   1.058
19559SOL    HW378556   9.170   5.817   1.115
19559SOL    MW478557   9.160   5.757   1.051
19560SOL     OW78558   7.598   5.604   1.138
19560SOL    HW278559   7.589   5.605   1.043
19560SOL    HW378560   7.692   5.616   1.153
19560SOL    MW478561   7.610   5.607   1.129
19561SOL     OW78562   9.235   6.797   0.758
19561SOL    HW278563   9.214   6.743   0.681
19561SOL    HW378564   9.331   6.795   0.762
19561SOL    MW478565   9.244   6.790   0.747
19562SOL     OW78566   7.927   6.942   1.501
19562SOL    HW278567   7.848   6.892   1.524
19562SOL    HW378568   7.997   6.901   1.551
19562SOL    MW478569   7.925   6.930   1.511
19563SOL     OW78570   7.811   5.731   0.184
19563SOL    HW278571   7.740   5.786   0.152
19563SOL    HW378572   7.853   5.697   0.105
19563SOL    MW478573   7.807   5.733   0.170
19564SOL     OW78574   8.935   6.228   1.020
19564SOL    HW278575   8.858   6.274   0.986
19564SOL    HW378576   8.992   6.297   1.054
19564SOL    MW478577   8.932   6.243   1.020
19565SOL     OW78578   8.873   7.176   0.439
19565SOL    HW278579   8.936   7.166   0.368
19565SOL    HW378580   8.790   7.196   0.394
19565SOL    MW478581   8.870   7.177   0.424
19566SOL     OW78582   9.236   6.444   2.125
19566SOL    HW278583   9.277   6.386   2.190
19566SOL    HW378584   9.143   6.436   2.142
19566SOL    MW478585   9.230   6.436   2.135
19567SOL     OW78586   9.102   6.376   3.120
19567SOL    HW278587   9.057   6.443   3.171
19567SOL    HW378588   9.190   6.412   3.106
19567SOL    MW478589   9.108   6.389   3.124
19568SOL     OW78590   8.030   6.627   2.354
19568SOL    HW278591   8.120   6.602   2.338
19568SOL    HW378592   8.026   6.720   2.331
19568SOL    MW478593   8.042   6.636   2.349
19569SOL     OW78594   9.146   7.330   2.496
19569SOL    HW278595   9.158   7.276   2.574
19569SOL    HW378596   9.183   7.278   2.425
19569SOL    MW478597   9.152   7.315   2.497
19570SOL     OW78598   8.525   7.215   3.497
19570SOL    HW278599   8.566   7.251   3.418
19570SOL    HW378600   8.560   7.126   3.504
19570SOL    MW478601   8.536   7.208   3.488
19571SOL     OW78602   9.082   6.770   3.101
19571SOL    HW278603   9.003   6.735   3.059
19571SOL    HW378604   9.109   6.842   3.045
19571SOL    MW478605   9.075   6.775   3.088
19572SOL     OW78606   8.314   6.083   2.367
19572SOL    HW278607   8.289   6.171   2.395
19572SOL    HW378608   8.311   6.086   2.271
19572SOL    MW478609   8.310   6.095   2.359
19573SOL     OW78610   7.756   6.111   2.295
19573SOL    HW278611   7.788   6.199   2.277
19573SOL    HW378612   7.744   6.109   2.390
19573SOL    MW478613   7.759   6.123   2.307
19574SOL     OW78614   7.834   6.524   3.196
19574SOL    HW278615   7.897   6.471   3.147
19574SOL    HW378616   7.815   6.598   3.139
19574SOL    MW478617   7.840   6.526   3.183
19575SOL     OW78618   8.155   5.866   2.382
19575SOL    HW278619   8.213   5.942   2.384
19575SOL    HW378620   8.090   5.887   2.315
19575SOL    MW478621   8.154   5.878   2.373
19576SOL     OW78622   8.242   6.793   2.557
19576SOL    HW278623   8.322   6.796   2.609
19576SOL    HW378624   8.270   6.760   2.471
19576SOL    MW478625   8.256   6.789   2.552
19577SOL     OW78626   8.267   7.134   3.460
19577SOL    HW278627   8.351   7.160   3.499
19577SOL    HW378628   8.291   7.078   3.386
19577SOL    MW478629   8.281   7.130   3.455
19578SOL     OW78630   8.019   6.297   2.548
19578SOL    HW278631   8.004   6.217   2.599
19578SOL    HW378632   8.101   6.332   2.582
19578SOL    MW478633   8.027   6.289   2.560
19579SOL     OW78634   8.356   6.983   3.233
19579SOL    HW278635   8.320   7.049   3.173
19579SOL    HW378636   8.284   6.921   3.246
19579SOL    MW478637   8.342   6.983   3.227
19580SOL     OW78638   8.161   6.123   2.925
19580SOL    HW278639   8.067   6.119   2.943
19580SOL    HW378640   8.191   6.032   2.934
19580SOL    MW478641   8.152   6.111   2.928
19581SOL     OW78642   7.907   6.537   2.829
19581SOL    HW278643   7.862   6.544   2.745
19581SOL    HW378644   7.887   6.620   2.873
19581SOL    MW478645   7.899   6.549   2.823
19582SOL     OW78646   7.604   7.383   2.704
19582SOL    HW278647   7.693   7.375   2.739
19582SOL    HW378648   7.568   7.295   2.709
19582SOL    MW478649   7.611   7.370   2.709
19583SOL     OW78650   8.869   6.775   2.073
19583SOL    HW278651   8.787   6.811   2.039
19583SOL    HW378652   8.937   6.818   2.022
19583SOL    MW478653   8.867   6.785   2.061
19584SOL     OW78654   7.868   6.910   2.739
19584SOL    HW278655   7.844   6.963   2.815
19584SOL    HW378656   7.924   6.968   2.687
19584SOL    MW478657   7.872   6.925   2.742
19585SOL     OW78658   8.430   6.554   2.549
19585SOL    HW278659   8.344   6.541   2.589
19585SOL    HW378660   8.483   6.481   2.581
19585SOL    MW478661   8.426   6.543   2.558
19586SOL     OW78662   7.838   7.206   3.334
19586SOL    HW278663   7.746   7.182   3.319
19586SOL    HW378664   7.882   7.123   3.351
19586SOL    MW478665   7.832   7.191   3.333
19587SOL     OW78666   8.421   6.916   2.266
19587SOL    HW278667   8.398   6.978   2.334
19587SOL    HW378668   8.378   6.834   2.292
19587SOL    MW478669   8.413   6.912   2.277
19588SOL     OW78670   9.294   5.917   2.722
19588SOL    HW278671   9.231   5.897   2.791
19588SOL    HW378672   9.284   5.846   2.659
19588SOL    MW478673   9.284   5.904   2.723
19589SOL     OW78674   7.918   5.889   2.234
19589SOL    HW278675   7.892   5.851   2.150
19589SOL    HW378676   7.855   5.959   2.250
19589SOL    MW478677   7.907   5.892   2.225
19590SOL     OW78678   7.753   6.850   2.271
19590SOL    HW278679   7.701   6.918   2.227
19590SOL    HW378680   7.750   6.776   2.211
19590SOL    MW478681   7.745   6.849   2.258
19591SOL     OW78682   8.415   7.313   2.049
19591SOL    HW278683   8.370   7.329   2.132
19591SOL    HW378684   8.346   7.278   1.991
19591SOL    MW478685   8.401   7.310   2.051
19592SOL     OW78686   9.350   6.086   2.024
19592SOL    HW278687   9.259   6.088   2.052
19592SOL    HW378688   9.395   6.148   2.082
19592SOL    MW478689   9.343   6.094   2.034
19593SOL     OW78690   9.095   6.689   2.374
19593SOL    HW278691   9.005   6.689   2.409
19593SOL    HW378692   9.088   6.735   2.291
19593SOL    MW478693   9.082   6.695   2.368
19594SOL     OW78694   8.895   6.324   3.446
19594SOL    HW278695   8.964   6.262   3.423
19594SOL    HW378696   8.820   6.298   3.393
19594SOL    MW478697   8.895   6.311   3.437
19595SOL     OW78698   7.636   7.204   2.998
19595SOL    HW278699   7.619   7.150   3.075
19595SOL    HW378700   7.624   7.294   3.028
19595SOL    MW478701   7.633   7.208   3.012
19596SOL     OW78702   8.631   6.711   3.438
19596SOL    HW278703   8.616   6.804   3.423
19596SOL    HW378704   8.726   6.701   3.438
19596SOL    MW478705   8.640   6.721   3.435
19597SOL     OW78706   8.427   6.135   3.639
19597SOL    HW278707   8.517   6.136   3.606
19597SOL    HW378708   8.386   6.060   3.597
19597SOL    MW478709   8.433   6.125   3.630
19598SOL     OW78710   9.002   6.667   2.766
19598SOL    HW278711   9.005   6.601   2.697
19598SOL    HW378712   9.087   6.710   2.762
19598SOL    MW478713   9.014   6.663   2.757
19599SOL     OW78714   8.622   6.270   2.335
19599SOL    HW278715   8.648   6.294   2.246
19599SOL    HW378716   8.604   6.177   2.331
19599SOL    MW478717   8.624   6.262   2.322
19600SOL     OW78718   9.287   6.890   2.186
19600SOL    HW278719   9.243   6.931   2.261
19600SOL    HW378720   9.344   6.958   2.151
19600SOL    MW478721   9.289   6.904   2.191
19601SOL     OW78722   8.207   5.939   3.589
19601SOL    HW278723   8.217   5.865   3.529
19601SOL    HW378724   8.243   5.908   3.672
19601SOL    MW478725   8.213   5.925   3.591
19602SOL     OW78726   7.943   7.306   2.504
19602SOL    HW278727   7.975   7.394   2.482
19602SOL    HW378728   7.896   7.278   2.426
19602SOL    MW478729   7.942   7.314   2.491
19603SOL     OW78730   9.327   5.668   2.553
19603SOL    HW278731   9.381   5.619   2.615
19603SOL    HW378732   9.270   5.602   2.514
19603SOL    MW478733   9.327   5.652   2.555
19604SOL     OW78734   7.659   7.366   2.081
19604SOL    HW278735   7.688   7.456   2.073
19604SOL    HW378736   7.609   7.349   2.002
19604SOL    MW478737   7.657   7.374   2.070
19605SOL     OW78738   8.446   5.621   2.966
19605SOL    HW278739   8.405   5.699   2.928
19605SOL    HW378740   8.540   5.639   2.961
19605SOL    MW478741   8.452   5.633   2.961
19606SOL     OW78742   9.063   7.174   2.052
19606SOL    HW278743   9.111   7.243   2.098
19606SOL    HW378744   8.984   7.218   2.021
19606SOL    MW478745   9.058   7.188   2.055
19607SOL     OW78746   8.461   6.299   1.996
19607SOL    HW278747   8.463   6.246   1.917
19607SOL    HW378748   8.549   6.336   2.002
19607SOL    MW478749   8.473   6.298   1.985
19608SOL     OW78750   9.075   6.225   2.332
19608SOL    HW278751   9.114   6.225   2.419
19608SOL    HW378752   9.016   6.301   2.332
19608SOL    MW478753   9.072   6.236   2.343
19609SOL     OW78754   8.392   6.592   3.461
19609SOL    HW278755   8.369   6.572   3.551
19609SOL    HW378756   8.477   6.636   3.466
19609SOL    MW478757   8.399   6.595   3.473
19610SOL     OW78758   8.472   5.729   3.221
19610SOL    HW278759   8.478   5.691   3.134
19610SOL    HW378760   8.461   5.823   3.206
19610SOL    MW478761   8.473   5.737   3.209
19611SOL     OW78762   8.561   6.218   3.055
19611SOL    HW278763   8.636   6.247   3.002
19611SOL    HW378764   8.493   6.283   3.039
19611SOL    MW478765   8.562   6.230   3.045
19612SOL     OW78766   9.111   6.186   3.332
19612SOL    HW278767   9.092   6.095   3.311
19612SOL    HW378768   9.089   6.235   3.253
19612SOL    MW478769   9.106   6.179   3.319
19613SOL     OW78770   9.253   7.280   3.236
19613SOL    HW278771   9.181   7.242   3.287
19613SOL    HW378772   9.270   7.365   3.277
19613SOL    MW478773   9.247   7.285   3.248
19614SOL     OW78774   8.558   5.924   3.438
19614SOL    HW278775   8.524   5.963   3.357
19614SOL    HW378776   8.536   5.832   3.431
19614SOL    MW478777   8.551   5.917   3.428
19615SOL     OW78778   8.967   6.738   3.514
19615SOL    HW278779   9.049   6.779   3.544
19615SOL    HW378780   8.930   6.700   3.594
19615SOL    MW478781   8.973   6.739   3.529
19616SOL     OW78782   9.262   6.111   2.498
19616SOL    HW278783   9.351   6.080   2.515
19616SOL    HW378784   9.205   6.051   2.546
19616SOL    MW478785   9.265   6.099   2.507
19617SOL     OW78786   7.688   5.825   2.527
19617SOL    HW278787   7.679   5.765   2.453
19617SOL    HW378788   7.621   5.796   2.590
19617SOL    MW478789   7.678   5.812   2.525
19618SOL     OW78790   8.631   6.918   2.088
19618SOL    HW278791   8.581   6.920   2.170
19618SOL    HW378792   8.565   6.936   2.020
19618SOL    MW478793   8.617   6.920   2.090
19619SOL     OW78794   7.635   5.998   2.890
19619SOL    HW278795   7.607   6.089   2.899
19619SOL    HW378796   7.572   5.959   2.829
19619SOL    MW478797   7.622   6.004   2.884
19620SOL     OW78798   8.094   7.336   2.196
19620SOL    HW278799   8.015   7.294   2.229
19620SOL    HW378800   8.160   7.319   2.263
19620SOL    MW478801   8.093   7.328   2.209
19621SOL     OW78802   9.222   6.856   3.593
19621SOL    HW278803   9.272   6.782   3.625
19621SOL    HW378804   9.168   6.883   3.668
19621SOL    MW478805   9.222   6.850   3.606
19622SOL     OW78806   8.230   6.751   1.903
19622SOL    HW278807   8.152   6.697   1.890
19622SOL    HW378808   8.201   6.824   1.956
19622SOL    MW478809   8.216   6.753   1.908
19623SOL     OW78810   9.356   6.491   3.095
19623SOL    HW278811   9.372   6.529   3.008
19623SOL    HW378812   9.390   6.557   3.156
19623SOL    MW478813   9.363   6.504   3.091
19624SOL     OW78814   9.148   7.200   2.764
19624SOL    HW278815   9.177   7.267   2.825
19624SOL    HW378816   9.129   7.124   2.819
19624SOL    MW478817   9.150   7.200   2.779
19625SOL     OW78818   8.811   7.267   1.971
19625SOL    HW278819   8.737   7.230   2.021
19625SOL    HW378820   8.819   7.357   2.004
19625SOL    MW478821   8.802   7.274   1.983
19626SOL     OW78822   7.619   6.273   3.060
19626SOL    HW278823   7.681   6.303   3.126
19626SOL    HW378824   7.553   6.342   3.054
19626SOL    MW478825   7.618   6.286   3.067
19627SOL     OW78826   9.035   6.941   1.913
19627SOL    HW278827   8.982   6.990   1.849
19627SOL    HW378828   9.066   7.007   1.974
19627SOL    MW478829   9.033   6.955   1.911
19628SOL     OW78830   8.260   5.830   1.968
19628SOL    HW278831   8.208   5.750   1.956
19628SOL    HW378832   8.347   5.807   1.936
19628SOL    MW478833   8.263   5.816   1.962
19629SOL     OW78834   7.714   7.382   3.512
19629SOL    HW278835   7.688   7.450   3.450
19629SOL    HW378836   7.762   7.319   3.460
19629SOL    MW478837   7.716   7.382   3.498
19630SOL     OW78838   7.766   6.701   3.019
19630SOL    HW278839   7.819   6.776   3.044
19630SOL    HW378840   7.685   6.739   2.985
19630SOL    MW478841   7.762   6.716   3.019
19631SOL     OW78842   8.306   6.605   3.007
19631SOL    HW278843   8.334   6.514   3.019
19631SOL    HW378844   8.235   6.599   2.943
19631SOL    MW478845   8.299   6.593   3.002
19632SOL     OW78846   7.621   6.470   2.425
19632SOL    HW278847   7.712   6.485   2.452
19632SOL    HW378848   7.624   6.391   2.371
19632SOL    MW478849   7.633   6.462   2.423
19633SOL     OW78850   7.857   6.178   3.679
19633SOL    HW278851   7.804   6.258   3.686
19633SOL    HW378852   7.927   6.190   3.744
19633SOL    MW478853   7.859   6.191   3.687
19634SOL     OW78854   8.243   5.728   3.386
19634SOL    HW278855   8.220   5.636   3.388
19634SOL    HW378856   8.329   5.730   3.343
19634SOL    MW478857   8.250   5.718   3.382
19635SOL     OW78858   7.927   6.252   3.425
19635SOL    HW278859   8.007   6.302   3.411
19635SOL    HW378860   7.918   6.246   3.520
19635SOL    MW478861   7.936   6.258   3.435
19636SOL     OW78862   8.248   7.402   2.799
19636SOL    HW278863   8.337   7.417   2.829
19636SOL    HW378864   8.243   7.449   2.715
19636SOL    MW478865   8.258   7.410   2.792
19637SOL     OW78866   8.904   5.777   3.696
19637SOL    HW278867   8.960   5.704   3.722
19637SOL    HW378868   8.874   5.815   3.778
19637SOL    MW478869   8.908   5.772   3.709
19638SOL     OW78870   7.629   7.082   2.464
19638SOL    HW278871   7.601   7.121   2.546
19638SOL    HW378872   7.649   6.991   2.486
19638SOL    MW478873   7.627   7.074   2.477
19639SOL     OW78874   8.462   7.125   2.499
19639SOL    HW278875   8.545   7.079   2.483
19639SOL    HW378876   8.452   7.124   2.595
19639SOL    MW478877   8.472   7.118   2.509
19640SOL     OW78878   9.294   6.270   2.813
19640SOL    HW278879   9.383   6.300   2.795
19640SOL    HW378880   9.274   6.210   2.742
19640SOL    MW478881   9.303   6.267   2.802
19641SOL     OW78882   9.145   6.449   3.693
19641SOL    HW278883   9.200   6.373   3.674
19641SOL    HW378884   9.147   6.457   3.788
19641SOL    MW478885   9.153   6.440   3.701
19642SOL     OW78886   8.195   7.182   1.904
19642SOL    HW278887   8.135   7.251   1.874
19642SOL    HW378888   8.140   7.124   1.957
19642SOL    MW478889   8.179   7.184   1.906
19643SOL     OW78890   8.633   5.827   2.127
19643SOL    HW278891   8.566   5.803   2.064
19643SOL    HW378892   8.698   5.876   2.076
19643SOL    MW478893   8.633   5.829   2.112
19644SOL     OW78894   8.440   6.011   3.212
19644SOL    HW278895   8.359   6.052   3.240
19644SOL    HW378896   8.487   6.079   3.164
19644SOL    MW478897   8.435   6.026   3.210
19645SOL     OW78898   8.700   6.349   2.835
19645SOL    HW278899   8.713   6.443   2.845
19645SOL    HW378900   8.661   6.339   2.749
19645SOL    MW478901   8.696   6.360   2.825
19646SOL     OW78902   8.152   6.544   2.639
19646SOL    HW278903   8.063   6.535   2.672
19646SOL    HW378904   8.156   6.634   2.607
19646SOL    MW478905   8.141   6.555   2.639
19647SOL     OW78906   8.951   6.127   2.634
19647SOL    HW278907   8.896   6.048   2.633
19647SOL    HW378908   8.933   6.168   2.718
19647SOL    MW478909   8.941   6.122   2.643
19648SOL     OW78910   7.922   5.814   3.451
19648SOL    HW278911   7.843   5.832   3.503
19648SOL    HW378912   7.917   5.876   3.378
19648SOL    MW478913   7.912   5.824   3.448
19649SOL     OW78914   8.570   6.331   2.591
19649SOL    HW278915   8.507   6.263   2.615
19649SOL    HW378916   8.590   6.312   2.499
19649SOL    MW478917   8.564   6.318   2.583
19650SOL     OW78918   7.826   7.226   2.293
19650SOL    HW278919   7.787   7.273   2.219
19650SOL    HW378920   7.760   7.161   2.318
19650SOL    MW478921   7.813   7.224   2.287
19651SOL     OW78922   8.318   6.635   2.317
19651SOL    HW278923   8.320   6.609   2.224
19651SOL    HW378924   8.376   6.572   2.360
19651SOL    MW478925   8.326   6.624   2.311
19652SOL     OW78926   8.871   7.195   3.089
19652SOL    HW278927   8.796   7.241   3.127
19652SOL    HW378928   8.853   7.102   3.106
19652SOL    MW478929   8.860   7.189   3.097
19653SOL     OW78930   8.875   7.403   2.519
19653SOL    HW278931   8.818   7.356   2.458
19653SOL    HW378932   8.961   7.364   2.506
19653SOL    MW478933   8.878   7.394   2.509
19654SOL     OW78934   8.828   5.879   2.650
19654SOL    HW278935   8.856   5.811   2.711
19654SOL    HW378936   8.742   5.850   2.620
19654SOL    MW478937   8.821   5.866   2.654
19655SOL     OW78938   7.633   6.813   2.584
19655SOL    HW278939   7.697   6.845   2.647
19655SOL    HW378940   7.682   6.749   2.532
19655SOL    MW478941   7.648   6.809   2.585
19656SOL     OW78942   8.133   6.889   3.566
19656SOL    HW278943   8.181   6.972   3.553
19656SOL    HW378944   8.190   6.837   3.622
19656SOL    MW478945   8.147   6.893   3.572
19657SOL     OW78946   7.709   7.131   3.706
19657SOL    HW278947   7.765   7.055   3.721
19657SOL    HW378948   7.658   7.109   3.628
19657SOL    MW478949   7.709   7.118   3.697
19658SOL     OW78950   8.808   5.983   1.985
19658SOL    HW278951   8.781   6.049   1.921
19658SOL    HW378952   8.878   6.026   2.035
19658SOL    MW478953   8.813   5.996   1.982
19659SOL     OW78954   8.476   5.688   1.922
19659SOL    HW278955   8.532   5.680   1.844
19659SOL    HW378956   8.453   5.598   1.944
19659SOL    MW478957   8.481   5.675   1.915
19660SOL     OW78958   8.981   6.539   2.127
19660SOL    HW278959   8.948   6.628   2.117
19660SOL    HW378960   8.946   6.510   2.212
19660SOL    MW478961   8.971   6.548   2.138
19661SOL     OW78962   8.594   6.968   3.315
19661SOL    HW278963   8.505   6.974   3.283
19661SOL    HW378964   8.638   7.047   3.283
19661SOL    MW478965   8.589   6.978   3.307
19662SOL     OW78966   7.887   5.636   3.657
19662SOL    HW278967   7.815   5.601   3.605
19662SOL    HW378968   7.945   5.677   3.592
19662SOL    MW478969   7.885   5.637   3.642
19663SOL     OW78970   7.911   7.126   2.956
19663SOL    HW278971   7.956   7.188   3.013
19663SOL    HW378972   7.818   7.145   2.969
19663SOL    MW478973   7.904   7.136   2.963
19664SOL     OW78974   9.351   6.655   3.310
19664SOL    HW278975   9.266   6.668   3.269
19664SOL    HW378976   9.331   6.619   3.397
19664SOL    MW478977   9.338   6.651   3.315
19665SOL     OW78978   8.333   7.194   3.064
19665SOL    HW278979   8.357   7.183   2.973
19665SOL    HW378980   8.256   7.251   3.062
19665SOL    MW478981   8.325   7.199   3.053
19666SOL     OW78982   7.975   6.577   1.919
19666SOL    HW278983   7.898   6.590   1.975
19666SOL    HW378984   7.939   6.541   1.838
19666SOL    MW478985   7.961   6.573   1.916
19667SOL     OW78986   8.628   6.550   2.162
19667SOL    HW278987   8.538   6.571   2.137
19667SOL    HW378988   8.655   6.623   2.218
19667SOL    MW478989   8.620   6.562   2.165
19668SOL     OW78990   8.128   6.899   2.854
19668SOL    HW278991   8.121   6.878   2.948
19668SOL    HW378992   8.046   6.867   2.817
19668SOL    MW478993   8.116   6.893   2.861
19669SOL     OW78994   8.992   5.909   3.256
19669SOL    HW278995   8.939   5.911   3.336
19669SOL    HW378996   8.977   5.822   3.219
19669SOL    MW478997   8.984   5.899   3.261
19670SOL     OW78998   9.328   5.833   3.129
19670SOL    HW278999   9.309   5.900   3.064
19670SOL    HW379000   9.385   5.771   3.084
19670SOL    MW479001   9.332   5.834   3.115
19671SOL     OW79002   7.574   6.991   3.517
19671SOL    HW279003   7.618   6.924   3.463
19671SOL    HW379004   7.489   6.953   3.537
19671SOL    MW479005   7.569   6.977   3.513
19672SOL     OW79006   8.257   5.666   2.569
19672SOL    HW279007   8.186   5.727   2.551
19672SOL    HW379008   8.308   5.663   2.488
19672SOL    MW479009   8.253   5.672   2.556
19673SOL     OW79010   8.015   6.906   2.318
19673SOL    HW279011   8.008   6.938   2.408
19673SOL    HW379012   7.925   6.890   2.290
19673SOL    MW479013   8.003   6.908   2.325
19674SOL     OW79014   8.610   7.299   3.227
19674SOL    HW279015   8.530   7.284   3.177
19674SOL    HW379016   8.617   7.394   3.234
19674SOL    MW479017   8.601   7.310   3.221
19675SOL     OW79018   8.724   7.264   2.717
19675SOL    HW279019   8.771   7.337   2.676
19675SOL    HW379020   8.645   7.303   2.753
19675SOL    MW479021   8.719   7.279   2.716
19676SOL     OW79022   9.132   7.359   2.992
19676SOL    HW279023   9.175   7.329   3.072
19676SOL    HW379024   9.051   7.307   2.989
19676SOL    MW479025   9.127   7.348   3.002
19677SOL     OW79026   8.217   6.323   3.699
19677SOL    HW279027   8.287   6.265   3.671
19677SOL    HW379028   8.160   6.268   3.754
19677SOL    MW479029   8.219   6.310   3.703
19678SOL     OW79030   9.004   6.535   3.332
19678SOL    HW279031   9.009   6.588   3.412
19678SOL    HW379032   8.966   6.452   3.360
19678SOL    MW479033   9.000   6.530   3.347
19679SOL     OW79034   8.644   5.670   3.578
19679SOL    HW279035   8.639   5.577   3.559
19679SOL    HW379036   8.727   5.681   3.624
19679SOL    MW479037   8.652   5.659   3.582
19680SOL     OW79038   8.018   6.190   2.032
19680SOL    HW279039   7.984   6.246   2.102
19680SOL    HW379040   8.089   6.140   2.072
19680SOL    MW479041   8.024   6.191   2.046
19681SOL     OW79042   9.114   6.941   2.854
19681SOL    HW279043   9.149   6.923   2.767
19681SOL    HW379044   9.019   6.942   2.841
19681SOL    MW479045   9.106   6.938   2.841
19682SOL     OW79046   8.543   6.589   3.223
19682SOL    HW279047   8.586   6.624   3.301
19682SOL    HW379048   8.526   6.666   3.169
19682SOL    MW479049   8.546   6.604   3.226
19683SOL     OW79050   9.074   6.076   2.096
19683SOL    HW279051   9.066   6.147   2.033
19683SOL    HW379052   9.092   6.120   2.179
19683SOL    MW479053   9.075   6.090   2.098
19684SOL     OW79054   7.934   5.731   2.525
19684SOL    HW279055   7.984   5.774   2.456
19684SOL    HW379056   7.849   5.775   2.525
19684SOL    MW479057   7.931   5.744   2.516
19685SOL     OW79058   7.693   6.793   3.385
19685SOL    HW279059   7.721   6.746   3.463
19685SOL    HW379060   7.614   6.748   3.356
19685SOL    MW479061   7.686   6.782   3.391
19686SOL     OW79062   8.201   6.120   3.352
19686SOL    HW279063   8.173   6.208   3.376
19686SOL    HW379064   8.170   6.064   3.423
19686SOL    MW479065   8.193   6.123   3.364
19687SOL     OW79066   8.743   6.338   2.071
19687SOL    HW279067   8.790   6.356   1.990
19687SOL    HW379068   8.709   6.422   2.099
19687SOL    MW479069   8.745   6.352   2.064
19688SOL     OW79070   7.856   6.516   2.565
19688SOL    HW279071   7.914   6.572   2.513
19688SOL    HW379072   7.900   6.431   2.567
19688SOL    MW479073   7.869   6.513   2.558
19689SOL     OW79074   8.996   5.868   2.402
19689SOL    HW279075   8.918   5.818   2.427
19689SOL    HW379076   8.967   5.959   2.402
19689SOL    MW479077   8.982   5.872   2.405
19690SOL     OW79078   8.582   5.830   2.561
19690SOL    HW279079   8.602   5.905   2.505
19690SOL    HW379080   8.562   5.869   2.646
19690SOL    MW479081   8.583   5.846   2.565
19691SOL     OW79082   8.478   7.080   1.893
19691SOL    HW279083   8.505   7.158   1.845
19691SOL    HW379084   8.385   7.095   1.912
19691SOL    MW479085   8.469   7.093   1.889
19692SOL     OW79086   9.342   6.603   3.580
19692SOL    HW279087   9.255   6.583   3.616
19692SOL    HW379088   9.396   6.529   3.605
19692SOL    MW479089   9.337   6.592   3.588
19693SOL     OW79090   7.563   7.116   2.737
19693SOL    HW279091   7.595   7.120   2.828
19693SOL    HW379092   7.468   7.124   2.745
19693SOL    MW479093   7.555   7.119   2.750
19694SOL     OW79094   7.518   6.242   2.284
19694SOL    HW279095   7.458   6.214   2.354
19694SOL    HW379096   7.592   6.182   2.290
19694SOL    MW479097   7.520   6.231   2.293
19695SOL     OW79098   9.086   7.454   3.718
19695SOL    HW279099   9.131   7.378   3.683
19695SOL    HW379100   9.124   7.467   3.805
19695SOL    MW479101   9.096   7.447   3.724
19696SOL     OW79102   8.686   6.973   2.444
19696SOL    HW279103   8.709   6.924   2.522
19696SOL    HW379104   8.767   7.015   2.416
19696SOL    MW479105   8.699   6.973   2.451
19697SOL     OW79106   7.944   5.981   3.173
19697SOL    HW279107   7.977   6.062   3.213
19697SOL    HW379108   7.917   6.007   3.085
19697SOL    MW479109   7.943   5.995   3.167
19698SOL     OW79110   7.898   5.948   2.909
19698SOL    HW279111   7.928   5.862   2.880
19698SOL    HW379112   7.803   5.941   2.912
19698SOL    MW479113   7.890   5.937   2.907
19699SOL     OW79114   8.727   6.157   3.600
19699SOL    HW279115   8.779   6.092   3.553
19699SOL    HW379116   8.685   6.208   3.530
19699SOL    MW479117   8.728   6.154   3.583
19700SOL     OW79118   8.826   5.952   3.461
19700SOL    HW279119   8.733   5.936   3.448
19700SOL    HW379120   8.852   5.890   3.529
19700SOL    MW479121   8.816   5.942   3.468
19701SOL     OW79122   8.041   5.726   2.800
19701SOL    HW279123   8.051   5.635   2.826
19701SOL    HW379124   7.997   5.722   2.715
19701SOL    MW479125   8.037   5.714   2.792
19702SOL     OW79126   8.135   7.341   3.346
19702SOL    HW279127   8.052   7.326   3.391
19702SOL    HW379128   8.194   7.274   3.381
19702SOL    MW479129   8.133   7.331   3.356
19703SOL     OW79130   9.192   6.048   2.971
19703SOL    HW279131   9.125   6.081   3.031
19703SOL    HW379132   9.235   6.126   2.937
19703SOL    MW479133   9.190   6.063   2.975
19704SOL     OW79134   9.370   6.768   2.941
19704SOL    HW279135   9.363   6.708   2.866
19704SOL    HW379136   9.296   6.828   2.930
19704SOL    MW479137   9.360   6.768   2.930
19705SOL     OW79138   8.752   6.630   2.859
19705SOL    HW279139   8.766   6.602   2.950
19705SOL    HW379140   8.838   6.661   2.831
19705SOL    MW479141   8.765   6.631   2.868
19706SOL     OW79142   8.835   6.125   3.138
19706SOL    HW279143   8.856   6.126   3.045
19706SOL    HW379144   8.880   6.047   3.171
19706SOL    MW479145   8.842   6.115   3.130
19707SOL     OW79146   9.328   6.256   3.680
19707SOL    HW279147   9.365   6.201   3.749
19707SOL    HW379148   9.353   6.213   3.598
19707SOL    MW479149   9.335   6.244   3.679
19708SOL     OW79150   8.875   6.554   3.731
19708SOL    HW279151   8.941   6.502   3.685
19708SOL    HW379152   8.895   6.541   3.824
19708SOL    MW479153   8.886   6.545   3.738
19709SOL     OW79154   8.826   5.640   2.080
19709SOL    HW279155   8.900   5.684   2.123
19709SOL    HW379156   8.750   5.694   2.102
19709SOL    MW479157   8.826   5.652   2.088
19710SOL     OW79158   8.886   6.415   2.358
19710SOL    HW279159   8.801   6.385   2.328
19710SOL    HW379160   8.878   6.422   2.453
19710SOL    MW479161   8.874   6.413   2.367
19711SOL     OW79162   7.962   6.878   3.089
19711SOL    HW279163   7.974   6.905   3.180
19711SOL    HW379164   7.943   6.959   3.042
19711SOL    MW479165   7.961   6.893   3.094
19712SOL     OW79166   8.246   5.858   2.912
19712SOL    HW279167   8.219   5.860   3.003
19712SOL    HW379168   8.176   5.810   2.867
19712SOL    MW479169   8.234   5.854   2.919
19713SOL     OW79170   8.100   7.350   3.074
19713SOL    HW279171   8.152   7.427   3.051
19713SOL    HW379172   8.109   7.342   3.169
19713SOL    MW479173   8.109   7.357   3.085
19714SOL     OW79174   9.002   6.935   3.306
19714SOL    HW279175   8.987   6.864   3.369
19714SOL    HW379176   9.048   6.893   3.234
19714SOL    MW479177   9.008   6.919   3.306
19715SOL     OW79178   8.076   6.666   3.423
19715SOL    HW279179   8.113   6.671   3.335
19715SOL    HW379180   8.115   6.739   3.470
19715SOL    MW479181   8.086   6.676   3.418
19716SOL     OW79182   8.256   6.709   3.235
19716SOL    HW279183   8.315   6.655   3.288
19716SOL    HW379184   8.271   6.681   3.145
19716SOL    MW479185   8.266   6.698   3.231
19717SOL     OW79186   8.259   6.081   2.084
19717SOL    HW279187   8.332   6.130   2.047
19717SOL    HW379188   8.275   5.990   2.058
19717SOL    MW479189   8.271   6.076   2.077
19718SOL     OW79190   9.067   7.198   3.407
19718SOL    HW279191   9.109   7.183   3.492
19718SOL    HW379192   9.058   7.111   3.369
19718SOL    MW479193   9.071   7.186   3.414
19719SOL     OW79194   8.727   5.677   2.998
19719SOL    HW279195   8.782   5.686   2.920
19719SOL    HW379196   8.782   5.711   3.069
19719SOL    MW479197   8.741   5.682   2.997
19720SOL     OW79198   7.734   6.590   2.182
19720SOL    HW279199   7.671   6.606   2.111
19720SOL    HW379200   7.681   6.553   2.253
19720SOL    MW479201   7.719   6.587   2.182
19721SOL     OW79202   8.090   6.944   2.041
19721SOL    HW279203   8.105   6.920   2.133
19721SOL    HW379204   7.998   6.922   2.025
19721SOL    MW479205   8.080   6.937   2.051
19722SOL     OW79206   8.629   7.175   2.193
19722SOL    HW279207   8.637   7.093   2.144
19722SOL    HW379208   8.548   7.214   2.160
19722SOL    MW479209   8.619   7.170   2.183
19723SOL     OW79210   7.888   7.333   2.762
19723SOL    HW279211   7.892   7.244   2.797
19723SOL    HW379212   7.914   7.324   2.671
19723SOL    MW479213   7.891   7.321   2.754
19724SOL     OW79214   8.505   6.811   3.005
19724SOL    HW279215   8.437   6.745   3.021
19724SOL    HW379216   8.523   6.805   2.912
19724SOL    MW479217   8.498   6.802   2.996
19725SOL     OW79218   7.594   7.086   3.256
19725SOL    HW279219   7.584   7.044   3.342
19725SOL    HW379220   7.515   7.139   3.246
19725SOL    MW479221   7.583   7.087   3.267
19726SOL     OW79222   8.498   5.950   2.826
19726SOL    HW279223   8.428   5.902   2.871
19726SOL    HW379224   8.530   6.013   2.890
19726SOL    MW479225   8.493   5.952   2.840
19727SOL     OW79226   8.149   6.386   3.446
19727SOL    HW279227   8.142   6.481   3.434
19727SOL    HW379228   8.158   6.375   3.541
19727SOL    MW479229   8.150   6.398   3.456
19728SOL     OW79230   7.870   6.901   3.704
19728SOL    HW279231   7.942   6.903   3.641
19728SOL    HW379232   7.840   6.810   3.703
19728SOL    MW479233   7.875   6.890   3.696
19729SOL     OW79234   8.954   5.664   3.171
19729SOL    HW279235   9.025   5.610   3.135
19729SOL    HW379236   8.953   5.643   3.264
19729SOL    MW479237   8.963   5.655   3.179
19730SOL     OW79238   9.154   7.194   3.655
19730SOL    HW279239   9.127   7.191   3.746
19730SOL    HW379240   9.250   7.198   3.658
19730SOL    MW479241   9.164   7.194   3.667
19731SOL     OW79242   7.965   6.056   2.639
19731SOL    HW279243   8.036   6.004   2.602
19731SOL    HW379244   7.951   6.021   2.726
19731SOL    MW479245   7.973   6.045   2.646
19732SOL     OW79246   7.520   7.391   3.711
19732SOL    HW279247   7.570   7.369   3.633
19732SOL    HW379248   7.528   7.486   3.719
19732SOL    MW479249   7.528   7.400   3.702
19733SOL     OW79250   8.281   7.149   2.715
19733SOL    HW279251   8.209   7.086   2.728
19733SOL    HW379252   8.242   7.234   2.733
19733SOL    MW479253   8.265   7.152   2.718
19734SOL     OW79254   8.601   5.997   2.363
19734SOL    HW279255   8.623   5.934   2.295
19734SOL    HW379256   8.506   5.989   2.374
19734SOL    MW479257   8.591   5.988   2.355
19735SOL     OW79258   7.686   5.687   2.295
19735SOL    HW279259   7.757   5.708   2.234
19735SOL    HW379260   7.640   5.615   2.253
19735SOL    MW479261   7.690   5.681   2.281
19736SOL     OW79262   7.517   6.154   3.438
19736SOL    HW279263   7.581   6.220   3.413
19736SOL    HW379264   7.436   6.181   3.395
19736SOL    MW479265   7.515   6.166   3.430
19737SOL     OW79266   9.255   7.061   2.395
19737SOL    HW279267   9.225   6.994   2.456
19737SOL    HW379268   9.349   7.067   2.409
19737SOL    MW479269   9.263   7.053   2.405
19738SOL     OW79270   8.811   6.738   2.325
19738SOL    HW279271   8.783   6.824   2.358
19738SOL    HW379272   8.839   6.754   2.235
19738SOL    MW479273   8.811   6.752   2.317
19739SOL     OW79274   8.473   5.658   2.378
19739SOL    HW279275   8.510   5.717   2.443
19739SOL    HW379276   8.450   5.714   2.304
19739SOL    MW479277   8.474   5.673   2.377
19740SOL     OW79278   9.326   6.540   2.800
19740SOL    HW279279   9.317   6.572   2.711
19740SOL    HW379280   9.279   6.456   2.800
19740SOL    MW479281   9.319   6.533   2.790
19741SOL     OW79282   7.702   6.380   3.379
19741SOL    HW279283   7.723   6.449   3.317
19741SOL    HW379284   7.782   6.327   3.384
19741SOL    MW479285   7.715   6.381   3.373
19742SOL     OW79286   9.238   6.471   2.501
19742SOL    HW279287   9.332   6.460   2.489
19742SOL    HW379288   9.214   6.543   2.442
19742SOL    MW479289   9.248   6.479   2.492
19743SOL     OW79290   7.687   6.395   3.646
19743SOL    HW279291   7.613   6.339   3.672
19743SOL    HW379292   7.682   6.398   3.551
19743SOL    MW479293   7.676   6.388   3.636
19744SOL     OW79294   7.853   5.682   3.096
19744SOL    HW279295   7.896   5.766   3.116
19744SOL    HW379296   7.926   5.620   3.089
19744SOL    MW479297   7.868   5.685   3.097
19745SOL     OW79298   7.894   6.349   2.274
19745SOL    HW279299   7.894   6.444   2.259
19745SOL    HW379300   7.971   6.333   2.328
19745SOL    MW479301   7.904   6.360   2.279
19746SOL     OW79302   8.670   6.208   3.338
19746SOL    HW279303   8.706   6.181   3.254
19746SOL    HW379304   8.583   6.242   3.317
19746SOL    MW479305   8.664   6.209   3.325
19747SOL     OW79306   7.653   6.080   2.563
19747SOL    HW279307   7.715   6.087   2.636
19747SOL    HW379308   7.653   5.987   2.540
19747SOL    MW479309   7.661   6.069   2.570
19748SOL     OW79310   9.200   7.420   2.095
19748SOL    HW279311   9.267   7.453   2.035
19748SOL    HW379312   9.157   7.499   2.129
19748SOL    MW479313   9.202   7.435   2.091
19749SOL     OW79314   8.335   6.341   3.047
19749SOL    HW279315   8.293   6.259   3.023
19749SOL    HW379316   8.336   6.340   3.143
19749SOL    MW479317   8.328   6.330   3.056
19750SOL     OW79318   9.006   7.474   3.446
19750SOL    HW279319   9.009   7.380   3.429
19750SOL    HW379320   9.029   7.482   3.538
19750SOL    MW479321   9.009   7.462   3.456
19751SOL     OW79322   8.139   5.811   3.152
19751SOL    HW279323   8.070   5.874   3.173
19751SOL    HW379324   8.166   5.775   3.237
19751SOL    MW479325   8.133   5.814   3.165
19752SOL     OW79326   7.522   6.652   2.021
19752SOL    HW279327   7.491   6.717   2.084
19752SOL    HW379328   7.471   6.574   2.040
19752SOL    MW479329   7.512   6.649   2.031
19753SOL     OW79330   8.934   5.664   2.769
19753SOL    HW279331   9.022   5.673   2.806
19753SOL    HW379332   8.944   5.605   2.695
19753SOL    MW479333   8.948   5.658   2.763
19754SOL     OW79334   8.966   6.403   2.613
19754SOL    HW279335   9.046   6.418   2.562
19754SOL    HW379336   8.959   6.308   2.619
19754SOL    MW479337   8.975   6.392   2.608
19755SOL     OW79338   8.106   7.452   1.963
19755SOL    HW279339   8.011   7.452   1.955
19755SOL    HW379340   8.122   7.398   2.041
19755SOL    MW479341   8.096   7.446   1.972
19756SOL     OW79342   8.416   6.329   3.310
19756SOL    HW279343   8.485   6.396   3.307
19756SOL    HW379344   8.349   6.367   3.366
19756SOL    MW479345   8.417   6.342   3.317
19757SOL     OW79346   7.834   6.629   3.558
19757SOL    HW279347   7.788   6.545   3.560
19757SOL    HW379348   7.891   6.623   3.482
19757SOL    MW479349   7.836   6.617   3.550
19758SOL     OW79350   8.951   6.272   1.879
19758SOL    HW279351   8.879   6.248   1.821
19758SOL    HW379352   9.017   6.309   1.821
19758SOL    MW479353   8.950   6.274   1.864
19759SOL     OW79354   8.085   7.004   2.559
19759SOL    HW279355   8.150   6.937   2.580
19759SOL    HW379356   8.137   7.081   2.536
19759SOL    MW479357   8.100   7.006   2.558
19760SOL     OW79358   8.346   6.169   2.689
19760SOL    HW279359   8.286   6.187   2.761
19760SOL    HW379360   8.380   6.081   2.708
19760SOL    MW479361   8.342   6.159   2.702
19761SOL     OW79362   9.287   5.668   3.358
19761SOL    HW279363   9.208   5.714   3.386
19761SOL    HW379364   9.322   5.722   3.287
19761SOL    MW479365   9.281   5.681   3.352
19762SOL     OW79366   8.571   6.752   2.708
19762SOL    HW279367   8.663   6.733   2.726
19762SOL    HW379368   8.544   6.682   2.648
19762SOL    MW479369   8.579   6.740   2.702
19763SOL     OW79370   8.364   6.572   2.063
19763SOL    HW279371   8.350   6.484   2.028
19763SOL    HW379372   8.315   6.629   2.004
19763SOL    MW479373   8.356   6.567   2.051
19764SOL     OW79374   8.845   6.990   2.804
19764SOL    HW279375   8.818   7.074   2.769
19764SOL    HW379376   8.805   6.985   2.891
19764SOL    MW479377   8.838   6.999   2.810
19765SOL     OW79378   8.764   6.938   3.072
19765SOL    HW279379   8.775   6.905   3.161
19765SOL    HW379380   8.683   6.897   3.041
19765SOL    MW479381   8.754   6.930   3.078
19766SOL     OW79382   7.777   6.296   2.842
19766SOL    HW279383   7.727   6.295   2.923
19766SOL    HW379384   7.797   6.388   2.826
19766SOL    MW479385   7.773   6.308   2.850
19767SOL     OW79386   8.844   7.060   3.604
19767SOL    HW279387   8.844   7.154   3.620
19767SOL    HW379388   8.889   7.050   3.520
19767SOL    MW479389   8.850   7.070   3.595
19768SOL     OW79390   9.083   5.778   2.165
19768SOL    HW279391   9.076   5.782   2.260
19768SOL    HW379392   9.095   5.869   2.138
19768SOL    MW479393   9.084   5.791   2.173
19769SOL     OW79394   8.372   6.341   2.279
19769SOL    HW279395   8.352   6.327   2.186
19769SOL    HW379396   8.465   6.320   2.286
19769SOL    MW479397   8.382   6.336   2.268
19770SOL     OW79398   7.699   5.964   3.583
19770SOL    HW279399   7.656   6.023   3.520
19770SOL    HW379400   7.767   6.019   3.623
19770SOL    MW479401   7.703   5.979   3.580
19771SOL     OW79402   8.811   6.584   3.128
19771SOL    HW279403   8.874   6.581   3.201
19771SOL    HW379404   8.727   6.602   3.170
19771SOL    MW479405   8.807   6.586   3.143
19772SOL     OW79406   8.355   7.299   2.317
19772SOL    HW279407   8.413   7.370   2.344
19772SOL    HW379408   8.378   7.227   2.375
19772SOL    MW479409   8.366   7.299   2.328
19773SOL     OW79410   9.150   5.761   2.907
19773SOL    HW279411   9.195   5.679   2.926
19773SOL    HW379412   9.170   5.817   2.983
19773SOL    MW479413   9.160   5.757   2.919
19774SOL     OW79414   7.598   5.604   3.006
19774SOL    HW279415   7.589   5.605   2.911
19774SOL    HW379416   7.692   5.616   3.021
19774SOL    MW479417   7.610   5.607   2.997
19775SOL     OW79418   9.235   6.797   2.626
19775SOL    HW279419   9.214   6.743   2.549
19775SOL    HW379420   9.331   6.795   2.630
19775SOL    MW479421   9.244   6.790   2.615
19776SOL     OW79422   7.927   6.942   3.369
19776SOL    HW279423   7.848   6.892   3.392
19776SOL    HW379424   7.997   6.901   3.419
19776SOL    MW479425   7.925   6.930   3.379
19777SOL     OW79426   7.811   5.731   2.052
19777SOL    HW279427   7.740   5.786   2.020
19777SOL    HW379428   7.853   5.697   1.973
19777SOL    MW479429   7.807   5.733   2.038
19778SOL     OW79430   8.935   6.228   2.888
19778SOL    HW279431   8.858   6.274   2.854
19778SOL    HW379432   8.992   6.297   2.922
19778SOL    MW479433   8.932   6.243   2.888
19779SOL     OW79434   7.567   5.830   1.901
19779SOL    HW279435   7.534   5.909   1.945
19779SOL    HW379436   7.622   5.863   1.830
19779SOL    MW479437   7.570   5.844   1.898
19780SOL     OW79438   7.601   7.087   2.090
19780SOL    HW279439   7.618   7.171   2.132
19780SOL    HW379440   7.636   7.096   2.002
19780SOL    MW479441   7.606   7.100   2.084
19781SOL     OW79442   8.873   7.176   2.307
19781SOL    HW279443   8.936   7.166   2.236
19781SOL    HW379444   8.790   7.196   2.262
19781SOL    MW479445   8.870   7.177   2.292
19782SOL     OW79446   9.236   6.444   3.993
19782SOL    HW279447   9.277   6.386   4.058
19782SOL    HW379448   9.143   6.436   4.010
19782SOL    MW479449   9.230   6.436   4.003
19783SOL     OW79450   9.102   6.376   4.988
19783SOL    HW279451   9.057   6.443   5.039
19783SOL    HW379452   9.190   6.412   4.974
19783SOL    MW479453   9.108   6.389   4.992
19784SOL     OW79454   8.030   6.627   4.222
19784SOL    HW279455   8.120   6.602   4.206
19784SOL    HW379456   8.026   6.720   4.199
19784SOL    MW479457   8.042   6.636   4.217
19785SOL     OW79458   9.146   7.330   4.364
19785SOL    HW279459   9.158   7.276   4.442
19785SOL    HW379460   9.183   7.278   4.293
19785SOL    MW479461   9.152   7.315   4.365
19786SOL     OW79462   8.525   7.215   5.365
19786SOL    HW279463   8.566   7.251   5.286
19786SOL    HW379464   8.560   7.126   5.372
19786SOL    MW479465   8.536   7.208   5.356
19787SOL     OW79466   9.082   6.770   4.969
19787SOL    HW279467   9.003   6.735   4.927
19787SOL    HW379468   9.109   6.842   4.913
19787SOL    MW479469   9.075   6.775   4.956
19788SOL     OW79470   8.314   6.083   4.235
19788SOL    HW279471   8.289   6.171   4.263
19788SOL    HW379472   8.311   6.086   4.139
19788SOL    MW479473   8.310   6.095   4.227
19789SOL     OW79474   7.756   6.111   4.163
19789SOL    HW279475   7.788   6.199   4.145
19789SOL    HW379476   7.744   6.109   4.258
19789SOL    MW479477   7.759   6.123   4.175
19790SOL     OW79478   7.834   6.524   5.064
19790SOL    HW279479   7.897   6.471   5.015
19790SOL    HW379480   7.815   6.598   5.007
19790SOL    MW479481   7.840   6.526   5.051
19791SOL     OW79482   8.155   5.866   4.250
19791SOL    HW279483   8.213   5.942   4.252
19791SOL    HW379484   8.090   5.887   4.183
19791SOL    MW479485   8.154   5.878   4.241
19792SOL     OW79486   8.242   6.793   4.425
19792SOL    HW279487   8.322   6.796   4.477
19792SOL    HW379488   8.270   6.760   4.339
19792SOL    MW479489   8.256   6.789   4.420
19793SOL     OW79490   8.267   7.134   5.328
19793SOL    HW279491   8.351   7.160   5.367
19793SOL    HW379492   8.291   7.078   5.254
19793SOL    MW479493   8.281   7.130   5.323
19794SOL     OW79494   8.019   6.297   4.416
19794SOL    HW279495   8.004   6.217   4.467
19794SOL    HW379496   8.101   6.332   4.450
19794SOL    MW479497   8.027   6.289   4.428
19795SOL     OW79498   8.356   6.983   5.101
19795SOL    HW279499   8.320   7.049   5.041
19795SOL    HW379500   8.284   6.921   5.114
19795SOL    MW479501   8.342   6.983   5.095
19796SOL     OW79502   8.161   6.123   4.793
19796SOL    HW279503   8.067   6.119   4.811
19796SOL    HW379504   8.191   6.032   4.802
19796SOL    MW479505   8.152   6.111   4.796
19797SOL     OW79506   7.907   6.537   4.697
19797SOL    HW279507   7.862   6.544   4.613
19797SOL    HW379508   7.887   6.620   4.741
19797SOL    MW479509   7.899   6.549   4.691
19798SOL     OW79510   7.604   7.383   4.572
19798SOL    HW279511   7.693   7.375   4.607
19798SOL    HW379512   7.568   7.295   4.577
19798SOL    MW479513   7.611   7.370   4.577
19799SOL     OW79514   8.869   6.775   3.941
19799SOL    HW279515   8.787   6.811   3.907
19799SOL    HW379516   8.937   6.818   3.890
19799SOL    MW479517   8.867   6.785   3.929
19800SOL     OW79518   7.868   6.910   4.607
19800SOL    HW279519   7.844   6.963   4.683
19800SOL    HW379520   7.924   6.968   4.555
19800SOL    MW479521   7.872   6.925   4.610
19801SOL     OW79522   8.430   6.554   4.417
19801SOL    HW279523   8.344   6.541   4.457
19801SOL    HW379524   8.483   6.481   4.449
19801SOL    MW479525   8.426   6.543   4.426
19802SOL     OW79526   7.838   7.206   5.202
19802SOL    HW279527   7.746   7.182   5.187
19802SOL    HW379528   7.882   7.123   5.219
19802SOL    MW479529   7.832   7.191   5.201
19803SOL     OW79530   8.421   6.916   4.134
19803SOL    HW279531   8.398   6.978   4.202
19803SOL    HW379532   8.378   6.834   4.160
19803SOL    MW479533   8.413   6.912   4.145
19804SOL     OW79534   9.294   5.917   4.590
19804SOL    HW279535   9.231   5.897   4.659
19804SOL    HW379536   9.284   5.846   4.527
19804SOL    MW479537   9.284   5.904   4.591
19805SOL     OW79538   7.918   5.889   4.102
19805SOL    HW279539   7.892   5.851   4.018
19805SOL    HW379540   7.855   5.959   4.118
19805SOL    MW479541   7.907   5.892   4.093
19806SOL     OW79542   7.753   6.850   4.139
19806SOL    HW279543   7.701   6.918   4.095
19806SOL    HW379544   7.750   6.776   4.079
19806SOL    MW479545   7.745   6.849   4.126
19807SOL     OW79546   8.415   7.313   3.917
19807SOL    HW279547   8.370   7.329   4.000
19807SOL    HW379548   8.346   7.278   3.859
19807SOL    MW479549   8.401   7.310   3.919
19808SOL     OW79550   9.350   6.086   3.892
19808SOL    HW279551   9.259   6.088   3.920
19808SOL    HW379552   9.395   6.148   3.950
19808SOL    MW479553   9.343   6.094   3.902
19809SOL     OW79554   9.095   6.689   4.242
19809SOL    HW279555   9.005   6.689   4.277
19809SOL    HW379556   9.088   6.735   4.159
19809SOL    MW479557   9.082   6.695   4.236
19810SOL     OW79558   8.895   6.324   5.314
19810SOL    HW279559   8.964   6.262   5.291
19810SOL    HW379560   8.820   6.298   5.261
19810SOL    MW479561   8.895   6.311   5.305
19811SOL     OW79562   7.636   7.204   4.866
19811SOL    HW279563   7.619   7.150   4.943
19811SOL    HW379564   7.624   7.294   4.896
19811SOL    MW479565   7.633   7.208   4.880
19812SOL     OW79566   8.631   6.711   5.306
19812SOL    HW279567   8.616   6.804   5.291
19812SOL    HW379568   8.726   6.701   5.306
19812SOL    MW479569   8.640   6.721   5.303
19813SOL     OW79570   8.427   6.135   5.507
19813SOL    HW279571   8.517   6.136   5.474
19813SOL    HW379572   8.386   6.060   5.465
19813SOL    MW479573   8.433   6.125   5.498
19814SOL     OW79574   9.002   6.667   4.634
19814SOL    HW279575   9.005   6.601   4.565
19814SOL    HW379576   9.087   6.710   4.630
19814SOL    MW479577   9.014   6.663   4.625
19815SOL     OW79578   8.622   6.270   4.203
19815SOL    HW279579   8.648   6.294   4.114
19815SOL    HW379580   8.604   6.177   4.199
19815SOL    MW479581   8.624   6.262   4.190
19816SOL     OW79582   9.287   6.890   4.054
19816SOL    HW279583   9.243   6.931   4.129
19816SOL    HW379584   9.344   6.958   4.019
19816SOL    MW479585   9.289   6.904   4.059
19817SOL     OW79586   8.207   5.939   5.457
19817SOL    HW279587   8.217   5.865   5.397
19817SOL    HW379588   8.243   5.908   5.540
19817SOL    MW479589   8.213   5.925   5.459
19818SOL     OW79590   7.943   7.306   4.372
19818SOL    HW279591   7.975   7.394   4.350
19818SOL    HW379592   7.896   7.278   4.294
19818SOL    MW479593   7.942   7.314   4.359
19819SOL     OW79594   9.327   5.668   4.421
19819SOL    HW279595   9.381   5.619   4.483
19819SOL    HW379596   9.270   5.602   4.382
19819SOL    MW479597   9.327   5.652   4.423
19820SOL     OW79598   7.659   7.366   3.949
19820SOL    HW279599   7.688   7.456   3.941
19820SOL    HW379600   7.609   7.349   3.870
19820SOL    MW479601   7.657   7.374   3.938
19821SOL     OW79602   8.446   5.621   4.834
19821SOL    HW279603   8.405   5.699   4.796
19821SOL    HW379604   8.540   5.639   4.829
19821SOL    MW479605   8.452   5.633   4.829
19822SOL     OW79606   9.063   7.174   3.920
19822SOL    HW279607   9.111   7.243   3.966
19822SOL    HW379608   8.984   7.218   3.889
19822SOL    MW479609   9.058   7.188   3.923
19823SOL     OW79610   8.461   6.299   3.864
19823SOL    HW279611   8.463   6.246   3.785
19823SOL    HW379612   8.549   6.336   3.870
19823SOL    MW479613   8.473   6.298   3.853
19824SOL     OW79614   9.075   6.225   4.200
19824SOL    HW279615   9.114   6.225   4.287
19824SOL    HW379616   9.016   6.301   4.200
19824SOL    MW479617   9.072   6.236   4.211
19825SOL     OW79618   8.392   6.592   5.329
19825SOL    HW279619   8.369   6.572   5.419
19825SOL    HW379620   8.477   6.636   5.334
19825SOL    MW479621   8.399   6.595   5.341
19826SOL     OW79622   8.472   5.729   5.089
19826SOL    HW279623   8.478   5.691   5.002
19826SOL    HW379624   8.461   5.823   5.074
19826SOL    MW479625   8.473   5.737   5.077
19827SOL     OW79626   8.561   6.218   4.923
19827SOL    HW279627   8.636   6.247   4.870
19827SOL    HW379628   8.493   6.283   4.907
19827SOL    MW479629   8.562   6.230   4.913
19828SOL     OW79630   9.111   6.186   5.200
19828SOL    HW279631   9.092   6.095   5.179
19828SOL    HW379632   9.089   6.235   5.121
19828SOL    MW479633   9.106   6.179   5.187
19829SOL     OW79634   9.253   7.280   5.104
19829SOL    HW279635   9.181   7.242   5.155
19829SOL    HW379636   9.270   7.365   5.145
19829SOL    MW479637   9.247   7.285   5.116
19830SOL     OW79638   8.558   5.924   5.306
19830SOL    HW279639   8.524   5.963   5.225
19830SOL    HW379640   8.536   5.832   5.299
19830SOL    MW479641   8.551   5.917   5.296
19831SOL     OW79642   8.967   6.738   5.382
19831SOL    HW279643   9.049   6.779   5.412
19831SOL    HW379644   8.930   6.700   5.462
19831SOL    MW479645   8.973   6.739   5.397
19832SOL     OW79646   9.262   6.111   4.366
19832SOL    HW279647   9.351   6.080   4.383
19832SOL    HW379648   9.205   6.051   4.414
19832SOL    MW479649   9.265   6.099   4.375
19833SOL     OW79650   7.688   5.825   4.395
19833SOL    HW279651   7.679   5.765   4.321
19833SOL    HW379652   7.621   5.796   4.458
19833SOL    MW479653   7.678   5.812   4.393
19834SOL     OW79654   8.631   6.918   3.956
19834SOL    HW279655   8.581   6.920   4.038
19834SOL    HW379656   8.565   6.936   3.888
19834SOL    MW479657   8.617   6.920   3.958
19835SOL     OW79658   7.635   5.998   4.758
19835SOL    HW279659   7.607   6.089   4.767
19835SOL    HW379660   7.572   5.959   4.697
19835SOL    MW479661   7.622   6.004   4.752
19836SOL     OW79662   8.094   7.336   4.064
19836SOL    HW279663   8.015   7.294   4.097
19836SOL    HW379664   8.160   7.319   4.131
19836SOL    MW479665   8.093   7.328   4.077
19837SOL     OW79666   9.222   6.856   5.461
19837SOL    HW279667   9.272   6.782   5.493
19837SOL    HW379668   9.168   6.883   5.536
19837SOL    MW479669   9.222   6.850   5.474
19838SOL     OW79670   8.230   6.751   3.771
19838SOL    HW279671   8.152   6.697   3.758
19838SOL    HW379672   8.201   6.824   3.824
19838SOL    MW479673   8.216   6.753   3.776
19839SOL     OW79674   9.356   6.491   4.963
19839SOL    HW279675   9.372   6.529   4.876
19839SOL    HW379676   9.390   6.557   5.024
19839SOL    MW479677   9.363   6.504   4.959
19840SOL     OW79678   9.148   7.200   4.632
19840SOL    HW279679   9.177   7.267   4.693
19840SOL    HW379680   9.129   7.124   4.687
19840SOL    MW479681   9.150   7.200   4.647
19841SOL     OW79682   8.811   7.267   3.839
19841SOL    HW279683   8.737   7.230   3.889
19841SOL    HW379684   8.819   7.357   3.872
19841SOL    MW479685   8.802   7.274   3.851
19842SOL     OW79686   7.619   6.273   4.928
19842SOL    HW279687   7.681   6.303   4.994
19842SOL    HW379688   7.553   6.342   4.922
19842SOL    MW479689   7.618   6.286   4.935
19843SOL     OW79690   9.035   6.941   3.781
19843SOL    HW279691   8.982   6.990   3.717
19843SOL    HW379692   9.066   7.007   3.842
19843SOL    MW479693   9.033   6.955   3.779
19844SOL     OW79694   8.260   5.830   3.836
19844SOL    HW279695   8.208   5.750   3.824
19844SOL    HW379696   8.347   5.807   3.804
19844SOL    MW479697   8.263   5.816   3.830
19845SOL     OW79698   7.714   7.382   5.380
19845SOL    HW279699   7.688   7.450   5.318
19845SOL    HW379700   7.762   7.319   5.328
19845SOL    MW479701   7.716   7.382   5.366
19846SOL     OW79702   7.766   6.701   4.887
19846SOL    HW279703   7.819   6.776   4.912
19846SOL    HW379704   7.685   6.739   4.853
19846SOL    MW479705   7.762   6.716   4.887
19847SOL     OW79706   8.306   6.605   4.875
19847SOL    HW279707   8.334   6.514   4.887
19847SOL    HW379708   8.235   6.599   4.811
19847SOL    MW479709   8.299   6.593   4.870
19848SOL     OW79710   7.621   6.470   4.293
19848SOL    HW279711   7.712   6.485   4.320
19848SOL    HW379712   7.624   6.391   4.239
19848SOL    MW479713   7.633   6.462   4.291
19849SOL     OW79714   7.857   6.178   5.547
19849SOL    HW279715   7.804   6.258   5.554
19849SOL    HW379716   7.927   6.190   5.612
19849SOL    MW479717   7.859   6.191   5.555
19850SOL     OW79718   8.243   5.728   5.254
19850SOL    HW279719   8.220   5.636   5.256
19850SOL    HW379720   8.329   5.730   5.211
19850SOL    MW479721   8.250   5.718   5.250
19851SOL     OW79722   7.927   6.252   5.293
19851SOL    HW279723   8.007   6.302   5.279
19851SOL    HW379724   7.918   6.246   5.388
19851SOL    MW479725   7.936   6.258   5.303
19852SOL     OW79726   8.248   7.402   4.667
19852SOL    HW279727   8.337   7.417   4.697
19852SOL    HW379728   8.243   7.449   4.583
19852SOL    MW479729   8.258   7.410   4.660
19853SOL     OW79730   8.904   5.777   5.564
19853SOL    HW279731   8.960   5.704   5.590
19853SOL    HW379732   8.874   5.815   5.646
19853SOL    MW479733   8.908   5.772   5.577
19854SOL     OW79734   7.629   7.082   4.332
19854SOL    HW279735   7.601   7.121   4.414
19854SOL    HW379736   7.649   6.991   4.354
19854SOL    MW479737   7.627   7.074   4.345
19855SOL     OW79738   8.462   7.125   4.367
19855SOL    HW279739   8.545   7.079   4.351
19855SOL    HW379740   8.452   7.124   4.463
19855SOL    MW479741   8.472   7.118   4.377
19856SOL     OW79742   9.294   6.270   4.681
19856SOL    HW279743   9.383   6.300   4.663
19856SOL    HW379744   9.274   6.210   4.610
19856SOL    MW479745   9.303   6.267   4.670
19857SOL     OW79746   9.145   6.449   5.561
19857SOL    HW279747   9.200   6.373   5.542
19857SOL    HW379748   9.147   6.457   5.656
19857SOL    MW479749   9.153   6.440   5.569
19858SOL     OW79750   8.195   7.182   3.772
19858SOL    HW279751   8.135   7.251   3.742
19858SOL    HW379752   8.140   7.124   3.825
19858SOL    MW479753   8.179   7.184   3.774
19859SOL     OW79754   8.633   5.827   3.995
19859SOL    HW279755   8.566   5.803   3.932
19859SOL    HW379756   8.698   5.876   3.944
19859SOL    MW479757   8.633   5.829   3.980
19860SOL     OW79758   8.440   6.011   5.080
19860SOL    HW279759   8.359   6.052   5.108
19860SOL    HW379760   8.487   6.079   5.032
19860SOL    MW479761   8.435   6.026   5.078
19861SOL     OW79762   8.700   6.349   4.703
19861SOL    HW279763   8.713   6.443   4.713
19861SOL    HW379764   8.661   6.339   4.617
19861SOL    MW479765   8.696   6.360   4.693
19862SOL     OW79766   8.152   6.544   4.507
19862SOL    HW279767   8.063   6.535   4.540
19862SOL    HW379768   8.156   6.634   4.475
19862SOL    MW479769   8.141   6.555   4.507
19863SOL     OW79770   8.951   6.127   4.502
19863SOL    HW279771   8.896   6.048   4.501
19863SOL    HW379772   8.933   6.168   4.586
19863SOL    MW479773   8.941   6.122   4.511
19864SOL     OW79774   7.922   5.814   5.319
19864SOL    HW279775   7.843   5.832   5.371
19864SOL    HW379776   7.917   5.876   5.246
19864SOL    MW479777   7.912   5.824   5.316
19865SOL     OW79778   8.570   6.331   4.459
19865SOL    HW279779   8.507   6.263   4.483
19865SOL    HW379780   8.590   6.312   4.367
19865SOL    MW479781   8.564   6.318   4.451
19866SOL     OW79782   7.826   7.226   4.161
19866SOL    HW279783   7.787   7.273   4.087
19866SOL    HW379784   7.760   7.161   4.186
19866SOL    MW479785   7.813   7.224   4.155
19867SOL     OW79786   8.318   6.635   4.185
19867SOL    HW279787   8.320   6.609   4.092
19867SOL    HW379788   8.376   6.572   4.228
19867SOL    MW479789   8.326   6.624   4.179
19868SOL     OW79790   8.871   7.195   4.957
19868SOL    HW279791   8.796   7.241   4.995
19868SOL    HW379792   8.853   7.102   4.974
19868SOL    MW479793   8.860   7.189   4.965
19869SOL     OW79794   8.875   7.403   4.387
19869SOL    HW279795   8.818   7.356   4.326
19869SOL    HW379796   8.961   7.364   4.374
19869SOL    MW479797   8.878   7.394   4.377
19870SOL     OW79798   8.828   5.879   4.518
19870SOL    HW279799   8.856   5.811   4.579
19870SOL    HW379800   8.742   5.850   4.488
19870SOL    MW479801   8.821   5.866   4.522
19871SOL     OW79802   7.633   6.813   4.452
19871SOL    HW279803   7.697   6.845   4.515
19871SOL    HW379804   7.682   6.749   4.400
19871SOL    MW479805   7.648   6.809   4.453
19872SOL     OW79806   8.133   6.889   5.434
19872SOL    HW279807   8.181   6.972   5.421
19872SOL    HW379808   8.190   6.837   5.490
19872SOL    MW479809   8.147   6.893   5.440
19873SOL     OW79810   7.709   7.131   5.574
19873SOL    HW279811   7.765   7.055   5.589
19873SOL    HW379812   7.658   7.109   5.496
19873SOL    MW479813   7.709   7.118   5.565
19874SOL     OW79814   8.808   5.983   3.853
19874SOL    HW279815   8.781   6.049   3.789
19874SOL    HW379816   8.878   6.026   3.903
19874SOL    MW479817   8.813   5.996   3.850
19875SOL     OW79818   8.476   5.688   3.790
19875SOL    HW279819   8.532   5.680   3.712
19875SOL    HW379820   8.453   5.598   3.812
19875SOL    MW479821   8.481   5.675   3.783
19876SOL     OW79822   8.981   6.539   3.995
19876SOL    HW279823   8.948   6.628   3.985
19876SOL    HW379824   8.946   6.510   4.080
19876SOL    MW479825   8.971   6.548   4.006
19877SOL     OW79826   8.594   6.968   5.183
19877SOL    HW279827   8.505   6.974   5.151
19877SOL    HW379828   8.638   7.047   5.151
19877SOL    MW479829   8.589   6.978   5.175
19878SOL     OW79830   7.887   5.636   5.525
19878SOL    HW279831   7.815   5.601   5.473
19878SOL    HW379832   7.945   5.677   5.460
19878SOL    MW479833   7.885   5.637   5.510
19879SOL     OW79834   7.911   7.126   4.824
19879SOL    HW279835   7.956   7.188   4.881
19879SOL    HW379836   7.818   7.145   4.837
19879SOL    MW479837   7.904   7.136   4.831
19880SOL     OW79838   9.351   6.655   5.178
19880SOL    HW279839   9.266   6.668   5.137
19880SOL    HW379840   9.331   6.619   5.265
19880SOL    MW479841   9.338   6.651   5.183
19881SOL     OW79842   8.333   7.194   4.932
19881SOL    HW279843   8.357   7.183   4.841
19881SOL    HW379844   8.256   7.251   4.930
19881SOL    MW479845   8.325   7.199   4.921
19882SOL     OW79846   7.975   6.577   3.787
19882SOL    HW279847   7.898   6.590   3.843
19882SOL    HW379848   7.939   6.541   3.706
19882SOL    MW479849   7.961   6.573   3.784
19883SOL     OW79850   8.628   6.550   4.030
19883SOL    HW279851   8.538   6.571   4.005
19883SOL    HW379852   8.655   6.623   4.086
19883SOL    MW479853   8.620   6.562   4.033
19884SOL     OW79854   8.128   6.899   4.722
19884SOL    HW279855   8.121   6.878   4.816
19884SOL    HW379856   8.046   6.867   4.685
19884SOL    MW479857   8.116   6.893   4.729
19885SOL     OW79858   8.992   5.909   5.124
19885SOL    HW279859   8.939   5.911   5.204
19885SOL    HW379860   8.977   5.822   5.087
19885SOL    MW479861   8.984   5.899   5.129
19886SOL     OW79862   9.328   5.833   4.997
19886SOL    HW279863   9.309   5.900   4.932
19886SOL    HW379864   9.385   5.771   4.952
19886SOL    MW479865   9.332   5.834   4.983
19887SOL     OW79866   7.574   6.991   5.385
19887SOL    HW279867   7.618   6.924   5.331
19887SOL    HW379868   7.489   6.953   5.405
19887SOL    MW479869   7.569   6.977   5.381
19888SOL     OW79870   8.257   5.666   4.437
19888SOL    HW279871   8.186   5.727   4.419
19888SOL    HW379872   8.308   5.663   4.356
19888SOL    MW479873   8.253   5.672   4.424
19889SOL     OW79874   8.015   6.906   4.186
19889SOL    HW279875   8.008   6.938   4.276
19889SOL    HW379876   7.925   6.890   4.158
19889SOL    MW479877   8.003   6.908   4.193
19890SOL     OW79878   8.610   7.299   5.095
19890SOL    HW279879   8.530   7.284   5.045
19890SOL    HW379880   8.617   7.394   5.102
19890SOL    MW479881   8.601   7.310   5.089
19891SOL     OW79882   8.724   7.264   4.585
19891SOL    HW279883   8.771   7.337   4.544
19891SOL    HW379884   8.645   7.303   4.621
19891SOL    MW479885   8.719   7.279   4.584
19892SOL     OW79886   9.132   7.359   4.860
19892SOL    HW279887   9.175   7.329   4.940
19892SOL    HW379888   9.051   7.307   4.857
19892SOL    MW479889   9.127   7.348   4.870
19893SOL     OW79890   8.217   6.323   5.567
19893SOL    HW279891   8.287   6.265   5.539
19893SOL    HW379892   8.160   6.268   5.622
19893SOL    MW479893   8.219   6.310   5.571
19894SOL     OW79894   9.004   6.535   5.200
19894SOL    HW279895   9.009   6.588   5.280
19894SOL    HW379896   8.966   6.452   5.228
19894SOL    MW479897   9.000   6.530   5.215
19895SOL     OW79898   8.644   5.670   5.446
19895SOL    HW279899   8.639   5.577   5.427
19895SOL    HW379900   8.727   5.681   5.492
19895SOL    MW479901   8.652   5.659   5.450
19896SOL     OW79902   8.018   6.190   3.900
19896SOL    HW279903   7.984   6.246   3.970
19896SOL    HW379904   8.089   6.140   3.940
19896SOL    MW479905   8.024   6.191   3.914
19897SOL     OW79906   9.114   6.941   4.722
19897SOL    HW279907   9.149   6.923   4.635
19897SOL    HW379908   9.019   6.942   4.709
19897SOL    MW479909   9.106   6.938   4.709
19898SOL     OW79910   8.543   6.589   5.091
19898SOL    HW279911   8.586   6.624   5.169
19898SOL    HW379912   8.526   6.666   5.037
19898SOL    MW479913   8.546   6.604   5.094
19899SOL     OW79914   9.074   6.076   3.964
19899SOL    HW279915   9.066   6.147   3.901
19899SOL    HW379916   9.092   6.120   4.047
19899SOL    MW479917   9.075   6.090   3.966
19900SOL     OW79918   7.934   5.731   4.393
19900SOL    HW279919   7.984   5.774   4.324
19900SOL    HW379920   7.849   5.775   4.393
19900SOL    MW479921   7.931   5.744   4.384
19901SOL     OW79922   7.693   6.793   5.253
19901SOL    HW279923   7.721   6.746   5.331
19901SOL    HW379924   7.614   6.748   5.224
19901SOL    MW479925   7.686   6.782   5.259
19902SOL     OW79926   8.201   6.120   5.220
19902SOL    HW279927   8.173   6.208   5.244
19902SOL    HW379928   8.170   6.064   5.291
19902SOL    MW479929   8.193   6.123   5.232
19903SOL     OW79930   8.743   6.338   3.939
19903SOL    HW279931   8.790   6.356   3.858
19903SOL    HW379932   8.709   6.422   3.967
19903SOL    MW479933   8.745   6.352   3.932
19904SOL     OW79934   7.856   6.516   4.433
19904SOL    HW279935   7.914   6.572   4.381
19904SOL    HW379936   7.900   6.431   4.435
19904SOL    MW479937   7.869   6.513   4.426
19905SOL     OW79938   8.996   5.868   4.270
19905SOL    HW279939   8.918   5.818   4.295
19905SOL    HW379940   8.967   5.959   4.270
19905SOL    MW479941   8.982   5.872   4.273
19906SOL     OW79942   8.582   5.830   4.429
19906SOL    HW279943   8.602   5.905   4.373
19906SOL    HW379944   8.562   5.869   4.514
19906SOL    MW479945   8.583   5.846   4.433
19907SOL     OW79946   8.478   7.080   3.761
19907SOL    HW279947   8.505   7.158   3.713
19907SOL    HW379948   8.385   7.095   3.780
19907SOL    MW479949   8.469   7.093   3.757
19908SOL     OW79950   9.342   6.603   5.448
19908SOL    HW279951   9.255   6.583   5.484
19908SOL    HW379952   9.396   6.529   5.473
19908SOL    MW479953   9.337   6.592   5.456
19909SOL     OW79954   7.563   7.116   4.605
19909SOL    HW279955   7.595   7.120   4.696
19909SOL    HW379956   7.468   7.124   4.613
19909SOL    MW479957   7.555   7.119   4.618
19910SOL     OW79958   7.518   6.242   4.152
19910SOL    HW279959   7.458   6.214   4.222
19910SOL    HW379960   7.592   6.182   4.158
19910SOL    MW479961   7.520   6.231   4.161
19911SOL     OW79962   9.086   7.454   5.586
19911SOL    HW279963   9.131   7.378   5.551
19911SOL    HW379964   9.124   7.467   5.673
19911SOL    MW479965   9.096   7.447   5.592
19912SOL     OW79966   8.686   6.973   4.312
19912SOL    HW279967   8.709   6.924   4.390
19912SOL    HW379968   8.767   7.015   4.284
19912SOL    MW479969   8.699   6.973   4.319
19913SOL     OW79970   7.944   5.981   5.041
19913SOL    HW279971   7.977   6.062   5.081
19913SOL    HW379972   7.917   6.007   4.953
19913SOL    MW479973   7.943   5.995   5.035
19914SOL     OW79974   7.898   5.948   4.777
19914SOL    HW279975   7.928   5.862   4.748
19914SOL    HW379976   7.803   5.941   4.780
19914SOL    MW479977   7.890   5.937   4.775
19915SOL     OW79978   8.727   6.157   5.468
19915SOL    HW279979   8.779   6.092   5.421
19915SOL    HW379980   8.685   6.208   5.398
19915SOL    MW479981   8.728   6.154   5.451
19916SOL     OW79982   8.826   5.952   5.329
19916SOL    HW279983   8.733   5.936   5.316
19916SOL    HW379984   8.852   5.890   5.397
19916SOL    MW479985   8.816   5.942   5.336
19917SOL     OW79986   8.041   5.726   4.668
19917SOL    HW279987   8.051   5.635   4.694
19917SOL    HW379988   7.997   5.722   4.583
19917SOL    MW479989   8.037   5.714   4.660
19918SOL     OW79990   8.135   7.341   5.214
19918SOL    HW279991   8.052   7.326   5.259
19918SOL    HW379992   8.194   7.274   5.249
19918SOL    MW479993   8.133   7.331   5.224
19919SOL     OW79994   9.192   6.048   4.839
19919SOL    HW279995   9.125   6.081   4.899
19919SOL    HW379996   9.235   6.126   4.805
19919SOL    MW479997   9.190   6.063   4.843
19920SOL     OW79998   9.370   6.768   4.809
19920SOL    HW279999   9.363   6.708   4.734
19920SOL    HW380000   9.296   6.828   4.798
19920SOL    MW480001   9.360   6.768   4.798
19921SOL     OW80002   8.752   6.630   4.727
19921SOL    HW280003   8.766   6.602   4.818
19921SOL    HW380004   8.838   6.661   4.699
19921SOL    MW480005   8.765   6.631   4.736
19922SOL     OW80006   8.835   6.125   5.006
19922SOL    HW280007   8.856   6.126   4.913
19922SOL    HW380008   8.880   6.047   5.039
19922SOL    MW480009   8.842   6.115   4.998
19923SOL     OW80010   9.328   6.256   5.548
19923SOL    HW280011   9.365   6.201   5.617
19923SOL    HW380012   9.353   6.213   5.466
19923SOL    MW480013   9.335   6.244   5.547
19924SOL     OW80014   8.875   6.554   5.600
19924SOL    HW280015   8.941   6.502   5.554
19924SOL    HW380016   8.895   6.541   5.693
19924SOL    MW480017   8.886   6.545   5.607
19925SOL     OW80018   8.826   5.640   3.948
19925SOL    HW280019   8.900   5.684   3.991
19925SOL    HW380020   8.750   5.694   3.970
19925SOL    MW480021   8.826   5.652   3.956
19926SOL     OW80022   8.886   6.415   4.226
19926SOL    HW280023   8.801   6.385   4.196
19926SOL    HW380024   8.878   6.422   4.321
19926SOL    MW480025   8.874   6.413   4.235
19927SOL     OW80026   7.962   6.878   4.957
19927SOL    HW280027   7.974   6.905   5.048
19927SOL    HW380028   7.943   6.959   4.910
19927SOL    MW480029   7.961   6.893   4.962
19928SOL     OW80030   8.246   5.858   4.780
19928SOL    HW280031   8.219   5.860   4.871
19928SOL    HW380032   8.176   5.810   4.735
19928SOL    MW480033   8.234   5.854   4.787
19929SOL     OW80034   8.100   7.350   4.942
19929SOL    HW280035   8.152   7.427   4.919
19929SOL    HW380036   8.109   7.342   5.037
19929SOL    MW480037   8.109   7.357   4.953
19930SOL     OW80038   9.002   6.935   5.174
19930SOL    HW280039   8.987   6.864   5.237
19930SOL    HW380040   9.048   6.893   5.102
19930SOL    MW480041   9.008   6.919   5.174
19931SOL     OW80042   8.076   6.666   5.291
19931SOL    HW280043   8.113   6.671   5.203
19931SOL    HW380044   8.115   6.739   5.338
19931SOL    MW480045   8.086   6.676   5.286
19932SOL     OW80046   8.256   6.709   5.103
19932SOL    HW280047   8.315   6.655   5.156
19932SOL    HW380048   8.271   6.681   5.013
19932SOL    MW480049   8.266   6.698   5.099
19933SOL     OW80050   8.259   6.081   3.952
19933SOL    HW280051   8.332   6.130   3.915
19933SOL    HW380052   8.275   5.990   3.926
19933SOL    MW480053   8.271   6.076   3.945
19934SOL     OW80054   9.067   7.198   5.275
19934SOL    HW280055   9.109   7.183   5.360
19934SOL    HW380056   9.058   7.111   5.237
19934SOL    MW480057   9.071   7.186   5.282
19935SOL     OW80058   8.727   5.677   4.866
19935SOL    HW280059   8.782   5.686   4.788
19935SOL    HW380060   8.782   5.711   4.937
19935SOL    MW480061   8.741   5.682   4.865
19936SOL     OW80062   7.734   6.590   4.050
19936SOL    HW280063   7.671   6.606   3.979
19936SOL    HW380064   7.681   6.553   4.121
19936SOL    MW480065   7.719   6.587   4.050
19937SOL     OW80066   8.090   6.944   3.909
19937SOL    HW280067   8.105   6.920   4.001
19937SOL    HW380068   7.998   6.922   3.893
19937SOL    MW480069   8.080   6.937   3.919
19938SOL     OW80070   8.629   7.175   4.061
19938SOL    HW280071   8.637   7.093   4.012
19938SOL    HW380072   8.548   7.214   4.028
19938SOL    MW480073   8.619   7.170   4.051
19939SOL     OW80074   7.888   7.333   4.630
19939SOL    HW280075   7.892   7.244   4.665
19939SOL    HW380076   7.914   7.324   4.539
19939SOL    MW480077   7.891   7.321   4.622
19940SOL     OW80078   8.505   6.811   4.873
19940SOL    HW280079   8.437   6.745   4.889
19940SOL    HW380080   8.523   6.805   4.780
19940SOL    MW480081   8.498   6.802   4.864
19941SOL     OW80082   7.594   7.086   5.124
19941SOL    HW280083   7.584   7.044   5.210
19941SOL    HW380084   7.515   7.139   5.114
19941SOL    MW480085   7.583   7.087   5.135
19942SOL     OW80086   8.498   5.950   4.694
19942SOL    HW280087   8.428   5.902   4.739
19942SOL    HW380088   8.530   6.013   4.758
19942SOL    MW480089   8.493   5.952   4.708
19943SOL     OW80090   8.149   6.386   5.314
19943SOL    HW280091   8.142   6.481   5.302
19943SOL    HW380092   8.158   6.375   5.409
19943SOL    MW480093   8.150   6.398   5.324
19944SOL     OW80094   7.870   6.901   5.572
19944SOL    HW280095   7.942   6.903   5.509
19944SOL    HW380096   7.840   6.810   5.571
19944SOL    MW480097   7.875   6.890   5.564
19945SOL     OW80098   8.954   5.664   5.039
19945SOL    HW280099   9.025   5.610   5.003
19945SOL    HW380100   8.953   5.643   5.132
19945SOL    MW480101   8.963   5.655   5.047
19946SOL     OW80102   9.154   7.194   5.523
19946SOL    HW280103   9.127   7.191   5.614
19946SOL    HW380104   9.250   7.198   5.526
19946SOL    MW480105   9.164   7.194   5.535
19947SOL     OW80106   7.965   6.056   4.507
19947SOL    HW280107   8.036   6.004   4.470
19947SOL    HW380108   7.951   6.021   4.594
19947SOL    MW480109   7.973   6.045   4.514
19948SOL     OW80110   7.520   7.391   5.579
19948SOL    HW280111   7.570   7.369   5.501
19948SOL    HW380112   7.528   7.486   5.587
19948SOL    MW480113   7.528   7.400   5.570
19949SOL     OW80114   8.281   7.149   4.583
19949SOL    HW280115   8.209   7.086   4.596
19949SOL    HW380116   8.242   7.234   4.601
19949SOL    MW480117   8.265   7.152   4.586
19950SOL     OW80118   8.601   5.997   4.231
19950SOL    HW280119   8.623   5.934   4.163
19950SOL    HW380120   8.506   5.989   4.242
19950SOL    MW480121   8.591   5.988   4.223
19951SOL     OW80122   7.686   5.687   4.163
19951SOL    HW280123   7.757   5.708   4.102
19951SOL    HW380124   7.640   5.615   4.121
19951SOL    MW480125   7.690   5.681   4.149
19952SOL     OW80126   7.517   6.154   5.306
19952SOL    HW280127   7.581   6.220   5.281
19952SOL    HW380128   7.436   6.181   5.263
19952SOL    MW480129   7.515   6.166   5.298
19953SOL     OW80130   9.255   7.061   4.263
19953SOL    HW280131   9.225   6.994   4.324
19953SOL    HW380132   9.349   7.067   4.277
19953SOL    MW480133   9.263   7.053   4.273
19954SOL     OW80134   8.811   6.738   4.193
19954SOL    HW280135   8.783   6.824   4.226
19954SOL    HW380136   8.839   6.754   4.103
19954SOL    MW480137   8.811   6.752   4.185
19955SOL     OW80138   8.473   5.658   4.246
19955SOL    HW280139   8.510   5.717   4.311
19955SOL    HW380140   8.450   5.714   4.172
19955SOL    MW480141   8.474   5.673   4.245
19956SOL     OW80142   9.326   6.540   4.668
19956SOL    HW280143   9.317   6.572   4.579
19956SOL    HW380144   9.279   6.456   4.668
19956SOL    MW480145   9.319   6.533   4.658
19957SOL     OW80146   7.702   6.380   5.247
19957SOL    HW280147   7.723   6.449   5.185
19957SOL    HW380148   7.782   6.327   5.252
19957SOL    MW480149   7.715   6.381   5.241
19958SOL     OW80150   9.238   6.471   4.369
19958SOL    HW280151   9.332   6.460   4.357
19958SOL    HW380152   9.214   6.543   4.310
19958SOL    MW480153   9.248   6.479   4.360
19959SOL     OW80154   7.687   6.395   5.514
19959SOL    HW280155   7.613   6.339   5.540
19959SOL    HW380156   7.682   6.398   5.419
19959SOL    MW480157   7.676   6.388   5.504
19960SOL     OW80158   7.853   5.682   4.964
19960SOL    HW280159   7.896   5.766   4.984
19960SOL    HW380160   7.926   5.620   4.957
19960SOL    MW480161   7.868   5.685   4.965
19961SOL     OW80162   7.894   6.349   4.142
19961SOL    HW280163   7.894   6.444   4.127
19961SOL    HW380164   7.971   6.333   4.196
19961SOL    MW480165   7.904   6.360   4.147
19962SOL     OW80166   8.670   6.208   5.206
19962SOL    HW280167   8.706   6.181   5.122
19962SOL    HW380168   8.583   6.242   5.185
19962SOL    MW480169   8.664   6.209   5.193
19963SOL     OW80170   7.653   6.080   4.431
19963SOL    HW280171   7.715   6.087   4.504
19963SOL    HW380172   7.653   5.987   4.408
19963SOL    MW480173   7.661   6.069   4.438
19964SOL     OW80174   9.200   7.420   3.963
19964SOL    HW280175   9.267   7.453   3.903
19964SOL    HW380176   9.157   7.499   3.997
19964SOL    MW480177   9.202   7.435   3.959
19965SOL     OW80178   8.335   6.341   4.915
19965SOL    HW280179   8.293   6.259   4.891
19965SOL    HW380180   8.336   6.340   5.011
19965SOL    MW480181   8.328   6.330   4.924
19966SOL     OW80182   9.006   7.474   5.314
19966SOL    HW280183   9.009   7.380   5.297
19966SOL    HW380184   9.029   7.482   5.406
19966SOL    MW480185   9.009   7.462   5.324
19967SOL     OW80186   8.139   5.811   5.020
19967SOL    HW280187   8.070   5.874   5.041
19967SOL    HW380188   8.166   5.775   5.105
19967SOL    MW480189   8.133   5.814   5.033
19968SOL     OW80190   7.522   6.652   3.889
19968SOL    HW280191   7.491   6.717   3.952
19968SOL    HW380192   7.471   6.574   3.908
19968SOL    MW480193   7.512   6.649   3.899
19969SOL     OW80194   8.934   5.664   4.637
19969SOL    HW280195   9.022   5.673   4.674
19969SOL    HW380196   8.944   5.605   4.563
19969SOL    MW480197   8.948   5.658   4.631
19970SOL     OW80198   8.966   6.403   4.481
19970SOL    HW280199   9.046   6.418   4.430
19970SOL    HW380200   8.959   6.308   4.487
19970SOL    MW480201   8.975   6.392   4.476
19971SOL     OW80202   8.106   7.452   3.831
19971SOL    HW280203   8.011   7.452   3.823
19971SOL    HW380204   8.122   7.398   3.909
19971SOL    MW480205   8.096   7.446   3.840
19972SOL     OW80206   8.416   6.329   5.178
19972SOL    HW280207   8.485   6.396   5.175
19972SOL    HW380208   8.349   6.367   5.234
19972SOL    MW480209   8.417   6.342   5.185
19973SOL     OW80210   7.834   6.629   5.426
19973SOL    HW280211   7.788   6.545   5.428
19973SOL    HW380212   7.891   6.623   5.350
19973SOL    MW480213   7.836   6.617   5.418
19974SOL     OW80214   8.951   6.272   3.747
19974SOL    HW280215   8.879   6.248   3.689
19974SOL    HW380216   9.017   6.309   3.689
19974SOL    MW480217   8.950   6.274   3.732
19975SOL     OW80218   8.085   7.004   4.427
19975SOL    HW280219   8.150   6.937   4.448
19975SOL    HW380220   8.137   7.081   4.404
19975SOL    MW480221   8.100   7.006   4.426
19976SOL     OW80222   8.346   6.169   4.557
19976SOL    HW280223   8.286   6.187   4.629
19976SOL    HW380224   8.380   6.081   4.576
19976SOL    MW480225   8.342   6.159   4.570
19977SOL     OW80226   9.287   5.668   5.226
19977SOL    HW280227   9.208   5.714   5.254
19977SOL    HW380228   9.322   5.722   5.155
19977SOL    MW480229   9.281   5.681   5.220
19978SOL     OW80230   8.571   6.752   4.576
19978SOL    HW280231   8.663   6.733   4.594
19978SOL    HW380232   8.544   6.682   4.516
19978SOL    MW480233   8.579   6.740   4.570
19979SOL     OW80234   8.364   6.572   3.931
19979SOL    HW280235   8.350   6.484   3.896
19979SOL    HW380236   8.315   6.629   3.872
19979SOL    MW480237   8.356   6.567   3.919
19980SOL     OW80238   8.845   6.990   4.672
19980SOL    HW280239   8.818   7.074   4.637
19980SOL    HW380240   8.805   6.985   4.759
19980SOL    MW480241   8.838   6.999   4.678
19981SOL     OW80242   8.764   6.938   4.940
19981SOL    HW280243   8.775   6.905   5.029
19981SOL    HW380244   8.683   6.897   4.909
19981SOL    MW480245   8.754   6.930   4.946
19982SOL     OW80246   7.777   6.296   4.710
19982SOL    HW280247   7.727   6.295   4.791
19982SOL    HW380248   7.797   6.388   4.694
19982SOL    MW480249   7.773   6.308   4.718
19983SOL     OW80250   8.844   7.060   5.472
19983SOL    HW280251   8.844   7.154   5.488
19983SOL    HW380252   8.889   7.050   5.388
19983SOL    MW480253   8.850   7.070   5.463
19984SOL     OW80254   9.083   5.778   4.033
19984SOL    HW280255   9.076   5.782   4.128
19984SOL    HW380256   9.095   5.869   4.006
19984SOL    MW480257   9.084   5.791   4.041
19985SOL     OW80258   8.372   6.341   4.147
19985SOL    HW280259   8.352   6.327   4.054
19985SOL    HW380260   8.465   6.320   4.154
19985SOL    MW480261   8.382   6.336   4.136
19986SOL     OW80262   7.699   5.964   5.451
19986SOL    HW280263   7.656   6.023   5.388
19986SOL    HW380264   7.767   6.019   5.491
19986SOL    MW480265   7.703   5.979   5.448
19987SOL     OW80266   8.811   6.584   4.996
19987SOL    HW280267   8.874   6.581   5.069
19987SOL    HW380268   8.727   6.602   5.038
19987SOL    MW480269   8.807   6.586   5.011
19988SOL     OW80270   8.355   7.299   4.185
19988SOL    HW280271   8.413   7.370   4.212
19988SOL    HW380272   8.378   7.227   4.243
19988SOL    MW480273   8.366   7.299   4.196
19989SOL     OW80274   9.150   5.761   4.775
19989SOL    HW280275   9.195   5.679   4.794
19989SOL    HW380276   9.170   5.817   4.851
19989SOL    MW480277   9.160   5.757   4.787
19990SOL     OW80278   7.598   5.604   4.874
19990SOL    HW280279   7.589   5.605   4.779
19990SOL    HW380280   7.692   5.616   4.889
19990SOL    MW480281   7.610   5.607   4.865
19991SOL     OW80282   9.235   6.797   4.494
19991SOL    HW280283   9.214   6.743   4.417
19991SOL    HW380284   9.331   6.795   4.498
19991SOL    MW480285   9.244   6.790   4.483
19992SOL     OW80286   7.927   6.942   5.237
19992SOL    HW280287   7.848   6.892   5.260
19992SOL    HW380288   7.997   6.901   5.287
19992SOL    MW480289   7.925   6.930   5.247
19993SOL     OW80290   7.811   5.731   3.920
19993SOL    HW280291   7.740   5.786   3.888
19993SOL    HW380292   7.853   5.697   3.841
19993SOL    MW480293   7.807   5.733   3.906
19994SOL     OW80294   8.935   6.228   4.756
19994SOL    HW280295   8.858   6.274   4.722
19994SOL    HW380296   8.992   6.297   4.790
19994SOL    MW480297   8.932   6.243   4.756
19995SOL     OW80298   7.567   5.830   3.769
19995SOL    HW280299   7.534   5.909   3.813
19995SOL    HW380300   7.622   5.863   3.698
19995SOL    MW480301   7.570   5.844   3.766
19996SOL     OW80302   7.601   7.087   3.958
19996SOL    HW280303   7.618   7.171   4.000
19996SOL    HW380304   7.636   7.096   3.870
19996SOL    MW480305   7.606   7.100   3.952
19997SOL     OW80306   8.873   7.176   4.175
19997SOL    HW280307   8.936   7.166   4.104
19997SOL    HW380308   8.790   7.196   4.130
19997SOL    MW480309   8.870   7.177   4.160
19998SOL     OW80310   9.236   6.444   5.862
19998SOL    HW280311   9.277   6.386   5.927
19998SOL    HW380312   9.143   6.436   5.879
19998SOL    MW480313   9.230   6.436   5.872
19999SOL     OW80314   9.102   6.376   6.857
19999SOL    HW280315   9.057   6.443   6.908
19999SOL    HW380316   9.190   6.412   6.843
19999SOL    MW480317   9.108   6.389   6.861
20000SOL     OW80318   8.030   6.627   6.091
20000SOL    HW280319   8.120   6.602   6.075
20000SOL    HW380320   8.026   6.720   6.068
20000SOL    MW480321   8.042   6.636   6.086
20001SOL     OW80322   9.146   7.330   6.233
20001SOL    HW280323   9.158   7.276   6.311
20001SOL    HW380324   9.183   7.278   6.162
20001SOL    MW480325   9.152   7.315   6.234
20002SOL     OW80326   8.525   7.215   7.234
20002SOL    HW280327   8.566   7.251   7.155
20002SOL    HW380328   8.560   7.126   7.241
20002SOL    MW480329   8.536   7.208   7.225
20003SOL     OW80330   9.082   6.770   6.838
20003SOL    HW280331   9.003   6.735   6.796
20003SOL    HW380332   9.109   6.842   6.782
20003SOL    MW480333   9.075   6.775   6.825
20004SOL     OW80334   8.314   6.083   6.104
20004SOL    HW280335   8.289   6.171   6.132
20004SOL    HW380336   8.311   6.086   6.008
20004SOL    MW480337   8.310   6.095   6.096
20005SOL     OW80338   7.756   6.111   6.032
20005SOL    HW280339   7.788   6.199   6.014
20005SOL    HW380340   7.744   6.109   6.127
20005SOL    MW480341   7.759   6.123   6.044
20006SOL     OW80342   7.834   6.524   6.933
20006SOL    HW280343   7.897   6.471   6.884
20006SOL    HW380344   7.815   6.598   6.876
20006SOL    MW480345   7.840   6.526   6.920
20007SOL     OW80346   8.155   5.866   6.119
20007SOL    HW280347   8.213   5.942   6.121
20007SOL    HW380348   8.090   5.887   6.052
20007SOL    MW480349   8.154   5.878   6.110
20008SOL     OW80350   8.242   6.793   6.294
20008SOL    HW280351   8.322   6.796   6.346
20008SOL    HW380352   8.270   6.760   6.208
20008SOL    MW480353   8.256   6.789   6.289
20009SOL     OW80354   8.267   7.134   7.197
20009SOL    HW280355   8.351   7.160   7.236
20009SOL    HW380356   8.291   7.078   7.123
20009SOL    MW480357   8.281   7.130   7.192
20010SOL     OW80358   8.019   6.297   6.285
20010SOL    HW280359   8.004   6.217   6.336
20010SOL    HW380360   8.101   6.332   6.319
20010SOL    MW480361   8.027   6.289   6.297
20011SOL     OW80362   8.356   6.983   6.970
20011SOL    HW280363   8.320   7.049   6.910
20011SOL    HW380364   8.284   6.921   6.983
20011SOL    MW480365   8.342   6.983   6.964
20012SOL     OW80366   8.161   6.123   6.662
20012SOL    HW280367   8.067   6.119   6.680
20012SOL    HW380368   8.191   6.032   6.671
20012SOL    MW480369   8.152   6.111   6.665
20013SOL     OW80370   7.907   6.537   6.566
20013SOL    HW280371   7.862   6.544   6.482
20013SOL    HW380372   7.887   6.620   6.610
20013SOL    MW480373   7.899   6.549   6.560
20014SOL     OW80374   7.604   7.383   6.441
20014SOL    HW280375   7.693   7.375   6.476
20014SOL    HW380376   7.568   7.295   6.446
20014SOL    MW480377   7.611   7.370   6.446
20015SOL     OW80378   8.869   6.775   5.810
20015SOL    HW280379   8.787   6.811   5.776
20015SOL    HW380380   8.937   6.818   5.759
20015SOL    MW480381   8.867   6.785   5.798
20016SOL     OW80382   7.868   6.910   6.476
20016SOL    HW280383   7.844   6.963   6.552
20016SOL    HW380384   7.924   6.968   6.424
20016SOL    MW480385   7.872   6.925   6.479
20017SOL     OW80386   8.430   6.554   6.286
20017SOL    HW280387   8.344   6.541   6.326
20017SOL    HW380388   8.483   6.481   6.318
20017SOL    MW480389   8.426   6.543   6.295
20018SOL     OW80390   7.838   7.206   7.071
20018SOL    HW280391   7.746   7.182   7.056
20018SOL    HW380392   7.882   7.123   7.088
20018SOL    MW480393   7.832   7.191   7.070
20019SOL     OW80394   8.421   6.916   6.003
20019SOL    HW280395   8.398   6.978   6.071
20019SOL    HW380396   8.378   6.834   6.029
20019SOL    MW480397   8.413   6.912   6.014
20020SOL     OW80398   9.294   5.917   6.459
20020SOL    HW280399   9.231   5.897   6.528
20020SOL    HW380400   9.284   5.846   6.396
20020SOL    MW480401   9.284   5.904   6.460
20021SOL     OW80402   7.918   5.889   5.971
20021SOL    HW280403   7.892   5.851   5.887
20021SOL    HW380404   7.855   5.959   5.987
20021SOL    MW480405   7.907   5.892   5.962
20022SOL     OW80406   7.753   6.850   6.008
20022SOL    HW280407   7.701   6.918   5.964
20022SOL    HW380408   7.750   6.776   5.948
20022SOL    MW480409   7.745   6.849   5.995
20023SOL     OW80410   8.415   7.313   5.786
20023SOL    HW280411   8.370   7.329   5.869
20023SOL    HW380412   8.346   7.278   5.728
20023SOL    MW480413   8.401   7.310   5.788
20024SOL     OW80414   9.350   6.086   5.761
20024SOL    HW280415   9.259   6.088   5.789
20024SOL    HW380416   9.395   6.148   5.819
20024SOL    MW480417   9.343   6.094   5.771
20025SOL     OW80418   9.095   6.689   6.111
20025SOL    HW280419   9.005   6.689   6.146
20025SOL    HW380420   9.088   6.735   6.028
20025SOL    MW480421   9.082   6.695   6.105
20026SOL     OW80422   8.895   6.324   7.183
20026SOL    HW280423   8.964   6.262   7.160
20026SOL    HW380424   8.820   6.298   7.130
20026SOL    MW480425   8.895   6.311   7.174
20027SOL     OW80426   7.636   7.204   6.735
20027SOL    HW280427   7.619   7.150   6.812
20027SOL    HW380428   7.624   7.294   6.765
20027SOL    MW480429   7.633   7.208   6.749
20028SOL     OW80430   8.631   6.711   7.175
20028SOL    HW280431   8.616   6.804   7.160
20028SOL    HW380432   8.726   6.701   7.175
20028SOL    MW480433   8.640   6.721   7.172
20029SOL     OW80434   8.427   6.135   7.376
20029SOL    HW280435   8.517   6.136   7.343
20029SOL    HW380436   8.386   6.060   7.334
20029SOL    MW480437   8.433   6.125   7.367
20030SOL     OW80438   9.002   6.667   6.503
20030SOL    HW280439   9.005   6.601   6.434
20030SOL    HW380440   9.087   6.710   6.499
20030SOL    MW480441   9.014   6.663   6.494
20031SOL     OW80442   8.622   6.270   6.072
20031SOL    HW280443   8.648   6.294   5.983
20031SOL    HW380444   8.604   6.177   6.068
20031SOL    MW480445   8.624   6.262   6.059
20032SOL     OW80446   9.287   6.890   5.923
20032SOL    HW280447   9.243   6.931   5.998
20032SOL    HW380448   9.344   6.958   5.888
20032SOL    MW480449   9.289   6.904   5.928
20033SOL     OW80450   8.207   5.939   7.326
20033SOL    HW280451   8.217   5.865   7.266
20033SOL    HW380452   8.243   5.908   7.409
20033SOL    MW480453   8.213   5.925   7.328
20034SOL     OW80454   7.943   7.306   6.241
20034SOL    HW280455   7.975   7.394   6.219
20034SOL    HW380456   7.896   7.278   6.163
20034SOL    MW480457   7.942   7.314   6.228
20035SOL     OW80458   9.327   5.668   6.290
20035SOL    HW280459   9.381   5.619   6.352
20035SOL    HW380460   9.270   5.602   6.251
20035SOL    MW480461   9.327   5.652   6.292
20036SOL     OW80462   7.659   7.366   5.818
20036SOL    HW280463   7.688   7.456   5.810
20036SOL    HW380464   7.609   7.349   5.739
20036SOL    MW480465   7.657   7.374   5.807
20037SOL     OW80466   8.446   5.621   6.703
20037SOL    HW280467   8.405   5.699   6.665
20037SOL    HW380468   8.540   5.639   6.698
20037SOL    MW480469   8.452   5.633   6.698
20038SOL     OW80470   9.063   7.174   5.789
20038SOL    HW280471   9.111   7.243   5.835
20038SOL    HW380472   8.984   7.218   5.758
20038SOL    MW480473   9.058   7.188   5.792
20039SOL     OW80474   8.461   6.299   5.733
20039SOL    HW280475   8.463   6.246   5.654
20039SOL    HW380476   8.549   6.336   5.739
20039SOL    MW480477   8.473   6.298   5.722
20040SOL     OW80478   9.075   6.225   6.069
20040SOL    HW280479   9.114   6.225   6.156
20040SOL    HW380480   9.016   6.301   6.069
20040SOL    MW480481   9.072   6.236   6.080
20041SOL     OW80482   8.392   6.592   7.198
20041SOL    HW280483   8.369   6.572   7.288
20041SOL    HW380484   8.477   6.636   7.203
20041SOL    MW480485   8.399   6.595   7.210
20042SOL     OW80486   8.472   5.729   6.958
20042SOL    HW280487   8.478   5.691   6.871
20042SOL    HW380488   8.461   5.823   6.943
20042SOL    MW480489   8.473   5.737   6.946
20043SOL     OW80490   8.561   6.218   6.792
20043SOL    HW280491   8.636   6.247   6.739
20043SOL    HW380492   8.493   6.283   6.776
20043SOL    MW480493   8.562   6.230   6.782
20044SOL     OW80494   9.111   6.186   7.069
20044SOL    HW280495   9.092   6.095   7.048
20044SOL    HW380496   9.089   6.235   6.990
20044SOL    MW480497   9.106   6.179   7.056
20045SOL     OW80498   9.253   7.280   6.973
20045SOL    HW280499   9.181   7.242   7.024
20045SOL    HW380500   9.270   7.365   7.014
20045SOL    MW480501   9.247   7.285   6.985
20046SOL     OW80502   8.558   5.924   7.175
20046SOL    HW280503   8.524   5.963   7.094
20046SOL    HW380504   8.536   5.832   7.168
20046SOL    MW480505   8.551   5.917   7.165
20047SOL     OW80506   8.967   6.738   7.251
20047SOL    HW280507   9.049   6.779   7.281
20047SOL    HW380508   8.930   6.700   7.331
20047SOL    MW480509   8.973   6.739   7.266
20048SOL     OW80510   9.262   6.111   6.235
20048SOL    HW280511   9.351   6.080   6.252
20048SOL    HW380512   9.205   6.051   6.283
20048SOL    MW480513   9.265   6.099   6.244
20049SOL     OW80514   7.688   5.825   6.264
20049SOL    HW280515   7.679   5.765   6.190
20049SOL    HW380516   7.621   5.796   6.327
20049SOL    MW480517   7.678   5.812   6.262
20050SOL     OW80518   8.631   6.918   5.825
20050SOL    HW280519   8.581   6.920   5.907
20050SOL    HW380520   8.565   6.936   5.757
20050SOL    MW480521   8.617   6.920   5.827
20051SOL     OW80522   7.635   5.998   6.627
20051SOL    HW280523   7.607   6.089   6.636
20051SOL    HW380524   7.572   5.959   6.566
20051SOL    MW480525   7.622   6.004   6.621
20052SOL     OW80526   8.094   7.336   5.933
20052SOL    HW280527   8.015   7.294   5.966
20052SOL    HW380528   8.160   7.319   6.000
20052SOL    MW480529   8.093   7.328   5.946
20053SOL     OW80530   9.222   6.856   7.330
20053SOL    HW280531   9.272   6.782   7.362
20053SOL    HW380532   9.168   6.883   7.405
20053SOL    MW480533   9.222   6.850   7.343
20054SOL     OW80534   8.230   6.751   5.640
20054SOL    HW280535   8.152   6.697   5.627
20054SOL    HW380536   8.201   6.824   5.693
20054SOL    MW480537   8.216   6.753   5.645
20055SOL     OW80538   9.356   6.491   6.832
20055SOL    HW280539   9.372   6.529   6.745
20055SOL    HW380540   9.390   6.557   6.893
20055SOL    MW480541   9.363   6.504   6.828
20056SOL     OW80542   9.148   7.200   6.501
20056SOL    HW280543   9.177   7.267   6.562
20056SOL    HW380544   9.129   7.124   6.556
20056SOL    MW480545   9.150   7.200   6.516
20057SOL     OW80546   8.811   7.267   5.708
20057SOL    HW280547   8.737   7.230   5.758
20057SOL    HW380548   8.819   7.357   5.741
20057SOL    MW480549   8.802   7.274   5.720
20058SOL     OW80550   7.619   6.273   6.797
20058SOL    HW280551   7.681   6.303   6.863
20058SOL    HW380552   7.553   6.342   6.791
20058SOL    MW480553   7.618   6.286   6.804
20059SOL     OW80554   9.035   6.941   5.650
20059SOL    HW280555   8.982   6.990   5.586
20059SOL    HW380556   9.066   7.007   5.711
20059SOL    MW480557   9.033   6.955   5.648
20060SOL     OW80558   8.260   5.830   5.705
20060SOL    HW280559   8.208   5.750   5.693
20060SOL    HW380560   8.347   5.807   5.673
20060SOL    MW480561   8.263   5.816   5.699
20061SOL     OW80562   7.714   7.382   7.249
20061SOL    HW280563   7.688   7.450   7.187
20061SOL    HW380564   7.762   7.319   7.197
20061SOL    MW480565   7.716   7.382   7.235
20062SOL     OW80566   7.766   6.701   6.756
20062SOL    HW280567   7.819   6.776   6.781
20062SOL    HW380568   7.685   6.739   6.722
20062SOL    MW480569   7.762   6.716   6.756
20063SOL     OW80570   8.306   6.605   6.744
20063SOL    HW280571   8.334   6.514   6.756
20063SOL    HW380572   8.235   6.599   6.680
20063SOL    MW480573   8.299   6.593   6.739
20064SOL     OW80574   7.621   6.470   6.162
20064SOL    HW280575   7.712   6.485   6.189
20064SOL    HW380576   7.624   6.391   6.108
20064SOL    MW480577   7.633   6.462   6.160
20065SOL     OW80578   7.857   6.178   7.416
20065SOL    HW280579   7.804   6.258   7.423
20065SOL    HW380580   7.927   6.190   7.481
20065SOL    MW480581   7.859   6.191   7.424
20066SOL     OW80582   8.243   5.728   7.123
20066SOL    HW280583   8.220   5.636   7.125
20066SOL    HW380584   8.329   5.730   7.080
20066SOL    MW480585   8.250   5.718   7.119
20067SOL     OW80586   7.927   6.252   7.162
20067SOL    HW280587   8.007   6.302   7.148
20067SOL    HW380588   7.918   6.246   7.257
20067SOL    MW480589   7.936   6.258   7.172
20068SOL     OW80590   8.248   7.402   6.536
20068SOL    HW280591   8.337   7.417   6.566
20068SOL    HW380592   8.243   7.449   6.452
20068SOL    MW480593   8.258   7.410   6.529
20069SOL     OW80594   8.904   5.777   7.433
20069SOL    HW280595   8.960   5.704   7.459
20069SOL    HW380596   8.874   5.815   7.515
20069SOL    MW480597   8.908   5.772   7.446
20070SOL     OW80598   7.629   7.082   6.201
20070SOL    HW280599   7.601   7.121   6.283
20070SOL    HW380600   7.649   6.991   6.223
20070SOL    MW480601   7.627   7.074   6.214
20071SOL     OW80602   8.462   7.125   6.236
20071SOL    HW280603   8.545   7.079   6.220
20071SOL    HW380604   8.452   7.124   6.332
20071SOL    MW480605   8.472   7.118   6.246
20072SOL     OW80606   9.294   6.270   6.550
20072SOL    HW280607   9.383   6.300   6.532
20072SOL    HW380608   9.274   6.210   6.479
20072SOL    MW480609   9.303   6.267   6.539
20073SOL     OW80610   9.145   6.449   7.430
20073SOL    HW280611   9.200   6.373   7.411
20073SOL    HW380612   9.147   6.457   7.525
20073SOL    MW480613   9.153   6.440   7.438
20074SOL     OW80614   8.195   7.182   5.641
20074SOL    HW280615   8.135   7.251   5.611
20074SOL    HW380616   8.140   7.124   5.694
20074SOL    MW480617   8.179   7.184   5.643
20075SOL     OW80618   8.633   5.827   5.864
20075SOL    HW280619   8.566   5.803   5.801
20075SOL    HW380620   8.698   5.876   5.813
20075SOL    MW480621   8.633   5.829   5.849
20076SOL     OW80622   8.440   6.011   6.949
20076SOL    HW280623   8.359   6.052   6.977
20076SOL    HW380624   8.487   6.079   6.901
20076SOL    MW480625   8.435   6.026   6.947
20077SOL     OW80626   8.700   6.349   6.572
20077SOL    HW280627   8.713   6.443   6.582
20077SOL    HW380628   8.661   6.339   6.486
20077SOL    MW480629   8.696   6.360   6.562
20078SOL     OW80630   8.152   6.544   6.376
20078SOL    HW280631   8.063   6.535   6.409
20078SOL    HW380632   8.156   6.634   6.344
20078SOL    MW480633   8.141   6.555   6.376
20079SOL     OW80634   8.951   6.127   6.371
20079SOL    HW280635   8.896   6.048   6.370
20079SOL    HW380636   8.933   6.168   6.455
20079SOL    MW480637   8.941   6.122   6.380
20080SOL     OW80638   7.922   5.814   7.188
20080SOL    HW280639   7.843   5.832   7.240
20080SOL    HW380640   7.917   5.876   7.115
20080SOL    MW480641   7.912   5.824   7.185
20081SOL     OW80642   8.570   6.331   6.328
20081SOL    HW280643   8.507   6.263   6.352
20081SOL    HW380644   8.590   6.312   6.236
20081SOL    MW480645   8.564   6.318   6.320
20082SOL     OW80646   7.826   7.226   6.030
20082SOL    HW280647   7.787   7.273   5.956
20082SOL    HW380648   7.760   7.161   6.055
20082SOL    MW480649   7.813   7.224   6.024
20083SOL     OW80650   8.318   6.635   6.054
20083SOL    HW280651   8.320   6.609   5.961
20083SOL    HW380652   8.376   6.572   6.097
20083SOL    MW480653   8.326   6.624   6.048
20084SOL     OW80654   8.871   7.195   6.826
20084SOL    HW280655   8.796   7.241   6.864
20084SOL    HW380656   8.853   7.102   6.843
20084SOL    MW480657   8.860   7.189   6.834
20085SOL     OW80658   8.875   7.403   6.256
20085SOL    HW280659   8.818   7.356   6.195
20085SOL    HW380660   8.961   7.364   6.243
20085SOL    MW480661   8.878   7.394   6.246
20086SOL     OW80662   8.828   5.879   6.387
20086SOL    HW280663   8.856   5.811   6.448
20086SOL    HW380664   8.742   5.850   6.357
20086SOL    MW480665   8.821   5.866   6.391
20087SOL     OW80666   7.633   6.813   6.321
20087SOL    HW280667   7.697   6.845   6.384
20087SOL    HW380668   7.682   6.749   6.269
20087SOL    MW480669   7.648   6.809   6.322
20088SOL     OW80670   8.133   6.889   7.303
20088SOL    HW280671   8.181   6.972   7.290
20088SOL    HW380672   8.190   6.837   7.359
20088SOL    MW480673   8.147   6.893   7.309
20089SOL     OW80674   7.709   7.131   7.443
20089SOL    HW280675   7.765   7.055   7.458
20089SOL    HW380676   7.658   7.109   7.365
20089SOL    MW480677   7.709   7.118   7.434
20090SOL     OW80678   8.808   5.983   5.722
20090SOL    HW280679   8.781   6.049   5.658
20090SOL    HW380680   8.878   6.026   5.772
20090SOL    MW480681   8.813   5.996   5.719
20091SOL     OW80682   8.476   5.688   5.659
20091SOL    HW280683   8.532   5.680   5.581
20091SOL    HW380684   8.453   5.598   5.681
20091SOL    MW480685   8.481   5.675   5.652
20092SOL     OW80686   8.981   6.539   5.864
20092SOL    HW280687   8.948   6.628   5.854
20092SOL    HW380688   8.946   6.510   5.949
20092SOL    MW480689   8.971   6.548   5.875
20093SOL     OW80690   8.594   6.968   7.052
20093SOL    HW280691   8.505   6.974   7.020
20093SOL    HW380692   8.638   7.047   7.020
20093SOL    MW480693   8.589   6.978   7.044
20094SOL     OW80694   7.887   5.636   7.394
20094SOL    HW280695   7.815   5.601   7.342
20094SOL    HW380696   7.945   5.677   7.329
20094SOL    MW480697   7.885   5.637   7.379
20095SOL     OW80698   7.911   7.126   6.693
20095SOL    HW280699   7.956   7.188   6.750
20095SOL    HW380700   7.818   7.145   6.706
20095SOL    MW480701   7.904   7.136   6.700
20096SOL     OW80702   9.351   6.655   7.047
20096SOL    HW280703   9.266   6.668   7.006
20096SOL    HW380704   9.331   6.619   7.134
20096SOL    MW480705   9.338   6.651   7.052
20097SOL     OW80706   8.333   7.194   6.801
20097SOL    HW280707   8.357   7.183   6.710
20097SOL    HW380708   8.256   7.251   6.799
20097SOL    MW480709   8.325   7.199   6.790
20098SOL     OW80710   7.975   6.577   5.656
20098SOL    HW280711   7.898   6.590   5.712
20098SOL    HW380712   7.939   6.541   5.575
20098SOL    MW480713   7.961   6.573   5.653
20099SOL     OW80714   8.628   6.550   5.899
20099SOL    HW280715   8.538   6.571   5.874
20099SOL    HW380716   8.655   6.623   5.955
20099SOL    MW480717   8.620   6.562   5.902
20100SOL     OW80718   8.128   6.899   6.591
20100SOL    HW280719   8.121   6.878   6.685
20100SOL    HW380720   8.046   6.867   6.554
20100SOL    MW480721   8.116   6.893   6.598
20101SOL     OW80722   8.992   5.909   6.993
20101SOL    HW280723   8.939   5.911   7.073
20101SOL    HW380724   8.977   5.822   6.956
20101SOL    MW480725   8.984   5.899   6.998
20102SOL     OW80726   9.328   5.833   6.866
20102SOL    HW280727   9.309   5.900   6.801
20102SOL    HW380728   9.385   5.771   6.821
20102SOL    MW480729   9.332   5.834   6.852
20103SOL     OW80730   7.574   6.991   7.254
20103SOL    HW280731   7.618   6.924   7.200
20103SOL    HW380732   7.489   6.953   7.274
20103SOL    MW480733   7.569   6.977   7.250
20104SOL     OW80734   8.257   5.666   6.306
20104SOL    HW280735   8.186   5.727   6.288
20104SOL    HW380736   8.308   5.663   6.225
20104SOL    MW480737   8.253   5.672   6.293
20105SOL     OW80738   8.015   6.906   6.055
20105SOL    HW280739   8.008   6.938   6.145
20105SOL    HW380740   7.925   6.890   6.027
20105SOL    MW480741   8.003   6.908   6.062
20106SOL     OW80742   8.610   7.299   6.964
20106SOL    HW280743   8.530   7.284   6.914
20106SOL    HW380744   8.617   7.394   6.971
20106SOL    MW480745   8.601   7.310   6.958
20107SOL     OW80746   8.724   7.264   6.454
20107SOL    HW280747   8.771   7.337   6.413
20107SOL    HW380748   8.645   7.303   6.490
20107SOL    MW480749   8.719   7.279   6.453
20108SOL     OW80750   9.132   7.359   6.729
20108SOL    HW280751   9.175   7.329   6.809
20108SOL    HW380752   9.051   7.307   6.726
20108SOL    MW480753   9.127   7.348   6.739
20109SOL     OW80754   8.217   6.323   7.436
20109SOL    HW280755   8.287   6.265   7.408
20109SOL    HW380756   8.160   6.268   7.491
20109SOL    MW480757   8.219   6.310   7.440
20110SOL     OW80758   9.004   6.535   7.069
20110SOL    HW280759   9.009   6.588   7.149
20110SOL    HW380760   8.966   6.452   7.097
20110SOL    MW480761   9.000   6.530   7.084
20111SOL     OW80762   8.644   5.670   7.315
20111SOL    HW280763   8.639   5.577   7.296
20111SOL    HW380764   8.727   5.681   7.361
20111SOL    MW480765   8.652   5.659   7.319
20112SOL     OW80766   8.018   6.190   5.769
20112SOL    HW280767   7.984   6.246   5.839
20112SOL    HW380768   8.089   6.140   5.809
20112SOL    MW480769   8.024   6.191   5.783
20113SOL     OW80770   9.114   6.941   6.591
20113SOL    HW280771   9.149   6.923   6.504
20113SOL    HW380772   9.019   6.942   6.578
20113SOL    MW480773   9.106   6.938   6.578
20114SOL     OW80774   8.543   6.589   6.960
20114SOL    HW280775   8.586   6.624   7.038
20114SOL    HW380776   8.526   6.666   6.906
20114SOL    MW480777   8.546   6.604   6.963
20115SOL     OW80778   9.074   6.076   5.833
20115SOL    HW280779   9.066   6.147   5.770
20115SOL    HW380780   9.092   6.120   5.916
20115SOL    MW480781   9.075   6.090   5.835
20116SOL     OW80782   7.934   5.731   6.262
20116SOL    HW280783   7.984   5.774   6.193
20116SOL    HW380784   7.849   5.775   6.262
20116SOL    MW480785   7.931   5.744   6.253
20117SOL     OW80786   7.693   6.793   7.122
20117SOL    HW280787   7.721   6.746   7.200
20117SOL    HW380788   7.614   6.748   7.093
20117SOL    MW480789   7.686   6.782   7.128
20118SOL     OW80790   8.201   6.120   7.089
20118SOL    HW280791   8.173   6.208   7.113
20118SOL    HW380792   8.170   6.064   7.160
20118SOL    MW480793   8.193   6.123   7.101
20119SOL     OW80794   8.743   6.338   5.808
20119SOL    HW280795   8.790   6.356   5.727
20119SOL    HW380796   8.709   6.422   5.836
20119SOL    MW480797   8.745   6.352   5.801
20120SOL     OW80798   7.856   6.516   6.302
20120SOL    HW280799   7.914   6.572   6.250
20120SOL    HW380800   7.900   6.431   6.304
20120SOL    MW480801   7.869   6.513   6.295
20121SOL     OW80802   8.996   5.868   6.139
20121SOL    HW280803   8.918   5.818   6.164
20121SOL    HW380804   8.967   5.959   6.139
20121SOL    MW480805   8.982   5.872   6.142
20122SOL     OW80806   8.582   5.830   6.298
20122SOL    HW280807   8.602   5.905   6.242
20122SOL    HW380808   8.562   5.869   6.383
20122SOL    MW480809   8.583   5.846   6.302
20123SOL     OW80810   8.478   7.080   5.630
20123SOL    HW280811   8.505   7.158   5.582
20123SOL    HW380812   8.385   7.095   5.649
20123SOL    MW480813   8.469   7.093   5.626
20124SOL     OW80814   9.342   6.603   7.317
20124SOL    HW280815   9.255   6.583   7.353
20124SOL    HW380816   9.396   6.529   7.342
20124SOL    MW480817   9.337   6.592   7.325
20125SOL     OW80818   7.563   7.116   6.474
20125SOL    HW280819   7.595   7.120   6.565
20125SOL    HW380820   7.468   7.124   6.482
20125SOL    MW480821   7.555   7.119   6.487
20126SOL     OW80822   7.518   6.242   6.021
20126SOL    HW280823   7.458   6.214   6.091
20126SOL    HW380824   7.592   6.182   6.027
20126SOL    MW480825   7.520   6.231   6.030
20127SOL     OW80826   9.086   7.454   7.455
20127SOL    HW280827   9.131   7.378   7.420
20127SOL    HW380828   9.124   7.467   7.542
20127SOL    MW480829   9.096   7.447   7.461
20128SOL     OW80830   8.686   6.973   6.181
20128SOL    HW280831   8.709   6.924   6.259
20128SOL    HW380832   8.767   7.015   6.153
20128SOL    MW480833   8.699   6.973   6.188
20129SOL     OW80834   7.944   5.981   6.910
20129SOL    HW280835   7.977   6.062   6.950
20129SOL    HW380836   7.917   6.007   6.822
20129SOL    MW480837   7.943   5.995   6.904
20130SOL     OW80838   7.898   5.948   6.646
20130SOL    HW280839   7.928   5.862   6.617
20130SOL    HW380840   7.803   5.941   6.649
20130SOL    MW480841   7.890   5.937   6.644
20131SOL     OW80842   8.727   6.157   7.337
20131SOL    HW280843   8.779   6.092   7.290
20131SOL    HW380844   8.685   6.208   7.267
20131SOL    MW480845   8.728   6.154   7.320
20132SOL     OW80846   8.826   5.952   7.198
20132SOL    HW280847   8.733   5.936   7.185
20132SOL    HW380848   8.852   5.890   7.266
20132SOL    MW480849   8.816   5.942   7.205
20133SOL     OW80850   8.041   5.726   6.537
20133SOL    HW280851   8.051   5.635   6.563
20133SOL    HW380852   7.997   5.722   6.452
20133SOL    MW480853   8.037   5.714   6.529
20134SOL     OW80854   8.135   7.341   7.083
20134SOL    HW280855   8.052   7.326   7.128
20134SOL    HW380856   8.194   7.274   7.118
20134SOL    MW480857   8.133   7.331   7.093
20135SOL     OW80858   9.192   6.048   6.708
20135SOL    HW280859   9.125   6.081   6.768
20135SOL    HW380860   9.235   6.126   6.674
20135SOL    MW480861   9.190   6.063   6.712
20136SOL     OW80862   9.370   6.768   6.678
20136SOL    HW280863   9.363   6.708   6.603
20136SOL    HW380864   9.296   6.828   6.667
20136SOL    MW480865   9.360   6.768   6.667
20137SOL     OW80866   8.752   6.630   6.596
20137SOL    HW280867   8.766   6.602   6.687
20137SOL    HW380868   8.838   6.661   6.568
20137SOL    MW480869   8.765   6.631   6.605
20138SOL     OW80870   8.835   6.125   6.875
20138SOL    HW280871   8.856   6.126   6.782
20138SOL    HW380872   8.880   6.047   6.908
20138SOL    MW480873   8.842   6.115   6.867
20139SOL     OW80874   9.328   6.256   7.417
20139SOL    HW280875   9.365   6.201   7.486
20139SOL    HW380876   9.353   6.213   7.335
20139SOL    MW480877   9.335   6.244   7.416
20140SOL     OW80878   8.875   6.554   7.468
20140SOL    HW280879   8.941   6.502   7.422
20140SOL    HW380880   8.895   6.541   7.561
20140SOL    MW480881   8.886   6.545   7.475
20141SOL     OW80882   8.826   5.640   5.817
20141SOL    HW280883   8.900   5.684   5.860
20141SOL    HW380884   8.750   5.694   5.839
20141SOL    MW480885   8.826   5.652   5.825
20142SOL     OW80886   8.886   6.415   6.095
20142SOL    HW280887   8.801   6.385   6.065
20142SOL    HW380888   8.878   6.422   6.190
20142SOL    MW480889   8.874   6.413   6.104
20143SOL     OW80890   7.962   6.878   6.826
20143SOL    HW280891   7.974   6.905   6.917
20143SOL    HW380892   7.943   6.959   6.779
20143SOL    MW480893   7.961   6.893   6.831
20144SOL     OW80894   8.246   5.858   6.649
20144SOL    HW280895   8.219   5.860   6.740
20144SOL    HW380896   8.176   5.810   6.604
20144SOL    MW480897   8.234   5.854   6.656
20145SOL     OW80898   8.100   7.350   6.811
20145SOL    HW280899   8.152   7.427   6.788
20145SOL    HW380900   8.109   7.342   6.906
20145SOL    MW480901   8.109   7.357   6.822
20146SOL     OW80902   9.002   6.935   7.043
20146SOL    HW280903   8.987   6.864   7.106
20146SOL    HW380904   9.048   6.893   6.971
20146SOL    MW480905   9.008   6.919   7.043
20147SOL     OW80906   8.076   6.666   7.160
20147SOL    HW280907   8.113   6.671   7.072
20147SOL    HW380908   8.115   6.739   7.207
20147SOL    MW480909   8.086   6.676   7.155
20148SOL     OW80910   8.256   6.709   6.972
20148SOL    HW280911   8.315   6.655   7.025
20148SOL    HW380912   8.271   6.681   6.882
20148SOL    MW480913   8.266   6.698   6.968
20149SOL     OW80914   8.259   6.081   5.821
20149SOL    HW280915   8.332   6.130   5.784
20149SOL    HW380916   8.275   5.990   5.795
20149SOL    MW480917   8.271   6.076   5.814
20150SOL     OW80918   9.067   7.198   7.144
20150SOL    HW280919   9.109   7.183   7.229
20150SOL    HW380920   9.058   7.111   7.106
20150SOL    MW480921   9.071   7.186   7.151
20151SOL     OW80922   8.727   5.677   6.735
20151SOL    HW280923   8.782   5.686   6.657
20151SOL    HW380924   8.782   5.711   6.806
20151SOL    MW480925   8.741   5.682   6.734
20152SOL     OW80926   7.734   6.590   5.919
20152SOL    HW280927   7.671   6.606   5.848
20152SOL    HW380928   7.681   6.553   5.990
20152SOL    MW480929   7.719   6.587   5.919
20153SOL     OW80930   8.090   6.944   5.778
20153SOL    HW280931   8.105   6.920   5.870
20153SOL    HW380932   7.998   6.922   5.762
20153SOL    MW480933   8.080   6.937   5.788
20154SOL     OW80934   8.629   7.175   5.930
20154SOL    HW280935   8.637   7.093   5.881
20154SOL    HW380936   8.548   7.214   5.897
20154SOL    MW480937   8.619   7.170   5.920
20155SOL     OW80938   7.888   7.333   6.499
20155SOL    HW280939   7.892   7.244   6.534
20155SOL    HW380940   7.914   7.324   6.408
20155SOL    MW480941   7.891   7.321   6.491
20156SOL     OW80942   8.505   6.811   6.742
20156SOL    HW280943   8.437   6.745   6.758
20156SOL    HW380944   8.523   6.805   6.649
20156SOL    MW480945   8.498   6.802   6.733
20157SOL     OW80946   7.594   7.086   6.993
20157SOL    HW280947   7.584   7.044   7.079
20157SOL    HW380948   7.515   7.139   6.983
20157SOL    MW480949   7.583   7.087   7.004
20158SOL     OW80950   8.498   5.950   6.563
20158SOL    HW280951   8.428   5.902   6.608
20158SOL    HW380952   8.530   6.013   6.627
20158SOL    MW480953   8.493   5.952   6.577
20159SOL     OW80954   8.149   6.386   7.183
20159SOL    HW280955   8.142   6.481   7.171
20159SOL    HW380956   8.158   6.375   7.278
20159SOL    MW480957   8.150   6.398   7.193
20160SOL     OW80958   7.870   6.901   7.441
20160SOL    HW280959   7.942   6.903   7.378
20160SOL    HW380960   7.840   6.810   7.440
20160SOL    MW480961   7.875   6.890   7.433
20161SOL     OW80962   8.954   5.664   6.908
20161SOL    HW280963   9.025   5.610   6.872
20161SOL    HW380964   8.953   5.643   7.001
20161SOL    MW480965   8.963   5.655   6.916
20162SOL     OW80966   9.154   7.194   7.392
20162SOL    HW280967   9.127   7.191   7.483
20162SOL    HW380968   9.250   7.198   7.395
20162SOL    MW480969   9.164   7.194   7.404
20163SOL     OW80970   7.965   6.056   6.376
20163SOL    HW280971   8.036   6.004   6.339
20163SOL    HW380972   7.951   6.021   6.463
20163SOL    MW480973   7.973   6.045   6.383
20164SOL     OW80974   7.520   7.391   7.448
20164SOL    HW280975   7.570   7.369   7.370
20164SOL    HW380976   7.528   7.486   7.456
20164SOL    MW480977   7.528   7.400   7.439
20165SOL     OW80978   8.281   7.149   6.452
20165SOL    HW280979   8.209   7.086   6.465
20165SOL    HW380980   8.242   7.234   6.470
20165SOL    MW480981   8.265   7.152   6.455
20166SOL     OW80982   8.601   5.997   6.100
20166SOL    HW280983   8.623   5.934   6.032
20166SOL    HW380984   8.506   5.989   6.111
20166SOL    MW480985   8.591   5.988   6.092
20167SOL     OW80986   7.686   5.687   6.032
20167SOL    HW280987   7.757   5.708   5.971
20167SOL    HW380988   7.640   5.615   5.990
20167SOL    MW480989   7.690   5.681   6.018
20168SOL     OW80990   7.517   6.154   7.175
20168SOL    HW280991   7.581   6.220   7.150
20168SOL    HW380992   7.436   6.181   7.132
20168SOL    MW480993   7.515   6.166   7.167
20169SOL     OW80994   9.255   7.061   6.132
20169SOL    HW280995   9.225   6.994   6.193
20169SOL    HW380996   9.349   7.067   6.146
20169SOL    MW480997   9.263   7.053   6.142
20170SOL     OW80998   8.811   6.738   6.062
20170SOL    HW280999   8.783   6.824   6.095
20170SOL    HW381000   8.839   6.754   5.972
20170SOL    MW481001   8.811   6.752   6.054
20171SOL     OW81002   8.473   5.658   6.115
20171SOL    HW281003   8.510   5.717   6.180
20171SOL    HW381004   8.450   5.714   6.041
20171SOL    MW481005   8.474   5.673   6.114
20172SOL     OW81006   9.326   6.540   6.537
20172SOL    HW281007   9.317   6.572   6.448
20172SOL    HW381008   9.279   6.456   6.537
20172SOL    MW481009   9.319   6.533   6.527
20173SOL     OW81010   7.702   6.380   7.116
20173SOL    HW281011   7.723   6.449   7.054
20173SOL    HW381012   7.782   6.327   7.121
20173SOL    MW481013   7.715   6.381   7.110
20174SOL     OW81014   9.238   6.471   6.238
20174SOL    HW281015   9.332   6.460   6.226
20174SOL    HW381016   9.214   6.543   6.179
20174SOL    MW481017   9.248   6.479   6.229
20175SOL     OW81018   7.687   6.395   7.383
20175SOL    HW281019   7.613   6.339   7.409
20175SOL    HW381020   7.682   6.398   7.288
20175SOL    MW481021   7.676   6.388   7.373
20176SOL     OW81022   7.853   5.682   6.833
20176SOL    HW281023   7.896   5.766   6.853
20176SOL    HW381024   7.926   5.620   6.826
20176SOL    MW481025   7.868   5.685   6.834
20177SOL     OW81026   7.894   6.349   6.011
20177SOL    HW281027   7.894   6.444   5.996
20177SOL    HW381028   7.971   6.333   6.065
20177SOL    MW481029   7.904   6.360   6.016
20178SOL     OW81030   8.670   6.208   7.075
20178SOL    HW281031   8.706   6.181   6.991
20178SOL    HW381032   8.583   6.242   7.054
20178SOL    MW481033   8.664   6.209   7.062
20179SOL     OW81034   7.653   6.080   6.300
20179SOL    HW281035   7.715   6.087   6.373
20179SOL    HW381036   7.653   5.987   6.277
20179SOL    MW481037   7.661   6.069   6.307
20180SOL     OW81038   9.200   7.420   5.832
20180SOL    HW281039   9.267   7.453   5.772
20180SOL    HW381040   9.157   7.499   5.866
20180SOL    MW481041   9.202   7.435   5.828
20181SOL     OW81042   8.335   6.341   6.784
20181SOL    HW281043   8.293   6.259   6.760
20181SOL    HW381044   8.336   6.340   6.880
20181SOL    MW481045   8.328   6.330   6.793
20182SOL     OW81046   9.006   7.474   7.183
20182SOL    HW281047   9.009   7.380   7.166
20182SOL    HW381048   9.029   7.482   7.275
20182SOL    MW481049   9.009   7.462   7.193
20183SOL     OW81050   8.139   5.811   6.889
20183SOL    HW281051   8.070   5.874   6.910
20183SOL    HW381052   8.166   5.775   6.974
20183SOL    MW481053   8.133   5.814   6.902
20184SOL     OW81054   7.522   6.652   5.758
20184SOL    HW281055   7.491   6.717   5.821
20184SOL    HW381056   7.471   6.574   5.777
20184SOL    MW481057   7.512   6.649   5.768
20185SOL     OW81058   8.934   5.664   6.506
20185SOL    HW281059   9.022   5.673   6.543
20185SOL    HW381060   8.944   5.605   6.432
20185SOL    MW481061   8.948   5.658   6.500
20186SOL     OW81062   8.966   6.403   6.350
20186SOL    HW281063   9.046   6.418   6.299
20186SOL    HW381064   8.959   6.308   6.356
20186SOL    MW481065   8.975   6.392   6.345
20187SOL     OW81066   8.106   7.452   5.700
20187SOL    HW281067   8.011   7.452   5.692
20187SOL    HW381068   8.122   7.398   5.778
20187SOL    MW481069   8.096   7.446   5.709
20188SOL     OW81070   8.416   6.329   7.047
20188SOL    HW281071   8.485   6.396   7.044
20188SOL    HW381072   8.349   6.367   7.103
20188SOL    MW481073   8.417   6.342   7.054
20189SOL     OW81074   7.834   6.629   7.295
20189SOL    HW281075   7.788   6.545   7.297
20189SOL    HW381076   7.891   6.623   7.219
20189SOL    MW481077   7.836   6.617   7.287
20190SOL     OW81078   8.951   6.272   5.615
20190SOL    HW281079   8.879   6.248   5.557
20190SOL    HW381080   9.017   6.309   5.557
20190SOL    MW481081   8.950   6.274   5.600
20191SOL     OW81082   8.085   7.004   6.296
20191SOL    HW281083   8.150   6.937   6.317
20191SOL    HW381084   8.137   7.081   6.273
20191SOL    MW481085   8.100   7.006   6.295
20192SOL     OW81086   8.346   6.169   6.426
20192SOL    HW281087   8.286   6.187   6.498
20192SOL    HW381088   8.380   6.081   6.445
20192SOL    MW481089   8.342   6.159   6.439
20193SOL     OW81090   9.287   5.668   7.095
20193SOL    HW281091   9.208   5.714   7.123
20193SOL    HW381092   9.322   5.722   7.024
20193SOL    MW481093   9.281   5.681   7.089
20194SOL     OW81094   8.571   6.752   6.445
20194SOL    HW281095   8.663   6.733   6.463
20194SOL    HW381096   8.544   6.682   6.385
20194SOL    MW481097   8.579   6.740   6.439
20195SOL     OW81098   8.364   6.572   5.800
20195SOL    HW281099   8.350   6.484   5.765
20195SOL    HW381100   8.315   6.629   5.741
20195SOL    MW481101   8.356   6.567   5.788
20196SOL     OW81102   8.845   6.990   6.541
20196SOL    HW281103   8.818   7.074   6.506
20196SOL    HW381104   8.805   6.985   6.628
20196SOL    MW481105   8.838   6.999   6.547
20197SOL     OW81106   8.764   6.938   6.809
20197SOL    HW281107   8.775   6.905   6.898
20197SOL    HW381108   8.683   6.897   6.778
20197SOL    MW481109   8.754   6.930   6.815
20198SOL     OW81110   7.777   6.296   6.579
20198SOL    HW281111   7.727   6.295   6.660
20198SOL    HW381112   7.797   6.388   6.563
20198SOL    MW481113   7.773   6.308   6.587
20199SOL     OW81114   8.844   7.060   7.341
20199SOL    HW281115   8.844   7.154   7.357
20199SOL    HW381116   8.889   7.050   7.257
20199SOL    MW481117   8.850   7.070   7.332
20200SOL     OW81118   9.083   5.778   5.902
20200SOL    HW281119   9.076   5.782   5.997
20200SOL    HW381120   9.095   5.869   5.875
20200SOL    MW481121   9.084   5.791   5.910
20201SOL     OW81122   8.372   6.341   6.016
20201SOL    HW281123   8.352   6.327   5.923
20201SOL    HW381124   8.465   6.320   6.023
20201SOL    MW481125   8.382   6.336   6.005
20202SOL     OW81126   7.699   5.964   7.320
20202SOL    HW281127   7.656   6.023   7.257
20202SOL    HW381128   7.767   6.019   7.360
20202SOL    MW481129   7.703   5.979   7.317
20203SOL     OW81130   8.811   6.584   6.865
20203SOL    HW281131   8.874   6.581   6.938
20203SOL    HW381132   8.727   6.602   6.907
20203SOL    MW481133   8.807   6.586   6.880
20204SOL     OW81134   8.355   7.299   6.054
20204SOL    HW281135   8.413   7.370   6.081
20204SOL    HW381136   8.378   7.227   6.112
20204SOL    MW481137   8.366   7.299   6.065
20205SOL     OW81138   9.150   5.761   6.644
20205SOL    HW281139   9.195   5.679   6.663
20205SOL    HW381140   9.170   5.817   6.720
20205SOL    MW481141   9.160   5.757   6.656
20206SOL     OW81142   7.598   5.604   6.743
20206SOL    HW281143   7.589   5.605   6.648
20206SOL    HW381144   7.692   5.616   6.758
20206SOL    MW481145   7.610   5.607   6.734
20207SOL     OW81146   9.235   6.797   6.363
20207SOL    HW281147   9.214   6.743   6.286
20207SOL    HW381148   9.331   6.795   6.367
20207SOL    MW481149   9.244   6.790   6.352
20208SOL     OW81150   7.927   6.942   7.106
20208SOL    HW281151   7.848   6.892   7.129
20208SOL    HW381152   7.997   6.901   7.156
20208SOL    MW481153   7.925   6.930   7.116
20209SOL     OW81154   7.811   5.731   5.789
20209SOL    HW281155   7.740   5.786   5.757
20209SOL    HW381156   7.853   5.697   5.710
20209SOL    MW481157   7.807   5.733   5.775
20210SOL     OW81158   8.935   6.228   6.625
20210SOL    HW281159   8.858   6.274   6.591
20210SOL    HW381160   8.992   6.297   6.659
20210SOL    MW481161   8.932   6.243   6.625
20211SOL     OW81162   7.567   5.830   5.638
20211SOL    HW281163   7.534   5.909   5.682
20211SOL    HW381164   7.622   5.863   5.567
20211SOL    MW481165   7.570   5.844   5.635
20212SOL     OW81166   7.601   7.087   5.827
20212SOL    HW281167   7.618   7.171   5.869
20212SOL    HW381168   7.636   7.096   5.739
20212SOL    MW481169   7.606   7.100   5.821
20213SOL     OW81170   8.873   7.176   6.044
20213SOL    HW281171   8.936   7.166   5.973
20213SOL    HW381172   8.790   7.196   5.999
20213SOL    MW481173   8.870   7.177   6.029
20214SOL     OW81174   8.869   1.170   7.705
20214SOL    HW281175   8.787   1.206   7.671
20214SOL    HW381176   8.937   1.213   7.654
20214SOL    MW481177   8.867   1.180   7.693
20215SOL     OW81178   7.659   1.761   7.713
20215SOL    HW281179   7.688   1.851   7.705
20215SOL    HW381180   7.609   1.744   7.634
20215SOL    MW481181   7.657   1.769   7.702
20216SOL     OW81182   9.063   1.569   7.684
20216SOL    HW281183   9.111   1.638   7.730
20216SOL    HW381184   8.984   1.613   7.653
20216SOL    MW481185   9.058   1.583   7.687
20217SOL     OW81186   8.631   1.313   7.720
20217SOL    HW281187   8.581   1.315   7.802
20217SOL    HW381188   8.565   1.331   7.652
20217SOL    MW481189   8.617   1.315   7.722
20218SOL     OW81190   8.094   1.731   7.828
20218SOL    HW281191   8.015   1.689   7.861
20218SOL    HW381192   8.160   1.714   7.895
20218SOL    MW481193   8.093   1.723   7.841
20219SOL     OW81194   8.230   1.146   7.535
20219SOL    HW281195   8.152   1.092   7.522
20219SOL    HW381196   8.201   1.219   7.588
20219SOL    MW481197   8.216   1.148   7.540
20220SOL     OW81198   8.811   1.662   7.603
20220SOL    HW281199   8.737   1.625   7.653
20220SOL    HW381200   8.819   1.752   7.636
20220SOL    MW481201   8.802   1.669   7.615
20221SOL     OW81202   9.035   1.336   7.545
20221SOL    HW281203   8.982   1.385   7.481
20221SOL    HW381204   9.066   1.402   7.606
20221SOL    MW481205   9.033   1.350   7.543
20222SOL     OW81206   8.195   1.577   7.536
20222SOL    HW281207   8.135   1.646   7.506
20222SOL    HW381208   8.140   1.519   7.589
20222SOL    MW481209   8.179   1.579   7.538
20223SOL     OW81210   8.808   0.378   7.617
20223SOL    HW281211   8.781   0.444   7.553
20223SOL    HW381212   8.878   0.421   7.667
20223SOL    MW481213   8.813   0.391   7.614
20224SOL     OW81214   7.975   0.972   7.551
20224SOL    HW281215   7.898   0.985   7.607
20224SOL    HW381216   7.939   0.936   7.470
20224SOL    MW481217   7.961   0.968   7.548
20225SOL     OW81218   9.074   0.471   7.728
20225SOL    HW281219   9.066   0.542   7.665
20225SOL    HW381220   9.092   0.515   7.811
20225SOL    MW481221   9.075   0.485   7.730
20226SOL     OW81222   8.743   0.733   7.703
20226SOL    HW281223   8.790   0.751   7.622
20226SOL    HW381224   8.709   0.817   7.731
20226SOL    MW481225   8.745   0.747   7.696
20227SOL     OW81226   8.478   1.475   7.525
20227SOL    HW281227   8.505   1.553   7.477
20227SOL    HW381228   8.385   1.490   7.544
20227SOL    MW481229   8.469   1.488   7.521
20228SOL     OW81230   9.200   1.815   7.727
20228SOL    HW281231   9.267   1.848   7.667
20228SOL    HW381232   9.157   1.894   7.761
20228SOL    MW481233   9.202   1.830   7.723
20229SOL     OW81234   8.106   1.847   7.595
20229SOL    HW281235   8.011   1.847   7.587
20229SOL    HW381236   8.122   1.793   7.673
20229SOL    MW481237   8.096   1.841   7.604
20230SOL     OW81238   8.951   0.667   7.511
20230SOL    HW281239   8.879   0.643   7.453
20230SOL    HW381240   9.017   0.704   7.453
20230SOL    MW481241   8.950   0.669   7.496
20231SOL     OW81242   8.364   0.967   7.695
20231SOL    HW281243   8.350   0.879   7.660
20231SOL    HW381244   8.315   1.024   7.636
20231SOL    MW481245   8.356   0.962   7.683
20232SOL     OW81246   7.567   0.225   7.533
20232SOL    HW281247   7.534   0.304   7.577
20232SOL    HW381248   7.622   0.258   7.462
20232SOL    MW481249   7.570   0.239   7.530
20233SOL     OW81250   8.869   3.038   7.705
20233SOL    HW281251   8.787   3.074   7.671
20233SOL    HW381252   8.937   3.081   7.654
20233SOL    MW481253   8.867   3.048   7.693
20234SOL     OW81254   7.659   3.629   7.713
20234SOL    HW281255   7.688   3.719   7.705
20234SOL    HW381256   7.609   3.612   7.634
20234SOL    MW481257   7.657   3.637   7.702
20235SOL     OW81258   9.063   3.437   7.684
20235SOL    HW281259   9.111   3.506   7.730
20235SOL    HW381260   8.984   3.481   7.653
20235SOL    MW481261   9.058   3.451   7.687
20236SOL     OW81262   8.631   3.181   7.720
20236SOL    HW281263   8.581   3.183   7.802
20236SOL    HW381264   8.565   3.199   7.652
20236SOL    MW481265   8.617   3.183   7.722
20237SOL     OW81266   8.230   3.014   7.535
20237SOL    HW281267   8.152   2.960   7.522
20237SOL    HW381268   8.201   3.087   7.588
20237SOL    MW481269   8.216   3.016   7.540
20238SOL     OW81270   8.811   3.530   7.603
20238SOL    HW281271   8.737   3.493   7.653
20238SOL    HW381272   8.819   3.620   7.636
20238SOL    MW481273   8.802   3.537   7.615
20239SOL     OW81274   9.035   3.204   7.545
20239SOL    HW281275   8.982   3.253   7.481
20239SOL    HW381276   9.066   3.270   7.606
20239SOL    MW481277   9.033   3.218   7.543
20240SOL     OW81278   8.260   2.093   7.600
20240SOL    HW281279   8.208   2.013   7.588
20240SOL    HW381280   8.347   2.070   7.568
20240SOL    MW481281   8.263   2.079   7.594
20241SOL     OW81282   8.195   3.445   7.536
20241SOL    HW281283   8.135   3.514   7.506
20241SOL    HW381284   8.140   3.387   7.589
20241SOL    MW481285   8.179   3.447   7.538
20242SOL     OW81286   8.808   2.246   7.617
20242SOL    HW281287   8.781   2.312   7.553
20242SOL    HW381288   8.878   2.289   7.667
20242SOL    MW481289   8.813   2.259   7.614
20243SOL     OW81290   7.975   2.840   7.551
20243SOL    HW281291   7.898   2.853   7.607
20243SOL    HW381292   7.939   2.804   7.470
20243SOL    MW481293   7.961   2.836   7.548
20244SOL     OW81294   9.074   2.339   7.728
20244SOL    HW281295   9.066   2.410   7.665
20244SOL    HW381296   9.092   2.383   7.811
20244SOL    MW481297   9.075   2.353   7.730
20245SOL     OW81298   8.743   2.601   7.703
20245SOL    HW281299   8.790   2.619   7.622
20245SOL    HW381300   8.709   2.685   7.731
20245SOL    MW481301   8.745   2.615   7.696
20246SOL     OW81302   8.478   3.343   7.525
20246SOL    HW281303   8.505   3.421   7.477
20246SOL    HW381304   8.385   3.358   7.544
20246SOL    MW481305   8.469   3.356   7.521
20247SOL     OW81306   8.826   1.903   7.712
20247SOL    HW281307   8.900   1.947   7.755
20247SOL    HW381308   8.750   1.957   7.734
20247SOL    MW481309   8.826   1.915   7.720
20248SOL     OW81310   8.106   3.715   7.595
20248SOL    HW281311   8.011   3.715   7.587
20248SOL    HW381312   8.122   3.661   7.673
20248SOL    MW481313   8.096   3.709   7.604
20249SOL     OW81314   8.951   2.535   7.511
20249SOL    HW281315   8.879   2.511   7.453
20249SOL    HW381316   9.017   2.572   7.453
20249SOL    MW481317   8.950   2.537   7.496
20250SOL     OW81318   8.364   2.835   7.695
20250SOL    HW281319   8.350   2.747   7.660
20250SOL    HW381320   8.315   2.892   7.636
20250SOL    MW481321   8.356   2.830   7.683
20251SOL     OW81322   7.811   1.994   7.684
20251SOL    HW281323   7.740   2.049   7.652
20251SOL    HW381324   7.853   1.960   7.605
20251SOL    MW481325   7.807   1.996   7.670
20252SOL     OW81326   7.567   2.093   7.533
20252SOL    HW281327   7.534   2.172   7.577
20252SOL    HW381328   7.622   2.126   7.462
20252SOL    MW481329   7.570   2.107   7.530
20253SOL     OW81330   8.869   4.906   7.705
20253SOL    HW281331   8.787   4.942   7.671
20253SOL    HW381332   8.937   4.949   7.654
20253SOL    MW481333   8.867   4.916   7.693
20254SOL     OW81334   8.421   5.047   7.898
20254SOL    HW281335   8.398   5.109   7.966
20254SOL    HW381336   8.378   4.965   7.924
20254SOL    MW481337   8.413   5.043   7.909
20255SOL     OW81338   8.415   5.444   7.681
20255SOL    HW281339   8.370   5.460   7.764
20255SOL    HW381340   8.346   5.409   7.623
20255SOL    MW481341   8.401   5.441   7.683
20256SOL     OW81342   7.659   5.497   7.713
20256SOL    HW281343   7.688   5.587   7.705
20256SOL    HW381344   7.609   5.480   7.634
20256SOL    MW481345   7.657   5.505   7.702
20257SOL     OW81346   9.063   5.305   7.684
20257SOL    HW281347   9.111   5.374   7.730
20257SOL    HW381348   8.984   5.349   7.653
20257SOL    MW481349   9.058   5.319   7.687
20258SOL     OW81350   8.461   4.430   7.628
20258SOL    HW281351   8.463   4.377   7.549
20258SOL    HW381352   8.549   4.467   7.634
20258SOL    MW481353   8.473   4.429   7.617
20259SOL     OW81354   8.230   4.882   7.535
20259SOL    HW281355   8.152   4.828   7.522
20259SOL    HW381356   8.201   4.955   7.588
20259SOL    MW481357   8.216   4.884   7.540
20260SOL     OW81358   9.035   5.072   7.545
20260SOL    HW281359   8.982   5.121   7.481
20260SOL    HW381360   9.066   5.138   7.606
20260SOL    MW481361   9.033   5.086   7.543
20261SOL     OW81362   8.260   3.961   7.600
20261SOL    HW281363   8.208   3.881   7.588
20261SOL    HW381364   8.347   3.938   7.568
20261SOL    MW481365   8.263   3.947   7.594
20262SOL     OW81366   8.195   5.313   7.536
20262SOL    HW281367   8.135   5.382   7.506
20262SOL    HW381368   8.140   5.255   7.589
20262SOL    MW481369   8.179   5.315   7.538
20263SOL     OW81370   8.633   3.958   7.759
20263SOL    HW281371   8.566   3.934   7.696
20263SOL    HW381372   8.698   4.007   7.708
20263SOL    MW481373   8.633   3.960   7.744
20264SOL     OW81374   8.808   4.114   7.617
20264SOL    HW281375   8.781   4.180   7.553
20264SOL    HW381376   8.878   4.157   7.667
20264SOL    MW481377   8.813   4.127   7.614
20265SOL     OW81378   7.975   4.708   7.551
20265SOL    HW281379   7.898   4.721   7.607
20265SOL    HW381380   7.939   4.672   7.470
20265SOL    MW481381   7.961   4.704   7.548
20266SOL     OW81382   8.628   4.681   7.794
20266SOL    HW281383   8.538   4.702   7.769
20266SOL    HW381384   8.655   4.754   7.850
20266SOL    MW481385   8.620   4.693   7.797
20267SOL     OW81386   9.074   4.207   7.728
20267SOL    HW281387   9.066   4.278   7.665
20267SOL    HW381388   9.092   4.251   7.811
20267SOL    MW481389   9.075   4.221   7.730
20268SOL     OW81390   8.743   4.469   7.703
20268SOL    HW281391   8.790   4.487   7.622
20268SOL    HW381392   8.709   4.553   7.731
20268SOL    MW481393   8.745   4.483   7.696
20269SOL     OW81394   8.478   5.211   7.525
20269SOL    HW281395   8.505   5.289   7.477
20269SOL    HW381396   8.385   5.226   7.544
20269SOL    MW481397   8.469   5.224   7.521
20270SOL     OW81398   8.826   3.771   7.712
20270SOL    HW281399   8.900   3.815   7.755
20270SOL    HW381400   8.750   3.825   7.734
20270SOL    MW481401   8.826   3.783   7.720
20271SOL     OW81402   8.886   4.546   7.990
20271SOL    HW281403   8.801   4.516   7.960
20271SOL    HW381404   8.878   4.553   8.085
20271SOL    MW481405   8.874   4.544   7.999
20272SOL     OW81406   8.259   4.212   7.716
20272SOL    HW281407   8.332   4.261   7.679
20272SOL    HW381408   8.275   4.121   7.690
20272SOL    MW481409   8.271   4.207   7.709
20273SOL     OW81410   8.090   5.075   7.673
20273SOL    HW281411   8.105   5.051   7.765
20273SOL    HW381412   7.998   5.053   7.657
20273SOL    MW481413   8.080   5.068   7.683
20274SOL     OW81414   9.200   5.551   7.727
20274SOL    HW281415   9.267   5.584   7.667
20274SOL    HW381416   9.157   5.630   7.761
20274SOL    MW481417   9.202   5.566   7.723
20275SOL     OW81418   8.106   5.583   7.595
20275SOL    HW281419   8.011   5.583   7.587
20275SOL    HW381420   8.122   5.529   7.673
20275SOL    MW481421   8.096   5.577   7.604
20276SOL     OW81422   8.951   4.403   7.511
20276SOL    HW281423   8.879   4.379   7.453
20276SOL    HW381424   9.017   4.440   7.453
20276SOL    MW481425   8.950   4.405   7.496
20277SOL     OW81426   7.811   3.862   7.684
20277SOL    HW281427   7.740   3.917   7.652
20277SOL    HW381428   7.853   3.828   7.605
20277SOL    MW481429   7.807   3.864   7.670
20278SOL     OW81430   7.567   3.961   7.533
20278SOL    HW281431   7.534   4.040   7.577
20278SOL    HW381432   7.622   3.994   7.462
20278SOL    MW481433   7.570   3.975   7.530
20279SOL     OW81434   8.869   6.775   7.705
20279SOL    HW281435   8.787   6.811   7.671
20279SOL    HW381436   8.937   6.818   7.654
20279SOL    MW481437   8.867   6.785   7.693
20280SOL     OW81438   8.421   6.916   7.898
20280SOL    HW281439   8.398   6.978   7.966
20280SOL    HW381440   8.378   6.834   7.924
20280SOL    MW481441   8.413   6.912   7.909
20281SOL     OW81442   8.415   7.313   7.681
20281SOL    HW281443   8.370   7.329   7.764
20281SOL    HW381444   8.346   7.278   7.623
20281SOL    MW481445   8.401   7.310   7.683
20282SOL     OW81446   7.659   7.366   7.713
20282SOL    HW281447   7.688   7.456   7.705
20282SOL    HW381448   7.609   7.349   7.634
20282SOL    MW481449   7.657   7.374   7.702
20283SOL     OW81450   9.063   7.174   7.684
20283SOL    HW281451   9.111   7.243   7.730
20283SOL    HW381452   8.984   7.218   7.653
20283SOL    MW481453   9.058   7.188   7.687
20284SOL     OW81454   8.461   6.299   7.628
20284SOL    HW281455   8.463   6.246   7.549
20284SOL    HW381456   8.549   6.336   7.634
20284SOL    MW481457   8.473   6.298   7.617
20285SOL     OW81458   8.230   6.751   7.535
20285SOL    HW281459   8.152   6.697   7.522
20285SOL    HW381460   8.201   6.824   7.588
20285SOL    MW481461   8.216   6.753   7.540
20286SOL     OW81462   9.035   6.941   7.545
20286SOL    HW281463   8.982   6.990   7.481
20286SOL    HW381464   9.066   7.007   7.606
20286SOL    MW481465   9.033   6.955   7.543
20287SOL     OW81466   8.260   5.830   7.600
20287SOL    HW281467   8.208   5.750   7.588
20287SOL    HW381468   8.347   5.807   7.568
20287SOL    MW481469   8.263   5.816   7.594
20288SOL     OW81470   8.195   7.182   7.536
20288SOL    HW281471   8.135   7.251   7.506
20288SOL    HW381472   8.140   7.124   7.589
20288SOL    MW481473   8.179   7.184   7.538
20289SOL     OW81474   8.476   5.688   7.554
20289SOL    HW281475   8.532   5.680   7.476
20289SOL    HW381476   8.453   5.598   7.576
20289SOL    MW481477   8.481   5.675   7.547
20290SOL     OW81478   7.975   6.577   7.551
20290SOL    HW281479   7.898   6.590   7.607
20290SOL    HW381480   7.939   6.541   7.470
20290SOL    MW481481   7.961   6.573   7.548
20291SOL     OW81482   8.628   6.550   7.794
20291SOL    HW281483   8.538   6.571   7.769
20291SOL    HW381484   8.655   6.623   7.850
20291SOL    MW481485   8.620   6.562   7.797
20292SOL     OW81486   8.018   6.190   7.664
20292SOL    HW281487   7.984   6.246   7.734
20292SOL    HW381488   8.089   6.140   7.704
20292SOL    MW481489   8.024   6.191   7.678
20293SOL     OW81490   8.478   7.080   7.525
20293SOL    HW281491   8.505   7.158   7.477
20293SOL    HW381492   8.385   7.095   7.544
20293SOL    MW481493   8.469   7.093   7.521
20294SOL     OW81494   8.886   6.415   7.990
20294SOL    HW281495   8.801   6.385   7.960
20294SOL    HW381496   8.878   6.422   8.085
20294SOL    MW481497   8.874   6.413   7.999
20295SOL     OW81498   8.259   6.081   7.716
20295SOL    HW281499   8.332   6.130   7.679
20295SOL    HW381500   8.275   5.990   7.690
20295SOL    MW481501   8.271   6.076   7.709
20296SOL     OW81502   8.090   6.944   7.673
20296SOL    HW281503   8.105   6.920   7.765
20296SOL    HW381504   7.998   6.922   7.657
20296SOL    MW481505   8.080   6.937   7.683
20297SOL     OW81506   9.200   7.420   7.727
20297SOL    HW281507   9.267   7.453   7.667
20297SOL    HW381508   9.157   7.499   7.761
20297SOL    MW481509   9.202   7.435   7.723
20298SOL     OW81510   8.106   7.452   7.595
20298SOL    HW281511   8.011   7.452   7.587
20298SOL    HW381512   8.122   7.398   7.673
20298SOL    MW481513   8.096   7.446   7.604
20299SOL     OW81514   8.951   6.272   7.511
20299SOL    HW281515   8.879   6.248   7.453
20299SOL    HW381516   9.017   6.309   7.453
20299SOL    MW481517   8.950   6.274   7.496
20300SOL     OW81518   7.567   5.830   7.533
20300SOL    HW281519   7.534   5.909   7.577
20300SOL    HW381520   7.622   5.863   7.462
20300SOL    MW481521   7.570   5.844   7.530
20301SOL     OW81522   9.527   1.761   7.713
20301SOL    HW281523   9.556   1.851   7.705
20301SOL    HW381524   9.477   1.744   7.634
20301SOL    MW481525   9.525   1.769   7.702
20302SOL     OW81526   9.102   8.271   1.252
20302SOL    HW281527   9.057   8.338   1.303
20302SOL    HW381528   9.190   8.307   1.238
20302SOL    MW481529   9.108   8.284   1.256
20303SOL     OW81530   8.030   8.522   0.486
20303SOL    HW281531   8.120   8.497   0.470
20303SOL    HW381532   8.026   8.615   0.463
20303SOL    MW481533   8.042   8.531   0.481
20304SOL     OW81534   9.082   8.665   1.233
20304SOL    HW281535   9.003   8.630   1.191
20304SOL    HW381536   9.109   8.737   1.177
20304SOL    MW481537   9.075   8.670   1.220
20305SOL     OW81538   8.314   7.978   0.499
20305SOL    HW281539   8.289   8.066   0.527
20305SOL    HW381540   8.311   7.981   0.403
20305SOL    MW481541   8.310   7.990   0.491
20306SOL     OW81542   7.756   8.006   0.427
20306SOL    HW281543   7.788   8.094   0.409
20306SOL    HW381544   7.744   8.004   0.522
20306SOL    MW481545   7.759   8.018   0.439
20307SOL     OW81546   7.834   8.419   1.328
20307SOL    HW281547   7.897   8.366   1.279
20307SOL    HW381548   7.815   8.493   1.271
20307SOL    MW481549   7.840   8.421   1.315
20308SOL     OW81550   8.155   7.761   0.514
20308SOL    HW281551   8.213   7.837   0.516
20308SOL    HW381552   8.090   7.782   0.447
20308SOL    MW481553   8.154   7.773   0.505
20309SOL     OW81554   8.242   8.688   0.689
20309SOL    HW281555   8.322   8.691   0.741
20309SOL    HW381556   8.270   8.655   0.603
20309SOL    MW481557   8.256   8.684   0.684
20310SOL     OW81558   8.019   8.192   0.680
20310SOL    HW281559   8.004   8.112   0.731
20310SOL    HW381560   8.101   8.227   0.714
20310SOL    MW481561   8.027   8.184   0.692
20311SOL     OW81562   8.161   8.018   1.057
20311SOL    HW281563   8.067   8.014   1.075
20311SOL    HW381564   8.191   7.927   1.066
20311SOL    MW481565   8.152   8.006   1.060
20312SOL     OW81566   7.907   8.432   0.961
20312SOL    HW281567   7.862   8.439   0.877
20312SOL    HW381568   7.887   8.515   1.005
20312SOL    MW481569   7.899   8.444   0.955
20313SOL     OW81570   7.868   8.805   0.871
20313SOL    HW281571   7.844   8.858   0.947
20313SOL    HW381572   7.924   8.863   0.819
20313SOL    MW481573   7.872   8.820   0.874
20314SOL     OW81574   8.430   8.449   0.681
20314SOL    HW281575   8.344   8.436   0.721
20314SOL    HW381576   8.483   8.376   0.713
20314SOL    MW481577   8.426   8.438   0.690
20315SOL     OW81578   9.294   7.812   0.854
20315SOL    HW281579   9.231   7.792   0.923
20315SOL    HW381580   9.284   7.741   0.791
20315SOL    MW481581   9.284   7.799   0.855
20316SOL     OW81582   7.918   7.784   0.366
20316SOL    HW281583   7.892   7.746   0.282
20316SOL    HW381584   7.855   7.854   0.382
20316SOL    MW481585   7.907   7.787   0.357
20317SOL     OW81586   7.753   8.745   0.403
20317SOL    HW281587   7.701   8.813   0.359
20317SOL    HW381588   7.750   8.671   0.343
20317SOL    MW481589   7.745   8.744   0.390
20318SOL     OW81590   9.095   8.584   0.506
20318SOL    HW281591   9.005   8.584   0.541
20318SOL    HW381592   9.088   8.630   0.423
20318SOL    MW481593   9.082   8.590   0.500
20319SOL     OW81594   8.895   8.219   1.578
20319SOL    HW281595   8.964   8.157   1.555
20319SOL    HW381596   8.820   8.193   1.525
20319SOL    MW481597   8.895   8.206   1.569
20320SOL     OW81598   8.631   8.606   1.570
20320SOL    HW281599   8.616   8.699   1.555
20320SOL    HW381600   8.726   8.596   1.570
20320SOL    MW481601   8.640   8.616   1.567
20321SOL     OW81602   8.427   8.030   1.771
20321SOL    HW281603   8.517   8.031   1.738
20321SOL    HW381604   8.386   7.955   1.729
20321SOL    MW481605   8.433   8.020   1.762
20322SOL     OW81606   9.002   8.562   0.898
20322SOL    HW281607   9.005   8.496   0.829
20322SOL    HW381608   9.087   8.605   0.894
20322SOL    MW481609   9.014   8.558   0.889
20323SOL     OW81610   8.622   8.165   0.467
20323SOL    HW281611   8.648   8.189   0.378
20323SOL    HW381612   8.604   8.072   0.463
20323SOL    MW481613   8.624   8.157   0.454
20324SOL     OW81614   8.207   7.834   1.721
20324SOL    HW281615   8.217   7.760   1.661
20324SOL    HW381616   8.243   7.803   1.804
20324SOL    MW481617   8.213   7.820   1.723
20325SOL     OW81618   9.327   7.563   0.685
20325SOL    HW281619   9.381   7.514   0.747
20325SOL    HW381620   9.270   7.497   0.646
20325SOL    MW481621   9.327   7.547   0.687
20326SOL     OW81622   8.446   7.516   1.098
20326SOL    HW281623   8.405   7.594   1.060
20326SOL    HW381624   8.540   7.534   1.093
20326SOL    MW481625   8.452   7.528   1.093
20327SOL     OW81626   9.075   8.120   0.464
20327SOL    HW281627   9.114   8.120   0.551
20327SOL    HW381628   9.016   8.196   0.464
20327SOL    MW481629   9.072   8.131   0.475
20328SOL     OW81630   8.392   8.487   1.593
20328SOL    HW281631   8.369   8.467   1.683
20328SOL    HW381632   8.477   8.531   1.598
20328SOL    MW481633   8.399   8.490   1.605
20329SOL     OW81634   8.472   7.624   1.353
20329SOL    HW281635   8.478   7.586   1.266
20329SOL    HW381636   8.461   7.718   1.338
20329SOL    MW481637   8.473   7.632   1.341
20330SOL     OW81638   8.561   8.113   1.187
20330SOL    HW281639   8.636   8.142   1.134
20330SOL    HW381640   8.493   8.178   1.171
20330SOL    MW481641   8.562   8.125   1.177
20331SOL     OW81642   9.111   8.081   1.464
20331SOL    HW281643   9.092   7.990   1.443
20331SOL    HW381644   9.089   8.130   1.385
20331SOL    MW481645   9.106   8.074   1.451
20332SOL     OW81646   8.558   7.819   1.570
20332SOL    HW281647   8.524   7.858   1.489
20332SOL    HW381648   8.536   7.727   1.563
20332SOL    MW481649   8.551   7.812   1.560
20333SOL     OW81650   8.967   8.633   1.646
20333SOL    HW281651   9.049   8.674   1.676
20333SOL    HW381652   8.930   8.595   1.726
20333SOL    MW481653   8.973   8.634   1.661
20334SOL     OW81654   9.262   8.006   0.630
20334SOL    HW281655   9.351   7.975   0.647
20334SOL    HW381656   9.205   7.946   0.678
20334SOL    MW481657   9.265   7.994   0.639
20335SOL     OW81658   7.688   7.720   0.659
20335SOL    HW281659   7.679   7.660   0.585
20335SOL    HW381660   7.621   7.691   0.722
20335SOL    MW481661   7.678   7.707   0.657
20336SOL     OW81662   8.631   8.813   0.220
20336SOL    HW281663   8.581   8.815   0.302
20336SOL    HW381664   8.565   8.831   0.152
20336SOL    MW481665   8.617   8.815   0.222
20337SOL     OW81666   7.635   7.893   1.022
20337SOL    HW281667   7.607   7.984   1.031
20337SOL    HW381668   7.572   7.854   0.961
20337SOL    MW481669   7.622   7.899   1.016
20338SOL     OW81670   9.356   8.386   1.227
20338SOL    HW281671   9.372   8.424   1.140
20338SOL    HW381672   9.390   8.452   1.288
20338SOL    MW481673   9.363   8.399   1.223
20339SOL     OW81674   7.619   8.168   1.192
20339SOL    HW281675   7.681   8.198   1.258
20339SOL    HW381676   7.553   8.237   1.186
20339SOL    MW481677   7.618   8.181   1.199
20340SOL     OW81678   7.766   8.596   1.151
20340SOL    HW281679   7.819   8.671   1.176
20340SOL    HW381680   7.685   8.634   1.117
20340SOL    MW481681   7.762   8.611   1.151
20341SOL     OW81682   8.306   8.500   1.139
20341SOL    HW281683   8.334   8.409   1.151
20341SOL    HW381684   8.235   8.494   1.075
20341SOL    MW481685   8.299   8.488   1.134
20342SOL     OW81686   7.621   8.365   0.557
20342SOL    HW281687   7.712   8.380   0.584
20342SOL    HW381688   7.624   8.286   0.503
20342SOL    MW481689   7.633   8.357   0.555
20343SOL     OW81690   7.857   8.073   1.811
20343SOL    HW281691   7.804   8.153   1.818
20343SOL    HW381692   7.927   8.085   1.876
20343SOL    MW481693   7.859   8.086   1.819
20344SOL     OW81694   8.243   7.623   1.518
20344SOL    HW281695   8.220   7.531   1.520
20344SOL    HW381696   8.329   7.625   1.475
20344SOL    MW481697   8.250   7.613   1.514
20345SOL     OW81698   7.927   8.147   1.557
20345SOL    HW281699   8.007   8.197   1.543
20345SOL    HW381700   7.918   8.141   1.652
20345SOL    MW481701   7.936   8.153   1.567
20346SOL     OW81702   8.904   7.672   1.828
20346SOL    HW281703   8.960   7.599   1.854
20346SOL    HW381704   8.874   7.710   1.910
20346SOL    MW481705   8.908   7.667   1.841
20347SOL     OW81706   9.294   8.165   0.945
20347SOL    HW281707   9.383   8.195   0.927
20347SOL    HW381708   9.274   8.105   0.874
20347SOL    MW481709   9.303   8.162   0.934
20348SOL     OW81710   9.145   8.344   1.825
20348SOL    HW281711   9.200   8.268   1.806
20348SOL    HW381712   9.147   8.352   1.920
20348SOL    MW481713   9.153   8.335   1.833
20349SOL     OW81714   8.195   9.077   0.036
20349SOL    HW281715   8.135   9.146   0.006
20349SOL    HW381716   8.140   9.019   0.089
20349SOL    MW481717   8.179   9.079   0.038
20350SOL     OW81718   8.440   7.906   1.344
20350SOL    HW281719   8.359   7.947   1.372
20350SOL    HW381720   8.487   7.974   1.296
20350SOL    MW481721   8.435   7.921   1.342
20351SOL     OW81722   8.700   8.244   0.967
20351SOL    HW281723   8.713   8.338   0.977
20351SOL    HW381724   8.661   8.234   0.881
20351SOL    MW481725   8.696   8.255   0.957
20352SOL     OW81726   8.152   8.439   0.771
20352SOL    HW281727   8.063   8.430   0.804
20352SOL    HW381728   8.156   8.529   0.739
20352SOL    MW481729   8.141   8.450   0.771
20353SOL     OW81730   8.951   8.022   0.766
20353SOL    HW281731   8.896   7.943   0.765
20353SOL    HW381732   8.933   8.063   0.850
20353SOL    MW481733   8.941   8.017   0.775
20354SOL     OW81734   7.922   7.709   1.583
20354SOL    HW281735   7.843   7.727   1.635
20354SOL    HW381736   7.917   7.771   1.510
20354SOL    MW481737   7.912   7.719   1.580
20355SOL     OW81738   8.570   8.226   0.723
20355SOL    HW281739   8.507   8.158   0.747
20355SOL    HW381740   8.590   8.207   0.631
20355SOL    MW481741   8.564   8.213   0.715
20356SOL     OW81742   8.318   8.530   0.449
20356SOL    HW281743   8.320   8.504   0.356
20356SOL    HW381744   8.376   8.467   0.492
20356SOL    MW481745   8.326   8.519   0.443
20357SOL     OW81746   8.828   7.774   0.782
20357SOL    HW281747   8.856   7.706   0.843
20357SOL    HW381748   8.742   7.745   0.752
20357SOL    MW481749   8.821   7.761   0.786
20358SOL     OW81750   7.633   8.708   0.716
20358SOL    HW281751   7.697   8.740   0.779
20358SOL    HW381752   7.682   8.644   0.664
20358SOL    MW481753   7.648   8.704   0.717
20359SOL     OW81754   7.887   7.531   1.789
20359SOL    HW281755   7.815   7.496   1.737
20359SOL    HW381756   7.945   7.572   1.724
20359SOL    MW481757   7.885   7.532   1.774
20360SOL     OW81758   9.351   8.550   1.442
20360SOL    HW281759   9.266   8.563   1.401
20360SOL    HW381760   9.331   8.514   1.529
20360SOL    MW481761   9.338   8.546   1.447
20361SOL     OW81762   8.128   8.794   0.986
20361SOL    HW281763   8.121   8.773   1.080
20361SOL    HW381764   8.046   8.762   0.949
20361SOL    MW481765   8.116   8.788   0.993
20362SOL     OW81766   8.992   7.804   1.388
20362SOL    HW281767   8.939   7.806   1.468
20362SOL    HW381768   8.977   7.717   1.351
20362SOL    MW481769   8.984   7.794   1.393
20363SOL     OW81770   9.328   7.728   1.261
20363SOL    HW281771   9.309   7.795   1.196
20363SOL    HW381772   9.385   7.666   1.216
20363SOL    MW481773   9.332   7.729   1.247
20364SOL     OW81774   8.257   7.561   0.701
20364SOL    HW281775   8.186   7.622   0.683
20364SOL    HW381776   8.308   7.558   0.620
20364SOL    MW481777   8.253   7.567   0.688
20365SOL     OW81778   8.217   8.218   1.831
20365SOL    HW281779   8.287   8.160   1.803
20365SOL    HW381780   8.160   8.163   1.886
20365SOL    MW481781   8.219   8.205   1.835
20366SOL     OW81782   9.004   8.430   1.464
20366SOL    HW281783   9.009   8.483   1.544
20366SOL    HW381784   8.966   8.347   1.492
20366SOL    MW481785   9.000   8.425   1.479
20367SOL     OW81786   8.644   7.565   1.710
20367SOL    HW281787   8.639   7.472   1.691
20367SOL    HW381788   8.727   7.576   1.756
20367SOL    MW481789   8.652   7.554   1.714
20368SOL     OW81790   9.114   8.836   0.986
20368SOL    HW281791   9.149   8.818   0.899
20368SOL    HW381792   9.019   8.837   0.973
20368SOL    MW481793   9.106   8.833   0.973
20369SOL     OW81794   8.543   8.484   1.355
20369SOL    HW281795   8.586   8.519   1.433
20369SOL    HW381796   8.526   8.561   1.301
20369SOL    MW481797   8.546   8.499   1.358
20370SOL     OW81798   7.934   7.626   0.657
20370SOL    HW281799   7.984   7.669   0.588
20370SOL    HW381800   7.849   7.670   0.657
20370SOL    MW481801   7.931   7.639   0.648
20371SOL     OW81802   7.693   8.688   1.517
20371SOL    HW281803   7.721   8.641   1.595
20371SOL    HW381804   7.614   8.643   1.488
20371SOL    MW481805   7.686   8.677   1.523
20372SOL     OW81806   8.201   8.015   1.484
20372SOL    HW281807   8.173   8.103   1.508
20372SOL    HW381808   8.170   7.959   1.555
20372SOL    MW481809   8.193   8.018   1.496
20373SOL     OW81810   8.743   8.233   0.203
20373SOL    HW281811   8.790   8.251   0.122
20373SOL    HW381812   8.709   8.317   0.231
20373SOL    MW481813   8.745   8.247   0.196
20374SOL     OW81814   7.856   8.411   0.697
20374SOL    HW281815   7.914   8.467   0.645
20374SOL    HW381816   7.900   8.326   0.699
20374SOL    MW481817   7.869   8.408   0.690
20375SOL     OW81818   8.996   7.763   0.534
20375SOL    HW281819   8.918   7.713   0.559
20375SOL    HW381820   8.967   7.854   0.534
20375SOL    MW481821   8.982   7.767   0.537
20376SOL     OW81822   8.582   7.725   0.693
20376SOL    HW281823   8.602   7.800   0.637
20376SOL    HW381824   8.562   7.764   0.778
20376SOL    MW481825   8.583   7.741   0.697
20377SOL     OW81826   8.478   8.975   0.025
20377SOL    HW281827   8.505   9.053  -0.023
20377SOL    HW381828   8.385   8.990   0.044
20377SOL    MW481829   8.469   8.988   0.021
20378SOL     OW81830   9.342   8.498   1.712
20378SOL    HW281831   9.255   8.478   1.748
20378SOL    HW381832   9.396   8.424   1.737
20378SOL    MW481833   9.337   8.487   1.720
20379SOL     OW81834   7.518   8.137   0.416
20379SOL    HW281835   7.458   8.109   0.486
20379SOL    HW381836   7.592   8.077   0.422
20379SOL    MW481837   7.520   8.126   0.425
20380SOL     OW81838   7.944   7.876   1.305
20380SOL    HW281839   7.977   7.957   1.345
20380SOL    HW381840   7.917   7.902   1.217
20380SOL    MW481841   7.943   7.890   1.299
20381SOL     OW81842   7.898   7.843   1.041
20381SOL    HW281843   7.928   7.757   1.012
20381SOL    HW381844   7.803   7.836   1.044
20381SOL    MW481845   7.890   7.832   1.039
20382SOL     OW81846   8.727   8.052   1.732
20382SOL    HW281847   8.779   7.987   1.685
20382SOL    HW381848   8.685   8.103   1.662
20382SOL    MW481849   8.728   8.049   1.715
20383SOL     OW81850   8.826   7.847   1.593
20383SOL    HW281851   8.733   7.831   1.580
20383SOL    HW381852   8.852   7.785   1.661
20383SOL    MW481853   8.816   7.837   1.600
20384SOL     OW81854   8.041   7.621   0.932
20384SOL    HW281855   8.051   7.530   0.958
20384SOL    HW381856   7.997   7.617   0.847
20384SOL    MW481857   8.037   7.609   0.924
20385SOL     OW81858   9.192   7.943   1.103
20385SOL    HW281859   9.125   7.976   1.163
20385SOL    HW381860   9.235   8.021   1.069
20385SOL    MW481861   9.190   7.958   1.107
20386SOL     OW81862   9.370   8.663   1.073
20386SOL    HW281863   9.363   8.603   0.998
20386SOL    HW381864   9.296   8.723   1.062
20386SOL    MW481865   9.360   8.663   1.062
20387SOL     OW81866   8.752   8.525   0.991
20387SOL    HW281867   8.766   8.497   1.082
20387SOL    HW381868   8.838   8.556   0.963
20387SOL    MW481869   8.765   8.526   1.000
20388SOL     OW81870   8.835   8.020   1.270
20388SOL    HW281871   8.856   8.021   1.177
20388SOL    HW381872   8.880   7.942   1.303
20388SOL    MW481873   8.842   8.010   1.262
20389SOL     OW81874   9.328   8.151   1.812
20389SOL    HW281875   9.365   8.096   1.881
20389SOL    HW381876   9.353   8.108   1.730
20389SOL    MW481877   9.335   8.139   1.811
20390SOL     OW81878   8.875   8.449   1.863
20390SOL    HW281879   8.941   8.397   1.817
20390SOL    HW381880   8.895   8.436   1.956
20390SOL    MW481881   8.886   8.440   1.870
20391SOL     OW81882   8.886   8.310   0.490
20391SOL    HW281883   8.801   8.280   0.460
20391SOL    HW381884   8.878   8.317   0.585
20391SOL    MW481885   8.874   8.308   0.499
20392SOL     OW81886   8.246   7.753   1.044
20392SOL    HW281887   8.219   7.755   1.135
20392SOL    HW381888   8.176   7.705   0.999
20392SOL    MW481889   8.234   7.749   1.051
20393SOL     OW81890   9.002   8.830   1.438
20393SOL    HW281891   8.987   8.759   1.501
20393SOL    HW381892   9.048   8.788   1.366
20393SOL    MW481893   9.008   8.814   1.438
20394SOL     OW81894   8.076   8.561   1.555
20394SOL    HW281895   8.113   8.566   1.467
20394SOL    HW381896   8.115   8.634   1.602
20394SOL    MW481897   8.086   8.571   1.550
20395SOL     OW81898   8.256   8.604   1.367
20395SOL    HW281899   8.315   8.550   1.420
20395SOL    HW381900   8.271   8.576   1.277
20395SOL    MW481901   8.266   8.593   1.363
20396SOL     OW81902   8.727   7.572   1.130
20396SOL    HW281903   8.782   7.581   1.052
20396SOL    HW381904   8.782   7.606   1.201
20396SOL    MW481905   8.741   7.577   1.129
20397SOL     OW81906   7.734   8.485   0.314
20397SOL    HW281907   7.671   8.501   0.243
20397SOL    HW381908   7.681   8.448   0.385
20397SOL    MW481909   7.719   8.482   0.314
20398SOL     OW81910   8.505   8.706   1.137
20398SOL    HW281911   8.437   8.640   1.153
20398SOL    HW381912   8.523   8.700   1.044
20398SOL    MW481913   8.498   8.697   1.128
20399SOL     OW81914   8.498   7.845   0.958
20399SOL    HW281915   8.428   7.797   1.003
20399SOL    HW381916   8.530   7.908   1.022
20399SOL    MW481917   8.493   7.847   0.972
20400SOL     OW81918   8.149   8.281   1.578
20400SOL    HW281919   8.142   8.376   1.566
20400SOL    HW381920   8.158   8.270   1.673
20400SOL    MW481921   8.150   8.293   1.588
20401SOL     OW81922   8.954   7.559   1.303
20401SOL    HW281923   9.025   7.505   1.267
20401SOL    HW381924   8.953   7.538   1.396
20401SOL    MW481925   8.963   7.550   1.311
20402SOL     OW81926   7.965   7.951   0.771
20402SOL    HW281927   8.036   7.899   0.734
20402SOL    HW381928   7.951   7.916   0.858
20402SOL    MW481929   7.973   7.940   0.778
20403SOL     OW81930   8.601   7.892   0.495
20403SOL    HW281931   8.623   7.829   0.427
20403SOL    HW381932   8.506   7.884   0.506
20403SOL    MW481933   8.591   7.883   0.487
20404SOL     OW81934   7.517   8.049   1.570
20404SOL    HW281935   7.581   8.115   1.545
20404SOL    HW381936   7.436   8.076   1.527
20404SOL    MW481937   7.515   8.061   1.562
20405SOL     OW81938   8.473   7.553   0.510
20405SOL    HW281939   8.510   7.612   0.575
20405SOL    HW381940   8.450   7.609   0.436
20405SOL    MW481941   8.474   7.568   0.509
20406SOL     OW81942   9.326   8.435   0.932
20406SOL    HW281943   9.317   8.467   0.843
20406SOL    HW381944   9.279   8.351   0.932
20406SOL    MW481945   9.319   8.428   0.922
20407SOL     OW81946   7.702   8.275   1.511
20407SOL    HW281947   7.723   8.344   1.449
20407SOL    HW381948   7.782   8.222   1.516
20407SOL    MW481949   7.715   8.276   1.505
20408SOL     OW81950   9.238   8.366   0.633
20408SOL    HW281951   9.332   8.355   0.621
20408SOL    HW381952   9.214   8.438   0.574
20408SOL    MW481953   9.248   8.374   0.624
20409SOL     OW81954   7.687   8.290   1.778
20409SOL    HW281955   7.613   8.234   1.804
20409SOL    HW381956   7.682   8.293   1.683
20409SOL    MW481957   7.676   8.283   1.768
20410SOL     OW81958   7.853   7.577   1.228
20410SOL    HW281959   7.896   7.661   1.248
20410SOL    HW381960   7.926   7.515   1.221
20410SOL    MW481961   7.868   7.580   1.229
20411SOL     OW81962   7.894   8.244   0.406
20411SOL    HW281963   7.894   8.339   0.391
20411SOL    HW381964   7.971   8.228   0.460
20411SOL    MW481965   7.904   8.255   0.411
20412SOL     OW81966   8.670   8.103   1.470
20412SOL    HW281967   8.706   8.076   1.386
20412SOL    HW381968   8.583   8.137   1.449
20412SOL    MW481969   8.664   8.104   1.457
20413SOL     OW81970   7.653   7.975   0.695
20413SOL    HW281971   7.715   7.982   0.768
20413SOL    HW381972   7.653   7.882   0.672
20413SOL    MW481973   7.661   7.964   0.702
20414SOL     OW81974   8.335   8.236   1.179
20414SOL    HW281975   8.293   8.154   1.155
20414SOL    HW381976   8.336   8.235   1.275
20414SOL    MW481977   8.328   8.225   1.188
20415SOL     OW81978   8.139   7.706   1.284
20415SOL    HW281979   8.070   7.769   1.305
20415SOL    HW381980   8.166   7.670   1.369
20415SOL    MW481981   8.133   7.709   1.297
20416SOL     OW81982   8.934   7.559   0.901
20416SOL    HW281983   9.022   7.568   0.938
20416SOL    HW381984   8.944   7.500   0.827
20416SOL    MW481985   8.948   7.553   0.895
20417SOL     OW81986   8.966   8.298   0.745
20417SOL    HW281987   9.046   8.313   0.694
20417SOL    HW381988   8.959   8.203   0.751
20417SOL    MW481989   8.975   8.287   0.740
20418SOL     OW81990   8.416   8.224   1.442
20418SOL    HW281991   8.485   8.291   1.439
20418SOL    HW381992   8.349   8.262   1.498
20418SOL    MW481993   8.417   8.237   1.449
20419SOL     OW81994   7.834   8.524   1.690
20419SOL    HW281995   7.788   8.440   1.692
20419SOL    HW381996   7.891   8.518   1.614
20419SOL    MW481997   7.836   8.512   1.682
20420SOL     OW81998   8.085   8.899   0.691
20420SOL    HW281999   8.150   8.832   0.712
20420SOL    HW382000   8.137   8.976   0.668
20420SOL    MW482001   8.100   8.901   0.690
20421SOL     OW82002   8.346   8.064   0.821
20421SOL    HW282003   8.286   8.082   0.893
20421SOL    HW382004   8.380   7.976   0.840
20421SOL    MW482005   8.342   8.054   0.834
20422SOL     OW82006   9.287   7.563   1.490
20422SOL    HW282007   9.208   7.609   1.518
20422SOL    HW382008   9.322   7.617   1.419
20422SOL    MW482009   9.281   7.576   1.484
20423SOL     OW82010   8.571   8.647   0.840
20423SOL    HW282011   8.663   8.628   0.858
20423SOL    HW382012   8.544   8.577   0.780
20423SOL    MW482013   8.579   8.635   0.834
20424SOL     OW82014   7.777   8.191   0.974
20424SOL    HW282015   7.727   8.190   1.055
20424SOL    HW382016   7.797   8.283   0.958
20424SOL    MW482017   7.773   8.203   0.982
20425SOL     OW82018   7.699   7.859   1.715
20425SOL    HW282019   7.656   7.918   1.652
20425SOL    HW382020   7.767   7.914   1.755
20425SOL    MW482021   7.703   7.874   1.712
20426SOL     OW82022   8.811   8.479   1.260
20426SOL    HW282023   8.874   8.476   1.333
20426SOL    HW382024   8.727   8.497   1.302
20426SOL    MW482025   8.807   8.481   1.275
20427SOL     OW82026   9.150   7.656   1.039
20427SOL    HW282027   9.195   7.574   1.058
20427SOL    HW382028   9.170   7.712   1.115
20427SOL    MW482029   9.160   7.652   1.051
20428SOL     OW82030   7.598   7.499   1.138
20428SOL    HW282031   7.589   7.500   1.043
20428SOL    HW382032   7.692   7.511   1.153
20428SOL    MW482033   7.610   7.502   1.129
20429SOL     OW82034   9.235   8.692   0.758
20429SOL    HW282035   9.214   8.638   0.681
20429SOL    HW382036   9.331   8.690   0.762
20429SOL    MW482037   9.244   8.685   0.747
20430SOL     OW82038   7.927   8.837   1.501
20430SOL    HW282039   7.848   8.787   1.524
20430SOL    HW382040   7.997   8.796   1.551
20430SOL    MW482041   7.925   8.825   1.511
20431SOL     OW82042   7.811   7.626   0.184
20431SOL    HW282043   7.740   7.681   0.152
20431SOL    HW382044   7.853   7.592   0.105
20431SOL    MW482045   7.807   7.628   0.170
20432SOL     OW82046   8.935   8.123   1.020
20432SOL    HW282047   8.858   8.169   0.986
20432SOL    HW382048   8.992   8.192   1.054
20432SOL    MW482049   8.932   8.138   1.020
20433SOL     OW82050   9.236   8.339   2.125
20433SOL    HW282051   9.277   8.281   2.190
20433SOL    HW382052   9.143   8.331   2.142
20433SOL    MW482053   9.230   8.331   2.135
20434SOL     OW82054   9.102   8.271   3.120
20434SOL    HW282055   9.057   8.338   3.171
20434SOL    HW382056   9.190   8.307   3.106
20434SOL    MW482057   9.108   8.284   3.124
20435SOL     OW82058   8.030   8.522   2.354
20435SOL    HW282059   8.120   8.497   2.338
20435SOL    HW382060   8.026   8.615   2.331
20435SOL    MW482061   8.042   8.531   2.349
20436SOL     OW82062   9.082   8.665   3.101
20436SOL    HW282063   9.003   8.630   3.059
20436SOL    HW382064   9.109   8.737   3.045
20436SOL    MW482065   9.075   8.670   3.088
20437SOL     OW82066   8.314   7.978   2.367
20437SOL    HW282067   8.289   8.066   2.395
20437SOL    HW382068   8.311   7.981   2.271
20437SOL    MW482069   8.310   7.990   2.359
20438SOL     OW82070   7.756   8.006   2.295
20438SOL    HW282071   7.788   8.094   2.277
20438SOL    HW382072   7.744   8.004   2.390
20438SOL    MW482073   7.759   8.018   2.307
20439SOL     OW82074   7.834   8.419   3.196
20439SOL    HW282075   7.897   8.366   3.147
20439SOL    HW382076   7.815   8.493   3.139
20439SOL    MW482077   7.840   8.421   3.183
20440SOL     OW82078   8.155   7.761   2.382
20440SOL    HW282079   8.213   7.837   2.384
20440SOL    HW382080   8.090   7.782   2.315
20440SOL    MW482081   8.154   7.773   2.373
20441SOL     OW82082   8.242   8.688   2.557
20441SOL    HW282083   8.322   8.691   2.609
20441SOL    HW382084   8.270   8.655   2.471
20441SOL    MW482085   8.256   8.684   2.552
20442SOL     OW82086   8.019   8.192   2.548
20442SOL    HW282087   8.004   8.112   2.599
20442SOL    HW382088   8.101   8.227   2.582
20442SOL    MW482089   8.027   8.184   2.560
20443SOL     OW82090   8.161   8.018   2.925
20443SOL    HW282091   8.067   8.014   2.943
20443SOL    HW382092   8.191   7.927   2.934
20443SOL    MW482093   8.152   8.006   2.928
20444SOL     OW82094   7.907   8.432   2.829
20444SOL    HW282095   7.862   8.439   2.745
20444SOL    HW382096   7.887   8.515   2.873
20444SOL    MW482097   7.899   8.444   2.823
20445SOL     OW82098   8.869   8.670   2.073
20445SOL    HW282099   8.787   8.706   2.039
20445SOL    HW382100   8.937   8.713   2.022
20445SOL    MW482101   8.867   8.680   2.061
20446SOL     OW82102   7.868   8.805   2.739
20446SOL    HW282103   7.844   8.858   2.815
20446SOL    HW382104   7.924   8.863   2.687
20446SOL    MW482105   7.872   8.820   2.742
20447SOL     OW82106   8.430   8.449   2.549
20447SOL    HW282107   8.344   8.436   2.589
20447SOL    HW382108   8.483   8.376   2.581
20447SOL    MW482109   8.426   8.438   2.558
20448SOL     OW82110   8.421   8.811   2.266
20448SOL    HW282111   8.398   8.873   2.334
20448SOL    HW382112   8.378   8.729   2.292
20448SOL    MW482113   8.413   8.807   2.277
20449SOL     OW82114   9.294   7.812   2.722
20449SOL    HW282115   9.231   7.792   2.791
20449SOL    HW382116   9.284   7.741   2.659
20449SOL    MW482117   9.284   7.799   2.723
20450SOL     OW82118   7.918   7.784   2.234
20450SOL    HW282119   7.892   7.746   2.150
20450SOL    HW382120   7.855   7.854   2.250
20450SOL    MW482121   7.907   7.787   2.225
20451SOL     OW82122   7.753   8.745   2.271
20451SOL    HW282123   7.701   8.813   2.227
20451SOL    HW382124   7.750   8.671   2.211
20451SOL    MW482125   7.745   8.744   2.258
20452SOL     OW82126   9.350   7.981   2.024
20452SOL    HW282127   9.259   7.983   2.052
20452SOL    HW382128   9.395   8.043   2.082
20452SOL    MW482129   9.343   7.989   2.034
20453SOL     OW82130   9.095   8.584   2.374
20453SOL    HW282131   9.005   8.584   2.409
20453SOL    HW382132   9.088   8.630   2.291
20453SOL    MW482133   9.082   8.590   2.368
20454SOL     OW82134   8.895   8.219   3.446
20454SOL    HW282135   8.964   8.157   3.423
20454SOL    HW382136   8.820   8.193   3.393
20454SOL    MW482137   8.895   8.206   3.437
20455SOL     OW82138   8.631   8.606   3.438
20455SOL    HW282139   8.616   8.699   3.423
20455SOL    HW382140   8.726   8.596   3.438
20455SOL    MW482141   8.640   8.616   3.435
20456SOL     OW82142   8.427   8.030   3.639
20456SOL    HW282143   8.517   8.031   3.606
20456SOL    HW382144   8.386   7.955   3.597
20456SOL    MW482145   8.433   8.020   3.630
20457SOL     OW82146   9.002   8.562   2.766
20457SOL    HW282147   9.005   8.496   2.697
20457SOL    HW382148   9.087   8.605   2.762
20457SOL    MW482149   9.014   8.558   2.757
20458SOL     OW82150   8.622   8.165   2.335
20458SOL    HW282151   8.648   8.189   2.246
20458SOL    HW382152   8.604   8.072   2.331
20458SOL    MW482153   8.624   8.157   2.322
20459SOL     OW82154   9.287   8.785   2.186
20459SOL    HW282155   9.243   8.826   2.261
20459SOL    HW382156   9.344   8.853   2.151
20459SOL    MW482157   9.289   8.799   2.191
20460SOL     OW82158   8.207   7.834   3.589
20460SOL    HW282159   8.217   7.760   3.529
20460SOL    HW382160   8.243   7.803   3.672
20460SOL    MW482161   8.213   7.820   3.591
20461SOL     OW82162   9.327   7.563   2.553
20461SOL    HW282163   9.381   7.514   2.615
20461SOL    HW382164   9.270   7.497   2.514
20461SOL    MW482165   9.327   7.547   2.555
20462SOL     OW82166   8.446   7.516   2.966
20462SOL    HW282167   8.405   7.594   2.928
20462SOL    HW382168   8.540   7.534   2.961
20462SOL    MW482169   8.452   7.528   2.961
20463SOL     OW82170   8.461   8.194   1.996
20463SOL    HW282171   8.463   8.141   1.917
20463SOL    HW382172   8.549   8.231   2.002
20463SOL    MW482173   8.473   8.193   1.985
20464SOL     OW82174   9.075   8.120   2.332
20464SOL    HW282175   9.114   8.120   2.419
20464SOL    HW382176   9.016   8.196   2.332
20464SOL    MW482177   9.072   8.131   2.343
20465SOL     OW82178   8.392   8.487   3.461
20465SOL    HW282179   8.369   8.467   3.551
20465SOL    HW382180   8.477   8.531   3.466
20465SOL    MW482181   8.399   8.490   3.473
20466SOL     OW82182   8.472   7.624   3.221
20466SOL    HW282183   8.478   7.586   3.134
20466SOL    HW382184   8.461   7.718   3.206
20466SOL    MW482185   8.473   7.632   3.209
20467SOL     OW82186   8.561   8.113   3.055
20467SOL    HW282187   8.636   8.142   3.002
20467SOL    HW382188   8.493   8.178   3.039
20467SOL    MW482189   8.562   8.125   3.045
20468SOL     OW82190   9.111   8.081   3.332
20468SOL    HW282191   9.092   7.990   3.311
20468SOL    HW382192   9.089   8.130   3.253
20468SOL    MW482193   9.106   8.074   3.319
20469SOL     OW82194   8.558   7.819   3.438
20469SOL    HW282195   8.524   7.858   3.357
20469SOL    HW382196   8.536   7.727   3.431
20469SOL    MW482197   8.551   7.812   3.428
20470SOL     OW82198   8.967   8.633   3.514
20470SOL    HW282199   9.049   8.674   3.544
20470SOL    HW382200   8.930   8.595   3.594
20470SOL    MW482201   8.973   8.634   3.529
20471SOL     OW82202   9.262   8.006   2.498
20471SOL    HW282203   9.351   7.975   2.515
20471SOL    HW382204   9.205   7.946   2.546
20471SOL    MW482205   9.265   7.994   2.507
20472SOL     OW82206   7.688   7.720   2.527
20472SOL    HW282207   7.679   7.660   2.453
20472SOL    HW382208   7.621   7.691   2.590
20472SOL    MW482209   7.678   7.707   2.525
20473SOL     OW82210   8.631   8.813   2.088
20473SOL    HW282211   8.581   8.815   2.170
20473SOL    HW382212   8.565   8.831   2.020
20473SOL    MW482213   8.617   8.815   2.090
20474SOL     OW82214   7.635   7.893   2.890
20474SOL    HW282215   7.607   7.984   2.899
20474SOL    HW382216   7.572   7.854   2.829
20474SOL    MW482217   7.622   7.899   2.884
20475SOL     OW82218   8.230   8.646   1.903
20475SOL    HW282219   8.152   8.592   1.890
20475SOL    HW382220   8.201   8.719   1.956
20475SOL    MW482221   8.216   8.648   1.908
20476SOL     OW82222   9.356   8.386   3.095
20476SOL    HW282223   9.372   8.424   3.008
20476SOL    HW382224   9.390   8.452   3.156
20476SOL    MW482225   9.363   8.399   3.091
20477SOL     OW82226   7.619   8.168   3.060
20477SOL    HW282227   7.681   8.198   3.126
20477SOL    HW382228   7.553   8.237   3.054
20477SOL    MW482229   7.618   8.181   3.067
20478SOL     OW82230   8.260   7.725   1.968
20478SOL    HW282231   8.208   7.645   1.956
20478SOL    HW382232   8.347   7.702   1.936
20478SOL    MW482233   8.263   7.711   1.962
20479SOL     OW82234   7.766   8.596   3.019
20479SOL    HW282235   7.819   8.671   3.044
20479SOL    HW382236   7.685   8.634   2.985
20479SOL    MW482237   7.762   8.611   3.019
20480SOL     OW82238   8.306   8.500   3.007
20480SOL    HW282239   8.334   8.409   3.019
20480SOL    HW382240   8.235   8.494   2.943
20480SOL    MW482241   8.299   8.488   3.002
20481SOL     OW82242   7.621   8.365   2.425
20481SOL    HW282243   7.712   8.380   2.452
20481SOL    HW382244   7.624   8.286   2.371
20481SOL    MW482245   7.633   8.357   2.423
20482SOL     OW82246   7.857   8.073   3.679
20482SOL    HW282247   7.804   8.153   3.686
20482SOL    HW382248   7.927   8.085   3.744
20482SOL    MW482249   7.859   8.086   3.687
20483SOL     OW82250   8.243   7.623   3.386
20483SOL    HW282251   8.220   7.531   3.388
20483SOL    HW382252   8.329   7.625   3.343
20483SOL    MW482253   8.250   7.613   3.382
20484SOL     OW82254   7.927   8.147   3.425
20484SOL    HW282255   8.007   8.197   3.411
20484SOL    HW382256   7.918   8.141   3.520
20484SOL    MW482257   7.936   8.153   3.435
20485SOL     OW82258   8.904   7.672   3.696
20485SOL    HW282259   8.960   7.599   3.722
20485SOL    HW382260   8.874   7.710   3.778
20485SOL    MW482261   8.908   7.667   3.709
20486SOL     OW82262   9.294   8.165   2.813
20486SOL    HW282263   9.383   8.195   2.795
20486SOL    HW382264   9.274   8.105   2.742
20486SOL    MW482265   9.303   8.162   2.802
20487SOL     OW82266   9.145   8.344   3.693
20487SOL    HW282267   9.200   8.268   3.674
20487SOL    HW382268   9.147   8.352   3.788
20487SOL    MW482269   9.153   8.335   3.701
20488SOL     OW82270   8.633   7.722   2.127
20488SOL    HW282271   8.566   7.698   2.064
20488SOL    HW382272   8.698   7.771   2.076
20488SOL    MW482273   8.633   7.724   2.112
20489SOL     OW82274   8.440   7.906   3.212
20489SOL    HW282275   8.359   7.947   3.240
20489SOL    HW382276   8.487   7.974   3.164
20489SOL    MW482277   8.435   7.921   3.210
20490SOL     OW82278   8.700   8.244   2.835
20490SOL    HW282279   8.713   8.338   2.845
20490SOL    HW382280   8.661   8.234   2.749
20490SOL    MW482281   8.696   8.255   2.825
20491SOL     OW82282   8.152   8.439   2.639
20491SOL    HW282283   8.063   8.430   2.672
20491SOL    HW382284   8.156   8.529   2.607
20491SOL    MW482285   8.141   8.450   2.639
20492SOL     OW82286   8.951   8.022   2.634
20492SOL    HW282287   8.896   7.943   2.633
20492SOL    HW382288   8.933   8.063   2.718
20492SOL    MW482289   8.941   8.017   2.643
20493SOL     OW82290   7.922   7.709   3.451
20493SOL    HW282291   7.843   7.727   3.503
20493SOL    HW382292   7.917   7.771   3.378
20493SOL    MW482293   7.912   7.719   3.448
20494SOL     OW82294   8.570   8.226   2.591
20494SOL    HW282295   8.507   8.158   2.615
20494SOL    HW382296   8.590   8.207   2.499
20494SOL    MW482297   8.564   8.213   2.583
20495SOL     OW82298   8.318   8.530   2.317
20495SOL    HW282299   8.320   8.504   2.224
20495SOL    HW382300   8.376   8.467   2.360
20495SOL    MW482301   8.326   8.519   2.311
20496SOL     OW82302   8.828   7.774   2.650
20496SOL    HW282303   8.856   7.706   2.711
20496SOL    HW382304   8.742   7.745   2.620
20496SOL    MW482305   8.821   7.761   2.654
20497SOL     OW82306   7.633   8.708   2.584
20497SOL    HW282307   7.697   8.740   2.647
20497SOL    HW382308   7.682   8.644   2.532
20497SOL    MW482309   7.648   8.704   2.585
20498SOL     OW82310   8.808   7.878   1.985
20498SOL    HW282311   8.781   7.944   1.921
20498SOL    HW382312   8.878   7.921   2.035
20498SOL    MW482313   8.813   7.891   1.982
20499SOL     OW82314   8.476   7.583   1.922
20499SOL    HW282315   8.532   7.575   1.844
20499SOL    HW382316   8.453   7.493   1.944
20499SOL    MW482317   8.481   7.570   1.915
20500SOL     OW82318   8.981   8.434   2.127
20500SOL    HW282319   8.948   8.523   2.117
20500SOL    HW382320   8.946   8.405   2.212
20500SOL    MW482321   8.971   8.443   2.138
20501SOL     OW82322   7.887   7.531   3.657
20501SOL    HW282323   7.815   7.496   3.605
20501SOL    HW382324   7.945   7.572   3.592
20501SOL    MW482325   7.885   7.532   3.642
20502SOL     OW82326   9.351   8.550   3.310
20502SOL    HW282327   9.266   8.563   3.269
20502SOL    HW382328   9.331   8.514   3.397
20502SOL    MW482329   9.338   8.546   3.315
20503SOL     OW82330   7.975   8.472   1.919
20503SOL    HW282331   7.898   8.485   1.975
20503SOL    HW382332   7.939   8.436   1.838
20503SOL    MW482333   7.961   8.468   1.916
20504SOL     OW82334   8.628   8.445   2.162
20504SOL    HW282335   8.538   8.466   2.137
20504SOL    HW382336   8.655   8.518   2.218
20504SOL    MW482337   8.620   8.457   2.165
20505SOL     OW82338   8.128   8.794   2.854
20505SOL    HW282339   8.121   8.773   2.948
20505SOL    HW382340   8.046   8.762   2.817
20505SOL    MW482341   8.116   8.788   2.861
20506SOL     OW82342   8.992   7.804   3.256
20506SOL    HW282343   8.939   7.806   3.336
20506SOL    HW382344   8.977   7.717   3.219
20506SOL    MW482345   8.984   7.794   3.261
20507SOL     OW82346   9.328   7.728   3.129
20507SOL    HW282347   9.309   7.795   3.064
20507SOL    HW382348   9.385   7.666   3.084
20507SOL    MW482349   9.332   7.729   3.115
20508SOL     OW82350   8.257   7.561   2.569
20508SOL    HW282351   8.186   7.622   2.551
20508SOL    HW382352   8.308   7.558   2.488
20508SOL    MW482353   8.253   7.567   2.556
20509SOL     OW82354   8.015   8.801   2.318
20509SOL    HW282355   8.008   8.833   2.408
20509SOL    HW382356   7.925   8.785   2.290
20509SOL    MW482357   8.003   8.803   2.325
20510SOL     OW82358   8.217   8.218   3.699
20510SOL    HW282359   8.287   8.160   3.671
20510SOL    HW382360   8.160   8.163   3.754
20510SOL    MW482361   8.219   8.205   3.703
20511SOL     OW82362   9.004   8.430   3.332
20511SOL    HW282363   9.009   8.483   3.412
20511SOL    HW382364   8.966   8.347   3.360
20511SOL    MW482365   9.000   8.425   3.347
20512SOL     OW82366   8.644   7.565   3.578
20512SOL    HW282367   8.639   7.472   3.559
20512SOL    HW382368   8.727   7.576   3.624
20512SOL    MW482369   8.652   7.554   3.582
20513SOL     OW82370   8.018   8.085   2.032
20513SOL    HW282371   7.984   8.141   2.102
20513SOL    HW382372   8.089   8.035   2.072
20513SOL    MW482373   8.024   8.086   2.046
20514SOL     OW82374   9.114   8.836   2.854
20514SOL    HW282375   9.149   8.818   2.767
20514SOL    HW382376   9.019   8.837   2.841
20514SOL    MW482377   9.106   8.833   2.841
20515SOL     OW82378   8.543   8.484   3.223
20515SOL    HW282379   8.586   8.519   3.301
20515SOL    HW382380   8.526   8.561   3.169
20515SOL    MW482381   8.546   8.499   3.226
20516SOL     OW82382   9.074   7.971   2.096
20516SOL    HW282383   9.066   8.042   2.033
20516SOL    HW382384   9.092   8.015   2.179
20516SOL    MW482385   9.075   7.985   2.098
20517SOL     OW82386   7.934   7.626   2.525
20517SOL    HW282387   7.984   7.669   2.456
20517SOL    HW382388   7.849   7.670   2.525
20517SOL    MW482389   7.931   7.639   2.516
20518SOL     OW82390   7.693   8.688   3.385
20518SOL    HW282391   7.721   8.641   3.463
20518SOL    HW382392   7.614   8.643   3.356
20518SOL    MW482393   7.686   8.677   3.391
20519SOL     OW82394   8.201   8.015   3.352
20519SOL    HW282395   8.173   8.103   3.376
20519SOL    HW382396   8.170   7.959   3.423
20519SOL    MW482397   8.193   8.018   3.364
20520SOL     OW82398   8.743   8.233   2.071
20520SOL    HW282399   8.790   8.251   1.990
20520SOL    HW382400   8.709   8.317   2.099
20520SOL    MW482401   8.745   8.247   2.064
20521SOL     OW82402   7.856   8.411   2.565
20521SOL    HW282403   7.914   8.467   2.513
20521SOL    HW382404   7.900   8.326   2.567
20521SOL    MW482405   7.869   8.408   2.558
20522SOL     OW82406   8.996   7.763   2.402
20522SOL    HW282407   8.918   7.713   2.427
20522SOL    HW382408   8.967   7.854   2.402
20522SOL    MW482409   8.982   7.767   2.405
20523SOL     OW82410   8.582   7.725   2.561
20523SOL    HW282411   8.602   7.800   2.505
20523SOL    HW382412   8.562   7.764   2.646
20523SOL    MW482413   8.583   7.741   2.565
20524SOL     OW82414   9.342   8.498   3.580
20524SOL    HW282415   9.255   8.478   3.616
20524SOL    HW382416   9.396   8.424   3.605
20524SOL    MW482417   9.337   8.487   3.588
20525SOL     OW82418   7.518   8.137   2.284
20525SOL    HW282419   7.458   8.109   2.354
20525SOL    HW382420   7.592   8.077   2.290
20525SOL    MW482421   7.520   8.126   2.293
20526SOL     OW82422   7.944   7.876   3.173
20526SOL    HW282423   7.977   7.957   3.213
20526SOL    HW382424   7.917   7.902   3.085
20526SOL    MW482425   7.943   7.890   3.167
20527SOL     OW82426   7.898   7.843   2.909
20527SOL    HW282427   7.928   7.757   2.880
20527SOL    HW382428   7.803   7.836   2.912
20527SOL    MW482429   7.890   7.832   2.907
20528SOL     OW82430   8.727   8.052   3.600
20528SOL    HW282431   8.779   7.987   3.553
20528SOL    HW382432   8.685   8.103   3.530
20528SOL    MW482433   8.728   8.049   3.583
20529SOL     OW82434   8.826   7.847   3.461
20529SOL    HW282435   8.733   7.831   3.448
20529SOL    HW382436   8.852   7.785   3.529
20529SOL    MW482437   8.816   7.837   3.468
20530SOL     OW82438   8.041   7.621   2.800
20530SOL    HW282439   8.051   7.530   2.826
20530SOL    HW382440   7.997   7.617   2.715
20530SOL    MW482441   8.037   7.609   2.792
20531SOL     OW82442   9.192   7.943   2.971
20531SOL    HW282443   9.125   7.976   3.031
20531SOL    HW382444   9.235   8.021   2.937
20531SOL    MW482445   9.190   7.958   2.975
20532SOL     OW82446   9.370   8.663   2.941
20532SOL    HW282447   9.363   8.603   2.866
20532SOL    HW382448   9.296   8.723   2.930
20532SOL    MW482449   9.360   8.663   2.930
20533SOL     OW82450   8.752   8.525   2.859
20533SOL    HW282451   8.766   8.497   2.950
20533SOL    HW382452   8.838   8.556   2.831
20533SOL    MW482453   8.765   8.526   2.868
20534SOL     OW82454   8.835   8.020   3.138
20534SOL    HW282455   8.856   8.021   3.045
20534SOL    HW382456   8.880   7.942   3.171
20534SOL    MW482457   8.842   8.010   3.130
20535SOL     OW82458   9.328   8.151   3.680
20535SOL    HW282459   9.365   8.096   3.749
20535SOL    HW382460   9.353   8.108   3.598
20535SOL    MW482461   9.335   8.139   3.679
20536SOL     OW82462   8.875   8.449   3.731
20536SOL    HW282463   8.941   8.397   3.685
20536SOL    HW382464   8.895   8.436   3.824
20536SOL    MW482465   8.886   8.440   3.738
20537SOL     OW82466   8.826   7.535   2.080
20537SOL    HW282467   8.900   7.579   2.123
20537SOL    HW382468   8.750   7.589   2.102
20537SOL    MW482469   8.826   7.547   2.088
20538SOL     OW82470   8.886   8.310   2.358
20538SOL    HW282471   8.801   8.280   2.328
20538SOL    HW382472   8.878   8.317   2.453
20538SOL    MW482473   8.874   8.308   2.367
20539SOL     OW82474   8.246   7.753   2.912
20539SOL    HW282475   8.219   7.755   3.003
20539SOL    HW382476   8.176   7.705   2.867
20539SOL    MW482477   8.234   7.749   2.919
20540SOL     OW82478   9.002   8.830   3.306
20540SOL    HW282479   8.987   8.759   3.369
20540SOL    HW382480   9.048   8.788   3.234
20540SOL    MW482481   9.008   8.814   3.306
20541SOL     OW82482   8.076   8.561   3.423
20541SOL    HW282483   8.113   8.566   3.335
20541SOL    HW382484   8.115   8.634   3.470
20541SOL    MW482485   8.086   8.571   3.418
20542SOL     OW82486   8.256   8.604   3.235
20542SOL    HW282487   8.315   8.550   3.288
20542SOL    HW382488   8.271   8.576   3.145
20542SOL    MW482489   8.266   8.593   3.231
20543SOL     OW82490   8.259   7.976   2.084
20543SOL    HW282491   8.332   8.025   2.047
20543SOL    HW382492   8.275   7.885   2.058
20543SOL    MW482493   8.271   7.971   2.077
20544SOL     OW82494   8.727   7.572   2.998
20544SOL    HW282495   8.782   7.581   2.920
20544SOL    HW382496   8.782   7.606   3.069
20544SOL    MW482497   8.741   7.577   2.997
20545SOL     OW82498   7.734   8.485   2.182
20545SOL    HW282499   7.671   8.501   2.111
20545SOL    HW382500   7.681   8.448   2.253
20545SOL    MW482501   7.719   8.482   2.182
20546SOL     OW82502   8.505   8.706   3.005
20546SOL    HW282503   8.437   8.640   3.021
20546SOL    HW382504   8.523   8.700   2.912
20546SOL    MW482505   8.498   8.697   2.996
20547SOL     OW82506   8.498   7.845   2.826
20547SOL    HW282507   8.428   7.797   2.871
20547SOL    HW382508   8.530   7.908   2.890
20547SOL    MW482509   8.493   7.847   2.840
20548SOL     OW82510   8.149   8.281   3.446
20548SOL    HW282511   8.142   8.376   3.434
20548SOL    HW382512   8.158   8.270   3.541
20548SOL    MW482513   8.150   8.293   3.456
20549SOL     OW82514   8.954   7.559   3.171
20549SOL    HW282515   9.025   7.505   3.135
20549SOL    HW382516   8.953   7.538   3.264
20549SOL    MW482517   8.963   7.550   3.179
20550SOL     OW82518   7.965   7.951   2.639
20550SOL    HW282519   8.036   7.899   2.602
20550SOL    HW382520   7.951   7.916   2.726
20550SOL    MW482521   7.973   7.940   2.646
20551SOL     OW82522   8.601   7.892   2.363
20551SOL    HW282523   8.623   7.829   2.295
20551SOL    HW382524   8.506   7.884   2.374
20551SOL    MW482525   8.591   7.883   2.355
20552SOL     OW82526   7.686   7.582   2.295
20552SOL    HW282527   7.757   7.603   2.234
20552SOL    HW382528   7.640   7.510   2.253
20552SOL    MW482529   7.690   7.576   2.281
20553SOL     OW82530   7.517   8.049   3.438
20553SOL    HW282531   7.581   8.115   3.413
20553SOL    HW382532   7.436   8.076   3.395
20553SOL    MW482533   7.515   8.061   3.430
20554SOL     OW82534   8.811   8.633   2.325
20554SOL    HW282535   8.783   8.719   2.358
20554SOL    HW382536   8.839   8.649   2.235
20554SOL    MW482537   8.811   8.647   2.317
20555SOL     OW82538   8.473   7.553   2.378
20555SOL    HW282539   8.510   7.612   2.443
20555SOL    HW382540   8.450   7.609   2.304
20555SOL    MW482541   8.474   7.568   2.377
20556SOL     OW82542   9.326   8.435   2.800
20556SOL    HW282543   9.317   8.467   2.711
20556SOL    HW382544   9.279   8.351   2.800
20556SOL    MW482545   9.319   8.428   2.790
20557SOL     OW82546   7.702   8.275   3.379
20557SOL    HW282547   7.723   8.344   3.317
20557SOL    HW382548   7.782   8.222   3.384
20557SOL    MW482549   7.715   8.276   3.373
20558SOL     OW82550   9.238   8.366   2.501
20558SOL    HW282551   9.332   8.355   2.489
20558SOL    HW382552   9.214   8.438   2.442
20558SOL    MW482553   9.248   8.374   2.492
20559SOL     OW82554   7.687   8.290   3.646
20559SOL    HW282555   7.613   8.234   3.672
20559SOL    HW382556   7.682   8.293   3.551
20559SOL    MW482557   7.676   8.283   3.636
20560SOL     OW82558   7.853   7.577   3.096
20560SOL    HW282559   7.896   7.661   3.116
20560SOL    HW382560   7.926   7.515   3.089
20560SOL    MW482561   7.868   7.580   3.097
20561SOL     OW82562   7.894   8.244   2.274
20561SOL    HW282563   7.894   8.339   2.259
20561SOL    HW382564   7.971   8.228   2.328
20561SOL    MW482565   7.904   8.255   2.279
20562SOL     OW82566   8.670   8.103   3.338
20562SOL    HW282567   8.706   8.076   3.254
20562SOL    HW382568   8.583   8.137   3.317
20562SOL    MW482569   8.664   8.104   3.325
20563SOL     OW82570   7.653   7.975   2.563
20563SOL    HW282571   7.715   7.982   2.636
20563SOL    HW382572   7.653   7.882   2.540
20563SOL    MW482573   7.661   7.964   2.570
20564SOL     OW82574   8.335   8.236   3.047
20564SOL    HW282575   8.293   8.154   3.023
20564SOL    HW382576   8.336   8.235   3.143
20564SOL    MW482577   8.328   8.225   3.056
20565SOL     OW82578   8.139   7.706   3.152
20565SOL    HW282579   8.070   7.769   3.173
20565SOL    HW382580   8.166   7.670   3.237
20565SOL    MW482581   8.133   7.709   3.165
20566SOL     OW82582   7.522   8.547   2.021
20566SOL    HW282583   7.491   8.612   2.084
20566SOL    HW382584   7.471   8.469   2.040
20566SOL    MW482585   7.512   8.544   2.031
20567SOL     OW82586   8.934   7.559   2.769
20567SOL    HW282587   9.022   7.568   2.806
20567SOL    HW382588   8.944   7.500   2.695
20567SOL    MW482589   8.948   7.553   2.763
20568SOL     OW82590   8.966   8.298   2.613
20568SOL    HW282591   9.046   8.313   2.562
20568SOL    HW382592   8.959   8.203   2.619
20568SOL    MW482593   8.975   8.287   2.608
20569SOL     OW82594   8.416   8.224   3.310
20569SOL    HW282595   8.485   8.291   3.307
20569SOL    HW382596   8.349   8.262   3.366
20569SOL    MW482597   8.417   8.237   3.317
20570SOL     OW82598   7.834   8.524   3.558
20570SOL    HW282599   7.788   8.440   3.560
20570SOL    HW382600   7.891   8.518   3.482
20570SOL    MW482601   7.836   8.512   3.550
20571SOL     OW82602   8.951   8.167   1.879
20571SOL    HW282603   8.879   8.143   1.821
20571SOL    HW382604   9.017   8.204   1.821
20571SOL    MW482605   8.950   8.169   1.864
20572SOL     OW82606   8.085   8.899   2.559
20572SOL    HW282607   8.150   8.832   2.580
20572SOL    HW382608   8.137   8.976   2.536
20572SOL    MW482609   8.100   8.901   2.558
20573SOL     OW82610   8.346   8.064   2.689
20573SOL    HW282611   8.286   8.082   2.761
20573SOL    HW382612   8.380   7.976   2.708
20573SOL    MW482613   8.342   8.054   2.702
20574SOL     OW82614   9.287   7.563   3.358
20574SOL    HW282615   9.208   7.609   3.386
20574SOL    HW382616   9.322   7.617   3.287
20574SOL    MW482617   9.281   7.576   3.352
20575SOL     OW82618   8.571   8.647   2.708
20575SOL    HW282619   8.663   8.628   2.726
20575SOL    HW382620   8.544   8.577   2.648
20575SOL    MW482621   8.579   8.635   2.702
20576SOL     OW82622   8.364   8.467   2.063
20576SOL    HW282623   8.350   8.379   2.028
20576SOL    HW382624   8.315   8.524   2.004
20576SOL    MW482625   8.356   8.462   2.051
20577SOL     OW82626   7.777   8.191   2.842
20577SOL    HW282627   7.727   8.190   2.923
20577SOL    HW382628   7.797   8.283   2.826
20577SOL    MW482629   7.773   8.203   2.850
20578SOL     OW82630   9.083   7.673   2.165
20578SOL    HW282631   9.076   7.677   2.260
20578SOL    HW382632   9.095   7.764   2.138
20578SOL    MW482633   9.084   7.686   2.173
20579SOL     OW82634   8.372   8.236   2.279
20579SOL    HW282635   8.352   8.222   2.186
20579SOL    HW382636   8.465   8.215   2.286
20579SOL    MW482637   8.382   8.231   2.268
20580SOL     OW82638   7.699   7.859   3.583
20580SOL    HW282639   7.656   7.918   3.520
20580SOL    HW382640   7.767   7.914   3.623
20580SOL    MW482641   7.703   7.874   3.580
20581SOL     OW82642   8.811   8.479   3.128
20581SOL    HW282643   8.874   8.476   3.201
20581SOL    HW382644   8.727   8.497   3.170
20581SOL    MW482645   8.807   8.481   3.143
20582SOL     OW82646   9.150   7.656   2.907
20582SOL    HW282647   9.195   7.574   2.926
20582SOL    HW382648   9.170   7.712   2.983
20582SOL    MW482649   9.160   7.652   2.919
20583SOL     OW82650   7.598   7.499   3.006
20583SOL    HW282651   7.589   7.500   2.911
20583SOL    HW382652   7.692   7.511   3.021
20583SOL    MW482653   7.610   7.502   2.997
20584SOL     OW82654   9.235   8.692   2.626
20584SOL    HW282655   9.214   8.638   2.549
20584SOL    HW382656   9.331   8.690   2.630
20584SOL    MW482657   9.244   8.685   2.615
20585SOL     OW82658   7.927   8.837   3.369
20585SOL    HW282659   7.848   8.787   3.392
20585SOL    HW382660   7.997   8.796   3.419
20585SOL    MW482661   7.925   8.825   3.379
20586SOL     OW82662   7.811   7.626   2.052
20586SOL    HW282663   7.740   7.681   2.020
20586SOL    HW382664   7.853   7.592   1.973
20586SOL    MW482665   7.807   7.628   2.038
20587SOL     OW82666   8.935   8.123   2.888
20587SOL    HW282667   8.858   8.169   2.854
20587SOL    HW382668   8.992   8.192   2.922
20587SOL    MW482669   8.932   8.138   2.888
20588SOL     OW82670   7.567   7.725   1.901
20588SOL    HW282671   7.534   7.804   1.945
20588SOL    HW382672   7.622   7.758   1.830
20588SOL    MW482673   7.570   7.739   1.898
20589SOL     OW82674   9.236   8.339   3.993
20589SOL    HW282675   9.277   8.281   4.058
20589SOL    HW382676   9.143   8.331   4.010
20589SOL    MW482677   9.230   8.331   4.003
20590SOL     OW82678   9.102   8.271   4.988
20590SOL    HW282679   9.057   8.338   5.039
20590SOL    HW382680   9.190   8.307   4.974
20590SOL    MW482681   9.108   8.284   4.992
20591SOL     OW82682   8.030   8.522   4.222
20591SOL    HW282683   8.120   8.497   4.206
20591SOL    HW382684   8.026   8.615   4.199
20591SOL    MW482685   8.042   8.531   4.217
20592SOL     OW82686   9.082   8.665   4.969
20592SOL    HW282687   9.003   8.630   4.927
20592SOL    HW382688   9.109   8.737   4.913
20592SOL    MW482689   9.075   8.670   4.956
20593SOL     OW82690   8.314   7.978   4.235
20593SOL    HW282691   8.289   8.066   4.263
20593SOL    HW382692   8.311   7.981   4.139
20593SOL    MW482693   8.310   7.990   4.227
20594SOL     OW82694   7.756   8.006   4.163
20594SOL    HW282695   7.788   8.094   4.145
20594SOL    HW382696   7.744   8.004   4.258
20594SOL    MW482697   7.759   8.018   4.175
20595SOL     OW82698   7.834   8.419   5.064
20595SOL    HW282699   7.897   8.366   5.015
20595SOL    HW382700   7.815   8.493   5.007
20595SOL    MW482701   7.840   8.421   5.051
20596SOL     OW82702   8.155   7.761   4.250
20596SOL    HW282703   8.213   7.837   4.252
20596SOL    HW382704   8.090   7.782   4.183
20596SOL    MW482705   8.154   7.773   4.241
20597SOL     OW82706   8.242   8.688   4.425
20597SOL    HW282707   8.322   8.691   4.477
20597SOL    HW382708   8.270   8.655   4.339
20597SOL    MW482709   8.256   8.684   4.420
20598SOL     OW82710   8.019   8.192   4.416
20598SOL    HW282711   8.004   8.112   4.467
20598SOL    HW382712   8.101   8.227   4.450
20598SOL    MW482713   8.027   8.184   4.428
20599SOL     OW82714   8.161   8.018   4.793
20599SOL    HW282715   8.067   8.014   4.811
20599SOL    HW382716   8.191   7.927   4.802
20599SOL    MW482717   8.152   8.006   4.796
20600SOL     OW82718   7.907   8.432   4.697
20600SOL    HW282719   7.862   8.439   4.613
20600SOL    HW382720   7.887   8.515   4.741
20600SOL    MW482721   7.899   8.444   4.691
20601SOL     OW82722   8.869   8.670   3.941
20601SOL    HW282723   8.787   8.706   3.907
20601SOL    HW382724   8.937   8.713   3.890
20601SOL    MW482725   8.867   8.680   3.929
20602SOL     OW82726   7.868   8.805   4.607
20602SOL    HW282727   7.844   8.858   4.683
20602SOL    HW382728   7.924   8.863   4.555
20602SOL    MW482729   7.872   8.820   4.610
20603SOL     OW82730   8.430   8.449   4.417
20603SOL    HW282731   8.344   8.436   4.457
20603SOL    HW382732   8.483   8.376   4.449
20603SOL    MW482733   8.426   8.438   4.426
20604SOL     OW82734   8.421   8.811   4.134
20604SOL    HW282735   8.398   8.873   4.202
20604SOL    HW382736   8.378   8.729   4.160
20604SOL    MW482737   8.413   8.807   4.145
20605SOL     OW82738   9.294   7.812   4.590
20605SOL    HW282739   9.231   7.792   4.659
20605SOL    HW382740   9.284   7.741   4.527
20605SOL    MW482741   9.284   7.799   4.591
20606SOL     OW82742   7.918   7.784   4.102
20606SOL    HW282743   7.892   7.746   4.018
20606SOL    HW382744   7.855   7.854   4.118
20606SOL    MW482745   7.907   7.787   4.093
20607SOL     OW82746   7.753   8.745   4.139
20607SOL    HW282747   7.701   8.813   4.095
20607SOL    HW382748   7.750   8.671   4.079
20607SOL    MW482749   7.745   8.744   4.126
20608SOL     OW82750   9.350   7.981   3.892
20608SOL    HW282751   9.259   7.983   3.920
20608SOL    HW382752   9.395   8.043   3.950
20608SOL    MW482753   9.343   7.989   3.902
20609SOL     OW82754   9.095   8.584   4.242
20609SOL    HW282755   9.005   8.584   4.277
20609SOL    HW382756   9.088   8.630   4.159
20609SOL    MW482757   9.082   8.590   4.236
20610SOL     OW82758   8.895   8.219   5.314
20610SOL    HW282759   8.964   8.157   5.291
20610SOL    HW382760   8.820   8.193   5.261
20610SOL    MW482761   8.895   8.206   5.305
20611SOL     OW82762   8.631   8.606   5.306
20611SOL    HW282763   8.616   8.699   5.291
20611SOL    HW382764   8.726   8.596   5.306
20611SOL    MW482765   8.640   8.616   5.303
20612SOL     OW82766   8.427   8.030   5.507
20612SOL    HW282767   8.517   8.031   5.474
20612SOL    HW382768   8.386   7.955   5.465
20612SOL    MW482769   8.433   8.020   5.498
20613SOL     OW82770   9.002   8.562   4.634
20613SOL    HW282771   9.005   8.496   4.565
20613SOL    HW382772   9.087   8.605   4.630
20613SOL    MW482773   9.014   8.558   4.625
20614SOL     OW82774   8.622   8.165   4.203
20614SOL    HW282775   8.648   8.189   4.114
20614SOL    HW382776   8.604   8.072   4.199
20614SOL    MW482777   8.624   8.157   4.190
20615SOL     OW82778   9.287   8.785   4.054
20615SOL    HW282779   9.243   8.826   4.129
20615SOL    HW382780   9.344   8.853   4.019
20615SOL    MW482781   9.289   8.799   4.059
20616SOL     OW82782   8.207   7.834   5.457
20616SOL    HW282783   8.217   7.760   5.397
20616SOL    HW382784   8.243   7.803   5.540
20616SOL    MW482785   8.213   7.820   5.459
20617SOL     OW82786   9.327   7.563   4.421
20617SOL    HW282787   9.381   7.514   4.483
20617SOL    HW382788   9.270   7.497   4.382
20617SOL    MW482789   9.327   7.547   4.423
20618SOL     OW82790   8.446   7.516   4.834
20618SOL    HW282791   8.405   7.594   4.796
20618SOL    HW382792   8.540   7.534   4.829
20618SOL    MW482793   8.452   7.528   4.829
20619SOL     OW82794   8.461   8.194   3.864
20619SOL    HW282795   8.463   8.141   3.785
20619SOL    HW382796   8.549   8.231   3.870
20619SOL    MW482797   8.473   8.193   3.853
20620SOL     OW82798   9.075   8.120   4.200
20620SOL    HW282799   9.114   8.120   4.287
20620SOL    HW382800   9.016   8.196   4.200
20620SOL    MW482801   9.072   8.131   4.211
20621SOL     OW82802   8.392   8.487   5.329
20621SOL    HW282803   8.369   8.467   5.419
20621SOL    HW382804   8.477   8.531   5.334
20621SOL    MW482805   8.399   8.490   5.341
20622SOL     OW82806   8.472   7.624   5.089
20622SOL    HW282807   8.478   7.586   5.002
20622SOL    HW382808   8.461   7.718   5.074
20622SOL    MW482809   8.473   7.632   5.077
20623SOL     OW82810   8.561   8.113   4.923
20623SOL    HW282811   8.636   8.142   4.870
20623SOL    HW382812   8.493   8.178   4.907
20623SOL    MW482813   8.562   8.125   4.913
20624SOL     OW82814   9.111   8.081   5.200
20624SOL    HW282815   9.092   7.990   5.179
20624SOL    HW382816   9.089   8.130   5.121
20624SOL    MW482817   9.106   8.074   5.187
20625SOL     OW82818   8.558   7.819   5.306
20625SOL    HW282819   8.524   7.858   5.225
20625SOL    HW382820   8.536   7.727   5.299
20625SOL    MW482821   8.551   7.812   5.296
20626SOL     OW82822   8.967   8.633   5.382
20626SOL    HW282823   9.049   8.674   5.412
20626SOL    HW382824   8.930   8.595   5.462
20626SOL    MW482825   8.973   8.634   5.397
20627SOL     OW82826   9.262   8.006   4.366
20627SOL    HW282827   9.351   7.975   4.383
20627SOL    HW382828   9.205   7.946   4.414
20627SOL    MW482829   9.265   7.994   4.375
20628SOL     OW82830   7.688   7.720   4.395
20628SOL    HW282831   7.679   7.660   4.321
20628SOL    HW382832   7.621   7.691   4.458
20628SOL    MW482833   7.678   7.707   4.393
20629SOL     OW82834   8.631   8.813   3.956
20629SOL    HW282835   8.581   8.815   4.038
20629SOL    HW382836   8.565   8.831   3.888
20629SOL    MW482837   8.617   8.815   3.958
20630SOL     OW82838   7.635   7.893   4.758
20630SOL    HW282839   7.607   7.984   4.767
20630SOL    HW382840   7.572   7.854   4.697
20630SOL    MW482841   7.622   7.899   4.752
20631SOL     OW82842   8.230   8.646   3.771
20631SOL    HW282843   8.152   8.592   3.758
20631SOL    HW382844   8.201   8.719   3.824
20631SOL    MW482845   8.216   8.648   3.776
20632SOL     OW82846   9.356   8.386   4.963
20632SOL    HW282847   9.372   8.424   4.876
20632SOL    HW382848   9.390   8.452   5.024
20632SOL    MW482849   9.363   8.399   4.959
20633SOL     OW82850   7.619   8.168   4.928
20633SOL    HW282851   7.681   8.198   4.994
20633SOL    HW382852   7.553   8.237   4.922
20633SOL    MW482853   7.618   8.181   4.935
20634SOL     OW82854   8.260   7.725   3.836
20634SOL    HW282855   8.208   7.645   3.824
20634SOL    HW382856   8.347   7.702   3.804
20634SOL    MW482857   8.263   7.711   3.830
20635SOL     OW82858   7.766   8.596   4.887
20635SOL    HW282859   7.819   8.671   4.912
20635SOL    HW382860   7.685   8.634   4.853
20635SOL    MW482861   7.762   8.611   4.887
20636SOL     OW82862   8.306   8.500   4.875
20636SOL    HW282863   8.334   8.409   4.887
20636SOL    HW382864   8.235   8.494   4.811
20636SOL    MW482865   8.299   8.488   4.870
20637SOL     OW82866   7.621   8.365   4.293
20637SOL    HW282867   7.712   8.380   4.320
20637SOL    HW382868   7.624   8.286   4.239
20637SOL    MW482869   7.633   8.357   4.291
20638SOL     OW82870   7.857   8.073   5.547
20638SOL    HW282871   7.804   8.153   5.554
20638SOL    HW382872   7.927   8.085   5.612
20638SOL    MW482873   7.859   8.086   5.555
20639SOL     OW82874   8.243   7.623   5.254
20639SOL    HW282875   8.220   7.531   5.256
20639SOL    HW382876   8.329   7.625   5.211
20639SOL    MW482877   8.250   7.613   5.250
20640SOL     OW82878   7.927   8.147   5.293
20640SOL    HW282879   8.007   8.197   5.279
20640SOL    HW382880   7.918   8.141   5.388
20640SOL    MW482881   7.936   8.153   5.303
20641SOL     OW82882   8.904   7.672   5.564
20641SOL    HW282883   8.960   7.599   5.590
20641SOL    HW382884   8.874   7.710   5.646
20641SOL    MW482885   8.908   7.667   5.577
20642SOL     OW82886   9.294   8.165   4.681
20642SOL    HW282887   9.383   8.195   4.663
20642SOL    HW382888   9.274   8.105   4.610
20642SOL    MW482889   9.303   8.162   4.670
20643SOL     OW82890   9.145   8.344   5.561
20643SOL    HW282891   9.200   8.268   5.542
20643SOL    HW382892   9.147   8.352   5.656
20643SOL    MW482893   9.153   8.335   5.569
20644SOL     OW82894   8.633   7.722   3.995
20644SOL    HW282895   8.566   7.698   3.932
20644SOL    HW382896   8.698   7.771   3.944
20644SOL    MW482897   8.633   7.724   3.980
20645SOL     OW82898   8.440   7.906   5.080
20645SOL    HW282899   8.359   7.947   5.108
20645SOL    HW382900   8.487   7.974   5.032
20645SOL    MW482901   8.435   7.921   5.078
20646SOL     OW82902   8.700   8.244   4.703
20646SOL    HW282903   8.713   8.338   4.713
20646SOL    HW382904   8.661   8.234   4.617
20646SOL    MW482905   8.696   8.255   4.693
20647SOL     OW82906   8.152   8.439   4.507
20647SOL    HW282907   8.063   8.430   4.540
20647SOL    HW382908   8.156   8.529   4.475
20647SOL    MW482909   8.141   8.450   4.507
20648SOL     OW82910   8.951   8.022   4.502
20648SOL    HW282911   8.896   7.943   4.501
20648SOL    HW382912   8.933   8.063   4.586
20648SOL    MW482913   8.941   8.017   4.511
20649SOL     OW82914   7.922   7.709   5.319
20649SOL    HW282915   7.843   7.727   5.371
20649SOL    HW382916   7.917   7.771   5.246
20649SOL    MW482917   7.912   7.719   5.316
20650SOL     OW82918   8.570   8.226   4.459
20650SOL    HW282919   8.507   8.158   4.483
20650SOL    HW382920   8.590   8.207   4.367
20650SOL    MW482921   8.564   8.213   4.451
20651SOL     OW82922   8.318   8.530   4.185
20651SOL    HW282923   8.320   8.504   4.092
20651SOL    HW382924   8.376   8.467   4.228
20651SOL    MW482925   8.326   8.519   4.179
20652SOL     OW82926   8.828   7.774   4.518
20652SOL    HW282927   8.856   7.706   4.579
20652SOL    HW382928   8.742   7.745   4.488
20652SOL    MW482929   8.821   7.761   4.522
20653SOL     OW82930   7.633   8.708   4.452
20653SOL    HW282931   7.697   8.740   4.515
20653SOL    HW382932   7.682   8.644   4.400
20653SOL    MW482933   7.648   8.704   4.453
20654SOL     OW82934   8.808   7.878   3.853
20654SOL    HW282935   8.781   7.944   3.789
20654SOL    HW382936   8.878   7.921   3.903
20654SOL    MW482937   8.813   7.891   3.850
20655SOL     OW82938   8.476   7.583   3.790
20655SOL    HW282939   8.532   7.575   3.712
20655SOL    HW382940   8.453   7.493   3.812
20655SOL    MW482941   8.481   7.570   3.783
20656SOL     OW82942   8.981   8.434   3.995
20656SOL    HW282943   8.948   8.523   3.985
20656SOL    HW382944   8.946   8.405   4.080
20656SOL    MW482945   8.971   8.443   4.006
20657SOL     OW82946   7.887   7.531   5.525
20657SOL    HW282947   7.815   7.496   5.473
20657SOL    HW382948   7.945   7.572   5.460
20657SOL    MW482949   7.885   7.532   5.510
20658SOL     OW82950   9.351   8.550   5.178
20658SOL    HW282951   9.266   8.563   5.137
20658SOL    HW382952   9.331   8.514   5.265
20658SOL    MW482953   9.338   8.546   5.183
20659SOL     OW82954   7.975   8.472   3.787
20659SOL    HW282955   7.898   8.485   3.843
20659SOL    HW382956   7.939   8.436   3.706
20659SOL    MW482957   7.961   8.468   3.784
20660SOL     OW82958   8.628   8.445   4.030
20660SOL    HW282959   8.538   8.466   4.005
20660SOL    HW382960   8.655   8.518   4.086
20660SOL    MW482961   8.620   8.457   4.033
20661SOL     OW82962   8.128   8.794   4.722
20661SOL    HW282963   8.121   8.773   4.816
20661SOL    HW382964   8.046   8.762   4.685
20661SOL    MW482965   8.116   8.788   4.729
20662SOL     OW82966   8.992   7.804   5.124
20662SOL    HW282967   8.939   7.806   5.204
20662SOL    HW382968   8.977   7.717   5.087
20662SOL    MW482969   8.984   7.794   5.129
20663SOL     OW82970   9.328   7.728   4.997
20663SOL    HW282971   9.309   7.795   4.932
20663SOL    HW382972   9.385   7.666   4.952
20663SOL    MW482973   9.332   7.729   4.983
20664SOL     OW82974   8.257   7.561   4.437
20664SOL    HW282975   8.186   7.622   4.419
20664SOL    HW382976   8.308   7.558   4.356
20664SOL    MW482977   8.253   7.567   4.424
20665SOL     OW82978   8.015   8.801   4.186
20665SOL    HW282979   8.008   8.833   4.276
20665SOL    HW382980   7.925   8.785   4.158
20665SOL    MW482981   8.003   8.803   4.193
20666SOL     OW82982   8.217   8.218   5.567
20666SOL    HW282983   8.287   8.160   5.539
20666SOL    HW382984   8.160   8.163   5.622
20666SOL    MW482985   8.219   8.205   5.571
20667SOL     OW82986   9.004   8.430   5.200
20667SOL    HW282987   9.009   8.483   5.280
20667SOL    HW382988   8.966   8.347   5.228
20667SOL    MW482989   9.000   8.425   5.215
20668SOL     OW82990   8.644   7.565   5.446
20668SOL    HW282991   8.639   7.472   5.427
20668SOL    HW382992   8.727   7.576   5.492
20668SOL    MW482993   8.652   7.554   5.450
20669SOL     OW82994   8.018   8.085   3.900
20669SOL    HW282995   7.984   8.141   3.970
20669SOL    HW382996   8.089   8.035   3.940
20669SOL    MW482997   8.024   8.086   3.914
20670SOL     OW82998   9.114   8.836   4.722
20670SOL    HW282999   9.149   8.818   4.635
20670SOL    HW383000   9.019   8.837   4.709
20670SOL    MW483001   9.106   8.833   4.709
20671SOL     OW83002   8.543   8.484   5.091
20671SOL    HW283003   8.586   8.519   5.169
20671SOL    HW383004   8.526   8.561   5.037
20671SOL    MW483005   8.546   8.499   5.094
20672SOL     OW83006   9.074   7.971   3.964
20672SOL    HW283007   9.066   8.042   3.901
20672SOL    HW383008   9.092   8.015   4.047
20672SOL    MW483009   9.075   7.985   3.966
20673SOL     OW83010   7.934   7.626   4.393
20673SOL    HW283011   7.984   7.669   4.324
20673SOL    HW383012   7.849   7.670   4.393
20673SOL    MW483013   7.931   7.639   4.384
20674SOL     OW83014   7.693   8.688   5.253
20674SOL    HW283015   7.721   8.641   5.331
20674SOL    HW383016   7.614   8.643   5.224
20674SOL    MW483017   7.686   8.677   5.259
20675SOL     OW83018   8.201   8.015   5.220
20675SOL    HW283019   8.173   8.103   5.244
20675SOL    HW383020   8.170   7.959   5.291
20675SOL    MW483021   8.193   8.018   5.232
20676SOL     OW83022   8.743   8.233   3.939
20676SOL    HW283023   8.790   8.251   3.858
20676SOL    HW383024   8.709   8.317   3.967
20676SOL    MW483025   8.745   8.247   3.932
20677SOL     OW83026   7.856   8.411   4.433
20677SOL    HW283027   7.914   8.467   4.381
20677SOL    HW383028   7.900   8.326   4.435
20677SOL    MW483029   7.869   8.408   4.426
20678SOL     OW83030   8.996   7.763   4.270
20678SOL    HW283031   8.918   7.713   4.295
20678SOL    HW383032   8.967   7.854   4.270
20678SOL    MW483033   8.982   7.767   4.273
20679SOL     OW83034   8.582   7.725   4.429
20679SOL    HW283035   8.602   7.800   4.373
20679SOL    HW383036   8.562   7.764   4.514
20679SOL    MW483037   8.583   7.741   4.433
20680SOL     OW83038   9.342   8.498   5.448
20680SOL    HW283039   9.255   8.478   5.484
20680SOL    HW383040   9.396   8.424   5.473
20680SOL    MW483041   9.337   8.487   5.456
20681SOL     OW83042   7.518   8.137   4.152
20681SOL    HW283043   7.458   8.109   4.222
20681SOL    HW383044   7.592   8.077   4.158
20681SOL    MW483045   7.520   8.126   4.161
20682SOL     OW83046   7.944   7.876   5.041
20682SOL    HW283047   7.977   7.957   5.081
20682SOL    HW383048   7.917   7.902   4.953
20682SOL    MW483049   7.943   7.890   5.035
20683SOL     OW83050   7.898   7.843   4.777
20683SOL    HW283051   7.928   7.757   4.748
20683SOL    HW383052   7.803   7.836   4.780
20683SOL    MW483053   7.890   7.832   4.775
20684SOL     OW83054   8.727   8.052   5.468
20684SOL    HW283055   8.779   7.987   5.421
20684SOL    HW383056   8.685   8.103   5.398
20684SOL    MW483057   8.728   8.049   5.451
20685SOL     OW83058   8.826   7.847   5.329
20685SOL    HW283059   8.733   7.831   5.316
20685SOL    HW383060   8.852   7.785   5.397
20685SOL    MW483061   8.816   7.837   5.336
20686SOL     OW83062   8.041   7.621   4.668
20686SOL    HW283063   8.051   7.530   4.694
20686SOL    HW383064   7.997   7.617   4.583
20686SOL    MW483065   8.037   7.609   4.660
20687SOL     OW83066   9.192   7.943   4.839
20687SOL    HW283067   9.125   7.976   4.899
20687SOL    HW383068   9.235   8.021   4.805
20687SOL    MW483069   9.190   7.958   4.843
20688SOL     OW83070   9.370   8.663   4.809
20688SOL    HW283071   9.363   8.603   4.734
20688SOL    HW383072   9.296   8.723   4.798
20688SOL    MW483073   9.360   8.663   4.798
20689SOL     OW83074   8.752   8.525   4.727
20689SOL    HW283075   8.766   8.497   4.818
20689SOL    HW383076   8.838   8.556   4.699
20689SOL    MW483077   8.765   8.526   4.736
20690SOL     OW83078   8.835   8.020   5.006
20690SOL    HW283079   8.856   8.021   4.913
20690SOL    HW383080   8.880   7.942   5.039
20690SOL    MW483081   8.842   8.010   4.998
20691SOL     OW83082   9.328   8.151   5.548
20691SOL    HW283083   9.365   8.096   5.617
20691SOL    HW383084   9.353   8.108   5.466
20691SOL    MW483085   9.335   8.139   5.547
20692SOL     OW83086   8.875   8.449   5.600
20692SOL    HW283087   8.941   8.397   5.554
20692SOL    HW383088   8.895   8.436   5.693
20692SOL    MW483089   8.886   8.440   5.607
20693SOL     OW83090   8.826   7.535   3.948
20693SOL    HW283091   8.900   7.579   3.991
20693SOL    HW383092   8.750   7.589   3.970
20693SOL    MW483093   8.826   7.547   3.956
20694SOL     OW83094   8.886   8.310   4.226
20694SOL    HW283095   8.801   8.280   4.196
20694SOL    HW383096   8.878   8.317   4.321
20694SOL    MW483097   8.874   8.308   4.235
20695SOL     OW83098   8.246   7.753   4.780
20695SOL    HW283099   8.219   7.755   4.871
20695SOL    HW383100   8.176   7.705   4.735
20695SOL    MW483101   8.234   7.749   4.787
20696SOL     OW83102   9.002   8.830   5.174
20696SOL    HW283103   8.987   8.759   5.237
20696SOL    HW383104   9.048   8.788   5.102
20696SOL    MW483105   9.008   8.814   5.174
20697SOL     OW83106   8.076   8.561   5.291
20697SOL    HW283107   8.113   8.566   5.203
20697SOL    HW383108   8.115   8.634   5.338
20697SOL    MW483109   8.086   8.571   5.286
20698SOL     OW83110   8.256   8.604   5.103
20698SOL    HW283111   8.315   8.550   5.156
20698SOL    HW383112   8.271   8.576   5.013
20698SOL    MW483113   8.266   8.593   5.099
20699SOL     OW83114   8.259   7.976   3.952
20699SOL    HW283115   8.332   8.025   3.915
20699SOL    HW383116   8.275   7.885   3.926
20699SOL    MW483117   8.271   7.971   3.945
20700SOL     OW83118   8.727   7.572   4.866
20700SOL    HW283119   8.782   7.581   4.788
20700SOL    HW383120   8.782   7.606   4.937
20700SOL    MW483121   8.741   7.577   4.865
20701SOL     OW83122   7.734   8.485   4.050
20701SOL    HW283123   7.671   8.501   3.979
20701SOL    HW383124   7.681   8.448   4.121
20701SOL    MW483125   7.719   8.482   4.050
20702SOL     OW83126   8.505   8.706   4.873
20702SOL    HW283127   8.437   8.640   4.889
20702SOL    HW383128   8.523   8.700   4.780
20702SOL    MW483129   8.498   8.697   4.864
20703SOL     OW83130   8.498   7.845   4.694
20703SOL    HW283131   8.428   7.797   4.739
20703SOL    HW383132   8.530   7.908   4.758
20703SOL    MW483133   8.493   7.847   4.708
20704SOL     OW83134   8.149   8.281   5.314
20704SOL    HW283135   8.142   8.376   5.302
20704SOL    HW383136   8.158   8.270   5.409
20704SOL    MW483137   8.150   8.293   5.324
20705SOL     OW83138   8.954   7.559   5.039
20705SOL    HW283139   9.025   7.505   5.003
20705SOL    HW383140   8.953   7.538   5.132
20705SOL    MW483141   8.963   7.550   5.047
20706SOL     OW83142   7.965   7.951   4.507
20706SOL    HW283143   8.036   7.899   4.470
20706SOL    HW383144   7.951   7.916   4.594
20706SOL    MW483145   7.973   7.940   4.514
20707SOL     OW83146   8.601   7.892   4.231
20707SOL    HW283147   8.623   7.829   4.163
20707SOL    HW383148   8.506   7.884   4.242
20707SOL    MW483149   8.591   7.883   4.223
20708SOL     OW83150   7.686   7.582   4.163
20708SOL    HW283151   7.757   7.603   4.102
20708SOL    HW383152   7.640   7.510   4.121
20708SOL    MW483153   7.690   7.576   4.149
20709SOL     OW83154   7.517   8.049   5.306
20709SOL    HW283155   7.581   8.115   5.281
20709SOL    HW383156   7.436   8.076   5.263
20709SOL    MW483157   7.515   8.061   5.298
20710SOL     OW83158   8.811   8.633   4.193
20710SOL    HW283159   8.783   8.719   4.226
20710SOL    HW383160   8.839   8.649   4.103
20710SOL    MW483161   8.811   8.647   4.185
20711SOL     OW83162   8.473   7.553   4.246
20711SOL    HW283163   8.510   7.612   4.311
20711SOL    HW383164   8.450   7.609   4.172
20711SOL    MW483165   8.474   7.568   4.245
20712SOL     OW83166   9.326   8.435   4.668
20712SOL    HW283167   9.317   8.467   4.579
20712SOL    HW383168   9.279   8.351   4.668
20712SOL    MW483169   9.319   8.428   4.658
20713SOL     OW83170   7.702   8.275   5.247
20713SOL    HW283171   7.723   8.344   5.185
20713SOL    HW383172   7.782   8.222   5.252
20713SOL    MW483173   7.715   8.276   5.241
20714SOL     OW83174   9.238   8.366   4.369
20714SOL    HW283175   9.332   8.355   4.357
20714SOL    HW383176   9.214   8.438   4.310
20714SOL    MW483177   9.248   8.374   4.360
20715SOL     OW83178   7.687   8.290   5.514
20715SOL    HW283179   7.613   8.234   5.540
20715SOL    HW383180   7.682   8.293   5.419
20715SOL    MW483181   7.676   8.283   5.504
20716SOL     OW83182   7.853   7.577   4.964
20716SOL    HW283183   7.896   7.661   4.984
20716SOL    HW383184   7.926   7.515   4.957
20716SOL    MW483185   7.868   7.580   4.965
20717SOL     OW83186   7.894   8.244   4.142
20717SOL    HW283187   7.894   8.339   4.127
20717SOL    HW383188   7.971   8.228   4.196
20717SOL    MW483189   7.904   8.255   4.147
20718SOL     OW83190   8.670   8.103   5.206
20718SOL    HW283191   8.706   8.076   5.122
20718SOL    HW383192   8.583   8.137   5.185
20718SOL    MW483193   8.664   8.104   5.193
20719SOL     OW83194   7.653   7.975   4.431
20719SOL    HW283195   7.715   7.982   4.504
20719SOL    HW383196   7.653   7.882   4.408
20719SOL    MW483197   7.661   7.964   4.438
20720SOL     OW83198   8.335   8.236   4.915
20720SOL    HW283199   8.293   8.154   4.891
20720SOL    HW383200   8.336   8.235   5.011
20720SOL    MW483201   8.328   8.225   4.924
20721SOL     OW83202   8.139   7.706   5.020
20721SOL    HW283203   8.070   7.769   5.041
20721SOL    HW383204   8.166   7.670   5.105
20721SOL    MW483205   8.133   7.709   5.033
20722SOL     OW83206   7.522   8.547   3.889
20722SOL    HW283207   7.491   8.612   3.952
20722SOL    HW383208   7.471   8.469   3.908
20722SOL    MW483209   7.512   8.544   3.899
20723SOL     OW83210   8.934   7.559   4.637
20723SOL    HW283211   9.022   7.568   4.674
20723SOL    HW383212   8.944   7.500   4.563
20723SOL    MW483213   8.948   7.553   4.631
20724SOL     OW83214   8.966   8.298   4.481
20724SOL    HW283215   9.046   8.313   4.430
20724SOL    HW383216   8.959   8.203   4.487
20724SOL    MW483217   8.975   8.287   4.476
20725SOL     OW83218   8.416   8.224   5.178
20725SOL    HW283219   8.485   8.291   5.175
20725SOL    HW383220   8.349   8.262   5.234
20725SOL    MW483221   8.417   8.237   5.185
20726SOL     OW83222   7.834   8.524   5.426
20726SOL    HW283223   7.788   8.440   5.428
20726SOL    HW383224   7.891   8.518   5.350
20726SOL    MW483225   7.836   8.512   5.418
20727SOL     OW83226   8.951   8.167   3.747
20727SOL    HW283227   8.879   8.143   3.689
20727SOL    HW383228   9.017   8.204   3.689
20727SOL    MW483229   8.950   8.169   3.732
20728SOL     OW83230   8.085   8.899   4.427
20728SOL    HW283231   8.150   8.832   4.448
20728SOL    HW383232   8.137   8.976   4.404
20728SOL    MW483233   8.100   8.901   4.426
20729SOL     OW83234   8.346   8.064   4.557
20729SOL    HW283235   8.286   8.082   4.629
20729SOL    HW383236   8.380   7.976   4.576
20729SOL    MW483237   8.342   8.054   4.570
20730SOL     OW83238   9.287   7.563   5.226
20730SOL    HW283239   9.208   7.609   5.254
20730SOL    HW383240   9.322   7.617   5.155
20730SOL    MW483241   9.281   7.576   5.220
20731SOL     OW83242   8.571   8.647   4.576
20731SOL    HW283243   8.663   8.628   4.594
20731SOL    HW383244   8.544   8.577   4.516
20731SOL    MW483245   8.579   8.635   4.570
20732SOL     OW83246   8.364   8.467   3.931
20732SOL    HW283247   8.350   8.379   3.896
20732SOL    HW383248   8.315   8.524   3.872
20732SOL    MW483249   8.356   8.462   3.919
20733SOL     OW83250   7.777   8.191   4.710
20733SOL    HW283251   7.727   8.190   4.791
20733SOL    HW383252   7.797   8.283   4.694
20733SOL    MW483253   7.773   8.203   4.718
20734SOL     OW83254   9.083   7.673   4.033
20734SOL    HW283255   9.076   7.677   4.128
20734SOL    HW383256   9.095   7.764   4.006
20734SOL    MW483257   9.084   7.686   4.041
20735SOL     OW83258   8.372   8.236   4.147
20735SOL    HW283259   8.352   8.222   4.054
20735SOL    HW383260   8.465   8.215   4.154
20735SOL    MW483261   8.382   8.231   4.136
20736SOL     OW83262   7.699   7.859   5.451
20736SOL    HW283263   7.656   7.918   5.388
20736SOL    HW383264   7.767   7.914   5.491
20736SOL    MW483265   7.703   7.874   5.448
20737SOL     OW83266   8.811   8.479   4.996
20737SOL    HW283267   8.874   8.476   5.069
20737SOL    HW383268   8.727   8.497   5.038
20737SOL    MW483269   8.807   8.481   5.011
20738SOL     OW83270   9.150   7.656   4.775
20738SOL    HW283271   9.195   7.574   4.794
20738SOL    HW383272   9.170   7.712   4.851
20738SOL    MW483273   9.160   7.652   4.787
20739SOL     OW83274   7.598   7.499   4.874
20739SOL    HW283275   7.589   7.500   4.779
20739SOL    HW383276   7.692   7.511   4.889
20739SOL    MW483277   7.610   7.502   4.865
20740SOL     OW83278   9.235   8.692   4.494
20740SOL    HW283279   9.214   8.638   4.417
20740SOL    HW383280   9.331   8.690   4.498
20740SOL    MW483281   9.244   8.685   4.483
20741SOL     OW83282   7.927   8.837   5.237
20741SOL    HW283283   7.848   8.787   5.260
20741SOL    HW383284   7.997   8.796   5.287
20741SOL    MW483285   7.925   8.825   5.247
20742SOL     OW83286   7.811   7.626   3.920
20742SOL    HW283287   7.740   7.681   3.888
20742SOL    HW383288   7.853   7.592   3.841
20742SOL    MW483289   7.807   7.628   3.906
20743SOL     OW83290   8.935   8.123   4.756
20743SOL    HW283291   8.858   8.169   4.722
20743SOL    HW383292   8.992   8.192   4.790
20743SOL    MW483293   8.932   8.138   4.756
20744SOL     OW83294   7.567   7.725   3.769
20744SOL    HW283295   7.534   7.804   3.813
20744SOL    HW383296   7.622   7.758   3.698
20744SOL    MW483297   7.570   7.739   3.766
20745SOL     OW83298   9.236   8.339   5.862
20745SOL    HW283299   9.277   8.281   5.927
20745SOL    HW383300   9.143   8.331   5.879
20745SOL    MW483301   9.230   8.331   5.872
20746SOL     OW83302   9.102   8.271   6.857
20746SOL    HW283303   9.057   8.338   6.908
20746SOL    HW383304   9.190   8.307   6.843
20746SOL    MW483305   9.108   8.284   6.861
20747SOL     OW83306   8.030   8.522   6.091
20747SOL    HW283307   8.120   8.497   6.075
20747SOL    HW383308   8.026   8.615   6.068
20747SOL    MW483309   8.042   8.531   6.086
20748SOL     OW83310   9.082   8.665   6.838
20748SOL    HW283311   9.003   8.630   6.796
20748SOL    HW383312   9.109   8.737   6.782
20748SOL    MW483313   9.075   8.670   6.825
20749SOL     OW83314   8.314   7.978   6.104
20749SOL    HW283315   8.289   8.066   6.132
20749SOL    HW383316   8.311   7.981   6.008
20749SOL    MW483317   8.310   7.990   6.096
20750SOL     OW83318   7.756   8.006   6.032
20750SOL    HW283319   7.788   8.094   6.014
20750SOL    HW383320   7.744   8.004   6.127
20750SOL    MW483321   7.759   8.018   6.044
20751SOL     OW83322   7.834   8.419   6.933
20751SOL    HW283323   7.897   8.366   6.884
20751SOL    HW383324   7.815   8.493   6.876
20751SOL    MW483325   7.840   8.421   6.920
20752SOL     OW83326   8.155   7.761   6.119
20752SOL    HW283327   8.213   7.837   6.121
20752SOL    HW383328   8.090   7.782   6.052
20752SOL    MW483329   8.154   7.773   6.110
20753SOL     OW83330   8.242   8.688   6.294
20753SOL    HW283331   8.322   8.691   6.346
20753SOL    HW383332   8.270   8.655   6.208
20753SOL    MW483333   8.256   8.684   6.289
20754SOL     OW83334   8.019   8.192   6.285
20754SOL    HW283335   8.004   8.112   6.336
20754SOL    HW383336   8.101   8.227   6.319
20754SOL    MW483337   8.027   8.184   6.297
20755SOL     OW83338   8.161   8.018   6.662
20755SOL    HW283339   8.067   8.014   6.680
20755SOL    HW383340   8.191   7.927   6.671
20755SOL    MW483341   8.152   8.006   6.665
20756SOL     OW83342   7.907   8.432   6.566
20756SOL    HW283343   7.862   8.439   6.482
20756SOL    HW383344   7.887   8.515   6.610
20756SOL    MW483345   7.899   8.444   6.560
20757SOL     OW83346   8.869   8.670   5.810
20757SOL    HW283347   8.787   8.706   5.776
20757SOL    HW383348   8.937   8.713   5.759
20757SOL    MW483349   8.867   8.680   5.798
20758SOL     OW83350   7.868   8.805   6.476
20758SOL    HW283351   7.844   8.858   6.552
20758SOL    HW383352   7.924   8.863   6.424
20758SOL    MW483353   7.872   8.820   6.479
20759SOL     OW83354   8.430   8.449   6.286
20759SOL    HW283355   8.344   8.436   6.326
20759SOL    HW383356   8.483   8.376   6.318
20759SOL    MW483357   8.426   8.438   6.295
20760SOL     OW83358   8.421   8.811   6.003
20760SOL    HW283359   8.398   8.873   6.071
20760SOL    HW383360   8.378   8.729   6.029
20760SOL    MW483361   8.413   8.807   6.014
20761SOL     OW83362   9.294   7.812   6.459
20761SOL    HW283363   9.231   7.792   6.528
20761SOL    HW383364   9.284   7.741   6.396
20761SOL    MW483365   9.284   7.799   6.460
20762SOL     OW83366   7.918   7.784   5.971
20762SOL    HW283367   7.892   7.746   5.887
20762SOL    HW383368   7.855   7.854   5.987
20762SOL    MW483369   7.907   7.787   5.962
20763SOL     OW83370   7.753   8.745   6.008
20763SOL    HW283371   7.701   8.813   5.964
20763SOL    HW383372   7.750   8.671   5.948
20763SOL    MW483373   7.745   8.744   5.995
20764SOL     OW83374   9.350   7.981   5.761
20764SOL    HW283375   9.259   7.983   5.789
20764SOL    HW383376   9.395   8.043   5.819
20764SOL    MW483377   9.343   7.989   5.771
20765SOL     OW83378   9.095   8.584   6.111
20765SOL    HW283379   9.005   8.584   6.146
20765SOL    HW383380   9.088   8.630   6.028
20765SOL    MW483381   9.082   8.590   6.105
20766SOL     OW83382   8.895   8.219   7.183
20766SOL    HW283383   8.964   8.157   7.160
20766SOL    HW383384   8.820   8.193   7.130
20766SOL    MW483385   8.895   8.206   7.174
20767SOL     OW83386   8.631   8.606   7.175
20767SOL    HW283387   8.616   8.699   7.160
20767SOL    HW383388   8.726   8.596   7.175
20767SOL    MW483389   8.640   8.616   7.172
20768SOL     OW83390   8.427   8.030   7.376
20768SOL    HW283391   8.517   8.031   7.343
20768SOL    HW383392   8.386   7.955   7.334
20768SOL    MW483393   8.433   8.020   7.367
20769SOL     OW83394   9.002   8.562   6.503
20769SOL    HW283395   9.005   8.496   6.434
20769SOL    HW383396   9.087   8.605   6.499
20769SOL    MW483397   9.014   8.558   6.494
20770SOL     OW83398   8.622   8.165   6.072
20770SOL    HW283399   8.648   8.189   5.983
20770SOL    HW383400   8.604   8.072   6.068
20770SOL    MW483401   8.624   8.157   6.059
20771SOL     OW83402   9.287   8.785   5.923
20771SOL    HW283403   9.243   8.826   5.998
20771SOL    HW383404   9.344   8.853   5.888
20771SOL    MW483405   9.289   8.799   5.928
20772SOL     OW83406   8.207   7.834   7.326
20772SOL    HW283407   8.217   7.760   7.266
20772SOL    HW383408   8.243   7.803   7.409
20772SOL    MW483409   8.213   7.820   7.328
20773SOL     OW83410   9.327   7.563   6.290
20773SOL    HW283411   9.381   7.514   6.352
20773SOL    HW383412   9.270   7.497   6.251
20773SOL    MW483413   9.327   7.547   6.292
20774SOL     OW83414   8.446   7.516   6.703
20774SOL    HW283415   8.405   7.594   6.665
20774SOL    HW383416   8.540   7.534   6.698
20774SOL    MW483417   8.452   7.528   6.698
20775SOL     OW83418   8.461   8.194   5.733
20775SOL    HW283419   8.463   8.141   5.654
20775SOL    HW383420   8.549   8.231   5.739
20775SOL    MW483421   8.473   8.193   5.722
20776SOL     OW83422   9.075   8.120   6.069
20776SOL    HW283423   9.114   8.120   6.156
20776SOL    HW383424   9.016   8.196   6.069
20776SOL    MW483425   9.072   8.131   6.080
20777SOL     OW83426   8.392   8.487   7.198
20777SOL    HW283427   8.369   8.467   7.288
20777SOL    HW383428   8.477   8.531   7.203
20777SOL    MW483429   8.399   8.490   7.210
20778SOL     OW83430   8.472   7.624   6.958
20778SOL    HW283431   8.478   7.586   6.871
20778SOL    HW383432   8.461   7.718   6.943
20778SOL    MW483433   8.473   7.632   6.946
20779SOL     OW83434   8.561   8.113   6.792
20779SOL    HW283435   8.636   8.142   6.739
20779SOL    HW383436   8.493   8.178   6.776
20779SOL    MW483437   8.562   8.125   6.782
20780SOL     OW83438   9.111   8.081   7.069
20780SOL    HW283439   9.092   7.990   7.048
20780SOL    HW383440   9.089   8.130   6.990
20780SOL    MW483441   9.106   8.074   7.056
20781SOL     OW83442   8.558   7.819   7.175
20781SOL    HW283443   8.524   7.858   7.094
20781SOL    HW383444   8.536   7.727   7.168
20781SOL    MW483445   8.551   7.812   7.165
20782SOL     OW83446   8.967   8.633   7.251
20782SOL    HW283447   9.049   8.674   7.281
20782SOL    HW383448   8.930   8.595   7.331
20782SOL    MW483449   8.973   8.634   7.266
20783SOL     OW83450   9.262   8.006   6.235
20783SOL    HW283451   9.351   7.975   6.252
20783SOL    HW383452   9.205   7.946   6.283
20783SOL    MW483453   9.265   7.994   6.244
20784SOL     OW83454   7.688   7.720   6.264
20784SOL    HW283455   7.679   7.660   6.190
20784SOL    HW383456   7.621   7.691   6.327
20784SOL    MW483457   7.678   7.707   6.262
20785SOL     OW83458   8.631   8.813   5.825
20785SOL    HW283459   8.581   8.815   5.907
20785SOL    HW383460   8.565   8.831   5.757
20785SOL    MW483461   8.617   8.815   5.827
20786SOL     OW83462   7.635   7.893   6.627
20786SOL    HW283463   7.607   7.984   6.636
20786SOL    HW383464   7.572   7.854   6.566
20786SOL    MW483465   7.622   7.899   6.621
20787SOL     OW83466   8.230   8.646   5.640
20787SOL    HW283467   8.152   8.592   5.627
20787SOL    HW383468   8.201   8.719   5.693
20787SOL    MW483469   8.216   8.648   5.645
20788SOL     OW83470   9.356   8.386   6.832
20788SOL    HW283471   9.372   8.424   6.745
20788SOL    HW383472   9.390   8.452   6.893
20788SOL    MW483473   9.363   8.399   6.828
20789SOL     OW83474   7.619   8.168   6.797
20789SOL    HW283475   7.681   8.198   6.863
20789SOL    HW383476   7.553   8.237   6.791
20789SOL    MW483477   7.618   8.181   6.804
20790SOL     OW83478   8.260   7.725   5.705
20790SOL    HW283479   8.208   7.645   5.693
20790SOL    HW383480   8.347   7.702   5.673
20790SOL    MW483481   8.263   7.711   5.699
20791SOL     OW83482   7.766   8.596   6.756
20791SOL    HW283483   7.819   8.671   6.781
20791SOL    HW383484   7.685   8.634   6.722
20791SOL    MW483485   7.762   8.611   6.756
20792SOL     OW83486   8.306   8.500   6.744
20792SOL    HW283487   8.334   8.409   6.756
20792SOL    HW383488   8.235   8.494   6.680
20792SOL    MW483489   8.299   8.488   6.739
20793SOL     OW83490   7.621   8.365   6.162
20793SOL    HW283491   7.712   8.380   6.189
20793SOL    HW383492   7.624   8.286   6.108
20793SOL    MW483493   7.633   8.357   6.160
20794SOL     OW83494   7.857   8.073   7.416
20794SOL    HW283495   7.804   8.153   7.423
20794SOL    HW383496   7.927   8.085   7.481
20794SOL    MW483497   7.859   8.086   7.424
20795SOL     OW83498   8.243   7.623   7.123
20795SOL    HW283499   8.220   7.531   7.125
20795SOL    HW383500   8.329   7.625   7.080
20795SOL    MW483501   8.250   7.613   7.119
20796SOL     OW83502   7.927   8.147   7.162
20796SOL    HW283503   8.007   8.197   7.148
20796SOL    HW383504   7.918   8.141   7.257
20796SOL    MW483505   7.936   8.153   7.172
20797SOL     OW83506   8.904   7.672   7.433
20797SOL    HW283507   8.960   7.599   7.459
20797SOL    HW383508   8.874   7.710   7.515
20797SOL    MW483509   8.908   7.667   7.446
20798SOL     OW83510   9.294   8.165   6.550
20798SOL    HW283511   9.383   8.195   6.532
20798SOL    HW383512   9.274   8.105   6.479
20798SOL    MW483513   9.303   8.162   6.539
20799SOL     OW83514   9.145   8.344   7.430
20799SOL    HW283515   9.200   8.268   7.411
20799SOL    HW383516   9.147   8.352   7.525
20799SOL    MW483517   9.153   8.335   7.438
20800SOL     OW83518   8.633   7.722   5.864
20800SOL    HW283519   8.566   7.698   5.801
20800SOL    HW383520   8.698   7.771   5.813
20800SOL    MW483521   8.633   7.724   5.849
20801SOL     OW83522   8.440   7.906   6.949
20801SOL    HW283523   8.359   7.947   6.977
20801SOL    HW383524   8.487   7.974   6.901
20801SOL    MW483525   8.435   7.921   6.947
20802SOL     OW83526   8.700   8.244   6.572
20802SOL    HW283527   8.713   8.338   6.582
20802SOL    HW383528   8.661   8.234   6.486
20802SOL    MW483529   8.696   8.255   6.562
20803SOL     OW83530   8.152   8.439   6.376
20803SOL    HW283531   8.063   8.430   6.409
20803SOL    HW383532   8.156   8.529   6.344
20803SOL    MW483533   8.141   8.450   6.376
20804SOL     OW83534   8.951   8.022   6.371
20804SOL    HW283535   8.896   7.943   6.370
20804SOL    HW383536   8.933   8.063   6.455
20804SOL    MW483537   8.941   8.017   6.380
20805SOL     OW83538   7.922   7.709   7.188
20805SOL    HW283539   7.843   7.727   7.240
20805SOL    HW383540   7.917   7.771   7.115
20805SOL    MW483541   7.912   7.719   7.185
20806SOL     OW83542   8.570   8.226   6.328
20806SOL    HW283543   8.507   8.158   6.352
20806SOL    HW383544   8.590   8.207   6.236
20806SOL    MW483545   8.564   8.213   6.320
20807SOL     OW83546   8.318   8.530   6.054
20807SOL    HW283547   8.320   8.504   5.961
20807SOL    HW383548   8.376   8.467   6.097
20807SOL    MW483549   8.326   8.519   6.048
20808SOL     OW83550   8.828   7.774   6.387
20808SOL    HW283551   8.856   7.706   6.448
20808SOL    HW383552   8.742   7.745   6.357
20808SOL    MW483553   8.821   7.761   6.391
20809SOL     OW83554   7.633   8.708   6.321
20809SOL    HW283555   7.697   8.740   6.384
20809SOL    HW383556   7.682   8.644   6.269
20809SOL    MW483557   7.648   8.704   6.322
20810SOL     OW83558   8.808   7.878   5.722
20810SOL    HW283559   8.781   7.944   5.658
20810SOL    HW383560   8.878   7.921   5.772
20810SOL    MW483561   8.813   7.891   5.719
20811SOL     OW83562   8.476   7.583   5.659
20811SOL    HW283563   8.532   7.575   5.581
20811SOL    HW383564   8.453   7.493   5.681
20811SOL    MW483565   8.481   7.570   5.652
20812SOL     OW83566   8.981   8.434   5.864
20812SOL    HW283567   8.948   8.523   5.854
20812SOL    HW383568   8.946   8.405   5.949
20812SOL    MW483569   8.971   8.443   5.875
20813SOL     OW83570   7.887   7.531   7.394
20813SOL    HW283571   7.815   7.496   7.342
20813SOL    HW383572   7.945   7.572   7.329
20813SOL    MW483573   7.885   7.532   7.379
20814SOL     OW83574   9.351   8.550   7.047
20814SOL    HW283575   9.266   8.563   7.006
20814SOL    HW383576   9.331   8.514   7.134
20814SOL    MW483577   9.338   8.546   7.052
20815SOL     OW83578   7.975   8.472   5.656
20815SOL    HW283579   7.898   8.485   5.712
20815SOL    HW383580   7.939   8.436   5.575
20815SOL    MW483581   7.961   8.468   5.653
20816SOL     OW83582   8.628   8.445   5.899
20816SOL    HW283583   8.538   8.466   5.874
20816SOL    HW383584   8.655   8.518   5.955
20816SOL    MW483585   8.620   8.457   5.902
20817SOL     OW83586   8.128   8.794   6.591
20817SOL    HW283587   8.121   8.773   6.685
20817SOL    HW383588   8.046   8.762   6.554
20817SOL    MW483589   8.116   8.788   6.598
20818SOL     OW83590   8.992   7.804   6.993
20818SOL    HW283591   8.939   7.806   7.073
20818SOL    HW383592   8.977   7.717   6.956
20818SOL    MW483593   8.984   7.794   6.998
20819SOL     OW83594   9.328   7.728   6.866
20819SOL    HW283595   9.309   7.795   6.801
20819SOL    HW383596   9.385   7.666   6.821
20819SOL    MW483597   9.332   7.729   6.852
20820SOL     OW83598   8.257   7.561   6.306
20820SOL    HW283599   8.186   7.622   6.288
20820SOL    HW383600   8.308   7.558   6.225
20820SOL    MW483601   8.253   7.567   6.293
20821SOL     OW83602   8.015   8.801   6.055
20821SOL    HW283603   8.008   8.833   6.145
20821SOL    HW383604   7.925   8.785   6.027
20821SOL    MW483605   8.003   8.803   6.062
20822SOL     OW83606   8.217   8.218   7.436
20822SOL    HW283607   8.287   8.160   7.408
20822SOL    HW383608   8.160   8.163   7.491
20822SOL    MW483609   8.219   8.205   7.440
20823SOL     OW83610   9.004   8.430   7.069
20823SOL    HW283611   9.009   8.483   7.149
20823SOL    HW383612   8.966   8.347   7.097
20823SOL    MW483613   9.000   8.425   7.084
20824SOL     OW83614   8.644   7.565   7.315
20824SOL    HW283615   8.639   7.472   7.296
20824SOL    HW383616   8.727   7.576   7.361
20824SOL    MW483617   8.652   7.554   7.319
20825SOL     OW83618   8.018   8.085   5.769
20825SOL    HW283619   7.984   8.141   5.839
20825SOL    HW383620   8.089   8.035   5.809
20825SOL    MW483621   8.024   8.086   5.783
20826SOL     OW83622   9.114   8.836   6.591
20826SOL    HW283623   9.149   8.818   6.504
20826SOL    HW383624   9.019   8.837   6.578
20826SOL    MW483625   9.106   8.833   6.578
20827SOL     OW83626   8.543   8.484   6.960
20827SOL    HW283627   8.586   8.519   7.038
20827SOL    HW383628   8.526   8.561   6.906
20827SOL    MW483629   8.546   8.499   6.963
20828SOL     OW83630   9.074   7.971   5.833
20828SOL    HW283631   9.066   8.042   5.770
20828SOL    HW383632   9.092   8.015   5.916
20828SOL    MW483633   9.075   7.985   5.835
20829SOL     OW83634   7.934   7.626   6.262
20829SOL    HW283635   7.984   7.669   6.193
20829SOL    HW383636   7.849   7.670   6.262
20829SOL    MW483637   7.931   7.639   6.253
20830SOL     OW83638   7.693   8.688   7.122
20830SOL    HW283639   7.721   8.641   7.200
20830SOL    HW383640   7.614   8.643   7.093
20830SOL    MW483641   7.686   8.677   7.128
20831SOL     OW83642   8.201   8.015   7.089
20831SOL    HW283643   8.173   8.103   7.113
20831SOL    HW383644   8.170   7.959   7.160
20831SOL    MW483645   8.193   8.018   7.101
20832SOL     OW83646   8.743   8.233   5.808
20832SOL    HW283647   8.790   8.251   5.727
20832SOL    HW383648   8.709   8.317   5.836
20832SOL    MW483649   8.745   8.247   5.801
20833SOL     OW83650   7.856   8.411   6.302
20833SOL    HW283651   7.914   8.467   6.250
20833SOL    HW383652   7.900   8.326   6.304
20833SOL    MW483653   7.869   8.408   6.295
20834SOL     OW83654   8.996   7.763   6.139
20834SOL    HW283655   8.918   7.713   6.164
20834SOL    HW383656   8.967   7.854   6.139
20834SOL    MW483657   8.982   7.767   6.142
20835SOL     OW83658   8.582   7.725   6.298
20835SOL    HW283659   8.602   7.800   6.242
20835SOL    HW383660   8.562   7.764   6.383
20835SOL    MW483661   8.583   7.741   6.302
20836SOL     OW83662   9.342   8.498   7.317
20836SOL    HW283663   9.255   8.478   7.353
20836SOL    HW383664   9.396   8.424   7.342
20836SOL    MW483665   9.337   8.487   7.325
20837SOL     OW83666   7.518   8.137   6.021
20837SOL    HW283667   7.458   8.109   6.091
20837SOL    HW383668   7.592   8.077   6.027
20837SOL    MW483669   7.520   8.126   6.030
20838SOL     OW83670   7.944   7.876   6.910
20838SOL    HW283671   7.977   7.957   6.950
20838SOL    HW383672   7.917   7.902   6.822
20838SOL    MW483673   7.943   7.890   6.904
20839SOL     OW83674   7.898   7.843   6.646
20839SOL    HW283675   7.928   7.757   6.617
20839SOL    HW383676   7.803   7.836   6.649
20839SOL    MW483677   7.890   7.832   6.644
20840SOL     OW83678   8.727   8.052   7.337
20840SOL    HW283679   8.779   7.987   7.290
20840SOL    HW383680   8.685   8.103   7.267
20840SOL    MW483681   8.728   8.049   7.320
20841SOL     OW83682   8.826   7.847   7.198
20841SOL    HW283683   8.733   7.831   7.185
20841SOL    HW383684   8.852   7.785   7.266
20841SOL    MW483685   8.816   7.837   7.205
20842SOL     OW83686   8.041   7.621   6.537
20842SOL    HW283687   8.051   7.530   6.563
20842SOL    HW383688   7.997   7.617   6.452
20842SOL    MW483689   8.037   7.609   6.529
20843SOL     OW83690   9.192   7.943   6.708
20843SOL    HW283691   9.125   7.976   6.768
20843SOL    HW383692   9.235   8.021   6.674
20843SOL    MW483693   9.190   7.958   6.712
20844SOL     OW83694   9.370   8.663   6.678
20844SOL    HW283695   9.363   8.603   6.603
20844SOL    HW383696   9.296   8.723   6.667
20844SOL    MW483697   9.360   8.663   6.667
20845SOL     OW83698   8.752   8.525   6.596
20845SOL    HW283699   8.766   8.497   6.687
20845SOL    HW383700   8.838   8.556   6.568
20845SOL    MW483701   8.765   8.526   6.605
20846SOL     OW83702   8.835   8.020   6.875
20846SOL    HW283703   8.856   8.021   6.782
20846SOL    HW383704   8.880   7.942   6.908
20846SOL    MW483705   8.842   8.010   6.867
20847SOL     OW83706   9.328   8.151   7.417
20847SOL    HW283707   9.365   8.096   7.486
20847SOL    HW383708   9.353   8.108   7.335
20847SOL    MW483709   9.335   8.139   7.416
20848SOL     OW83710   8.875   8.449   7.468
20848SOL    HW283711   8.941   8.397   7.422
20848SOL    HW383712   8.895   8.436   7.561
20848SOL    MW483713   8.886   8.440   7.475
20849SOL     OW83714   8.826   7.535   5.817
20849SOL    HW283715   8.900   7.579   5.860
20849SOL    HW383716   8.750   7.589   5.839
20849SOL    MW483717   8.826   7.547   5.825
20850SOL     OW83718   8.886   8.310   6.095
20850SOL    HW283719   8.801   8.280   6.065
20850SOL    HW383720   8.878   8.317   6.190
20850SOL    MW483721   8.874   8.308   6.104
20851SOL     OW83722   8.246   7.753   6.649
20851SOL    HW283723   8.219   7.755   6.740
20851SOL    HW383724   8.176   7.705   6.604
20851SOL    MW483725   8.234   7.749   6.656
20852SOL     OW83726   9.002   8.830   7.043
20852SOL    HW283727   8.987   8.759   7.106
20852SOL    HW383728   9.048   8.788   6.971
20852SOL    MW483729   9.008   8.814   7.043
20853SOL     OW83730   8.076   8.561   7.160
20853SOL    HW283731   8.113   8.566   7.072
20853SOL    HW383732   8.115   8.634   7.207
20853SOL    MW483733   8.086   8.571   7.155
20854SOL     OW83734   8.256   8.604   6.972
20854SOL    HW283735   8.315   8.550   7.025
20854SOL    HW383736   8.271   8.576   6.882
20854SOL    MW483737   8.266   8.593   6.968
20855SOL     OW83738   8.259   7.976   5.821
20855SOL    HW283739   8.332   8.025   5.784
20855SOL    HW383740   8.275   7.885   5.795
20855SOL    MW483741   8.271   7.971   5.814
20856SOL     OW83742   8.727   7.572   6.735
20856SOL    HW283743   8.782   7.581   6.657
20856SOL    HW383744   8.782   7.606   6.806
20856SOL    MW483745   8.741   7.577   6.734
20857SOL     OW83746   7.734   8.485   5.919
20857SOL    HW283747   7.671   8.501   5.848
20857SOL    HW383748   7.681   8.448   5.990
20857SOL    MW483749   7.719   8.482   5.919
20858SOL     OW83750   8.505   8.706   6.742
20858SOL    HW283751   8.437   8.640   6.758
20858SOL    HW383752   8.523   8.700   6.649
20858SOL    MW483753   8.498   8.697   6.733
20859SOL     OW83754   8.498   7.845   6.563
20859SOL    HW283755   8.428   7.797   6.608
20859SOL    HW383756   8.530   7.908   6.627
20859SOL    MW483757   8.493   7.847   6.577
20860SOL     OW83758   8.149   8.281   7.183
20860SOL    HW283759   8.142   8.376   7.171
20860SOL    HW383760   8.158   8.270   7.278
20860SOL    MW483761   8.150   8.293   7.193
20861SOL     OW83762   8.954   7.559   6.908
20861SOL    HW283763   9.025   7.505   6.872
20861SOL    HW383764   8.953   7.538   7.001
20861SOL    MW483765   8.963   7.550   6.916
20862SOL     OW83766   7.965   7.951   6.376
20862SOL    HW283767   8.036   7.899   6.339
20862SOL    HW383768   7.951   7.916   6.463
20862SOL    MW483769   7.973   7.940   6.383
20863SOL     OW83770   8.601   7.892   6.100
20863SOL    HW283771   8.623   7.829   6.032
20863SOL    HW383772   8.506   7.884   6.111
20863SOL    MW483773   8.591   7.883   6.092
20864SOL     OW83774   7.686   7.582   6.032
20864SOL    HW283775   7.757   7.603   5.971
20864SOL    HW383776   7.640   7.510   5.990
20864SOL    MW483777   7.690   7.576   6.018
20865SOL     OW83778   7.517   8.049   7.175
20865SOL    HW283779   7.581   8.115   7.150
20865SOL    HW383780   7.436   8.076   7.132
20865SOL    MW483781   7.515   8.061   7.167
20866SOL     OW83782   8.811   8.633   6.062
20866SOL    HW283783   8.783   8.719   6.095
20866SOL    HW383784   8.839   8.649   5.972
20866SOL    MW483785   8.811   8.647   6.054
20867SOL     OW83786   8.473   7.553   6.115
20867SOL    HW283787   8.510   7.612   6.180
20867SOL    HW383788   8.450   7.609   6.041
20867SOL    MW483789   8.474   7.568   6.114
20868SOL     OW83790   9.326   8.435   6.537
20868SOL    HW283791   9.317   8.467   6.448
20868SOL    HW383792   9.279   8.351   6.537
20868SOL    MW483793   9.319   8.428   6.527
20869SOL     OW83794   7.702   8.275   7.116
20869SOL    HW283795   7.723   8.344   7.054
20869SOL    HW383796   7.782   8.222   7.121
20869SOL    MW483797   7.715   8.276   7.110
20870SOL     OW83798   9.238   8.366   6.238
20870SOL    HW283799   9.332   8.355   6.226
20870SOL    HW383800   9.214   8.438   6.179
20870SOL    MW483801   9.248   8.374   6.229
20871SOL     OW83802   7.687   8.290   7.383
20871SOL    HW283803   7.613   8.234   7.409
20871SOL    HW383804   7.682   8.293   7.288
20871SOL    MW483805   7.676   8.283   7.373
20872SOL     OW83806   7.853   7.577   6.833
20872SOL    HW283807   7.896   7.661   6.853
20872SOL    HW383808   7.926   7.515   6.826
20872SOL    MW483809   7.868   7.580   6.834
20873SOL     OW83810   7.894   8.244   6.011
20873SOL    HW283811   7.894   8.339   5.996
20873SOL    HW383812   7.971   8.228   6.065
20873SOL    MW483813   7.904   8.255   6.016
20874SOL     OW83814   8.670   8.103   7.075
20874SOL    HW283815   8.706   8.076   6.991
20874SOL    HW383816   8.583   8.137   7.054
20874SOL    MW483817   8.664   8.104   7.062
20875SOL     OW83818   7.653   7.975   6.300
20875SOL    HW283819   7.715   7.982   6.373
20875SOL    HW383820   7.653   7.882   6.277
20875SOL    MW483821   7.661   7.964   6.307
20876SOL     OW83822   8.335   8.236   6.784
20876SOL    HW283823   8.293   8.154   6.760
20876SOL    HW383824   8.336   8.235   6.880
20876SOL    MW483825   8.328   8.225   6.793
20877SOL     OW83826   8.139   7.706   6.889
20877SOL    HW283827   8.070   7.769   6.910
20877SOL    HW383828   8.166   7.670   6.974
20877SOL    MW483829   8.133   7.709   6.902
20878SOL     OW83830   7.522   8.547   5.758
20878SOL    HW283831   7.491   8.612   5.821
20878SOL    HW383832   7.471   8.469   5.777
20878SOL    MW483833   7.512   8.544   5.768
20879SOL     OW83834   8.934   7.559   6.506
20879SOL    HW283835   9.022   7.568   6.543
20879SOL    HW383836   8.944   7.500   6.432
20879SOL    MW483837   8.948   7.553   6.500
20880SOL     OW83838   8.966   8.298   6.350
20880SOL    HW283839   9.046   8.313   6.299
20880SOL    HW383840   8.959   8.203   6.356
20880SOL    MW483841   8.975   8.287   6.345
20881SOL     OW83842   8.416   8.224   7.047
20881SOL    HW283843   8.485   8.291   7.044
20881SOL    HW383844   8.349   8.262   7.103
20881SOL    MW483845   8.417   8.237   7.054
20882SOL     OW83846   7.834   8.524   7.295
20882SOL    HW283847   7.788   8.440   7.297
20882SOL    HW383848   7.891   8.518   7.219
20882SOL    MW483849   7.836   8.512   7.287
20883SOL     OW83850   8.951   8.167   5.615
20883SOL    HW283851   8.879   8.143   5.557
20883SOL    HW383852   9.017   8.204   5.557
20883SOL    MW483853   8.950   8.169   5.600
20884SOL     OW83854   8.085   8.899   6.296
20884SOL    HW283855   8.150   8.832   6.317
20884SOL    HW383856   8.137   8.976   6.273
20884SOL    MW483857   8.100   8.901   6.295
20885SOL     OW83858   8.346   8.064   6.426
20885SOL    HW283859   8.286   8.082   6.498
20885SOL    HW383860   8.380   7.976   6.445
20885SOL    MW483861   8.342   8.054   6.439
20886SOL     OW83862   9.287   7.563   7.095
20886SOL    HW283863   9.208   7.609   7.123
20886SOL    HW383864   9.322   7.617   7.024
20886SOL    MW483865   9.281   7.576   7.089
20887SOL     OW83866   8.571   8.647   6.445
20887SOL    HW283867   8.663   8.628   6.463
20887SOL    HW383868   8.544   8.577   6.385
20887SOL    MW483869   8.579   8.635   6.439
20888SOL     OW83870   8.364   8.467   5.800
20888SOL    HW283871   8.350   8.379   5.765
20888SOL    HW383872   8.315   8.524   5.741
20888SOL    MW483873   8.356   8.462   5.788
20889SOL     OW83874   7.777   8.191   6.579
20889SOL    HW283875   7.727   8.190   6.660
20889SOL    HW383876   7.797   8.283   6.563
20889SOL    MW483877   7.773   8.203   6.587
20890SOL     OW83878   8.844   8.955   7.341
20890SOL    HW283879   8.844   9.049   7.357
20890SOL    HW383880   8.889   8.945   7.257
20890SOL    MW483881   8.850   8.965   7.332
20891SOL     OW83882   9.083   7.673   5.902
20891SOL    HW283883   9.076   7.677   5.997
20891SOL    HW383884   9.095   7.764   5.875
20891SOL    MW483885   9.084   7.686   5.910
20892SOL     OW83886   8.372   8.236   6.016
20892SOL    HW283887   8.352   8.222   5.923
20892SOL    HW383888   8.465   8.215   6.023
20892SOL    MW483889   8.382   8.231   6.005
20893SOL     OW83890   7.699   7.859   7.320
20893SOL    HW283891   7.656   7.918   7.257
20893SOL    HW383892   7.767   7.914   7.360
20893SOL    MW483893   7.703   7.874   7.317
20894SOL     OW83894   8.811   8.479   6.865
20894SOL    HW283895   8.874   8.476   6.938
20894SOL    HW383896   8.727   8.497   6.907
20894SOL    MW483897   8.807   8.481   6.880
20895SOL     OW83898   9.150   7.656   6.644
20895SOL    HW283899   9.195   7.574   6.663
20895SOL    HW383900   9.170   7.712   6.720
20895SOL    MW483901   9.160   7.652   6.656
20896SOL     OW83902   7.598   7.499   6.743
20896SOL    HW283903   7.589   7.500   6.648
20896SOL    HW383904   7.692   7.511   6.758
20896SOL    MW483905   7.610   7.502   6.734
20897SOL     OW83906   9.235   8.692   6.363
20897SOL    HW283907   9.214   8.638   6.286
20897SOL    HW383908   9.331   8.690   6.367
20897SOL    MW483909   9.244   8.685   6.352
20898SOL     OW83910   7.927   8.837   7.106
20898SOL    HW283911   7.848   8.787   7.129
20898SOL    HW383912   7.997   8.796   7.156
20898SOL    MW483913   7.925   8.825   7.116
20899SOL     OW83914   7.811   7.626   5.789
20899SOL    HW283915   7.740   7.681   5.757
20899SOL    HW383916   7.853   7.592   5.710
20899SOL    MW483917   7.807   7.628   5.775
20900SOL     OW83918   8.935   8.123   6.625
20900SOL    HW283919   8.858   8.169   6.591
20900SOL    HW383920   8.992   8.192   6.659
20900SOL    MW483921   8.932   8.138   6.625
20901SOL     OW83922   7.567   7.725   5.638
20901SOL    HW283923   7.534   7.804   5.682
20901SOL    HW383924   7.622   7.758   5.567
20901SOL    MW483925   7.570   7.739   5.635
20902SOL     OW83926   9.621   8.745   0.403
20902SOL    HW283927   9.569   8.813   0.359
20902SOL    HW383928   9.618   8.671   0.343
20902SOL    MW483929   9.613   8.744   0.390
20903SOL     OW83930   8.869   8.670   7.705
20903SOL    HW283931   8.787   8.706   7.671
20903SOL    HW383932   8.937   8.713   7.654
20903SOL    MW483933   8.867   8.680   7.693
20904SOL     OW83934   8.421   8.811   7.898
20904SOL    HW283935   8.398   8.873   7.966
20904SOL    HW383936   8.378   8.729   7.924
20904SOL    MW483937   8.413   8.807   7.909
20905SOL     OW83938   8.461   8.194   7.628
20905SOL    HW283939   8.463   8.141   7.549
20905SOL    HW383940   8.549   8.231   7.634
20905SOL    MW483941   8.473   8.193   7.617
20906SOL     OW83942   8.230   8.646   7.535
20906SOL    HW283943   8.152   8.592   7.522
20906SOL    HW383944   8.201   8.719   7.588
20906SOL    MW483945   8.216   8.648   7.540
20907SOL     OW83946   8.260   7.725   7.600
20907SOL    HW283947   8.208   7.645   7.588
20907SOL    HW383948   8.347   7.702   7.568
20907SOL    MW483949   8.263   7.711   7.594
20908SOL     OW83950   8.318   8.530   7.949
20908SOL    HW283951   8.320   8.504   7.856
20908SOL    HW383952   8.376   8.467   7.992
20908SOL    MW483953   8.326   8.519   7.943
20909SOL     OW83954   8.476   7.583   7.554
20909SOL    HW283955   8.532   7.575   7.476
20909SOL    HW383956   8.453   7.493   7.576
20909SOL    MW483957   8.481   7.570   7.547
20910SOL     OW83958   7.975   8.472   7.551
20910SOL    HW283959   7.898   8.485   7.607
20910SOL    HW383960   7.939   8.436   7.470
20910SOL    MW483961   7.961   8.468   7.548
20911SOL     OW83962   8.628   8.445   7.794
20911SOL    HW283963   8.538   8.466   7.769
20911SOL    HW383964   8.655   8.518   7.850
20911SOL    MW483965   8.620   8.457   7.797
20912SOL     OW83966   8.018   8.085   7.664
20912SOL    HW283967   7.984   8.141   7.734
20912SOL    HW383968   8.089   8.035   7.704
20912SOL    MW483969   8.024   8.086   7.678
20913SOL     OW83970   8.886   8.310   7.990
20913SOL    HW283971   8.801   8.280   7.960
20913SOL    HW383972   8.878   8.317   8.085
20913SOL    MW483973   8.874   8.308   7.999
20914SOL     OW83974   8.951   8.167   7.511
20914SOL    HW283975   8.879   8.143   7.453
20914SOL    HW383976   9.017   8.204   7.453
20914SOL    MW483977   8.950   8.169   7.496
20915SOL     OW83978   7.567   7.725   7.533
20915SOL    HW283979   7.534   7.804   7.577
20915SOL    HW383980   7.622   7.758   7.462
20915SOL    MW483981   7.570   7.739   7.530
   9.43716   8.89744   7.70541   0.00000   0.00000   3.14572   0.00000  -3.14572   4.44872
