Gyas ROwers Mature At Cryogenic Speed
  417
    1ASP      N    1   6.804   6.970   1.652
    1ASP     H1    2   6.740   6.968   1.575
    1ASP     H2    3   6.804   7.062   1.693
    1ASP     H3    4   6.896   6.949   1.619
    1ASP     CA    5   6.763   6.871   1.752
    1ASP     HA    6   6.767   6.780   1.712
    1ASP     CB    7   6.861   6.874   1.870
    1ASP    HB1    8   6.842   6.954   1.927
    1ASP    HB2    9   6.955   6.879   1.835
    1ASP     CG   10   6.844   6.748   1.953
    1ASP    OD1   11   6.809   6.646   1.889
    1ASP    OD2   12   6.861   6.758   2.076
    1ASP      C   13   6.620   6.901   1.792
    1ASP      O   14   6.588   7.014   1.827
    2SER      N   15   6.530   6.808   1.761
    2SER      H   16   6.563   6.714   1.747
    2SER     CA   17   6.387   6.834   1.748
    2SER     HA   18   6.379   6.913   1.688
    2SER     CB   19   6.319   6.713   1.685
    2SER    HB1   20   6.219   6.723   1.686
    2SER    HB2   21   6.343   6.628   1.733
    2SER     OG   22   6.361   6.702   1.551
    2SER     HG   23   6.317   6.623   1.508
    2SER      C   24   6.325   6.870   1.883
    2SER      O   25   6.297   6.784   1.965
    3HIS      N   26   6.292   6.999   1.897
    3HIS      H   27   6.334   7.061   1.830
    3HIS     CA   28   6.205   7.062   1.996
    3HIS     HA   29   6.242   7.037   2.086
    3HIS     CB   30   6.212   7.215   1.972
    3HIS    HB1   31   6.121   7.249   1.952
    3HIS    HB2   32   6.272   7.233   1.894
    3HIS     CG   33   6.266   7.295   2.088
    3HIS    ND1   34   6.248   7.269   2.222
    3HIS    CE1   35   6.313   7.364   2.291
    3HIS    HE1   36   6.317   7.369   2.391
    3HIS    NE2   37   6.369   7.452   2.207
    3HIS    HE2   38   6.422   7.533   2.233
    3HIS    CD2   39   6.340   7.409   2.078
    3HIS    HD2   40   6.369   7.454   1.993
    3HIS      C   41   6.060   7.010   1.994
    3HIS      O   42   5.963   7.083   2.015
    4ALA      N   43   6.041   6.882   1.964
    4ALA      H   44   6.121   6.822   1.960
    4ALA     CA   45   5.912   6.824   1.938
    4ALA     HA   46   5.844   6.870   1.996
    4ALA     CB   47   5.878   6.847   1.790
    4ALA    HB1   48   5.788   6.807   1.770
    4ALA    HB2   49   5.875   6.945   1.771
    4ALA    HB3   50   5.947   6.803   1.733
    4ALA      C   51   5.914   6.677   1.977
    4ALA      O   52   5.962   6.593   1.900
    5LYS      N   53   5.849   6.649   2.089
    5LYS      H   54   5.867   6.708   2.168
    5LYS     CA   55   5.752   6.540   2.110
    5LYS     HA   56   5.667   6.591   2.125
    5LYS     CB   57   5.731   6.449   1.986
    5LYS    HB1   58   5.676   6.370   2.013
    5LYS    HB2   59   5.820   6.418   1.954
    5LYS     CG   60   5.659   6.523   1.871
    5LYS    HG1   61   5.696   6.615   1.864
    5LYS    HG2   62   5.561   6.527   1.892
    5LYS     CD   63   5.675   6.454   1.735
    5LYS    HD1   64   5.627   6.366   1.736
    5LYS    HD2   65   5.772   6.438   1.717
    5LYS     CE   66   5.617   6.543   1.623
    5LYS    HE1   67   5.669   6.628   1.619
    5LYS    HE2   68   5.521   6.563   1.643
    5LYS     NZ   69   5.623   6.478   1.490
    5LYS    HZ1   70   5.585   6.539   1.421
    5LYS    HZ2   71   5.719   6.458   1.467
    5LYS    HZ3   72   5.571   6.392   1.492
    5LYS      C   73   5.781   6.459   2.237
    5LYS      O   74   5.862   6.368   2.239
    6ARG      N   75   5.694   6.483   2.335
    6ARG      H   76   5.668   6.579   2.352
    6ARG     CA   77   5.633   6.380   2.420
    6ARG     HA   78   5.565   6.433   2.470
    6ARG     CB   79   5.576   6.267   2.330
    6ARG    HB1   80   5.536   6.198   2.390
    6ARG    HB2   81   5.652   6.227   2.279
    6ARG     CG   82   5.469   6.304   2.228
    6ARG    HG1   83   5.498   6.384   2.175
    6ARG    HG2   84   5.383   6.324   2.275
    6ARG     CD   85   5.452   6.182   2.136
    6ARG    HD1   86   5.449   6.099   2.191
    6ARG    HD2   87   5.528   6.178   2.072
    6ARG     NE   88   5.327   6.191   2.059
    6ARG     HE   89   5.259   6.257   2.091
    6ARG     CZ   90   5.297   6.120   1.951
    6ARG    NH1   91   5.383   6.041   1.893
    6ARG   HH11   92   5.475   6.032   1.930
    6ARG   HH12   93   5.356   5.989   1.812
    6ARG    NH2   94   5.177   6.128   1.900
    6ARG   HH21   95   5.109   6.188   1.942
    6ARG   HH22   96   5.154   6.075   1.819
    6ARG      C   97   5.723   6.316   2.525
    6ARG      O   98   5.745   6.197   2.516
    7HIS      N   99   5.762   6.385   2.632
    7HIS      H  100   5.764   6.485   2.629
    7HIS     CA  101   5.802   6.316   2.755
    7HIS     HA  102   5.759   6.226   2.751
    7HIS     CB  103   5.955   6.290   2.758
    7HIS    HB1  104   5.987   6.301   2.852
    7HIS    HB2  105   5.999   6.357   2.699
    7HIS     CG  106   5.996   6.151   2.711
    7HIS    ND1  107   5.970   6.092   2.589
    7HIS    CE1  108   6.014   5.966   2.589
    7HIS    HE1  109   6.004   5.901   2.513
    7HIS    NE2  110   6.073   5.940   2.706
    7HIS    HE2  111   6.116   5.853   2.733
    7HIS    CD2  112   6.064   6.056   2.783
    7HIS    HD2  113   6.102   6.068   2.875
    7HIS      C  114   5.745   6.386   2.880
    7HIS      O  115   5.799   6.482   2.932
    8HIS      N  116   5.630   6.336   2.927
    8HIS      H  117   5.560   6.309   2.860
    8HIS     CA  118   5.600   6.320   3.070
    8HIS     HA  119   5.501   6.304   3.064
    8HIS     CB  120   5.682   6.200   3.121
    8HIS    HB1  121   5.677   6.197   3.221
    8HIS    HB2  122   5.778   6.211   3.093
    8HIS     CG  123   5.631   6.070   3.066
    8HIS    ND1  124   5.504   6.021   3.085
    8HIS    CE1  125   5.496   5.902   3.024
    8HIS    HE1  126   5.415   5.843   3.022
    8HIS    NE2  127   5.613   5.873   2.966
    8HIS    HE2  128   5.633   5.790   2.912
    8HIS    CD2  129   5.701   5.978   2.992
    8HIS    HD2  130   5.796   5.985   2.963
    8HIS      C  131   5.597   6.439   3.168
    8HIS      O  132   5.622   6.420   3.286
    9GLY      N  133   5.552   6.558   3.127
    9GLY      H  134   5.537   6.574   3.029
    9GLY     CA  135   5.525   6.667   3.223
    9GLY    HA1  136   5.546   6.753   3.176
    9GLY    HA2  137   5.588   6.655   3.299
    9GLY      C  138   5.382   6.675   3.278
    9GLY      O  139   5.359   6.737   3.382
   10TYR      N  140   5.283   6.614   3.213
   10TYR      H  141   5.307   6.549   3.140
   10TYR     CA  142   5.141   6.637   3.242
   10TYR     HA  143   5.138   6.734   3.265
   10TYR     CB  144   5.055   6.609   3.118
   10TYR    HB1  145   5.091   6.663   3.042
   10TYR    HB2  146   4.961   6.638   3.137
   10TYR     CG  147   5.052   6.464   3.076
   10TYR    CD1  148   5.141   6.417   2.977
   10TYR    HD1  149   5.205   6.481   2.934
   10TYR    CE1  150   5.139   6.282   2.938
   10TYR    HE1  151   5.202   6.249   2.867
   10TYR     CZ  152   5.048   6.193   2.999
   10TYR     OH  153   5.047   6.062   2.964
   10TYR     HH  154   4.977   6.014   3.017
   10TYR    CE2  155   4.959   6.239   3.098
   10TYR    HE2  156   4.895   6.176   3.141
   10TYR    CD2  157   4.960   6.375   3.135
   10TYR    HD2  158   4.896   6.408   3.205
   10TYR      C  159   5.087   6.565   3.368
   10TYR      O  160   4.968   6.573   3.397
   11LYS      N  161   5.173   6.499   3.447
   11LYS      H  162   5.267   6.486   3.416
   11LYS     CA  163   5.134   6.445   3.579
   11LYS     HA  164   5.039   6.415   3.568
   11LYS     CB  165   5.217   6.321   3.617
   11LYS    HB1  166   5.202   6.302   3.714
   11LYS    HB2  167   5.314   6.342   3.602
   11LYS     CG  168   5.180   6.196   3.536
   11LYS    HG1  169   5.214   6.206   3.442
   11LYS    HG2  170   5.081   6.186   3.535
   11LYS     CD  171   5.244   6.072   3.600
   11LYS    HD1  172   5.212   6.064   3.695
   11LYS    HD2  173   5.343   6.082   3.599
   11LYS     CE  174   5.205   5.945   3.524
   11LYS    HE1  175   5.236   5.952   3.429
   11LYS    HE2  176   5.106   5.934   3.526
   11LYS     NZ  177   5.267   5.823   3.584
   11LYS    HZ1  178   5.239   5.743   3.532
   11LYS    HZ2  179   5.366   5.832   3.582
   11LYS    HZ3  180   5.236   5.814   3.679
   11LYS      C  181   5.137   6.554   3.686
   11LYS      O  182   5.196   6.535   3.793
   12ARG      N  183   5.070   6.667   3.662
   12ARG      H  184   5.038   6.685   3.569
   12ARG     CA  185   5.041   6.764   3.768
   12ARG     HA  186   5.122   6.778   3.825
   12ARG     CB  187   5.011   6.902   3.706
   12ARG    HB1  188   4.912   6.915   3.700
   12ARG    HB2  189   5.050   6.906   3.614
   12ARG     CG  190   5.071   7.015   3.790
   12ARG    HG1  191   5.171   7.011   3.783
   12ARG    HG2  192   5.044   7.001   3.886
   12ARG     CD  193   5.025   7.155   3.747
   12ARG    HD1  194   5.049   7.170   3.651
   12ARG    HD2  195   5.069   7.224   3.804
   12ARG     NE  196   4.879   7.171   3.760
   12ARG     HE  197   4.825   7.088   3.773
   12ARG     CZ  198   4.811   7.284   3.756
   12ARG    NH1  199   4.870   7.400   3.743
   12ARG   HH11  200   4.969   7.405   3.736
   12ARG   HH12  201   4.815   7.484   3.741
   12ARG    NH2  202   4.681   7.283   3.766
   12ARG   HH21  203   4.632   7.197   3.776
   12ARG   HH22  204   4.630   7.369   3.763
   12ARG      C  205   4.930   6.705   3.856
   12ARG      O  206   4.813   6.738   3.841
   13LYS      N  207   4.966   6.607   3.940
   13LYS      H  208   5.063   6.585   3.945
   13LYS     CA  209   4.875   6.531   4.027
   13LYS     HA  210   4.793   6.509   3.974
   13LYS     CB  211   4.942   6.397   4.066
   13LYS    HB1  212   5.001   6.413   4.145
   13LYS    HB2  213   4.997   6.365   3.989
   13LYS     CG  214   4.842   6.285   4.104
   13LYS    HG1  215   4.789   6.261   4.022
   13LYS    HG2  216   4.780   6.320   4.174
   13LYS     CD  217   4.912   6.159   4.156
   13LYS    HD1  218   4.952   6.179   4.246
   13LYS    HD2  219   4.985   6.133   4.093
   13LYS     CE  220   4.814   6.042   4.170
   13LYS    HE1  221   4.790   6.007   4.079
   13LYS    HE2  222   4.731   6.073   4.217
   13LYS     NZ  223   4.871   5.929   4.248
   13LYS    HZ1  224   4.804   5.855   4.254
   13LYS    HZ2  225   4.954   5.895   4.202
   13LYS    HZ3  226   4.895   5.960   4.340
   13LYS      C  227   4.829   6.617   4.146
   13LYS      O  228   4.850   6.580   4.260
   14PHE      N  229   4.769   6.732   4.118
   14PHE      H  230   4.772   6.766   4.024
   14PHE     CA  231   4.697   6.813   4.217
   14PHE     HA  232   4.750   6.812   4.302
   14PHE     CB  233   4.687   6.960   4.170
   14PHE    HB1  234   4.599   6.997   4.200
   14PHE    HB2  235   4.692   6.962   4.070
   14PHE     CG  236   4.795   7.051   4.223
   14PHE    CD1  237   4.773   7.128   4.339
   14PHE    HD1  238   4.685   7.122   4.387
   14PHE    CE1  239   4.873   7.214   4.388
   14PHE    HE1  240   4.857   7.268   4.470
   14PHE     CZ  241   4.996   7.224   4.321
   14PHE     HZ  242   5.067   7.286   4.355
   14PHE    CE2  243   5.020   7.147   4.205
   14PHE    HE2  244   5.107   7.153   4.157
   14PHE    CD2  245   4.919   7.060   4.158
   14PHE    HD2  246   4.937   7.004   4.077
   14PHE      C  247   4.560   6.749   4.241
   14PHE      O  248   4.461   6.791   4.182
   15HIS      N  249   4.555   6.646   4.324
   15HIS      H  250   4.639   6.596   4.344
   15HIS     CA  251   4.430   6.602   4.389
   15HIS     HA  252   4.355   6.644   4.339
   15HIS     CB  253   4.408   6.450   4.377
   15HIS    HB1  254   4.325   6.426   4.427
   15HIS    HB2  255   4.487   6.403   4.417
   15HIS     CG  256   4.394   6.403   4.235
   15HIS    ND1  257   4.496   6.360   4.154
   15HIS    CE1  258   4.443   6.325   4.035
   15HIS    HE1  259   4.496   6.290   3.958
   15HIS    NE2  260   4.311   6.342   4.036
   15HIS    HE2  261   4.248   6.323   3.961
   15HIS    CD2  262   4.278   6.393   4.162
   15HIS    HD2  263   4.186   6.417   4.194
   15HIS      C  264   4.429   6.653   4.534
   15HIS      O  265   4.400   6.579   4.628
   16GLU      N  266   4.466   6.779   4.552
   16GLU      H  267   4.506   6.828   4.475
   16GLU     CA  268   4.450   6.850   4.678
   16GLU     HA  269   4.443   6.785   4.753
   16GLU     CB  270   4.575   6.936   4.704
   16GLU    HB1  271   4.578   7.011   4.637
   16GLU    HB2  272   4.657   6.879   4.694
   16GLU     CG  273   4.574   6.997   4.845
   16GLU    HG1  274   4.564   6.923   4.912
   16GLU    HG2  275   4.497   7.060   4.853
   16GLU     CD  276   4.704   7.073   4.871
   16GLU    OE1  277   4.697   7.197   4.881
   16GLU    OE2  278   4.809   7.005   4.877
   16GLU      C  279   4.321   6.931   4.667
   16GLU      O  280   4.320   7.033   4.598
   17LYS      N  281   4.213   6.877   4.724
   17LYS      H  282   4.208   6.777   4.725
   17LYS     CA  283   4.098   6.948   4.786
   17LYS     HA  284   4.128   6.966   4.880
   17LYS     CB  285   4.068   7.084   4.720
   17LYS    HB1  286   4.032   7.067   4.628
   17LYS    HB2  287   4.153   7.136   4.713
   17LYS     CG  288   3.967   7.171   4.795
   17LYS    HG1  289   3.994   7.179   4.891
   17LYS    HG2  290   3.876   7.129   4.790
   17LYS     CD  291   3.963   7.310   4.730
   17LYS    HD1  292   3.917   7.304   4.641
   17LYS    HD2  293   4.056   7.343   4.717
   17LYS     CE  294   3.886   7.410   4.818
   17LYS    HE1  295   3.929   7.415   4.908
   17LYS    HE2  296   3.791   7.380   4.827
   17LYS     NZ  297   3.887   7.546   4.758
   17LYS    HZ1  298   3.837   7.608   4.817
   17LYS    HZ2  299   3.982   7.578   4.749
   17LYS    HZ3  300   3.844   7.543   4.668
   17LYS      C  301   3.973   6.859   4.789
   17LYS      O  302   3.886   6.869   4.703
   18HIS      N  303   3.960   6.779   4.894
   18HIS      H  304   4.041   6.753   4.946
   18HIS     CA  305   3.830   6.727   4.938
   18HIS     HA  306   3.761   6.761   4.873
   18HIS     CB  307   3.823   6.574   4.928
   18HIS    HB1  308   3.740   6.542   4.974
   18HIS    HB2  309   3.904   6.535   4.974
   18HIS     CG  310   3.822   6.524   4.785
   18HIS    ND1  311   3.711   6.513   4.704
   18HIS    CE1  312   3.751   6.465   4.585
   18HIS    HE1  313   3.690   6.448   4.507
   18HIS    NE2  314   3.883   6.445   4.585
   18HIS    HE2  315   3.938   6.410   4.509
   18HIS    CD2  316   3.929   6.482   4.712
   18HIS    HD2  317   4.024   6.477   4.744
   18HIS      C  318   3.796   6.786   5.076
   18HIS      O  319   3.789   6.716   5.176
   19HIS      N  320   3.775   6.918   5.081
   19HIS      H  321   3.804   6.973   5.003
   19HIS     CA  322   3.712   6.987   5.194
   19HIS     HA  323   3.734   6.932   5.275
   19HIS     CB  324   3.769   7.128   5.213
   19HIS    HB1  325   3.705   7.182   5.267
   19HIS    HB2  326   3.780   7.170   5.123
   19HIS     CG  327   3.902   7.131   5.282
   19HIS    ND1  328   3.925   7.102   5.414
   19HIS    CE1  329   4.055   7.124   5.439
   19HIS    HE1  330   4.099   7.111   5.528
   19HIS    NE2  331   4.117   7.167   5.328
   19HIS    HE2  332   4.214   7.190   5.319
   19HIS    CD2  333   4.020   7.172   5.228
   19HIS    HD2  334   4.035   7.201   5.133
   19HIS      C  335   3.559   6.990   5.178
   19HIS      O  336   3.498   7.096   5.171
   20SER      N  337   3.496   6.874   5.166
   20SER      H  338   3.549   6.790   5.155
   20SER     CA  339   3.350   6.867   5.168
   20SER     HA  340   3.319   6.943   5.224
   20SER     CB  341   3.288   6.885   5.028
   20SER    HB1  342   3.291   6.981   5.001
   20SER    HB2  343   3.194   6.852   5.027
   20SER     OG  344   3.357   6.813   4.928
   20SER     HG  345   3.313   6.828   4.839
   20SER      C  346   3.307   6.736   5.233
   20SER      O  347   3.308   6.632   5.169
   21HIS      N  348   3.281   6.742   5.364
   21HIS      H  349   3.347   6.789   5.423
   21HIS     CA  350   3.161   6.686   5.430
   21HIS     HA  351   3.093   6.758   5.417
   21HIS     CB  352   3.105   6.559   5.361
   21HIS    HB1  353   3.159   6.480   5.389
   21HIS    HB2  354   3.112   6.571   5.262
   21HIS     CG  355   2.961   6.529   5.393
   21HIS    ND1  356   2.865   6.617   5.438
   21HIS    CE1  357   2.746   6.556   5.434
   21HIS    HE1  358   2.660   6.596   5.463
   21HIS    NE2  359   2.760   6.432   5.385
   21HIS    HE2  360   2.687   6.365   5.370
   21HIS    CD2  361   2.896   6.414   5.358
   21HIS    HD2  362   2.938   6.332   5.320
   21HIS      C  363   3.186   6.663   5.580
   21HIS      O  364   3.199   6.551   5.628
   22ARG      N  365   3.192   6.771   5.658
   22ARG      H  366   3.225   6.857   5.620
   22ARG     CA  367   3.152   6.766   5.800
   22ARG     HA  368   3.096   6.685   5.815
   22ARG     CB  369   3.272   6.746   5.894
   22ARG    HB1  370   3.323   6.831   5.903
   22ARG    HB2  371   3.332   6.675   5.856
   22ARG     CG  372   3.223   6.701   6.033
   22ARG    HG1  373   3.163   6.622   6.022
   22ARG    HG2  374   3.174   6.776   6.076
   22ARG     CD  375   3.341   6.661   6.122
   22ARG    HD1  376   3.410   6.733   6.121
   22ARG    HD2  377   3.381   6.576   6.090
   22ARG     NE  378   3.297   6.641   6.261
   22ARG     HE  379   3.200   6.656   6.280
   22ARG     CZ  380   3.372   6.606   6.364
   22ARG    NH1  381   3.498   6.576   6.351
   22ARG   HH11  382   3.541   6.580   6.261
   22ARG   HH12  383   3.552   6.550   6.431
   22ARG    NH2  384   3.320   6.600   6.484
   22ARG   HH21  385   3.224   6.623   6.498
   22ARG   HH22  386   3.377   6.573   6.561
   22ARG      C  387   3.066   6.889   5.828
   22ARG      O  388   3.108   6.984   5.892
   23GLY      N  389   2.951   6.890   5.760
   23GLY      H  390   2.943   6.829   5.681
   23GLY     CA  391   2.838   6.973   5.796
   23GLY    HA1  392   2.787   6.996   5.713
   23GLY    HA2  393   2.872   7.058   5.838
   23GLY      C  394   2.752   6.894   5.893
   23GLY      O  395   2.727   6.777   5.866
   24TYR      N  396   2.711   6.962   6.000
   24TYR      H  397   2.732   7.060   6.000
   24TYR     CA  398   2.639   6.914   6.120
   24TYR     HA  399   2.612   7.000   6.163
   24TYR     CB  400   2.511   6.838   6.083
   24TYR    HB1  401   2.462   6.815   6.167
   24TYR    HB2  402   2.536   6.754   6.034
   24TYR     CG  403   2.419   6.920   5.994
   24TYR    CD1  404   2.337   7.018   6.052
   24TYR    HD1  405   2.337   7.032   6.151
   24TYR    CE1  406   2.254   7.098   5.970
   24TYR    HE1  407   2.195   7.168   6.011
   24TYR     CZ  408   2.255   7.079   5.830
   24TYR     OH  409   2.176   7.156   5.750
   24TYR     HH  410   2.189   7.129   5.655
   24TYR    CE2  411   2.337   6.981   5.772
   24TYR    HE2  412   2.338   6.968   5.673
   24TYR    CD2  413   2.419   6.901   5.854
   24TYR    HD2  414   2.476   6.830   5.814
   24TYR      C  415   2.726   6.849   6.228
   24TYR    OC1  416   2.710   6.897   6.342
   24TYR    OC2  417   2.811   6.762   6.197
   9.43716   8.89744   7.70541   0.00000   0.00000   3.14572   0.00000  -3.14572   4.44872
