Gyas ROwers Mature At Cryogenic Speed
  417
    1ASP      N    1   1.931  -0.135  -2.506
    1ASP     H1    2   1.867  -0.137  -2.583
    1ASP     H2    3   1.931  -0.043  -2.465
    1ASP     H3    4   2.023  -0.156  -2.539
    1ASP     CA    5   1.890  -0.234  -2.406
    1ASP     HA    6   1.894  -0.325  -2.446
    1ASP     CB    7   1.988  -0.231  -2.288
    1ASP    HB1    8   1.969  -0.151  -2.231
    1ASP    HB2    9   2.082  -0.226  -2.323
    1ASP     CG   10   1.971  -0.357  -2.205
    1ASP    OD1   11   1.936  -0.459  -2.269
    1ASP    OD2   12   1.988  -0.347  -2.082
    1ASP      C   13   1.747  -0.204  -2.366
    1ASP      O   14   1.715  -0.091  -2.331
    2SER      N   15   1.657  -0.297  -2.397
    2SER      H   16   1.690  -0.391  -2.411
    2SER     CA   17   1.514  -0.271  -2.410
    2SER     HA   18   1.506  -0.192  -2.470
    2SER     CB   19   1.446  -0.392  -2.473
    2SER    HB1   20   1.346  -0.382  -2.472
    2SER    HB2   21   1.470  -0.477  -2.425
    2SER     OG   22   1.488  -0.403  -2.607
    2SER     HG   23   1.444  -0.482  -2.650
    2SER      C   24   1.452  -0.235  -2.275
    2SER      O   25   1.424  -0.321  -2.193
    3HIS      N   26   1.419  -0.106  -2.261
    3HIS      H   27   1.461  -0.044  -2.328
    3HIS     CA   28   1.332  -0.043  -2.162
    3HIS     HA   29   1.369  -0.068  -2.072
    3HIS     CB   30   1.339   0.110  -2.186
    3HIS    HB1   31   1.248   0.144  -2.206
    3HIS    HB2   32   1.399   0.128  -2.264
    3HIS     CG   33   1.393   0.190  -2.070
    3HIS    ND1   34   1.375   0.164  -1.936
    3HIS    CE1   35   1.440   0.259  -1.867
    3HIS    HE1   36   1.444   0.264  -1.767
    3HIS    NE2   37   1.496   0.347  -1.951
    3HIS    HE2   38   1.549   0.428  -1.925
    3HIS    CD2   39   1.467   0.304  -2.080
    3HIS    HD2   40   1.496   0.349  -2.165
    3HIS      C   41   1.187  -0.095  -2.164
    3HIS      O   42   1.090  -0.022  -2.143
    4ALA      N   43   1.168  -0.223  -2.194
    4ALA      H   44   1.248  -0.283  -2.198
    4ALA     CA   45   1.039  -0.281  -2.220
    4ALA     HA   46   0.971  -0.235  -2.162
    4ALA     CB   47   1.005  -0.258  -2.368
    4ALA    HB1   48   0.915  -0.298  -2.388
    4ALA    HB2   49   1.002  -0.160  -2.387
    4ALA    HB3   50   1.074  -0.302  -2.425
    4ALA      C   51   1.041  -0.428  -2.181
    4ALA      O   52   1.089  -0.512  -2.258
    5LYS      N   53   0.976  -0.456  -2.069
    5LYS      H   54   0.994  -0.397  -1.990
    5LYS     CA   55   0.879  -0.565  -2.048
    5LYS     HA   56   0.794  -0.514  -2.033
    5LYS     CB   57   0.858  -0.656  -2.172
    5LYS    HB1   58   0.803  -0.735  -2.145
    5LYS    HB2   59   0.947  -0.687  -2.204
    5LYS     CG   60   0.786  -0.582  -2.287
    5LYS    HG1   61   0.823  -0.490  -2.294
    5LYS    HG2   62   0.688  -0.578  -2.266
    5LYS     CD   63   0.802  -0.651  -2.423
    5LYS    HD1   64   0.754  -0.739  -2.422
    5LYS    HD2   65   0.899  -0.667  -2.441
    5LYS     CE   66   0.744  -0.562  -2.535
    5LYS    HE1   67   0.796  -0.477  -2.539
    5LYS    HE2   68   0.648  -0.542  -2.515
    5LYS     NZ   69   0.750  -0.627  -2.668
    5LYS    HZ1   70   0.712  -0.566  -2.737
    5LYS    HZ2   71   0.846  -0.647  -2.691
    5LYS    HZ3   72   0.698  -0.713  -2.666
    5LYS      C   73   0.908  -0.646  -1.921
    5LYS      O   74   0.989  -0.737  -1.919
    6ARG      N   75   0.821  -0.622  -1.823
    6ARG      H   76   0.795  -0.526  -1.806
    6ARG     CA   77   0.760  -0.725  -1.738
    6ARG     HA   78   0.692  -0.672  -1.688
    6ARG     CB   79   0.703  -0.838  -1.828
    6ARG    HB1   80   0.663  -0.907  -1.768
    6ARG    HB2   81   0.779  -0.878  -1.879
    6ARG     CG   82   0.596  -0.801  -1.930
    6ARG    HG1   83   0.625  -0.721  -1.983
    6ARG    HG2   84   0.510  -0.781  -1.883
    6ARG     CD   85   0.579  -0.923  -2.022
    6ARG    HD1   86   0.576  -1.006  -1.967
    6ARG    HD2   87   0.655  -0.927  -2.086
    6ARG     NE   88   0.454  -0.914  -2.099
    6ARG     HE   89   0.386  -0.848  -2.067
    6ARG     CZ   90   0.424  -0.985  -2.207
    6ARG    NH1   91   0.510  -1.064  -2.265
    6ARG   HH11   92   0.602  -1.073  -2.228
    6ARG   HH12   93   0.483  -1.116  -2.346
    6ARG    NH2   94   0.304  -0.977  -2.258
    6ARG   HH21   95   0.236  -0.917  -2.216
    6ARG   HH22   96   0.281  -1.030  -2.339
    6ARG      C   97   0.850  -0.789  -1.633
    6ARG      O   98   0.872  -0.908  -1.642
    7HIS      N   99   0.889  -0.720  -1.526
    7HIS      H  100   0.891  -0.620  -1.529
    7HIS     CA  101   0.929  -0.789  -1.403
    7HIS     HA  102   0.886  -0.879  -1.407
    7HIS     CB  103   1.082  -0.815  -1.400
    7HIS    HB1  104   1.114  -0.804  -1.306
    7HIS    HB2  105   1.126  -0.748  -1.459
    7HIS     CG  106   1.123  -0.954  -1.447
    7HIS    ND1  107   1.097  -1.013  -1.569
    7HIS    CE1  108   1.141  -1.139  -1.569
    7HIS    HE1  109   1.131  -1.204  -1.645
    7HIS    NE2  110   1.200  -1.165  -1.452
    7HIS    HE2  111   1.243  -1.252  -1.425
    7HIS    CD2  112   1.191  -1.049  -1.375
    7HIS    HD2  113   1.229  -1.037  -1.283
    7HIS      C  114   0.872  -0.719  -1.278
    7HIS      O  115   0.926  -0.623  -1.226
    8HIS      N  116   0.757  -0.769  -1.231
    8HIS      H  117   0.687  -0.796  -1.298
    8HIS     CA  118   0.727  -0.785  -1.088
    8HIS     HA  119   0.628  -0.801  -1.094
    8HIS     CB  120   0.809  -0.905  -1.037
    8HIS    HB1  121   0.804  -0.908  -0.937
    8HIS    HB2  122   0.905  -0.894  -1.065
    8HIS     CG  123   0.758  -1.035  -1.092
    8HIS    ND1  124   0.631  -1.084  -1.073
    8HIS    CE1  125   0.623  -1.203  -1.134
    8HIS    HE1  126   0.542  -1.262  -1.136
    8HIS    NE2  127   0.740  -1.232  -1.192
    8HIS    HE2  128   0.760  -1.315  -1.246
    8HIS    CD2  129   0.828  -1.127  -1.166
    8HIS    HD2  130   0.923  -1.120  -1.195
    8HIS      C  131   0.724  -0.666  -0.990
    8HIS      O  132   0.749  -0.685  -0.872
    9GLY      N  133   0.679  -0.547  -1.031
    9GLY      H  134   0.664  -0.531  -1.129
    9GLY     CA  135   0.652  -0.438  -0.935
    9GLY    HA1  136   0.673  -0.352  -0.982
    9GLY    HA2  137   0.715  -0.450  -0.859
    9GLY      C  138   0.509  -0.430  -0.880
    9GLY      O  139   0.486  -0.368  -0.776
   10TYR      N  140   0.410  -0.491  -0.945
   10TYR      H  141   0.434  -0.556  -1.018
   10TYR     CA  142   0.268  -0.468  -0.916
   10TYR     HA  143   0.265  -0.371  -0.893
   10TYR     CB  144   0.182  -0.496  -1.040
   10TYR    HB1  145   0.218  -0.442  -1.116
   10TYR    HB2  146   0.088  -0.467  -1.021
   10TYR     CG  147   0.179  -0.641  -1.082
   10TYR    CD1  148   0.268  -0.688  -1.181
   10TYR    HD1  149   0.332  -0.624  -1.224
   10TYR    CE1  150   0.266  -0.823  -1.220
   10TYR    HE1  151   0.329  -0.856  -1.291
   10TYR     CZ  152   0.175  -0.912  -1.159
   10TYR     OH  153   0.174  -1.043  -1.194
   10TYR     HH  154   0.104  -1.091  -1.141
   10TYR    CE2  155   0.086  -0.866  -1.060
   10TYR    HE2  156   0.022  -0.929  -1.017
   10TYR    CD2  157   0.087  -0.730  -1.023
   10TYR    HD2  158   0.023  -0.697  -0.953
   10TYR      C  159   0.214  -0.540  -0.790
   10TYR      O  160   0.095  -0.532  -0.761
   11LYS      N  161   0.300  -0.606  -0.711
   11LYS      H  162   0.394  -0.619  -0.742
   11LYS     CA  163   0.261  -0.660  -0.579
   11LYS     HA  164   0.166  -0.690  -0.590
   11LYS     CB  165   0.344  -0.784  -0.541
   11LYS    HB1  166   0.329  -0.803  -0.444
   11LYS    HB2  167   0.441  -0.763  -0.556
   11LYS     CG  168   0.307  -0.909  -0.622
   11LYS    HG1  169   0.341  -0.899  -0.716
   11LYS    HG2  170   0.208  -0.919  -0.623
   11LYS     CD  171   0.371  -1.033  -0.558
   11LYS    HD1  172   0.339  -1.041  -0.463
   11LYS    HD2  173   0.470  -1.023  -0.559
   11LYS     CE  174   0.332  -1.160  -0.634
   11LYS    HE1  175   0.363  -1.153  -0.729
   11LYS    HE2  176   0.233  -1.171  -0.632
   11LYS     NZ  177   0.394  -1.282  -0.574
   11LYS    HZ1  178   0.366  -1.362  -0.626
   11LYS    HZ2  179   0.493  -1.273  -0.576
   11LYS    HZ3  180   0.363  -1.291  -0.479
   11LYS      C  181   0.264  -0.551  -0.472
   11LYS      O  182   0.323  -0.570  -0.365
   12ARG      N  183   0.197  -0.438  -0.496
   12ARG      H  184   0.165  -0.420  -0.589
   12ARG     CA  185   0.168  -0.341  -0.390
   12ARG     HA  186   0.249  -0.327  -0.333
   12ARG     CB  187   0.138  -0.203  -0.452
   12ARG    HB1  188   0.039  -0.190  -0.458
   12ARG    HB2  189   0.177  -0.199  -0.544
   12ARG     CG  190   0.198  -0.090  -0.368
   12ARG    HG1  191   0.298  -0.094  -0.375
   12ARG    HG2  192   0.171  -0.104  -0.272
   12ARG     CD  193   0.152   0.050  -0.411
   12ARG    HD1  194   0.176   0.065  -0.507
   12ARG    HD2  195   0.196   0.119  -0.354
   12ARG     NE  196   0.006   0.066  -0.398
   12ARG     HE  197  -0.048  -0.017  -0.385
   12ARG     CZ  198  -0.062   0.179  -0.402
   12ARG    NH1  199  -0.003   0.295  -0.415
   12ARG   HH11  200   0.096   0.300  -0.422
   12ARG   HH12  201  -0.058   0.379  -0.417
   12ARG    NH2  202  -0.192   0.178  -0.392
   12ARG   HH21  203  -0.241   0.092  -0.382
   12ARG   HH22  204  -0.243   0.264  -0.395
   12ARG      C  205   0.057  -0.400  -0.302
   12ARG      O  206  -0.060  -0.367  -0.317
   13LYS      N  207   0.093  -0.498  -0.218
   13LYS      H  208   0.190  -0.520  -0.213
   13LYS     CA  209   0.002  -0.574  -0.131
   13LYS     HA  210  -0.080  -0.596  -0.184
   13LYS     CB  211   0.069  -0.708  -0.092
   13LYS    HB1  212   0.128  -0.692  -0.013
   13LYS    HB2  213   0.124  -0.740  -0.169
   13LYS     CG  214  -0.031  -0.820  -0.054
   13LYS    HG1  215  -0.084  -0.844  -0.136
   13LYS    HG2  216  -0.093  -0.785   0.016
   13LYS     CD  217   0.039  -0.946  -0.002
   13LYS    HD1  218   0.079  -0.926   0.088
   13LYS    HD2  219   0.112  -0.972  -0.065
   13LYS     CE  220  -0.059  -1.063   0.012
   13LYS    HE1  221  -0.083  -1.098  -0.079
   13LYS    HE2  222  -0.142  -1.032   0.059
   13LYS     NZ  223  -0.002  -1.176   0.090
   13LYS    HZ1  224  -0.069  -1.250   0.096
   13LYS    HZ2  225   0.081  -1.210   0.044
   13LYS    HZ3  226   0.022  -1.145   0.182
   13LYS      C  227  -0.044  -0.488  -0.012
   13LYS      O  228  -0.023  -0.525   0.102
   14PHE      N  229  -0.104  -0.373  -0.040
   14PHE      H  230  -0.101  -0.339  -0.134
   14PHE     CA  231  -0.176  -0.292   0.059
   14PHE     HA  232  -0.123  -0.293   0.144
   14PHE     CB  233  -0.186  -0.145   0.012
   14PHE    HB1  234  -0.274  -0.108   0.042
   14PHE    HB2  235  -0.181  -0.143  -0.088
   14PHE     CG  236  -0.078  -0.054   0.065
   14PHE    CD1  237  -0.100   0.023   0.181
   14PHE    HD1  238  -0.188   0.017   0.229
   14PHE    CE1  239  -0.000   0.109   0.230
   14PHE    HE1  240  -0.016   0.163   0.312
   14PHE     CZ  241   0.123   0.119   0.163
   14PHE     HZ  242   0.194   0.181   0.197
   14PHE    CE2  243   0.147   0.042   0.047
   14PHE    HE2  244   0.234   0.048  -0.001
   14PHE    CD2  245   0.046  -0.045  -0.000
   14PHE    HD2  246   0.064  -0.101  -0.081
   14PHE      C  247  -0.313  -0.356   0.083
   14PHE      O  248  -0.412  -0.314   0.024
   15HIS      N  249  -0.318  -0.459   0.166
   15HIS      H  250  -0.234  -0.509   0.186
   15HIS     CA  251  -0.443  -0.503   0.231
   15HIS     HA  252  -0.518  -0.461   0.181
   15HIS     CB  253  -0.465  -0.655   0.219
   15HIS    HB1  254  -0.548  -0.679   0.269
   15HIS    HB2  255  -0.386  -0.702   0.259
   15HIS     CG  256  -0.479  -0.702   0.077
   15HIS    ND1  257  -0.377  -0.745  -0.004
   15HIS    CE1  258  -0.430  -0.780  -0.123
   15HIS    HE1  259  -0.377  -0.815  -0.200
   15HIS    NE2  260  -0.562  -0.763  -0.122
   15HIS    HE2  261  -0.625  -0.782  -0.197
   15HIS    CD2  262  -0.595  -0.712   0.004
   15HIS    HD2  263  -0.687  -0.688   0.036
   15HIS      C  264  -0.444  -0.452   0.376
   15HIS      O  265  -0.473  -0.526   0.470
   16GLU      N  266  -0.407  -0.326   0.394
   16GLU      H  267  -0.367  -0.277   0.317
   16GLU     CA  268  -0.423  -0.255   0.520
   16GLU     HA  269  -0.430  -0.320   0.595
   16GLU     CB  270  -0.298  -0.169   0.546
   16GLU    HB1  271  -0.295  -0.094   0.479
   16GLU    HB2  272  -0.216  -0.226   0.536
   16GLU     CG  273  -0.299  -0.108   0.687
   16GLU    HG1  274  -0.309  -0.182   0.754
   16GLU    HG2  275  -0.376  -0.045   0.695
   16GLU     CD  276  -0.169  -0.032   0.713
   16GLU    OE1  277  -0.176   0.092   0.723
   16GLU    OE2  278  -0.064  -0.100   0.719
   16GLU      C  279  -0.552  -0.174   0.509
   16GLU      O  280  -0.553  -0.072   0.440
   17LYS      N  281  -0.660  -0.228   0.566
   17LYS      H  282  -0.665  -0.328   0.567
   17LYS     CA  283  -0.775  -0.157   0.628
   17LYS     HA  284  -0.745  -0.139   0.722
   17LYS     CB  285  -0.805  -0.021   0.562
   17LYS    HB1  286  -0.841  -0.038   0.470
   17LYS    HB2  287  -0.720   0.031   0.555
   17LYS     CG  288  -0.906   0.066   0.637
   17LYS    HG1  289  -0.879   0.074   0.733
   17LYS    HG2  290  -0.997   0.024   0.632
   17LYS     CD  291  -0.910   0.205   0.572
   17LYS    HD1  292  -0.956   0.199   0.483
   17LYS    HD2  293  -0.817   0.238   0.559
   17LYS     CE  294  -0.987   0.305   0.660
   17LYS    HE1  295  -0.944   0.310   0.750
   17LYS    HE2  296  -1.082   0.275   0.669
   17LYS     NZ  297  -0.986   0.441   0.600
   17LYS    HZ1  298  -1.036   0.503   0.659
   17LYS    HZ2  299  -0.891   0.473   0.591
   17LYS    HZ3  300  -1.029   0.438   0.510
   17LYS      C  301  -0.900  -0.246   0.631
   17LYS      O  302  -0.987  -0.236   0.545
   18HIS      N  303  -0.913  -0.326   0.736
   18HIS      H  304  -0.832  -0.352   0.788
   18HIS     CA  305  -1.043  -0.378   0.780
   18HIS     HA  306  -1.112  -0.344   0.715
   18HIS     CB  307  -1.050  -0.531   0.770
   18HIS    HB1  308  -1.133  -0.563   0.816
   18HIS    HB2  309  -0.969  -0.570   0.816
   18HIS     CG  310  -1.051  -0.581   0.627
   18HIS    ND1  311  -1.162  -0.592   0.546
   18HIS    CE1  312  -1.122  -0.640   0.427
   18HIS    HE1  313  -1.183  -0.657   0.349
   18HIS    NE2  314  -0.990  -0.660   0.427
   18HIS    HE2  315  -0.935  -0.695   0.351
   18HIS    CD2  316  -0.944  -0.623   0.554
   18HIS    HD2  317  -0.849  -0.628   0.586
   18HIS      C  318  -1.077  -0.319   0.918
   18HIS      O  319  -1.084  -0.389   1.018
   19HIS      N  320  -1.098  -0.187   0.923
   19HIS      H  321  -1.069  -0.132   0.845
   19HIS     CA  322  -1.161  -0.118   1.036
   19HIS     HA  323  -1.139  -0.173   1.117
   19HIS     CB  324  -1.104   0.023   1.055
   19HIS    HB1  325  -1.168   0.077   1.109
   19HIS    HB2  326  -1.093   0.065   0.965
   19HIS     CG  327  -0.971   0.026   1.124
   19HIS    ND1  328  -0.948  -0.003   1.256
   19HIS    CE1  329  -0.818   0.019   1.281
   19HIS    HE1  330  -0.774   0.006   1.370
   19HIS    NE2  331  -0.756   0.062   1.170
   19HIS    HE2  332  -0.659   0.085   1.161
   19HIS    CD2  333  -0.853   0.067   1.070
   19HIS    HD2  334  -0.838   0.096   0.975
   19HIS      C  335  -1.314  -0.115   1.020
   19HIS      O  336  -1.375  -0.009   1.013
   20SER      N  337  -1.377  -0.231   1.008
   20SER      H  338  -1.324  -0.315   0.997
   20SER     CA  339  -1.523  -0.238   1.010
   20SER     HA  340  -1.554  -0.162   1.066
   20SER     CB  341  -1.585  -0.220   0.870
   20SER    HB1  342  -1.582  -0.124   0.843
   20SER    HB2  343  -1.679  -0.253   0.869
   20SER     OG  344  -1.516  -0.292   0.770
   20SER     HG  345  -1.560  -0.277   0.681
   20SER      C  346  -1.566  -0.369   1.075
   20SER      O  347  -1.565  -0.473   1.011
   21HIS      N  348  -1.592  -0.363   1.206
   21HIS      H  349  -1.526  -0.316   1.265
   21HIS     CA  350  -1.712  -0.419   1.272
   21HIS     HA  351  -1.780  -0.347   1.259
   21HIS     CB  352  -1.768  -0.546   1.203
   21HIS    HB1  353  -1.714  -0.625   1.231
   21HIS    HB2  354  -1.761  -0.534   1.104
   21HIS     CG  355  -1.912  -0.576   1.235
   21HIS    ND1  356  -2.008  -0.488   1.280
   21HIS    CE1  357  -2.127  -0.549   1.276
   21HIS    HE1  358  -2.213  -0.509   1.305
   21HIS    NE2  359  -2.113  -0.673   1.227
   21HIS    HE2  360  -2.186  -0.740   1.212
   21HIS    CD2  361  -1.977  -0.691   1.200
   21HIS    HD2  362  -1.935  -0.773   1.162
   21HIS      C  363  -1.687  -0.442   1.422
   21HIS      O  364  -1.674  -0.554   1.470
   22ARG      N  365  -1.681  -0.334   1.500
   22ARG      H  366  -1.648  -0.248   1.462
   22ARG     CA  367  -1.721  -0.339   1.642
   22ARG     HA  368  -1.777  -0.420   1.657
   22ARG     CB  369  -1.601  -0.359   1.736
   22ARG    HB1  370  -1.550  -0.274   1.745
   22ARG    HB2  371  -1.541  -0.430   1.698
   22ARG     CG  372  -1.650  -0.404   1.875
   22ARG    HG1  373  -1.710  -0.483   1.864
   22ARG    HG2  374  -1.699  -0.329   1.918
   22ARG     CD  375  -1.532  -0.444   1.964
   22ARG    HD1  376  -1.463  -0.372   1.963
   22ARG    HD2  377  -1.492  -0.529   1.932
   22ARG     NE  378  -1.576  -0.464   2.103
   22ARG     HE  379  -1.673  -0.449   2.122
   22ARG     CZ  380  -1.501  -0.499   2.206
   22ARG    NH1  381  -1.375  -0.529   2.193
   22ARG   HH11  382  -1.332  -0.525   2.103
   22ARG   HH12  383  -1.321  -0.555   2.273
   22ARG    NH2  384  -1.553  -0.505   2.326
   22ARG   HH21  385  -1.649  -0.482   2.340
   22ARG   HH22  386  -1.496  -0.532   2.403
   22ARG      C  387  -1.807  -0.216   1.670
   22ARG      O  388  -1.765  -0.121   1.734
   23GLY      N  389  -1.922  -0.215   1.602
   23GLY      H  390  -1.930  -0.276   1.523
   23GLY     CA  391  -2.035  -0.132   1.638
   23GLY    HA1  392  -2.086  -0.109   1.555
   23GLY    HA2  393  -2.001  -0.047   1.680
   23GLY      C  394  -2.121  -0.211   1.735
   23GLY      O  395  -2.146  -0.328   1.708
   24TYR      N  396  -2.162  -0.143   1.842
   24TYR      H  397  -2.141  -0.045   1.842
   24TYR     CA  398  -2.234  -0.191   1.962
   24TYR     HA  399  -2.261  -0.105   2.005
   24TYR     CB  400  -2.362  -0.267   1.925
   24TYR    HB1  401  -2.411  -0.290   2.009
   24TYR    HB2  402  -2.337  -0.351   1.876
   24TYR     CG  403  -2.454  -0.185   1.836
   24TYR    CD1  404  -2.536  -0.087   1.894
   24TYR    HD1  405  -2.536  -0.073   1.993
   24TYR    CE1  406  -2.619  -0.007   1.812
   24TYR    HE1  407  -2.678   0.063   1.853
   24TYR     CZ  408  -2.618  -0.026   1.672
   24TYR     OH  409  -2.697   0.051   1.592
   24TYR     HH  410  -2.684   0.024   1.497
   24TYR    CE2  411  -2.536  -0.124   1.614
   24TYR    HE2  412  -2.535  -0.137   1.515
   24TYR    CD2  413  -2.454  -0.204   1.696
   24TYR    HD2  414  -2.397  -0.275   1.656
   24TYR      C  415  -2.147  -0.256   2.070
   24TYR    OC1  416  -2.163  -0.208   2.184
   24TYR    OC2  417  -2.062  -0.343   2.039
   4.77887   1.86578   5.14023
