God Rules Over Mankind, Animals, Cosmos and Such
  417
    1ASP      N    1   4.925   5.162   1.349
    1ASP     H1    2   4.981   5.174   1.431
    1ASP     H2    3   4.926   5.066   1.322
    1ASP     H3    4   4.963   5.218   1.275
    1ASP     CA    5   4.786   5.205   1.377
    1ASP     HA    6   4.795   5.302   1.400
    1ASP     CB    7   4.702   5.186   1.251
    1ASP    HB1    8   4.668   5.093   1.247
    1ASP    HB2    9   4.758   5.205   1.170
    1ASP     CG   10   4.584   5.283   1.255
    1ASP    OD1   11   4.609   5.395   1.303
    1ASP    OD2   12   4.473   5.239   1.220
    1ASP      C   13   4.721   5.141   1.502
    1ASP      O   14   4.631   5.197   1.561
    2SER      N   15   4.769   5.026   1.550
    2SER      H   16   4.853   4.989   1.511
    2SER     CA   17   4.703   4.951   1.660
    2SER     HA   18   4.606   4.971   1.644
    2SER     CB   19   4.736   4.802   1.645
    2SER    HB1   20   4.671   4.746   1.695
    2SER    HB2   21   4.829   4.782   1.678
    2SER     OG   22   4.730   4.765   1.509
    2SER     HG   23   4.752   4.668   1.499
    2SER      C   24   4.732   5.000   1.803
    2SER      O   25   4.678   4.943   1.898
    3HIS      N   26   4.814   5.104   1.822
    3HIS      H   27   4.853   5.149   1.743
    3HIS     CA   28   4.849   5.154   1.957
    3HIS     HA   29   4.846   5.073   2.016
    3HIS     CB   30   4.992   5.210   1.956
    3HIS    HB1   31   4.989   5.304   1.920
    3HIS    HB2   32   5.049   5.154   1.897
    3HIS     CG   33   5.054   5.214   2.093
    3HIS    ND1   34   5.063   5.109   2.182
    3HIS    CE1   35   5.127   5.151   2.292
    3HIS    HE1   36   5.147   5.095   2.372
    3HIS    NE2   37   5.160   5.280   2.279
    3HIS    HE2   38   5.207   5.336   2.347
    3HIS    CD2   39   5.116   5.321   2.153
    3HIS    HD2   40   5.128   5.412   2.113
    3HIS      C   41   4.744   5.252   2.013
    3HIS      O   42   4.712   5.247   2.131
    4ALA      N   43   4.680   5.333   1.927
    4ALA      H   44   4.706   5.328   1.830
    4ALA     CA   45   4.576   5.428   1.967
    4ALA     HA   46   4.611   5.476   2.047
    4ALA     CB   47   4.553   5.525   1.849
    4ALA    HB1   48   4.482   5.591   1.874
    4ALA    HB2   49   4.638   5.573   1.829
    4ALA    HB3   50   4.524   5.473   1.769
    4ALA      C   51   4.445   5.359   2.010
    4ALA      O   52   4.380   5.400   2.106
    5LYS      N   53   4.409   5.246   1.946
    5LYS      H   54   4.468   5.213   1.872
    5LYS     CA   55   4.288   5.168   1.980
    5LYS     HA   56   4.214   5.235   1.982
    5LYS     CB   57   4.261   5.064   1.870
    5LYS    HB1   58   4.191   5.000   1.903
    5LYS    HB2   59   4.345   5.013   1.852
    5LYS     CG   60   4.213   5.130   1.740
    5LYS    HG1   61   4.283   5.194   1.709
    5LYS    HG2   62   4.128   5.180   1.759
    5LYS     CD   63   4.185   5.028   1.628
    5LYS    HD1   64   4.114   4.964   1.658
    5LYS    HD2   65   4.269   4.978   1.608
    5LYS     CE   66   4.138   5.103   1.503
    5LYS    HE1   67   4.203   5.176   1.481
    5LYS    HE2   68   4.048   5.144   1.521
    5LYS     NZ   69   4.125   5.016   1.384
    5LYS    HZ1   70   4.094   5.070   1.306
    5LYS    HZ2   71   4.214   4.975   1.363
    5LYS    HZ3   72   4.059   4.943   1.402
    5LYS      C   73   4.296   5.104   2.118
    5LYS      O   74   4.198   5.104   2.192
    6ARG      N   75   4.415   5.057   2.158
    6ARG      H   76   4.491   5.058   2.093
    6ARG     CA   77   4.438   5.005   2.293
    6ARG     HA   78   4.363   4.941   2.314
    6ARG     CB   79   4.571   4.927   2.295
    6ARG    HB1   80   4.646   4.993   2.290
    6ARG    HB2   81   4.574   4.868   2.215
    6ARG     CG   82   4.589   4.841   2.421
    6ARG    HG1   83   4.505   4.791   2.440
    6ARG    HG2   84   4.611   4.900   2.499
    6ARG     CD   85   4.704   4.741   2.400
    6ARG    HD1   86   4.785   4.789   2.368
    6ARG    HD2   87   4.677   4.673   2.332
    6ARG     NE   88   4.738   4.669   2.525
    6ARG     HE   89   4.726   4.720   2.610
    6ARG     CZ   90   4.784   4.545   2.536
    6ARG    NH1   91   4.794   4.465   2.434
    6ARG   HH11   92   4.768   4.496   2.343
    6ARG   HH12   93   4.829   4.372   2.447
    6ARG    NH2   94   4.820   4.499   2.652
    6ARG   HH21   95   4.814   4.557   2.733
    6ARG   HH22   96   4.854   4.405   2.661
    6ARG      C   97   4.430   5.115   2.399
    6ARG      O   98   4.400   5.084   2.514
    7HIS      N   99   4.450   5.241   2.360
    7HIS      H  100   4.465   5.258   2.263
    7HIS     CA  101   4.449   5.355   2.450
    7HIS     HA  102   4.484   5.318   2.537
    7HIS     CB  103   4.548   5.463   2.399
    7HIS    HB1  104   4.496   5.533   2.350
    7HIS    HB2  105   4.613   5.419   2.337
    7HIS     CG  106   4.628   5.533   2.507
    7HIS    ND1  107   4.717   5.474   2.596
    7HIS    CE1  108   4.766   5.570   2.677
    7HIS    HE1  109   4.835   5.555   2.747
    7HIS    NE2  110   4.708   5.688   2.648
    7HIS    HE2  111   4.722   5.774   2.697
    7HIS    CD2  112   4.625   5.666   2.538
    7HIS    HD2  113   4.573   5.736   2.489
    7HIS      C  114   4.307   5.409   2.482
    7HIS      O  115   4.281   5.464   2.589
    8HIS      N  116   4.209   5.389   2.394
    8HIS      H  117   4.230   5.345   2.306
    8HIS     CA  118   4.070   5.428   2.423
    8HIS     HA  119   4.078   5.509   2.481
    8HIS     CB  120   3.999   5.466   2.293
    8HIS    HB1  121   3.900   5.458   2.306
    8HIS    HB2  122   4.028   5.403   2.220
    8HIS     CG  123   4.033   5.607   2.252
    8HIS    ND1  124   3.982   5.721   2.309
    8HIS    CE1  125   4.038   5.827   2.248
    8HIS    HE1  126   4.017   5.922   2.269
    8HIS    NE2  127   4.125   5.786   2.155
    8HIS    HE2  128   4.181   5.844   2.096
    8HIS    CD2  129   4.122   5.646   2.156
    8HIS    HD2  130   4.176   5.586   2.097
    8HIS      C  131   3.993   5.325   2.507
    8HIS      O  132   3.907   5.362   2.586
    9GLY      N  133   4.028   5.196   2.497
    9GLY      H  134   4.103   5.171   2.436
    9GLY     CA  135   3.960   5.089   2.572
    9GLY    HA1  136   3.991   5.002   2.535
    9GLY    HA2  137   3.862   5.099   2.555
    9GLY      C  138   3.985   5.093   2.723
    9GLY      O  139   3.893   5.071   2.802
   10TYR      N  140   4.108   5.124   2.766
   10TYR      H  141   4.178   5.147   2.699
   10TYR     CA  142   4.143   5.126   2.909
   10TYR     HA  143   4.093   5.049   2.948
   10TYR     CB  144   4.294   5.103   2.929
   10TYR    HB1  145   4.326   5.037   2.860
   10TYR    HB2  146   4.309   5.066   3.020
   10TYR     CG  147   4.377   5.228   2.915
   10TYR    CD1  148   4.413   5.274   2.788
   10TYR    HD1  149   4.392   5.220   2.706
   10TYR    CE1  150   4.479   5.397   2.776
   10TYR    HE1  151   4.503   5.431   2.685
   10TYR     CZ  152   4.513   5.474   2.887
   10TYR     OH  153   4.568   5.597   2.871
   10TYR     HH  154   4.586   5.637   2.961
   10TYR    CE2  155   4.477   5.428   3.014
   10TYR    HE2  156   4.500   5.482   3.095
   10TYR    CD2  157   4.409   5.306   3.028
   10TYR    HD2  158   4.382   5.274   3.119
   10TYR      C  159   4.094   5.253   2.981
   10TYR      O  160   4.048   5.244   3.095
   11LYS      N  161   4.096   5.369   2.914
   11LYS      H  162   4.137   5.371   2.822
   11LYS     CA  163   4.042   5.495   2.968
   11LYS     HA  164   4.085   5.505   3.058
   11LYS     CB  165   4.078   5.614   2.878
   11LYS    HB1  166   4.011   5.687   2.891
   11LYS    HB2  167   4.076   5.585   2.782
   11LYS     CG  168   4.218   5.668   2.911
   11LYS    HG1  169   4.284   5.595   2.897
   11LYS    HG2  170   4.219   5.697   3.007
   11LYS     CD  171   4.258   5.788   2.824
   11LYS    HD1  172   4.183   5.854   2.820
   11LYS    HD2  173   4.279   5.756   2.732
   11LYS     CE  174   4.382   5.857   2.883
   11LYS    HE1  175   4.455   5.789   2.896
   11LYS    HE2  176   4.359   5.897   2.972
   11LYS     NZ  177   4.435   5.966   2.797
   11LYS    HZ1  178   4.515   6.007   2.840
   11LYS    HZ2  179   4.461   5.928   2.708
   11LYS    HZ3  180   4.365   6.035   2.784
   11LYS      C  181   3.891   5.487   2.990
   11LYS      O  182   3.843   5.537   3.091
   12ARG      N  183   3.818   5.419   2.901
   12ARG      H  184   3.864   5.381   2.821
   12ARG     CA  185   3.673   5.398   2.914
   12ARG     HA  186   3.633   5.488   2.932
   12ARG     CB  187   3.615   5.341   2.783
   12ARG    HB1  188   3.641   5.245   2.775
   12ARG    HB2  189   3.652   5.393   2.706
   12ARG     CG  190   3.462   5.352   2.782
   12ARG    HG1  191   3.437   5.448   2.799
   12ARG    HG2  192   3.425   5.295   2.855
   12ARG     CD  193   3.400   5.308   2.649
   12ARG    HD1  194   3.452   5.348   2.573
   12ARG    HD2  195   3.305   5.338   2.644
   12ARG     NE  196   3.402   5.161   2.633
   12ARG     HE  197   3.476   5.111   2.679
   12ARG     CZ  198   3.315   5.090   2.564
   12ARG    NH1  199   3.221   5.145   2.493
   12ARG   HH11  200   3.213   5.244   2.489
   12ARG   HH12  201   3.157   5.087   2.442
   12ARG    NH2  202   3.320   4.959   2.566
   12ARG   HH21  203   3.390   4.913   2.620
   12ARG   HH22  204   3.254   4.906   2.513
   12ARG      C  205   3.639   5.310   3.035
   12ARG      O  206   3.555   5.349   3.115
   13LYS      N  207   3.711   5.199   3.054
   13LYS      H  208   3.781   5.175   2.986
   13LYS     CA  209   3.693   5.110   3.171
   13LYS     HA  210   3.596   5.090   3.176
   13LYS     CB  211   3.774   4.982   3.149
   13LYS    HB1  212   3.872   5.003   3.157
   13LYS    HB2  213   3.755   4.947   3.057
   13LYS     CG  214   3.738   4.873   3.251
   13LYS    HG1  215   3.639   4.858   3.248
   13LYS    HG2  216   3.764   4.904   3.342
   13LYS     CD  217   3.809   4.740   3.221
   13LYS    HD1  218   3.907   4.752   3.229
   13LYS    HD2  219   3.787   4.711   3.128
   13LYS     CE  220   3.761   4.634   3.321
   13LYS    HE1  221   3.662   4.624   3.314
   13LYS    HE2  222   3.786   4.662   3.413
   13LYS     NZ  223   3.823   4.501   3.295
   13LYS    HZ1  224   3.789   4.435   3.362
   13LYS    HZ2  225   3.798   4.470   3.203
   13LYS    HZ3  226   3.922   4.508   3.303
   13LYS      C  227   3.730   5.179   3.303
   13LYS      O  228   3.669   5.150   3.406
   14PHE      N  229   3.828   5.270   3.302
   14PHE      H  230   3.879   5.283   3.217
   14PHE     CA  231   3.863   5.351   3.418
   14PHE     HA  232   3.870   5.288   3.496
   14PHE     CB  233   4.000   5.416   3.395
   14PHE    HB1  234   3.992   5.479   3.318
   14PHE    HB2  235   4.066   5.345   3.373
   14PHE     CG  236   4.053   5.494   3.514
   14PHE    CD1  237   4.046   5.635   3.515
   14PHE    HD1  238   4.006   5.683   3.438
   14PHE    CE1  239   4.095   5.707   3.625
   14PHE    HE1  240   4.090   5.807   3.626
   14PHE     CZ  241   4.152   5.639   3.734
   14PHE     HZ  242   4.187   5.690   3.813
   14PHE    CE2  243   4.159   5.498   3.733
   14PHE    HE2  244   4.200   5.450   3.811
   14PHE    CD2  245   4.109   5.426   3.623
   14PHE    HD2  246   4.114   5.326   3.623
   14PHE      C  247   3.752   5.452   3.451
   14PHE      O  248   3.702   5.449   3.563
   15HIS      N  249   3.706   5.533   3.355
   15HIS      H  250   3.747   5.527   3.264
   15HIS     CA  251   3.598   5.629   3.378
   15HIS     HA  252   3.630   5.687   3.453
   15HIS     CB  253   3.575   5.714   3.252
   15HIS    HB1  254   3.479   5.707   3.224
   15HIS    HB2  255   3.633   5.679   3.178
   15HIS     CG  256   3.607   5.860   3.271
   15HIS    ND1  257   3.732   5.913   3.292
   15HIS    CE1  258   3.718   6.046   3.307
   15HIS    HE1  259   3.794   6.110   3.324
   15HIS    NE2  260   3.590   6.081   3.295
   15HIS    HE2  261   3.553   6.174   3.301
   15HIS    CD2  262   3.518   5.963   3.274
   15HIS    HD2  263   3.419   5.956   3.263
   15HIS      C  264   3.467   5.562   3.424
   15HIS      O  265   3.403   5.609   3.518
   16GLU      N  266   3.430   5.449   3.364
   16GLU      H  267   3.489   5.412   3.292
   16GLU     CA  268   3.308   5.374   3.398
   16GLU     HA  269   3.231   5.438   3.391
   16GLU     CB  270   3.295   5.261   3.294
   16GLU    HB1  271   3.365   5.192   3.315
   16GLU    HB2  272   3.313   5.300   3.204
   16GLU     CG  273   3.159   5.191   3.290
   16GLU    HG1  274   3.087   5.259   3.283
   16GLU    HG2  275   3.147   5.138   3.374
   16GLU     CD  276   3.156   5.098   3.168
   16GLU    OE1  277   3.193   4.979   3.184
   16GLU    OE2  278   3.131   5.148   3.056
   16GLU      C  279   3.308   5.322   3.543
   16GLU      O  280   3.206   5.331   3.611
   17LYS      N  281   3.424   5.280   3.595
   17LYS      H  282   3.504   5.278   3.536
   17LYS     CA  283   3.440   5.235   3.735
   17LYS     HA  284   3.363   5.174   3.753
   17LYS     CB  285   3.574   5.161   3.747
   17LYS    HB1  286   3.648   5.227   3.734
   17LYS    HB2  287   3.579   5.091   3.676
   17LYS     CG  288   3.592   5.093   3.884
   17LYS    HG1  289   3.515   5.031   3.899
   17LYS    HG2  290   3.593   5.163   3.955
   17LYS     CD  291   3.722   5.012   3.893
   17LYS    HD1  292   3.800   5.072   3.878
   17LYS    HD2  293   3.722   4.940   3.824
   17LYS     CE  294   3.730   4.950   4.033
   17LYS    HE1  295   3.654   4.886   4.045
   17LYS    HE2  296   3.722   5.023   4.102
   17LYS     NZ  297   3.857   4.877   4.056
   17LYS    HZ1  298   3.857   4.839   4.149
   17LYS    HZ2  299   3.865   4.803   3.990
   17LYS    HZ3  300   3.934   4.940   4.046
   17LYS      C  301   3.427   5.349   3.837
   17LYS      O  302   3.396   5.323   3.953
   18HIS      N  303   3.451   5.474   3.797
   18HIS      H  304   3.472   5.489   3.701
   18HIS     CA  305   3.449   5.590   3.887
   18HIS     HA  306   3.460   5.552   3.979
   18HIS     CB  307   3.567   5.682   3.853
   18HIS    HB1  308   3.552   5.772   3.895
   18HIS    HB2  309   3.574   5.693   3.754
   18HIS     CG  310   3.698   5.627   3.904
   18HIS    ND1  311   3.739   5.625   4.035
   18HIS    CE1  312   3.860   5.567   4.041
   18HIS    HE1  313   3.912   5.553   4.125
   18HIS    NE2  314   3.900   5.529   3.919
   18HIS    HE2  315   3.984   5.481   3.896
   18HIS    CD2  316   3.800   5.571   3.831
   18HIS    HD2  317   3.802   5.561   3.731
   18HIS      C  318   3.314   5.664   3.889
   18HIS      O  319   3.290   5.743   3.981
   19HIS      N  320   3.224   5.638   3.794
   19HIS      H  321   3.250   5.575   3.720
   19HIS     CA  322   3.090   5.696   3.793
   19HIS     HA  323   3.099   5.782   3.843
   19HIS     CB  324   3.047   5.723   3.648
   19HIS    HB1  325   2.949   5.742   3.646
   19HIS    HB2  326   3.067   5.643   3.592
   19HIS     CG  327   3.120   5.841   3.589
   19HIS    ND1  328   3.110   5.972   3.632
   19HIS    CE1  329   3.191   6.047   3.555
   19HIS    HE1  330   3.203   6.146   3.565
   19HIS    NE2  331   3.251   5.971   3.463
   19HIS    HE2  332   3.316   6.002   3.393
   19HIS    CD2  333   3.206   5.840   3.483
   19HIS    HD2  334   3.233   5.760   3.430
   19HIS      C  335   2.985   5.614   3.870
   19HIS      O  336   2.881   5.668   3.907
   20SER      N  337   3.013   5.487   3.901
   20SER      H  338   3.102   5.451   3.875
   20SER     CA  339   2.920   5.398   3.971
   20SER     HA  340   2.829   5.427   3.939
   20SER     CB  341   2.949   5.253   3.931
   20SER    HB1  342   2.941   5.241   3.832
   20SER    HB2  343   2.886   5.190   3.977
   20SER     OG  344   3.081   5.217   3.968
   20SER     HG  345   3.098   5.122   3.941
   20SER      C  346   2.916   5.415   4.124
   20SER      O  347   2.862   5.330   4.193
   21HIS      N  348   2.975   5.522   4.179
   21HIS      H  349   3.014   5.592   4.118
   21HIS     CA  350   2.987   5.541   4.324
   21HIS     HA  351   2.921   5.478   4.364
   21HIS     CB  352   3.130   5.505   4.370
   21HIS    HB1  353   3.186   5.588   4.371
   21HIS    HB2  354   3.169   5.439   4.306
   21HIS     CG  355   3.133   5.444   4.508
   21HIS    ND1  356   3.063   5.332   4.548
   21HIS    CE1  357   3.093   5.308   4.676
   21HIS    HE1  358   3.055   5.234   4.731
   21HIS    NE2  359   3.182   5.398   4.721
   21HIS    HE2  360   3.223   5.402   4.812
   21HIS    CD2  361   3.206   5.487   4.616
   21HIS    HD2  362   3.265   5.567   4.619
   21HIS      C  363   2.942   5.680   4.373
   21HIS      O  364   2.983   5.724   4.480
   22ARG      N  365   2.859   5.751   4.295
   22ARG      H  366   2.828   5.710   4.209
   22ARG     CA  367   2.813   5.887   4.329
   22ARG     HA  368   2.849   5.906   4.420
   22ARG     CB  369   2.875   5.988   4.230
   22ARG    HB1  370   2.812   6.000   4.153
   22ARG    HB2  371   2.962   5.953   4.198
   22ARG     CG  372   2.897   6.124   4.298
   22ARG    HG1  373   2.954   6.111   4.380
   22ARG    HG2  374   2.808   6.162   4.325
   22ARG     CD  375   2.967   6.221   4.203
   22ARG    HD1  376   2.917   6.225   4.116
   22ARG    HD2  377   3.061   6.191   4.187
   22ARG     NE  378   2.971   6.356   4.261
   22ARG     HE  379   2.927   6.368   4.350
   22ARG     CZ  380   3.027   6.463   4.207
   22ARG    NH1  381   3.093   6.457   4.095
   22ARG   HH11  382   3.102   6.370   4.047
   22ARG   HH12  383   3.134   6.540   4.056
   22ARG    NH2  384   3.017   6.579   4.266
   22ARG   HH21  385   2.967   6.587   4.352
   22ARG   HH22  386   3.060   6.660   4.225
   22ARG      C  387   2.662   5.899   4.347
   22ARG      O  388   2.605   6.004   4.322
   23GLY      N  389   2.598   5.791   4.392
   23GLY      H  390   2.650   5.707   4.407
   23GLY     CA  391   2.454   5.790   4.421
   23GLY    HA1  392   2.406   5.771   4.336
   23GLY    HA2  393   2.429   5.882   4.454
   23GLY      C  394   2.418   5.687   4.526
   23GLY      O  395   2.361   5.585   4.489
   24TYR      N  396   2.456   5.712   4.651
   24TYR      H  397   2.541   5.764   4.662
   24TYR     CA  398   2.389   5.673   4.776
   24TYR     HA  399   2.291   5.683   4.758
   24TYR     CB  400   2.412   5.526   4.815
   24TYR    HB1  401   2.409   5.518   4.915
   24TYR    HB2  402   2.502   5.498   4.782
   24TYR     CG  403   2.309   5.432   4.756
   24TYR    CD1  404   2.178   5.429   4.809
   24TYR    HD1  405   2.156   5.485   4.889
   24TYR    CE1  406   2.080   5.347   4.750
   24TYR    HE1  407   1.987   5.345   4.788
   24TYR     CZ  408   2.112   5.269   4.637
   24TYR     OH  409   2.017   5.193   4.577
   24TYR     HH  410   2.057   5.145   4.499
   24TYR    CE2  411   2.243   5.271   4.585
   24TYR    HE2  412   2.266   5.215   4.505
   24TYR    CD2  413   2.341   5.350   4.646
   24TYR    HD2  414   2.435   5.350   4.611
   24TYR      C  415   2.436   5.767   4.887
   24TYR    OC1  416   2.349   5.805   4.967
   24TYR    OC2  417   2.555   5.805   4.882
   7.60585   7.17087   6.21015   0.00000   0.00000   2.53528   0.00000  -2.53528   3.58543
