Protein in water
43600
    1ASP      N    1   4.925   5.162   1.349
    1ASP     H1    2   4.981   5.174   1.431
    1ASP     H2    3   4.926   5.066   1.322
    1ASP     H3    4   4.963   5.218   1.275
    1ASP     CA    5   4.786   5.205   1.377
    1ASP     HA    6   4.795   5.302   1.400
    1ASP     CB    7   4.702   5.186   1.251
    1ASP    HB1    8   4.668   5.093   1.247
    1ASP    HB2    9   4.758   5.205   1.170
    1ASP     CG   10   4.584   5.283   1.255
    1ASP    OD1   11   4.609   5.395   1.303
    1ASP    OD2   12   4.473   5.239   1.220
    1ASP      C   13   4.721   5.141   1.502
    1ASP      O   14   4.631   5.197   1.561
    2SER      N   15   4.769   5.026   1.550
    2SER      H   16   4.853   4.989   1.511
    2SER     CA   17   4.703   4.951   1.660
    2SER     HA   18   4.606   4.971   1.644
    2SER     CB   19   4.736   4.802   1.645
    2SER    HB1   20   4.671   4.746   1.695
    2SER    HB2   21   4.829   4.782   1.678
    2SER     OG   22   4.730   4.765   1.509
    2SER     HG   23   4.752   4.668   1.499
    2SER      C   24   4.732   5.000   1.803
    2SER      O   25   4.678   4.943   1.898
    3HIS      N   26   4.814   5.104   1.822
    3HIS      H   27   4.853   5.149   1.743
    3HIS     CA   28   4.849   5.154   1.957
    3HIS     HA   29   4.846   5.073   2.016
    3HIS     CB   30   4.992   5.210   1.956
    3HIS    HB1   31   4.989   5.304   1.920
    3HIS    HB2   32   5.049   5.154   1.897
    3HIS     CG   33   5.054   5.214   2.093
    3HIS    ND1   34   5.063   5.109   2.182
    3HIS    CE1   35   5.127   5.151   2.292
    3HIS    HE1   36   5.147   5.095   2.372
    3HIS    NE2   37   5.160   5.280   2.279
    3HIS    HE2   38   5.207   5.336   2.347
    3HIS    CD2   39   5.116   5.321   2.153
    3HIS    HD2   40   5.128   5.412   2.113
    3HIS      C   41   4.744   5.252   2.013
    3HIS      O   42   4.712   5.247   2.131
    4ALA      N   43   4.680   5.333   1.927
    4ALA      H   44   4.706   5.328   1.830
    4ALA     CA   45   4.576   5.428   1.967
    4ALA     HA   46   4.611   5.476   2.047
    4ALA     CB   47   4.553   5.525   1.849
    4ALA    HB1   48   4.482   5.591   1.874
    4ALA    HB2   49   4.638   5.573   1.829
    4ALA    HB3   50   4.524   5.473   1.769
    4ALA      C   51   4.445   5.359   2.010
    4ALA      O   52   4.380   5.400   2.106
    5LYS      N   53   4.409   5.246   1.946
    5LYS      H   54   4.468   5.213   1.872
    5LYS     CA   55   4.288   5.168   1.980
    5LYS     HA   56   4.214   5.235   1.982
    5LYS     CB   57   4.261   5.064   1.870
    5LYS    HB1   58   4.191   5.000   1.903
    5LYS    HB2   59   4.345   5.013   1.852
    5LYS     CG   60   4.213   5.130   1.740
    5LYS    HG1   61   4.283   5.194   1.709
    5LYS    HG2   62   4.128   5.180   1.759
    5LYS     CD   63   4.185   5.028   1.628
    5LYS    HD1   64   4.114   4.964   1.658
    5LYS    HD2   65   4.269   4.978   1.608
    5LYS     CE   66   4.138   5.103   1.503
    5LYS    HE1   67   4.203   5.176   1.481
    5LYS    HE2   68   4.048   5.144   1.521
    5LYS     NZ   69   4.125   5.016   1.384
    5LYS    HZ1   70   4.094   5.070   1.306
    5LYS    HZ2   71   4.214   4.975   1.363
    5LYS    HZ3   72   4.059   4.943   1.402
    5LYS      C   73   4.296   5.104   2.118
    5LYS      O   74   4.198   5.104   2.192
    6ARG      N   75   4.415   5.057   2.158
    6ARG      H   76   4.491   5.058   2.093
    6ARG     CA   77   4.438   5.005   2.293
    6ARG     HA   78   4.363   4.941   2.314
    6ARG     CB   79   4.571   4.927   2.295
    6ARG    HB1   80   4.646   4.993   2.290
    6ARG    HB2   81   4.574   4.868   2.215
    6ARG     CG   82   4.589   4.841   2.421
    6ARG    HG1   83   4.505   4.791   2.440
    6ARG    HG2   84   4.611   4.900   2.499
    6ARG     CD   85   4.704   4.741   2.400
    6ARG    HD1   86   4.785   4.789   2.368
    6ARG    HD2   87   4.677   4.673   2.332
    6ARG     NE   88   4.738   4.669   2.525
    6ARG     HE   89   4.726   4.720   2.610
    6ARG     CZ   90   4.784   4.545   2.536
    6ARG    NH1   91   4.794   4.465   2.434
    6ARG   HH11   92   4.768   4.496   2.343
    6ARG   HH12   93   4.829   4.372   2.447
    6ARG    NH2   94   4.820   4.499   2.652
    6ARG   HH21   95   4.814   4.557   2.733
    6ARG   HH22   96   4.854   4.405   2.661
    6ARG      C   97   4.430   5.115   2.399
    6ARG      O   98   4.400   5.084   2.514
    7HIS      N   99   4.450   5.241   2.360
    7HIS      H  100   4.465   5.258   2.263
    7HIS     CA  101   4.449   5.355   2.450
    7HIS     HA  102   4.484   5.318   2.537
    7HIS     CB  103   4.548   5.463   2.399
    7HIS    HB1  104   4.496   5.533   2.350
    7HIS    HB2  105   4.613   5.419   2.337
    7HIS     CG  106   4.628   5.533   2.507
    7HIS    ND1  107   4.717   5.474   2.596
    7HIS    CE1  108   4.766   5.570   2.677
    7HIS    HE1  109   4.835   5.555   2.747
    7HIS    NE2  110   4.708   5.688   2.648
    7HIS    HE2  111   4.722   5.774   2.697
    7HIS    CD2  112   4.625   5.666   2.538
    7HIS    HD2  113   4.573   5.736   2.489
    7HIS      C  114   4.307   5.409   2.482
    7HIS      O  115   4.281   5.464   2.589
    8HIS      N  116   4.209   5.389   2.394
    8HIS      H  117   4.230   5.345   2.306
    8HIS     CA  118   4.070   5.428   2.423
    8HIS     HA  119   4.078   5.509   2.481
    8HIS     CB  120   3.999   5.466   2.293
    8HIS    HB1  121   3.900   5.458   2.306
    8HIS    HB2  122   4.028   5.403   2.220
    8HIS     CG  123   4.033   5.607   2.252
    8HIS    ND1  124   3.982   5.721   2.309
    8HIS    CE1  125   4.038   5.827   2.248
    8HIS    HE1  126   4.017   5.922   2.269
    8HIS    NE2  127   4.125   5.786   2.155
    8HIS    HE2  128   4.181   5.844   2.096
    8HIS    CD2  129   4.122   5.646   2.156
    8HIS    HD2  130   4.176   5.586   2.097
    8HIS      C  131   3.993   5.325   2.507
    8HIS      O  132   3.907   5.362   2.586
    9GLY      N  133   4.028   5.196   2.497
    9GLY      H  134   4.103   5.171   2.436
    9GLY     CA  135   3.960   5.089   2.572
    9GLY    HA1  136   3.991   5.002   2.535
    9GLY    HA2  137   3.862   5.099   2.555
    9GLY      C  138   3.985   5.093   2.723
    9GLY      O  139   3.893   5.071   2.802
   10TYR      N  140   4.108   5.124   2.766
   10TYR      H  141   4.178   5.147   2.699
   10TYR     CA  142   4.143   5.126   2.909
   10TYR     HA  143   4.093   5.049   2.948
   10TYR     CB  144   4.294   5.103   2.929
   10TYR    HB1  145   4.326   5.037   2.860
   10TYR    HB2  146   4.309   5.066   3.020
   10TYR     CG  147   4.377   5.228   2.915
   10TYR    CD1  148   4.413   5.274   2.788
   10TYR    HD1  149   4.392   5.220   2.706
   10TYR    CE1  150   4.479   5.397   2.776
   10TYR    HE1  151   4.503   5.431   2.685
   10TYR     CZ  152   4.513   5.474   2.887
   10TYR     OH  153   4.568   5.597   2.871
   10TYR     HH  154   4.586   5.637   2.961
   10TYR    CE2  155   4.477   5.428   3.014
   10TYR    HE2  156   4.500   5.482   3.095
   10TYR    CD2  157   4.409   5.306   3.028
   10TYR    HD2  158   4.382   5.274   3.119
   10TYR      C  159   4.094   5.253   2.981
   10TYR      O  160   4.048   5.244   3.095
   11LYS      N  161   4.096   5.369   2.914
   11LYS      H  162   4.137   5.371   2.822
   11LYS     CA  163   4.042   5.495   2.968
   11LYS     HA  164   4.085   5.505   3.058
   11LYS     CB  165   4.078   5.614   2.878
   11LYS    HB1  166   4.011   5.687   2.891
   11LYS    HB2  167   4.076   5.585   2.782
   11LYS     CG  168   4.218   5.668   2.911
   11LYS    HG1  169   4.284   5.595   2.897
   11LYS    HG2  170   4.219   5.697   3.007
   11LYS     CD  171   4.258   5.788   2.824
   11LYS    HD1  172   4.183   5.854   2.820
   11LYS    HD2  173   4.279   5.756   2.732
   11LYS     CE  174   4.382   5.857   2.883
   11LYS    HE1  175   4.455   5.789   2.896
   11LYS    HE2  176   4.359   5.897   2.972
   11LYS     NZ  177   4.435   5.966   2.797
   11LYS    HZ1  178   4.515   6.007   2.840
   11LYS    HZ2  179   4.461   5.928   2.708
   11LYS    HZ3  180   4.365   6.035   2.784
   11LYS      C  181   3.891   5.487   2.990
   11LYS      O  182   3.843   5.537   3.091
   12ARG      N  183   3.818   5.419   2.901
   12ARG      H  184   3.864   5.381   2.821
   12ARG     CA  185   3.673   5.398   2.914
   12ARG     HA  186   3.633   5.488   2.932
   12ARG     CB  187   3.615   5.341   2.783
   12ARG    HB1  188   3.641   5.245   2.775
   12ARG    HB2  189   3.652   5.393   2.706
   12ARG     CG  190   3.462   5.352   2.782
   12ARG    HG1  191   3.437   5.448   2.799
   12ARG    HG2  192   3.425   5.295   2.855
   12ARG     CD  193   3.400   5.308   2.649
   12ARG    HD1  194   3.452   5.348   2.573
   12ARG    HD2  195   3.305   5.338   2.644
   12ARG     NE  196   3.402   5.161   2.633
   12ARG     HE  197   3.476   5.111   2.679
   12ARG     CZ  198   3.315   5.090   2.564
   12ARG    NH1  199   3.221   5.145   2.493
   12ARG   HH11  200   3.213   5.244   2.489
   12ARG   HH12  201   3.157   5.087   2.442
   12ARG    NH2  202   3.320   4.959   2.566
   12ARG   HH21  203   3.390   4.913   2.620
   12ARG   HH22  204   3.254   4.906   2.513
   12ARG      C  205   3.639   5.310   3.035
   12ARG      O  206   3.555   5.349   3.115
   13LYS      N  207   3.711   5.199   3.054
   13LYS      H  208   3.781   5.175   2.986
   13LYS     CA  209   3.693   5.110   3.171
   13LYS     HA  210   3.596   5.090   3.176
   13LYS     CB  211   3.774   4.982   3.149
   13LYS    HB1  212   3.872   5.003   3.157
   13LYS    HB2  213   3.755   4.947   3.057
   13LYS     CG  214   3.738   4.873   3.251
   13LYS    HG1  215   3.639   4.858   3.248
   13LYS    HG2  216   3.764   4.904   3.342
   13LYS     CD  217   3.809   4.740   3.221
   13LYS    HD1  218   3.907   4.752   3.229
   13LYS    HD2  219   3.787   4.711   3.128
   13LYS     CE  220   3.761   4.634   3.321
   13LYS    HE1  221   3.662   4.624   3.314
   13LYS    HE2  222   3.786   4.662   3.413
   13LYS     NZ  223   3.823   4.501   3.295
   13LYS    HZ1  224   3.789   4.435   3.362
   13LYS    HZ2  225   3.798   4.470   3.203
   13LYS    HZ3  226   3.922   4.508   3.303
   13LYS      C  227   3.730   5.179   3.303
   13LYS      O  228   3.669   5.150   3.406
   14PHE      N  229   3.828   5.270   3.302
   14PHE      H  230   3.879   5.283   3.217
   14PHE     CA  231   3.863   5.351   3.418
   14PHE     HA  232   3.870   5.288   3.496
   14PHE     CB  233   4.000   5.416   3.395
   14PHE    HB1  234   3.992   5.479   3.318
   14PHE    HB2  235   4.066   5.345   3.373
   14PHE     CG  236   4.053   5.494   3.514
   14PHE    CD1  237   4.046   5.635   3.515
   14PHE    HD1  238   4.006   5.683   3.438
   14PHE    CE1  239   4.095   5.707   3.625
   14PHE    HE1  240   4.090   5.807   3.626
   14PHE     CZ  241   4.152   5.639   3.734
   14PHE     HZ  242   4.187   5.690   3.813
   14PHE    CE2  243   4.159   5.498   3.733
   14PHE    HE2  244   4.200   5.450   3.811
   14PHE    CD2  245   4.109   5.426   3.623
   14PHE    HD2  246   4.114   5.326   3.623
   14PHE      C  247   3.752   5.452   3.451
   14PHE      O  248   3.702   5.449   3.563
   15HIS      N  249   3.706   5.533   3.355
   15HIS      H  250   3.747   5.527   3.264
   15HIS     CA  251   3.598   5.629   3.378
   15HIS     HA  252   3.630   5.687   3.453
   15HIS     CB  253   3.575   5.714   3.252
   15HIS    HB1  254   3.479   5.707   3.224
   15HIS    HB2  255   3.633   5.679   3.178
   15HIS     CG  256   3.607   5.860   3.271
   15HIS    ND1  257   3.732   5.913   3.292
   15HIS    CE1  258   3.718   6.046   3.307
   15HIS    HE1  259   3.794   6.110   3.324
   15HIS    NE2  260   3.590   6.081   3.295
   15HIS    HE2  261   3.553   6.174   3.301
   15HIS    CD2  262   3.518   5.963   3.274
   15HIS    HD2  263   3.419   5.956   3.263
   15HIS      C  264   3.467   5.562   3.424
   15HIS      O  265   3.403   5.609   3.518
   16GLU      N  266   3.430   5.449   3.364
   16GLU      H  267   3.489   5.412   3.292
   16GLU     CA  268   3.308   5.374   3.398
   16GLU     HA  269   3.231   5.438   3.391
   16GLU     CB  270   3.295   5.261   3.294
   16GLU    HB1  271   3.365   5.192   3.315
   16GLU    HB2  272   3.313   5.300   3.204
   16GLU     CG  273   3.159   5.191   3.290
   16GLU    HG1  274   3.087   5.259   3.283
   16GLU    HG2  275   3.147   5.138   3.374
   16GLU     CD  276   3.156   5.098   3.168
   16GLU    OE1  277   3.193   4.979   3.184
   16GLU    OE2  278   3.131   5.148   3.056
   16GLU      C  279   3.308   5.322   3.543
   16GLU      O  280   3.206   5.331   3.611
   17LYS      N  281   3.424   5.280   3.595
   17LYS      H  282   3.504   5.278   3.536
   17LYS     CA  283   3.440   5.235   3.735
   17LYS     HA  284   3.363   5.174   3.753
   17LYS     CB  285   3.574   5.161   3.747
   17LYS    HB1  286   3.648   5.227   3.734
   17LYS    HB2  287   3.579   5.091   3.676
   17LYS     CG  288   3.592   5.093   3.884
   17LYS    HG1  289   3.515   5.031   3.899
   17LYS    HG2  290   3.593   5.163   3.955
   17LYS     CD  291   3.722   5.012   3.893
   17LYS    HD1  292   3.800   5.072   3.878
   17LYS    HD2  293   3.722   4.940   3.824
   17LYS     CE  294   3.730   4.950   4.033
   17LYS    HE1  295   3.654   4.886   4.045
   17LYS    HE2  296   3.722   5.023   4.102
   17LYS     NZ  297   3.857   4.877   4.056
   17LYS    HZ1  298   3.857   4.839   4.149
   17LYS    HZ2  299   3.865   4.803   3.990
   17LYS    HZ3  300   3.934   4.940   4.046
   17LYS      C  301   3.427   5.349   3.837
   17LYS      O  302   3.396   5.323   3.953
   18HIS      N  303   3.451   5.474   3.797
   18HIS      H  304   3.472   5.489   3.701
   18HIS     CA  305   3.449   5.590   3.887
   18HIS     HA  306   3.460   5.552   3.979
   18HIS     CB  307   3.567   5.682   3.853
   18HIS    HB1  308   3.552   5.772   3.895
   18HIS    HB2  309   3.574   5.693   3.754
   18HIS     CG  310   3.698   5.627   3.904
   18HIS    ND1  311   3.739   5.625   4.035
   18HIS    CE1  312   3.860   5.567   4.041
   18HIS    HE1  313   3.912   5.553   4.125
   18HIS    NE2  314   3.900   5.529   3.919
   18HIS    HE2  315   3.984   5.481   3.896
   18HIS    CD2  316   3.800   5.571   3.831
   18HIS    HD2  317   3.802   5.561   3.731
   18HIS      C  318   3.314   5.664   3.889
   18HIS      O  319   3.290   5.743   3.981
   19HIS      N  320   3.224   5.638   3.794
   19HIS      H  321   3.250   5.575   3.720
   19HIS     CA  322   3.090   5.696   3.793
   19HIS     HA  323   3.099   5.782   3.843
   19HIS     CB  324   3.047   5.723   3.648
   19HIS    HB1  325   2.949   5.742   3.646
   19HIS    HB2  326   3.067   5.643   3.592
   19HIS     CG  327   3.120   5.841   3.589
   19HIS    ND1  328   3.110   5.972   3.632
   19HIS    CE1  329   3.191   6.047   3.555
   19HIS    HE1  330   3.203   6.146   3.565
   19HIS    NE2  331   3.251   5.971   3.463
   19HIS    HE2  332   3.316   6.002   3.393
   19HIS    CD2  333   3.206   5.840   3.483
   19HIS    HD2  334   3.233   5.760   3.430
   19HIS      C  335   2.985   5.614   3.870
   19HIS      O  336   2.881   5.668   3.907
   20SER      N  337   3.013   5.487   3.901
   20SER      H  338   3.102   5.451   3.875
   20SER     CA  339   2.920   5.398   3.971
   20SER     HA  340   2.829   5.427   3.939
   20SER     CB  341   2.949   5.253   3.931
   20SER    HB1  342   2.941   5.241   3.832
   20SER    HB2  343   2.886   5.190   3.977
   20SER     OG  344   3.081   5.217   3.968
   20SER     HG  345   3.098   5.122   3.941
   20SER      C  346   2.916   5.415   4.124
   20SER      O  347   2.862   5.330   4.193
   21HIS      N  348   2.975   5.522   4.179
   21HIS      H  349   3.014   5.592   4.118
   21HIS     CA  350   2.987   5.541   4.324
   21HIS     HA  351   2.921   5.478   4.364
   21HIS     CB  352   3.130   5.505   4.370
   21HIS    HB1  353   3.186   5.588   4.371
   21HIS    HB2  354   3.169   5.439   4.306
   21HIS     CG  355   3.133   5.444   4.508
   21HIS    ND1  356   3.063   5.332   4.548
   21HIS    CE1  357   3.093   5.308   4.676
   21HIS    HE1  358   3.055   5.234   4.731
   21HIS    NE2  359   3.182   5.398   4.721
   21HIS    HE2  360   3.223   5.402   4.812
   21HIS    CD2  361   3.206   5.487   4.616
   21HIS    HD2  362   3.265   5.567   4.619
   21HIS      C  363   2.942   5.680   4.373
   21HIS      O  364   2.983   5.724   4.480
   22ARG      N  365   2.859   5.751   4.295
   22ARG      H  366   2.828   5.710   4.209
   22ARG     CA  367   2.813   5.887   4.329
   22ARG     HA  368   2.849   5.906   4.420
   22ARG     CB  369   2.875   5.988   4.230
   22ARG    HB1  370   2.812   6.000   4.153
   22ARG    HB2  371   2.962   5.953   4.198
   22ARG     CG  372   2.897   6.124   4.298
   22ARG    HG1  373   2.954   6.111   4.380
   22ARG    HG2  374   2.808   6.162   4.325
   22ARG     CD  375   2.967   6.221   4.203
   22ARG    HD1  376   2.917   6.225   4.116
   22ARG    HD2  377   3.061   6.191   4.187
   22ARG     NE  378   2.971   6.356   4.261
   22ARG     HE  379   2.927   6.368   4.350
   22ARG     CZ  380   3.027   6.463   4.207
   22ARG    NH1  381   3.093   6.457   4.095
   22ARG   HH11  382   3.102   6.370   4.047
   22ARG   HH12  383   3.134   6.540   4.056
   22ARG    NH2  384   3.017   6.579   4.266
   22ARG   HH21  385   2.967   6.587   4.352
   22ARG   HH22  386   3.060   6.660   4.225
   22ARG      C  387   2.662   5.899   4.347
   22ARG      O  388   2.605   6.004   4.322
   23GLY      N  389   2.598   5.791   4.392
   23GLY      H  390   2.650   5.707   4.407
   23GLY     CA  391   2.454   5.790   4.421
   23GLY    HA1  392   2.406   5.771   4.336
   23GLY    HA2  393   2.429   5.882   4.454
   23GLY      C  394   2.418   5.687   4.526
   23GLY      O  395   2.361   5.585   4.489
   24TYR      N  396   2.456   5.712   4.651
   24TYR      H  397   2.541   5.764   4.662
   24TYR     CA  398   2.389   5.673   4.776
   24TYR     HA  399   2.291   5.683   4.758
   24TYR     CB  400   2.412   5.526   4.815
   24TYR    HB1  401   2.409   5.518   4.915
   24TYR    HB2  402   2.502   5.498   4.782
   24TYR     CG  403   2.309   5.432   4.756
   24TYR    CD1  404   2.178   5.429   4.809
   24TYR    HD1  405   2.156   5.485   4.889
   24TYR    CE1  406   2.080   5.347   4.750
   24TYR    HE1  407   1.987   5.345   4.788
   24TYR     CZ  408   2.112   5.269   4.637
   24TYR     OH  409   2.017   5.193   4.577
   24TYR     HH  410   2.057   5.145   4.499
   24TYR    CE2  411   2.243   5.271   4.585
   24TYR    HE2  412   2.266   5.215   4.505
   24TYR    CD2  413   2.341   5.350   4.646
   24TYR    HD2  414   2.435   5.350   4.611
   24TYR      C  415   2.436   5.767   4.887
   24TYR    OC1  416   2.349   5.805   4.967
   24TYR    OC2  417   2.555   5.805   4.882
   25SOL     OW  418   1.736   0.839   0.257
   25SOL    HW2  419   1.777   0.781   0.322
   25SOL    HW3  420   1.643   0.831   0.274
   25SOL    MW4  421   1.730   0.831   0.267
   26SOL     OW  422   1.602   0.771   1.252
   26SOL    HW2  423   1.557   0.838   1.303
   26SOL    HW3  424   1.690   0.807   1.238
   26SOL    MW4  425   1.608   0.784   1.256
   27SOL     OW  426   0.530   1.022   0.486
   27SOL    HW2  427   0.620   0.997   0.470
   27SOL    HW3  428   0.526   1.115   0.463
   27SOL    MW4  429   0.542   1.031   0.481
   28SOL     OW  430   1.646   1.725   0.628
   28SOL    HW2  431   1.658   1.671   0.706
   28SOL    HW3  432   1.683   1.673   0.557
   28SOL    MW4  433   1.652   1.710   0.629
   29SOL     OW  434   1.025   1.610   1.629
   29SOL    HW2  435   1.066   1.646   1.550
   29SOL    HW3  436   1.060   1.521   1.636
   29SOL    MW4  437   1.036   1.603   1.620
   30SOL     OW  438   1.582   1.165   1.233
   30SOL    HW2  439   1.503   1.130   1.191
   30SOL    HW3  440   1.609   1.237   1.177
   30SOL    MW4  441   1.575   1.170   1.220
   31SOL     OW  442   0.814   0.478   0.499
   31SOL    HW2  443   0.789   0.566   0.527
   31SOL    HW3  444   0.811   0.481   0.403
   31SOL    MW4  445   0.810   0.490   0.491
   32SOL     OW  446   0.256   0.506   0.427
   32SOL    HW2  447   0.288   0.594   0.409
   32SOL    HW3  448   0.244   0.504   0.522
   32SOL    MW4  449   0.259   0.518   0.439
   33SOL     OW  450   0.334   0.919   1.328
   33SOL    HW2  451   0.397   0.866   1.279
   33SOL    HW3  452   0.315   0.993   1.271
   33SOL    MW4  453   0.340   0.921   1.315
   34SOL     OW  454   0.655   0.261   0.514
   34SOL    HW2  455   0.713   0.337   0.516
   34SOL    HW3  456   0.590   0.282   0.447
   34SOL    MW4  457   0.654   0.273   0.505
   35SOL     OW  458   0.742   1.188   0.689
   35SOL    HW2  459   0.822   1.191   0.741
   35SOL    HW3  460   0.770   1.155   0.603
   35SOL    MW4  461   0.756   1.184   0.684
   36SOL     OW  462   0.767   1.529   1.592
   36SOL    HW2  463   0.851   1.555   1.631
   36SOL    HW3  464   0.791   1.473   1.518
   36SOL    MW4  465   0.781   1.525   1.587
   37SOL     OW  466   0.519   0.692   0.680
   37SOL    HW2  467   0.504   0.612   0.731
   37SOL    HW3  468   0.601   0.727   0.714
   37SOL    MW4  469   0.527   0.684   0.692
   38SOL     OW  470   0.856   1.378   1.365
   38SOL    HW2  471   0.820   1.444   1.305
   38SOL    HW3  472   0.784   1.316   1.378
   38SOL    MW4  473   0.842   1.378   1.359
   39SOL     OW  474   0.661   0.518   1.057
   39SOL    HW2  475   0.567   0.514   1.075
   39SOL    HW3  476   0.691   0.427   1.066
   39SOL    MW4  477   0.652   0.506   1.060
   40SOL     OW  478   0.407   0.932   0.961
   40SOL    HW2  479   0.362   0.939   0.877
   40SOL    HW3  480   0.387   1.015   1.005
   40SOL    MW4  481   0.399   0.944   0.955
   41SOL     OW  482   0.104   1.778   0.836
   41SOL    HW2  483   0.193   1.770   0.871
   41SOL    HW3  484   0.068   1.690   0.841
   41SOL    MW4  485   0.111   1.765   0.841
   42SOL     OW  486   1.369   1.170   0.205
   42SOL    HW2  487   1.287   1.206   0.171
   42SOL    HW3  488   1.437   1.213   0.154
   42SOL    MW4  489   1.367   1.180   0.193
   43SOL     OW  490   0.368   1.305   0.871
   43SOL    HW2  491   0.344   1.358   0.947
   43SOL    HW3  492   0.424   1.363   0.819
   43SOL    MW4  493   0.372   1.320   0.874
   44SOL     OW  494   0.930   0.949   0.681
   44SOL    HW2  495   0.844   0.936   0.721
   44SOL    HW3  496   0.983   0.876   0.713
   44SOL    MW4  497   0.926   0.938   0.690
   45SOL     OW  498   0.338   1.601   1.466
   45SOL    HW2  499   0.246   1.577   1.451
   45SOL    HW3  500   0.382   1.518   1.483
   45SOL    MW4  501   0.332   1.586   1.465
   46SOL     OW  502   0.921   1.311   0.398
   46SOL    HW2  503   0.898   1.373   0.466
   46SOL    HW3  504   0.878   1.229   0.424
   46SOL    MW4  505   0.913   1.307   0.409
   47SOL     OW  506   1.794   0.312   0.854
   47SOL    HW2  507   1.731   0.292   0.923
   47SOL    HW3  508   1.784   0.241   0.791
   47SOL    MW4  509   1.784   0.299   0.855
   48SOL     OW  510   0.418   0.284   0.366
   48SOL    HW2  511   0.392   0.246   0.282
   48SOL    HW3  512   0.355   0.354   0.382
   48SOL    MW4  513   0.407   0.287   0.357
   49SOL     OW  514   0.253   1.245   0.403
   49SOL    HW2  515   0.201   1.313   0.359
   49SOL    HW3  516   0.250   1.171   0.343
   49SOL    MW4  517   0.245   1.244   0.390
   50SOL     OW  518   0.915   1.708   0.181
   50SOL    HW2  519   0.870   1.724   0.264
   50SOL    HW3  520   0.846   1.673   0.123
   50SOL    MW4  521   0.901   1.705   0.183
   51SOL     OW  522   1.850   0.481   0.156
   51SOL    HW2  523   1.759   0.483   0.184
   51SOL    HW3  524   1.895   0.543   0.214
   51SOL    MW4  525   1.843   0.489   0.166
   52SOL     OW  526   1.595   1.084   0.506
   52SOL    HW2  527   1.505   1.084   0.541
   52SOL    HW3  528   1.588   1.130   0.423
   52SOL    MW4  529   1.582   1.090   0.500
   53SOL     OW  530   1.395   0.719   1.578
   53SOL    HW2  531   1.464   0.657   1.555
   53SOL    HW3  532   1.320   0.693   1.525
   53SOL    MW4  533   1.395   0.706   1.569
   54SOL     OW  534   0.136   1.599   1.130
   54SOL    HW2  535   0.119   1.545   1.207
   54SOL    HW3  536   0.124   1.689   1.160
   54SOL    MW4  537   0.133   1.603   1.144
   55SOL     OW  538   1.131   1.106   1.570
   55SOL    HW2  539   1.116   1.199   1.555
   55SOL    HW3  540   1.226   1.096   1.570
   55SOL    MW4  541   1.140   1.116   1.567
   56SOL     OW  542   0.927   0.530   1.771
   56SOL    HW2  543   1.017   0.531   1.738
   56SOL    HW3  544   0.886   0.455   1.729
   56SOL    MW4  545   0.933   0.520   1.762
   57SOL     OW  546   1.502   1.062   0.898
   57SOL    HW2  547   1.505   0.996   0.829
   57SOL    HW3  548   1.587   1.105   0.894
   57SOL    MW4  549   1.514   1.058   0.889
   58SOL     OW  550   1.122   0.665   0.467
   58SOL    HW2  551   1.148   0.689   0.378
   58SOL    HW3  552   1.104   0.572   0.463
   58SOL    MW4  553   1.124   0.657   0.454
   59SOL     OW  554   1.787   1.285   0.318
   59SOL    HW2  555   1.743   1.326   0.393
   59SOL    HW3  556   1.844   1.353   0.283
   59SOL    MW4  557   1.789   1.299   0.323
   60SOL     OW  558   0.707   0.334   1.721
   60SOL    HW2  559   0.717   0.260   1.661
   60SOL    HW3  560   0.743   0.303   1.804
   60SOL    MW4  561   0.713   0.320   1.723
   61SOL     OW  562   0.443   1.701   0.636
   61SOL    HW2  563   0.475   1.789   0.614
   61SOL    HW3  564   0.396   1.673   0.558
   61SOL    MW4  565   0.442   1.709   0.623
   62SOL     OW  566   1.827   0.063   0.685
   62SOL    HW2  567   1.881   0.014   0.747
   62SOL    HW3  568   1.770  -0.003   0.646
   62SOL    MW4  569   1.827   0.047   0.687
   63SOL     OW  570   0.159   1.761   0.213
   63SOL    HW2  571   0.188   1.851   0.205
   63SOL    HW3  572   0.109   1.744   0.134
   63SOL    MW4  573   0.157   1.769   0.202
   64SOL     OW  574   0.946   0.016   1.098
   64SOL    HW2  575   0.905   0.094   1.060
   64SOL    HW3  576   1.040   0.034   1.093
   64SOL    MW4  577   0.952   0.028   1.093
   65SOL     OW  578   1.563   1.569   0.184
   65SOL    HW2  579   1.611   1.638   0.230
   65SOL    HW3  580   1.484   1.613   0.153
   65SOL    MW4  581   1.558   1.583   0.187
   66SOL     OW  582   0.961   0.694   0.128
   66SOL    HW2  583   0.963   0.641   0.049
   66SOL    HW3  584   1.049   0.731   0.134
   66SOL    MW4  585   0.973   0.693   0.117
   67SOL     OW  586   1.575   0.620   0.464
   67SOL    HW2  587   1.614   0.620   0.551
   67SOL    HW3  588   1.516   0.696   0.464
   67SOL    MW4  589   1.572   0.631   0.475
   68SOL     OW  590   0.892   0.987   1.593
   68SOL    HW2  591   0.869   0.967   1.683
   68SOL    HW3  592   0.977   1.031   1.598
   68SOL    MW4  593   0.899   0.990   1.605
   69SOL     OW  594   0.972   0.124   1.353
   69SOL    HW2  595   0.978   0.086   1.266
   69SOL    HW3  596   0.961   0.218   1.338
   69SOL    MW4  597   0.973   0.132   1.341
   70SOL     OW  598   1.061   0.613   1.187
   70SOL    HW2  599   1.136   0.642   1.134
   70SOL    HW3  600   0.993   0.678   1.171
   70SOL    MW4  601   1.062   0.625   1.177
   71SOL     OW  602   1.611   0.581   1.464
   71SOL    HW2  603   1.592   0.490   1.443
   71SOL    HW3  604   1.589   0.630   1.385
   71SOL    MW4  605   1.606   0.574   1.451
   72SOL     OW  606   1.753   1.675   1.368
   72SOL    HW2  607   1.681   1.637   1.419
   72SOL    HW3  608   1.770   1.760   1.409
   72SOL    MW4  609   1.747   1.680   1.380
   73SOL     OW  610   1.058   0.319   1.570
   73SOL    HW2  611   1.024   0.358   1.489
   73SOL    HW3  612   1.036   0.227   1.563
   73SOL    MW4  613   1.051   0.312   1.560
   74SOL     OW  614   1.467   1.133   1.646
   74SOL    HW2  615   1.549   1.174   1.676
   74SOL    HW3  616   1.430   1.095   1.726
   74SOL    MW4  617   1.473   1.134   1.661
   75SOL     OW  618   1.762   0.506   0.630
   75SOL    HW2  619   1.851   0.475   0.647
   75SOL    HW3  620   1.705   0.446   0.678
   75SOL    MW4  621   1.765   0.494   0.639
   76SOL     OW  622   0.188   0.220   0.659
   76SOL    HW2  623   0.179   0.160   0.585
   76SOL    HW3  624   0.121   0.191   0.722
   76SOL    MW4  625   0.178   0.207   0.657
   77SOL     OW  626   1.131   1.313   0.220
   77SOL    HW2  627   1.081   1.315   0.302
   77SOL    HW3  628   1.065   1.331   0.152
   77SOL    MW4  629   1.117   1.315   0.222
   78SOL     OW  630   0.135   0.393   1.022
   78SOL    HW2  631   0.107   0.484   1.031
   78SOL    HW3  632   0.072   0.354   0.961
   78SOL    MW4  633   0.122   0.399   1.016
   79SOL     OW  634   0.594   1.731   0.328
   79SOL    HW2  635   0.515   1.689   0.361
   79SOL    HW3  636   0.660   1.714   0.395
   79SOL    MW4  637   0.593   1.723   0.341
   80SOL     OW  638   1.722   1.251   1.725
   80SOL    HW2  639   1.772   1.177   1.757
   80SOL    HW3  640   1.668   1.278   1.800
   80SOL    MW4  641   1.722   1.245   1.738
   81SOL     OW  642   0.730   1.146   0.035
   81SOL    HW2  643   0.652   1.092   0.022
   81SOL    HW3  644   0.701   1.219   0.088
   81SOL    MW4  645   0.716   1.148   0.040
   82SOL     OW  646   1.856   0.886   1.227
   82SOL    HW2  647   1.872   0.924   1.140
   82SOL    HW3  648   1.890   0.952   1.288
   82SOL    MW4  649   1.863   0.899   1.223
   83SOL     OW  650   1.648   1.595   0.896
   83SOL    HW2  651   1.677   1.662   0.957
   83SOL    HW3  652   1.629   1.519   0.951
   83SOL    MW4  653   1.650   1.595   0.911
   84SOL     OW  654   1.311   1.662   0.103
   84SOL    HW2  655   1.237   1.625   0.153
   84SOL    HW3  656   1.319   1.752   0.136
   84SOL    MW4  657   1.302   1.669   0.115
   85SOL     OW  658   0.119   0.668   1.192
   85SOL    HW2  659   0.181   0.698   1.258
   85SOL    HW3  660   0.053   0.737   1.186
   85SOL    MW4  661   0.118   0.681   1.199
   86SOL     OW  662   1.535   1.336   0.045
   86SOL    HW2  663   1.482   1.385  -0.019
   86SOL    HW3  664   1.566   1.402   0.106
   86SOL    MW4  665   1.533   1.350   0.043
   87SOL     OW  666   0.760   0.225   0.100
   87SOL    HW2  667   0.708   0.145   0.088
   87SOL    HW3  668   0.847   0.202   0.068
   87SOL    MW4  669   0.763   0.211   0.094
   88SOL     OW  670   0.214   1.777   1.644
   88SOL    HW2  671   0.188   1.845   1.582
   88SOL    HW3  672   0.262   1.714   1.592
   88SOL    MW4  673   0.216   1.777   1.630
   89SOL     OW  674   0.266   1.096   1.151
   89SOL    HW2  675   0.319   1.171   1.176
   89SOL    HW3  676   0.185   1.134   1.117
   89SOL    MW4  677   0.262   1.111   1.151
   90SOL     OW  678   0.806   1.000   1.139
   90SOL    HW2  679   0.834   0.909   1.151
   90SOL    HW3  680   0.735   0.994   1.075
   90SOL    MW4  681   0.799   0.988   1.134
   91SOL     OW  682   0.121   0.865   0.557
   91SOL    HW2  683   0.212   0.880   0.584
   91SOL    HW3  684   0.124   0.786   0.503
   91SOL    MW4  685   0.133   0.857   0.555
   92SOL     OW  686   0.357   0.573   1.811
   92SOL    HW2  687   0.304   0.653   1.818
   92SOL    HW3  688   0.427   0.585   1.876
   92SOL    MW4  689   0.359   0.586   1.819
   93SOL     OW  690   0.743   0.123   1.518
   93SOL    HW2  691   0.720   0.031   1.520
   93SOL    HW3  692   0.829   0.125   1.475
   93SOL    MW4  693   0.750   0.113   1.514
   94SOL     OW  694   0.427   0.647   1.557
   94SOL    HW2  695   0.507   0.697   1.543
   94SOL    HW3  696   0.418   0.641   1.652
   94SOL    MW4  697   0.436   0.653   1.567
   95SOL     OW  698   0.748   1.797   0.931
   95SOL    HW2  699   0.837   1.812   0.961
   95SOL    HW3  700   0.743   1.844   0.847
   95SOL    MW4  701   0.758   1.805   0.924
   96SOL     OW  702   1.404   0.172   1.828
   96SOL    HW2  703   1.460   0.099   1.854
   96SOL    HW3  704   1.374   0.210   1.910
   96SOL    MW4  705   1.408   0.167   1.841
   97SOL     OW  706   0.129   1.477   0.596
   97SOL    HW2  707   0.101   1.516   0.678
   97SOL    HW3  708   0.149   1.386   0.618
   97SOL    MW4  709   0.127   1.469   0.609
   98SOL     OW  710   0.962   1.520   0.631
   98SOL    HW2  711   1.045   1.474   0.615
   98SOL    HW3  712   0.952   1.519   0.727
   98SOL    MW4  713   0.972   1.513   0.641
   99SOL     OW  714   1.794   0.665   0.945
   99SOL    HW2  715   1.883   0.695   0.927
   99SOL    HW3  716   1.774   0.605   0.874
   99SOL    MW4  717   1.803   0.662   0.934
  100SOL     OW  718   1.645   0.844   1.825
  100SOL    HW2  719   1.700   0.768   1.806
  100SOL    HW3  720   1.647   0.852   1.920
  100SOL    MW4  721   1.653   0.835   1.833
  101SOL     OW  722   0.695   1.577   0.036
  101SOL    HW2  723   0.635   1.646   0.006
  101SOL    HW3  724   0.640   1.519   0.089
  101SOL    MW4  725   0.679   1.579   0.038
  102SOL     OW  726   1.133   0.222   0.259
  102SOL    HW2  727   1.066   0.198   0.196
  102SOL    HW3  728   1.198   0.271   0.208
  102SOL    MW4  729   1.133   0.224   0.244
  103SOL     OW  730   0.940   0.406   1.344
  103SOL    HW2  731   0.859   0.447   1.372
  103SOL    HW3  732   0.987   0.474   1.296
  103SOL    MW4  733   0.935   0.421   1.342
  104SOL     OW  734   1.200   0.744   0.967
  104SOL    HW2  735   1.213   0.838   0.977
  104SOL    HW3  736   1.161   0.734   0.881
  104SOL    MW4  737   1.196   0.755   0.957
  105SOL     OW  738   0.652   0.939   0.771
  105SOL    HW2  739   0.563   0.930   0.804
  105SOL    HW3  740   0.656   1.029   0.739
  105SOL    MW4  741   0.641   0.950   0.771
  106SOL     OW  742   1.451   0.522   0.766
  106SOL    HW2  743   1.396   0.443   0.765
  106SOL    HW3  744   1.433   0.563   0.850
  106SOL    MW4  745   1.441   0.517   0.775
  107SOL     OW  746   0.422   0.209   1.583
  107SOL    HW2  747   0.343   0.227   1.635
  107SOL    HW3  748   0.417   0.271   1.510
  107SOL    MW4  749   0.412   0.219   1.580
  108SOL     OW  750   1.070   0.726   0.723
  108SOL    HW2  751   1.007   0.658   0.747
  108SOL    HW3  752   1.090   0.707   0.631
  108SOL    MW4  753   1.064   0.713   0.715
  109SOL     OW  754   0.326   1.621   0.425
  109SOL    HW2  755   0.287   1.668   0.351
  109SOL    HW3  756   0.260   1.556   0.450
  109SOL    MW4  757   0.313   1.619   0.419
  110SOL     OW  758   0.818   1.030   0.449
  110SOL    HW2  759   0.820   1.004   0.356
  110SOL    HW3  760   0.876   0.967   0.492
  110SOL    MW4  761   0.826   1.019   0.443
  111SOL     OW  762   1.371   1.590   1.221
  111SOL    HW2  763   1.296   1.636   1.259
  111SOL    HW3  764   1.353   1.497   1.238
  111SOL    MW4  765   1.360   1.584   1.229
  112SOL     OW  766   1.375   1.798   0.651
  112SOL    HW2  767   1.318   1.751   0.590
  112SOL    HW3  768   1.461   1.759   0.638
  112SOL    MW4  769   1.378   1.789   0.641
  113SOL     OW  770   1.328   0.274   0.782
  113SOL    HW2  771   1.356   0.206   0.843
  113SOL    HW3  772   1.242   0.245   0.752
  113SOL    MW4  773   1.321   0.261   0.786
  114SOL     OW  774   0.133   1.208   0.716
  114SOL    HW2  775   0.197   1.240   0.779
  114SOL    HW3  776   0.182   1.144   0.664
  114SOL    MW4  777   0.148   1.204   0.717
  115SOL     OW  778   0.633   1.284   1.698
  115SOL    HW2  779   0.681   1.367   1.685
  115SOL    HW3  780   0.690   1.232   1.754
  115SOL    MW4  781   0.647   1.288   1.704
  116SOL     OW  782   0.209   1.526   1.838
  116SOL    HW2  783   0.265   1.450   1.853
  116SOL    HW3  784   0.158   1.504   1.760
  116SOL    MW4  785   0.209   1.513   1.829
  117SOL     OW  786   1.308   0.378   0.117
  117SOL    HW2  787   1.281   0.444   0.053
  117SOL    HW3  788   1.378   0.421   0.167
  117SOL    MW4  789   1.313   0.391   0.114
  118SOL     OW  790   0.976   0.083   0.054
  118SOL    HW2  791   1.032   0.075  -0.024
  118SOL    HW3  792   0.953  -0.007   0.076
  118SOL    MW4  793   0.981   0.070   0.047
  119SOL     OW  794   1.481   0.934   0.259
  119SOL    HW2  795   1.448   1.023   0.249
  119SOL    HW3  796   1.446   0.905   0.344
  119SOL    MW4  797   1.471   0.943   0.270
  120SOL     OW  798   1.094   1.363   1.447
  120SOL    HW2  799   1.005   1.369   1.415
  120SOL    HW3  800   1.138   1.442   1.415
  120SOL    MW4  801   1.089   1.373   1.439
  121SOL     OW  802   0.387   0.031   1.789
  121SOL    HW2  803   0.315  -0.004   1.737
  121SOL    HW3  804   0.445   0.072   1.724
  121SOL    MW4  805   0.385   0.032   1.774
  122SOL     OW  806   0.411   1.521   1.088
  122SOL    HW2  807   0.456   1.583   1.145
  122SOL    HW3  808   0.318   1.540   1.101
  122SOL    MW4  809   0.404   1.531   1.095
  123SOL     OW  810   1.851   1.050   1.442
  123SOL    HW2  811   1.766   1.063   1.401
  123SOL    HW3  812   1.831   1.014   1.529
  123SOL    MW4  813   1.838   1.046   1.447
  124SOL     OW  814   0.833   1.589   1.196
  124SOL    HW2  815   0.857   1.578   1.105
  124SOL    HW3  816   0.756   1.646   1.194
  124SOL    MW4  817   0.825   1.594   1.185
  125SOL     OW  818   0.475   0.972   0.051
  125SOL    HW2  819   0.398   0.985   0.107
  125SOL    HW3  820   0.439   0.936  -0.030
  125SOL    MW4  821   0.461   0.968   0.048
  126SOL     OW  822   1.128   0.945   0.294
  126SOL    HW2  823   1.038   0.966   0.269
  126SOL    HW3  824   1.155   1.018   0.350
  126SOL    MW4  825   1.120   0.957   0.297
  127SOL     OW  826   0.628   1.294   0.986
  127SOL    HW2  827   0.621   1.273   1.080
  127SOL    HW3  828   0.546   1.262   0.949
  127SOL    MW4  829   0.616   1.288   0.993
  128SOL     OW  830   1.492   0.304   1.388
  128SOL    HW2  831   1.439   0.306   1.468
  128SOL    HW3  832   1.477   0.217   1.351
  128SOL    MW4  833   1.484   0.294   1.393
  129SOL     OW  834   1.828   0.228   1.261
  129SOL    HW2  835   1.809   0.295   1.196
  129SOL    HW3  836   1.885   0.166   1.216
  129SOL    MW4  837   1.832   0.229   1.247
  130SOL     OW  838   0.074   1.386   1.649
  130SOL    HW2  839   0.118   1.319   1.595
  130SOL    HW3  840  -0.011   1.348   1.669
  130SOL    MW4  841   0.069   1.372   1.645
  131SOL     OW  842   0.757   0.061   0.701
  131SOL    HW2  843   0.686   0.122   0.683
  131SOL    HW3  844   0.808   0.058   0.620
  131SOL    MW4  845   0.753   0.067   0.688
  132SOL     OW  846   0.515   1.301   0.450
  132SOL    HW2  847   0.508   1.333   0.540
  132SOL    HW3  848   0.425   1.285   0.422
  132SOL    MW4  849   0.503   1.303   0.457
  133SOL     OW  850   1.110   1.694   1.359
  133SOL    HW2  851   1.030   1.679   1.309
  133SOL    HW3  852   1.117   1.789   1.366
  133SOL    MW4  853   1.101   1.705   1.353
  134SOL     OW  854   1.224   1.659   0.849
  134SOL    HW2  855   1.271   1.732   0.808
  134SOL    HW3  856   1.145   1.698   0.885
  134SOL    MW4  857   1.219   1.674   0.848
  135SOL     OW  858   1.632   1.754   1.124
  135SOL    HW2  859   1.675   1.724   1.204
  135SOL    HW3  860   1.551   1.702   1.121
  135SOL    MW4  861   1.627   1.743   1.134
  136SOL     OW  862   0.717   0.718   1.831
  136SOL    HW2  863   0.787   0.660   1.803
  136SOL    HW3  864   0.660   0.663   1.886
  136SOL    MW4  865   0.719   0.705   1.835
  137SOL     OW  866   1.504   0.930   1.464
  137SOL    HW2  867   1.509   0.983   1.544
  137SOL    HW3  868   1.466   0.847   1.492
  137SOL    MW4  869   1.500   0.925   1.479
  138SOL     OW  870   1.144   0.065   1.710
  138SOL    HW2  871   1.139  -0.028   1.691
  138SOL    HW3  872   1.227   0.076   1.756
  138SOL    MW4  873   1.152   0.054   1.714
  139SOL     OW  874   0.518   0.585   0.164
  139SOL    HW2  875   0.484   0.641   0.234
  139SOL    HW3  876   0.589   0.535   0.204
  139SOL    MW4  877   0.524   0.586   0.178
  140SOL     OW  878   1.043   0.984   1.355
  140SOL    HW2  879   1.086   1.019   1.433
  140SOL    HW3  880   1.026   1.061   1.301
  140SOL    MW4  881   1.046   0.999   1.358
  141SOL     OW  882   1.574   0.471   0.228
  141SOL    HW2  883   1.566   0.542   0.165
  141SOL    HW3  884   1.592   0.515   0.311
  141SOL    MW4  885   1.575   0.485   0.230
  142SOL     OW  886   0.434   0.126   0.657
  142SOL    HW2  887   0.484   0.169   0.588
  142SOL    HW3  888   0.349   0.170   0.657
  142SOL    MW4  889   0.431   0.139   0.648
  143SOL     OW  890   0.193   1.188   1.517
  143SOL    HW2  891   0.221   1.141   1.595
  143SOL    HW3  892   0.114   1.143   1.488
  143SOL    MW4  893   0.186   1.177   1.523
  144SOL     OW  894   0.701   0.515   1.484
  144SOL    HW2  895   0.673   0.603   1.508
  144SOL    HW3  896   0.670   0.459   1.555
  144SOL    MW4  897   0.693   0.518   1.496
  145SOL     OW  898   1.243   0.733   0.203
  145SOL    HW2  899   1.290   0.751   0.122
  145SOL    HW3  900   1.209   0.817   0.231
  145SOL    MW4  901   1.245   0.747   0.196
  146SOL     OW  902   0.356   0.911   0.697
  146SOL    HW2  903   0.414   0.967   0.645
  146SOL    HW3  904   0.400   0.826   0.699
  146SOL    MW4  905   0.369   0.908   0.690
  147SOL     OW  906   1.496   0.263   0.534
  147SOL    HW2  907   1.418   0.213   0.559
  147SOL    HW3  908   1.467   0.354   0.534
  147SOL    MW4  909   1.482   0.267   0.537
  148SOL     OW  910   1.082   0.225   0.693
  148SOL    HW2  911   1.102   0.300   0.637
  148SOL    HW3  912   1.062   0.264   0.778
  148SOL    MW4  913   1.083   0.241   0.697
  149SOL     OW  914   0.978   1.475   0.025
  149SOL    HW2  915   1.005   1.553  -0.023
  149SOL    HW3  916   0.885   1.490   0.044
  149SOL    MW4  917   0.969   1.488   0.021
  150SOL     OW  918   1.842   0.998   1.712
  150SOL    HW2  919   1.755   0.978   1.748
  150SOL    HW3  920   1.896   0.924   1.737
  150SOL    MW4  921   1.837   0.987   1.720
  151SOL     OW  922   0.063   1.511   0.869
  151SOL    HW2  923   0.095   1.515   0.960
  151SOL    HW3  924  -0.032   1.519   0.877
  151SOL    MW4  925   0.055   1.514   0.882
  152SOL     OW  926   0.018   0.637   0.416
  152SOL    HW2  927  -0.042   0.609   0.486
  152SOL    HW3  928   0.092   0.577   0.422
  152SOL    MW4  929   0.020   0.626   0.425
  153SOL     OW  930   1.586   1.849   1.850
  153SOL    HW2  931   1.631   1.773   1.815
  153SOL    HW3  932   1.624   1.862   1.937
  153SOL    MW4  933   1.596   1.842   1.856
  154SOL     OW  934   1.186   1.368   0.576
  154SOL    HW2  935   1.209   1.319   0.654
  154SOL    HW3  936   1.267   1.410   0.548
  154SOL    MW4  937   1.199   1.368   0.583
  155SOL     OW  938   0.444   0.376   1.305
  155SOL    HW2  939   0.477   0.457   1.345
  155SOL    HW3  940   0.417   0.402   1.217
  155SOL    MW4  941   0.443   0.390   1.299
  156SOL     OW  942   0.398   0.343   1.041
  156SOL    HW2  943   0.428   0.257   1.012
  156SOL    HW3  944   0.303   0.336   1.044
  156SOL    MW4  945   0.390   0.332   1.039
  157SOL     OW  946   1.227   0.552   1.732
  157SOL    HW2  947   1.279   0.487   1.685
  157SOL    HW3  948   1.185   0.603   1.662
  157SOL    MW4  949   1.228   0.549   1.715
  158SOL     OW  950   1.326   0.347   1.593
  158SOL    HW2  951   1.233   0.331   1.580
  158SOL    HW3  952   1.352   0.285   1.661
  158SOL    MW4  953   1.316   0.337   1.600
  159SOL     OW  954   0.541   0.121   0.932
  159SOL    HW2  955   0.551   0.030   0.958
  159SOL    HW3  956   0.497   0.117   0.847
  159SOL    MW4  957   0.537   0.109   0.924
  160SOL     OW  958   0.635   1.736   1.478
  160SOL    HW2  959   0.552   1.721   1.523
  160SOL    HW3  960   0.694   1.669   1.513
  160SOL    MW4  961   0.633   1.726   1.488
  161SOL     OW  962   1.692   0.443   1.103
  161SOL    HW2  963   1.625   0.476   1.163
  161SOL    HW3  964   1.735   0.521   1.069
  161SOL    MW4  965   1.690   0.458   1.107
  162SOL     OW  966   1.870   1.163   1.073
  162SOL    HW2  967   1.863   1.103   0.998
  162SOL    HW3  968   1.796   1.223   1.062
  162SOL    MW4  969   1.860   1.163   1.062
  163SOL     OW  970   1.252   1.025   0.991
  163SOL    HW2  971   1.266   0.997   1.082
  163SOL    HW3  972   1.338   1.056   0.963
  163SOL    MW4  973   1.265   1.026   1.000
  164SOL     OW  974   1.335   0.520   1.270
  164SOL    HW2  975   1.356   0.521   1.177
  164SOL    HW3  976   1.380   0.442   1.303
  164SOL    MW4  977   1.342   0.510   1.262
  165SOL     OW  978   1.828   0.651   1.812
  165SOL    HW2  979   1.865   0.596   1.881
  165SOL    HW3  980   1.853   0.608   1.730
  165SOL    MW4  981   1.835   0.639   1.811
  166SOL     OW  982   1.375   0.949   1.863
  166SOL    HW2  983   1.441   0.897   1.817
  166SOL    HW3  984   1.395   0.936   1.956
  166SOL    MW4  985   1.386   0.940   1.870
  167SOL     OW  986   1.326   0.035   0.212
  167SOL    HW2  987   1.400   0.079   0.255
  167SOL    HW3  988   1.250   0.089   0.234
  167SOL    MW4  989   1.326   0.047   0.220
  168SOL     OW  990   1.386   0.810   0.490
  168SOL    HW2  991   1.301   0.780   0.460
  168SOL    HW3  992   1.378   0.817   0.585
  168SOL    MW4  993   1.374   0.808   0.499
  169SOL     OW  994   0.462   1.273   1.221
  169SOL    HW2  995   0.474   1.300   1.312
  169SOL    HW3  996   0.443   1.354   1.174
  169SOL    MW4  997   0.461   1.288   1.226
  170SOL     OW  998   0.746   0.253   1.044
  170SOL    HW2  999   0.719   0.255   1.135
  170SOL    HW3 1000   0.676   0.205   0.999
  170SOL    MW4 1001   0.734   0.249   1.051
  171SOL     OW 1002   0.600   1.745   1.206
  171SOL    HW2 1003   0.652   1.822   1.183
  171SOL    HW3 1004   0.609   1.737   1.301
  171SOL    MW4 1005   0.609   1.752   1.217
  172SOL     OW 1006   1.502   1.330   1.438
  172SOL    HW2 1007   1.487   1.259   1.501
  172SOL    HW3 1008   1.548   1.288   1.366
  172SOL    MW4 1009   1.508   1.314   1.438
  173SOL     OW 1010   0.576   1.061   1.555
  173SOL    HW2 1011   0.613   1.066   1.467
  173SOL    HW3 1012   0.615   1.134   1.602
  173SOL    MW4 1013   0.586   1.071   1.550
  174SOL     OW 1014   0.756   1.104   1.367
  174SOL    HW2 1015   0.815   1.050   1.420
  174SOL    HW3 1016   0.771   1.076   1.277
  174SOL    MW4 1017   0.766   1.093   1.363
  175SOL     OW 1018   0.759   0.476   0.216
  175SOL    HW2 1019   0.832   0.525   0.179
  175SOL    HW3 1020   0.775   0.385   0.190
  175SOL    MW4 1021   0.771   0.471   0.209
  176SOL     OW 1022   1.567   1.593   1.539
  176SOL    HW2 1023   1.609   1.578   1.624
  176SOL    HW3 1024   1.558   1.506   1.501
  176SOL    MW4 1025   1.571   1.581   1.546
  177SOL     OW 1026   1.227   0.072   1.130
  177SOL    HW2 1027   1.282   0.081   1.052
  177SOL    HW3 1028   1.282   0.106   1.201
  177SOL    MW4 1029   1.241   0.077   1.129
  178SOL     OW 1030   0.234   0.985   0.314
  178SOL    HW2 1031   0.171   1.001   0.243
  178SOL    HW3 1032   0.181   0.948   0.385
  178SOL    MW4 1033   0.219   0.982   0.314
  179SOL     OW 1034   0.590   1.339   0.173
  179SOL    HW2 1035   0.605   1.315   0.265
  179SOL    HW3 1036   0.498   1.317   0.157
  179SOL    MW4 1037   0.580   1.332   0.183
  180SOL     OW 1038   1.129   1.570   0.325
  180SOL    HW2 1039   1.137   1.488   0.276
  180SOL    HW3 1040   1.048   1.609   0.292
  180SOL    MW4 1041   1.119   1.565   0.315
  181SOL     OW 1042   0.388   1.728   0.894
  181SOL    HW2 1043   0.392   1.639   0.929
  181SOL    HW3 1044   0.414   1.719   0.803
  181SOL    MW4 1045   0.391   1.716   0.886
  182SOL     OW 1046   1.005   1.206   1.137
  182SOL    HW2 1047   0.937   1.140   1.153
  182SOL    HW3 1048   1.023   1.200   1.044
  182SOL    MW4 1049   0.998   1.197   1.128
  183SOL     OW 1050   0.094   1.481   1.388
  183SOL    HW2 1051   0.084   1.439   1.474
  183SOL    HW3 1052   0.015   1.534   1.378
  183SOL    MW4 1053   0.083   1.482   1.399
  184SOL     OW 1054   0.998   0.345   0.958
  184SOL    HW2 1055   0.928   0.297   1.003
  184SOL    HW3 1056   1.030   0.408   1.022
  184SOL    MW4 1057   0.993   0.347   0.972
  185SOL     OW 1058   0.649   0.781   1.578
  185SOL    HW2 1059   0.642   0.876   1.566
  185SOL    HW3 1060   0.658   0.770   1.673
  185SOL    MW4 1061   0.650   0.793   1.588
  186SOL     OW 1062   0.370   1.296   1.836
  186SOL    HW2 1063   0.442   1.298   1.773
  186SOL    HW3 1064   0.340   1.205   1.835
  186SOL    MW4 1065   0.375   1.285   1.828
  187SOL     OW 1066   1.454   0.059   1.303
  187SOL    HW2 1067   1.525   0.005   1.267
  187SOL    HW3 1068   1.453   0.038   1.396
  187SOL    MW4 1069   1.463   0.050   1.311
  188SOL     OW 1070   1.654   1.589   1.787
  188SOL    HW2 1071   1.627   1.586   1.878
  188SOL    HW3 1072   1.750   1.593   1.790
  188SOL    MW4 1073   1.664   1.589   1.799
  189SOL     OW 1074   0.465   0.451   0.771
  189SOL    HW2 1075   0.536   0.399   0.734
  189SOL    HW3 1076   0.451   0.416   0.858
  189SOL    MW4 1077   0.473   0.440   0.778
  190SOL     OW 1078   0.020   1.786   1.843
  190SOL    HW2 1079   0.070   1.764   1.765
  190SOL    HW3 1080   0.028   1.881   1.851
  190SOL    MW4 1081   0.028   1.795   1.834
  191SOL     OW 1082   0.781   1.544   0.847
  191SOL    HW2 1083   0.709   1.481   0.860
  191SOL    HW3 1084   0.742   1.629   0.865
  191SOL    MW4 1085   0.765   1.547   0.850
  192SOL     OW 1086   1.101   0.392   0.495
  192SOL    HW2 1087   1.123   0.329   0.427
  192SOL    HW3 1088   1.006   0.384   0.506
  192SOL    MW4 1089   1.091   0.383   0.487
  193SOL     OW 1090   0.186   0.082   0.427
  193SOL    HW2 1091   0.257   0.103   0.366
  193SOL    HW3 1092   0.140   0.010   0.385
  193SOL    MW4 1093   0.190   0.076   0.413
  194SOL     OW 1094   0.017   0.549   1.570
  194SOL    HW2 1095   0.081   0.615   1.545
  194SOL    HW3 1096  -0.064   0.576   1.527
  194SOL    MW4 1097   0.015   0.561   1.562
  195SOL     OW 1098   1.755   1.456   0.527
  195SOL    HW2 1099   1.725   1.389   0.588
  195SOL    HW3 1100   1.849   1.462   0.541
  195SOL    MW4 1101   1.763   1.448   0.537
  196SOL     OW 1102   1.311   1.133   0.457
  196SOL    HW2 1103   1.283   1.219   0.490
  196SOL    HW3 1104   1.339   1.149   0.367
  196SOL    MW4 1105   1.311   1.147   0.449
  197SOL     OW 1106   0.973   0.053   0.510
  197SOL    HW2 1107   1.010   0.112   0.575
  197SOL    HW3 1108   0.950   0.109   0.436
  197SOL    MW4 1109   0.974   0.068   0.509
  198SOL     OW 1110   1.826   0.935   0.932
  198SOL    HW2 1111   1.817   0.967   0.843
  198SOL    HW3 1112   1.779   0.851   0.932
  198SOL    MW4 1113   1.819   0.928   0.922
  199SOL     OW 1114   0.202   0.775   1.511
  199SOL    HW2 1115   0.223   0.844   1.449
  199SOL    HW3 1116   0.282   0.722   1.516
  199SOL    MW4 1117   0.215   0.776   1.505
  200SOL     OW 1118   1.738   0.866   0.633
  200SOL    HW2 1119   1.832   0.855   0.621
  200SOL    HW3 1120   1.714   0.938   0.574
  200SOL    MW4 1121   1.748   0.874   0.624
  201SOL     OW 1122   0.187   0.790   1.778
  201SOL    HW2 1123   0.113   0.734   1.804
  201SOL    HW3 1124   0.182   0.793   1.683
  201SOL    MW4 1125   0.176   0.783   1.768
  202SOL     OW 1126   0.353   0.077   1.228
  202SOL    HW2 1127   0.396   0.161   1.248
  202SOL    HW3 1128   0.426   0.015   1.221
  202SOL    MW4 1129   0.368   0.080   1.229
  203SOL     OW 1130   0.394   0.744   0.406
  203SOL    HW2 1131   0.394   0.839   0.391
  203SOL    HW3 1132   0.471   0.728   0.460
  203SOL    MW4 1133   0.404   0.755   0.411
  204SOL     OW 1134   1.170   0.603   1.470
  204SOL    HW2 1135   1.206   0.576   1.386
  204SOL    HW3 1136   1.083   0.637   1.449
  204SOL    MW4 1137   1.164   0.604   1.457
  205SOL     OW 1138   0.153   0.475   0.695
  205SOL    HW2 1139   0.215   0.482   0.768
  205SOL    HW3 1140   0.153   0.382   0.672
  205SOL    MW4 1141   0.161   0.464   0.702
  206SOL     OW 1142   1.700   1.815   0.227
  206SOL    HW2 1143   1.767   1.848   0.167
  206SOL    HW3 1144   1.657   1.894   0.261
  206SOL    MW4 1145   1.702   1.830   0.223
  207SOL     OW 1146   0.835   0.736   1.179
  207SOL    HW2 1147   0.793   0.654   1.155
  207SOL    HW3 1148   0.836   0.735   1.275
  207SOL    MW4 1149   0.828   0.725   1.188
  208SOL     OW 1150   1.506   1.869   1.578
  208SOL    HW2 1151   1.509   1.775   1.561
  208SOL    HW3 1152   1.529   1.877   1.670
  208SOL    MW4 1153   1.509   1.857   1.588
  209SOL     OW 1154   0.639   0.206   1.284
  209SOL    HW2 1155   0.570   0.269   1.305
  209SOL    HW3 1156   0.666   0.170   1.369
  209SOL    MW4 1157   0.633   0.209   1.297
  210SOL     OW 1158   0.022   1.047   0.153
  210SOL    HW2 1159  -0.009   1.112   0.216
  210SOL    HW3 1160  -0.029   0.969   0.172
  210SOL    MW4 1161   0.012   1.044   0.163
  211SOL     OW 1162   1.434   0.059   0.901
  211SOL    HW2 1163   1.522   0.068   0.938
  211SOL    HW3 1164   1.444   0.000   0.827
  211SOL    MW4 1165   1.448   0.053   0.895
  212SOL     OW 1166   1.466   0.798   0.745
  212SOL    HW2 1167   1.546   0.813   0.694
  212SOL    HW3 1168   1.459   0.703   0.751
  212SOL    MW4 1169   1.475   0.787   0.740
  213SOL     OW 1170   0.606   1.847   0.095
  213SOL    HW2 1171   0.511   1.847   0.087
  213SOL    HW3 1172   0.622   1.793   0.173
  213SOL    MW4 1173   0.596   1.841   0.104
  214SOL     OW 1174   0.916   0.724   1.442
  214SOL    HW2 1175   0.985   0.791   1.439
  214SOL    HW3 1176   0.849   0.762   1.498
  214SOL    MW4 1177   0.917   0.737   1.449
  215SOL     OW 1178   0.334   1.024   1.690
  215SOL    HW2 1179   0.288   0.940   1.692
  215SOL    HW3 1180   0.391   1.018   1.614
  215SOL    MW4 1181   0.336   1.012   1.682
  216SOL     OW 1182   1.451   0.667   0.011
  216SOL    HW2 1183   1.379   0.643  -0.047
  216SOL    HW3 1184   1.517   0.704  -0.047
  216SOL    MW4 1185   1.450   0.669  -0.004
  217SOL     OW 1186   0.585   1.399   0.691
  217SOL    HW2 1187   0.650   1.332   0.712
  217SOL    HW3 1188   0.637   1.476   0.668
  217SOL    MW4 1189   0.600   1.401   0.690
  218SOL     OW 1190   0.846   0.564   0.821
  218SOL    HW2 1191   0.786   0.582   0.893
  218SOL    HW3 1192   0.880   0.476   0.840
  218SOL    MW4 1193   0.842   0.554   0.834
  219SOL     OW 1194   1.787   0.063   1.490
  219SOL    HW2 1195   1.708   0.109   1.518
  219SOL    HW3 1196   1.822   0.117   1.419
  219SOL    MW4 1197   1.781   0.076   1.484
  220SOL     OW 1198   1.071   1.147   0.840
  220SOL    HW2 1199   1.163   1.128   0.858
  220SOL    HW3 1200   1.044   1.077   0.780
  220SOL    MW4 1201   1.079   1.135   0.834
  221SOL     OW 1202   0.864   0.967   0.195
  221SOL    HW2 1203   0.850   0.879   0.160
  221SOL    HW3 1204   0.815   1.024   0.136
  221SOL    MW4 1205   0.856   0.962   0.183
  222SOL     OW 1206   1.345   1.385   0.936
  222SOL    HW2 1207   1.318   1.469   0.901
  222SOL    HW3 1208   1.305   1.380   1.023
  222SOL    MW4 1209   1.338   1.394   0.942
  223SOL     OW 1210   1.264   1.333   1.204
  223SOL    HW2 1211   1.275   1.300   1.293
  223SOL    HW3 1212   1.183   1.292   1.173
  223SOL    MW4 1213   1.254   1.325   1.210
  224SOL     OW 1214   0.277   0.691   0.974
  224SOL    HW2 1215   0.227   0.690   1.055
  224SOL    HW3 1216   0.297   0.783   0.958
  224SOL    MW4 1217   0.273   0.703   0.982
  225SOL     OW 1218   1.344   1.455   1.736
  225SOL    HW2 1219   1.344   1.549   1.752
  225SOL    HW3 1220   1.389   1.445   1.652
  225SOL    MW4 1221   1.350   1.465   1.727
  226SOL     OW 1222   1.583   0.173   0.297
  226SOL    HW2 1223   1.576   0.177   0.392
  226SOL    HW3 1224   1.595   0.264   0.270
  226SOL    MW4 1225   1.584   0.186   0.305
  227SOL     OW 1226   0.872   0.736   0.411
  227SOL    HW2 1227   0.852   0.722   0.318
  227SOL    HW3 1228   0.965   0.715   0.418
  227SOL    MW4 1229   0.882   0.731   0.400
  228SOL     OW 1230   0.199   0.359   1.715
  228SOL    HW2 1231   0.156   0.418   1.652
  228SOL    HW3 1232   0.267   0.414   1.755
  228SOL    MW4 1233   0.203   0.374   1.712
  229SOL     OW 1234   1.311   0.979   1.260
  229SOL    HW2 1235   1.374   0.976   1.333
  229SOL    HW3 1236   1.227   0.997   1.302
  229SOL    MW4 1237   1.307   0.981   1.275
  230SOL     OW 1238   0.855   1.694   0.449
  230SOL    HW2 1239   0.913   1.765   0.476
  230SOL    HW3 1240   0.878   1.622   0.507
  230SOL    MW4 1241   0.866   1.694   0.460
  231SOL     OW 1242   1.650   0.156   1.039
  231SOL    HW2 1243   1.695   0.074   1.058
  231SOL    HW3 1244   1.670   0.212   1.115
  231SOL    MW4 1245   1.660   0.152   1.051
  232SOL     OW 1246   0.098  -0.001   1.138
  232SOL    HW2 1247   0.089   0.000   1.043
  232SOL    HW3 1248   0.192   0.011   1.153
  232SOL    MW4 1249   0.110   0.002   1.129
  233SOL     OW 1250   1.735   1.192   0.758
  233SOL    HW2 1251   1.714   1.138   0.681
  233SOL    HW3 1252   1.831   1.190   0.762
  233SOL    MW4 1253   1.744   1.185   0.747
  234SOL     OW 1254   0.427   1.337   1.501
  234SOL    HW2 1255   0.348   1.287   1.524
  234SOL    HW3 1256   0.497   1.296   1.551
  234SOL    MW4 1257   0.425   1.325   1.511
  235SOL     OW 1258   0.311   0.126   0.184
  235SOL    HW2 1259   0.240   0.181   0.152
  235SOL    HW3 1260   0.353   0.092   0.105
  235SOL    MW4 1261   0.307   0.128   0.170
  236SOL     OW 1262   1.435   0.623   1.020
  236SOL    HW2 1263   1.358   0.669   0.986
  236SOL    HW3 1264   1.492   0.692   1.054
  236SOL    MW4 1265   1.432   0.638   1.020
  237SOL     OW 1266   0.067   0.225   0.033
  237SOL    HW2 1267   0.034   0.304   0.077
  237SOL    HW3 1268   0.122   0.258  -0.038
  237SOL    MW4 1269   0.070   0.239   0.030
  238SOL     OW 1270   0.101   1.482   0.222
  238SOL    HW2 1271   0.118   1.566   0.264
  238SOL    HW3 1272   0.136   1.491   0.134
  238SOL    MW4 1273   0.106   1.495   0.216
  239SOL     OW 1274   1.373   1.571   0.439
  239SOL    HW2 1275   1.436   1.561   0.368
  239SOL    HW3 1276   1.290   1.591   0.394
  239SOL    MW4 1277   1.370   1.572   0.424
  240SOL     OW 1278   1.736   0.839   2.125
  240SOL    HW2 1279   1.777   0.781   2.190
  240SOL    HW3 1280   1.643   0.831   2.142
  240SOL    MW4 1281   1.730   0.831   2.135
  241SOL     OW 1282   1.602   0.771   3.120
  241SOL    HW2 1283   1.557   0.838   3.171
  241SOL    HW3 1284   1.690   0.807   3.106
  241SOL    MW4 1285   1.608   0.784   3.124
  242SOL     OW 1286   0.530   1.022   2.354
  242SOL    HW2 1287   0.620   0.997   2.338
  242SOL    HW3 1288   0.526   1.115   2.331
  242SOL    MW4 1289   0.542   1.031   2.349
  243SOL     OW 1290   1.646   1.725   2.496
  243SOL    HW2 1291   1.658   1.671   2.574
  243SOL    HW3 1292   1.683   1.673   2.425
  243SOL    MW4 1293   1.652   1.710   2.497
  244SOL     OW 1294   1.025   1.610   3.497
  244SOL    HW2 1295   1.066   1.646   3.418
  244SOL    HW3 1296   1.060   1.521   3.504
  244SOL    MW4 1297   1.036   1.603   3.488
  245SOL     OW 1298   1.582   1.165   3.101
  245SOL    HW2 1299   1.503   1.130   3.059
  245SOL    HW3 1300   1.609   1.237   3.045
  245SOL    MW4 1301   1.575   1.170   3.088
  246SOL     OW 1302   0.814   0.478   2.367
  246SOL    HW2 1303   0.789   0.566   2.395
  246SOL    HW3 1304   0.811   0.481   2.271
  246SOL    MW4 1305   0.810   0.490   2.359
  247SOL     OW 1306   0.256   0.506   2.295
  247SOL    HW2 1307   0.288   0.594   2.277
  247SOL    HW3 1308   0.244   0.504   2.390
  247SOL    MW4 1309   0.259   0.518   2.307
  248SOL     OW 1310   0.334   0.919   3.196
  248SOL    HW2 1311   0.397   0.866   3.147
  248SOL    HW3 1312   0.315   0.993   3.139
  248SOL    MW4 1313   0.340   0.921   3.183
  249SOL     OW 1314   0.655   0.261   2.382
  249SOL    HW2 1315   0.713   0.337   2.384
  249SOL    HW3 1316   0.590   0.282   2.315
  249SOL    MW4 1317   0.654   0.273   2.373
  250SOL     OW 1318   0.742   1.188   2.557
  250SOL    HW2 1319   0.822   1.191   2.609
  250SOL    HW3 1320   0.770   1.155   2.471
  250SOL    MW4 1321   0.756   1.184   2.552
  251SOL     OW 1322   0.767   1.529   3.460
  251SOL    HW2 1323   0.851   1.555   3.499
  251SOL    HW3 1324   0.791   1.473   3.386
  251SOL    MW4 1325   0.781   1.525   3.455
  252SOL     OW 1326   0.519   0.692   2.548
  252SOL    HW2 1327   0.504   0.612   2.599
  252SOL    HW3 1328   0.601   0.727   2.582
  252SOL    MW4 1329   0.527   0.684   2.560
  253SOL     OW 1330   0.856   1.378   3.233
  253SOL    HW2 1331   0.820   1.444   3.173
  253SOL    HW3 1332   0.784   1.316   3.246
  253SOL    MW4 1333   0.842   1.378   3.227
  254SOL     OW 1334   0.661   0.518   2.925
  254SOL    HW2 1335   0.567   0.514   2.943
  254SOL    HW3 1336   0.691   0.427   2.934
  254SOL    MW4 1337   0.652   0.506   2.928
  255SOL     OW 1338   0.407   0.932   2.829
  255SOL    HW2 1339   0.362   0.939   2.745
  255SOL    HW3 1340   0.387   1.015   2.873
  255SOL    MW4 1341   0.399   0.944   2.823
  256SOL     OW 1342   0.104   1.778   2.704
  256SOL    HW2 1343   0.193   1.770   2.739
  256SOL    HW3 1344   0.068   1.690   2.709
  256SOL    MW4 1345   0.111   1.765   2.709
  257SOL     OW 1346   1.369   1.170   2.073
  257SOL    HW2 1347   1.287   1.206   2.039
  257SOL    HW3 1348   1.437   1.213   2.022
  257SOL    MW4 1349   1.367   1.180   2.061
  258SOL     OW 1350   0.368   1.305   2.739
  258SOL    HW2 1351   0.344   1.358   2.815
  258SOL    HW3 1352   0.424   1.363   2.687
  258SOL    MW4 1353   0.372   1.320   2.742
  259SOL     OW 1354   0.930   0.949   2.549
  259SOL    HW2 1355   0.844   0.936   2.589
  259SOL    HW3 1356   0.983   0.876   2.581
  259SOL    MW4 1357   0.926   0.938   2.558
  260SOL     OW 1358   0.338   1.601   3.334
  260SOL    HW2 1359   0.246   1.577   3.319
  260SOL    HW3 1360   0.382   1.518   3.351
  260SOL    MW4 1361   0.332   1.586   3.333
  261SOL     OW 1362   0.921   1.311   2.266
  261SOL    HW2 1363   0.898   1.373   2.334
  261SOL    HW3 1364   0.878   1.229   2.292
  261SOL    MW4 1365   0.913   1.307   2.277
  262SOL     OW 1366   1.794   0.312   2.722
  262SOL    HW2 1367   1.731   0.292   2.791
  262SOL    HW3 1368   1.784   0.241   2.659
  262SOL    MW4 1369   1.784   0.299   2.723
  263SOL     OW 1370   0.418   0.284   2.234
  263SOL    HW2 1371   0.392   0.246   2.150
  263SOL    HW3 1372   0.355   0.354   2.250
  263SOL    MW4 1373   0.407   0.287   2.225
  264SOL     OW 1374   0.253   1.245   2.271
  264SOL    HW2 1375   0.201   1.313   2.227
  264SOL    HW3 1376   0.250   1.171   2.211
  264SOL    MW4 1377   0.245   1.244   2.258
  265SOL     OW 1378   0.915   1.708   2.049
  265SOL    HW2 1379   0.870   1.724   2.132
  265SOL    HW3 1380   0.846   1.673   1.991
  265SOL    MW4 1381   0.901   1.705   2.051
  266SOL     OW 1382   1.850   0.481   2.024
  266SOL    HW2 1383   1.759   0.483   2.052
  266SOL    HW3 1384   1.895   0.543   2.082
  266SOL    MW4 1385   1.843   0.489   2.034
  267SOL     OW 1386   1.595   1.084   2.374
  267SOL    HW2 1387   1.505   1.084   2.409
  267SOL    HW3 1388   1.588   1.130   2.291
  267SOL    MW4 1389   1.582   1.090   2.368
  268SOL     OW 1390   1.395   0.719   3.446
  268SOL    HW2 1391   1.464   0.657   3.423
  268SOL    HW3 1392   1.320   0.693   3.393
  268SOL    MW4 1393   1.395   0.706   3.437
  269SOL     OW 1394   0.136   1.599   2.998
  269SOL    HW2 1395   0.119   1.545   3.075
  269SOL    HW3 1396   0.124   1.689   3.028
  269SOL    MW4 1397   0.133   1.603   3.012
  270SOL     OW 1398   1.131   1.106   3.438
  270SOL    HW2 1399   1.116   1.199   3.423
  270SOL    HW3 1400   1.226   1.096   3.438
  270SOL    MW4 1401   1.140   1.116   3.435
  271SOL     OW 1402   0.927   0.530   3.639
  271SOL    HW2 1403   1.017   0.531   3.606
  271SOL    HW3 1404   0.886   0.455   3.597
  271SOL    MW4 1405   0.933   0.520   3.630
  272SOL     OW 1406   1.502   1.062   2.766
  272SOL    HW2 1407   1.505   0.996   2.697
  272SOL    HW3 1408   1.587   1.105   2.762
  272SOL    MW4 1409   1.514   1.058   2.757
  273SOL     OW 1410   1.122   0.665   2.335
  273SOL    HW2 1411   1.148   0.689   2.246
  273SOL    HW3 1412   1.104   0.572   2.331
  273SOL    MW4 1413   1.124   0.657   2.322
  274SOL     OW 1414   1.787   1.285   2.186
  274SOL    HW2 1415   1.743   1.326   2.261
  274SOL    HW3 1416   1.844   1.353   2.151
  274SOL    MW4 1417   1.789   1.299   2.191
  275SOL     OW 1418   0.707   0.334   3.589
  275SOL    HW2 1419   0.717   0.260   3.529
  275SOL    HW3 1420   0.743   0.303   3.672
  275SOL    MW4 1421   0.713   0.320   3.591
  276SOL     OW 1422   0.443   1.701   2.504
  276SOL    HW2 1423   0.475   1.789   2.482
  276SOL    HW3 1424   0.396   1.673   2.426
  276SOL    MW4 1425   0.442   1.709   2.491
  277SOL     OW 1426   1.827   0.063   2.553
  277SOL    HW2 1427   1.881   0.014   2.615
  277SOL    HW3 1428   1.770  -0.003   2.514
  277SOL    MW4 1429   1.827   0.047   2.555
  278SOL     OW 1430   0.159   1.761   2.081
  278SOL    HW2 1431   0.188   1.851   2.073
  278SOL    HW3 1432   0.109   1.744   2.002
  278SOL    MW4 1433   0.157   1.769   2.070
  279SOL     OW 1434   0.946   0.016   2.966
  279SOL    HW2 1435   0.905   0.094   2.928
  279SOL    HW3 1436   1.040   0.034   2.961
  279SOL    MW4 1437   0.952   0.028   2.961
  280SOL     OW 1438   1.563   1.569   2.052
  280SOL    HW2 1439   1.611   1.638   2.098
  280SOL    HW3 1440   1.484   1.613   2.021
  280SOL    MW4 1441   1.558   1.583   2.055
  281SOL     OW 1442   0.961   0.694   1.996
  281SOL    HW2 1443   0.963   0.641   1.917
  281SOL    HW3 1444   1.049   0.731   2.002
  281SOL    MW4 1445   0.973   0.693   1.985
  282SOL     OW 1446   1.575   0.620   2.332
  282SOL    HW2 1447   1.614   0.620   2.419
  282SOL    HW3 1448   1.516   0.696   2.332
  282SOL    MW4 1449   1.572   0.631   2.343
  283SOL     OW 1450   0.892   0.987   3.461
  283SOL    HW2 1451   0.869   0.967   3.551
  283SOL    HW3 1452   0.977   1.031   3.466
  283SOL    MW4 1453   0.899   0.990   3.473
  284SOL     OW 1454   0.972   0.124   3.221
  284SOL    HW2 1455   0.978   0.086   3.134
  284SOL    HW3 1456   0.961   0.218   3.206
  284SOL    MW4 1457   0.973   0.132   3.209
  285SOL     OW 1458   1.061   0.613   3.055
  285SOL    HW2 1459   1.136   0.642   3.002
  285SOL    HW3 1460   0.993   0.678   3.039
  285SOL    MW4 1461   1.062   0.625   3.045
  286SOL     OW 1462   1.611   0.581   3.332
  286SOL    HW2 1463   1.592   0.490   3.311
  286SOL    HW3 1464   1.589   0.630   3.253
  286SOL    MW4 1465   1.606   0.574   3.319
  287SOL     OW 1466   1.753   1.675   3.236
  287SOL    HW2 1467   1.681   1.637   3.287
  287SOL    HW3 1468   1.770   1.760   3.277
  287SOL    MW4 1469   1.747   1.680   3.248
  288SOL     OW 1470   1.058   0.319   3.438
  288SOL    HW2 1471   1.024   0.358   3.357
  288SOL    HW3 1472   1.036   0.227   3.431
  288SOL    MW4 1473   1.051   0.312   3.428
  289SOL     OW 1474   1.467   1.133   3.514
  289SOL    HW2 1475   1.549   1.174   3.544
  289SOL    HW3 1476   1.430   1.095   3.594
  289SOL    MW4 1477   1.473   1.134   3.529
  290SOL     OW 1478   1.762   0.506   2.498
  290SOL    HW2 1479   1.851   0.475   2.515
  290SOL    HW3 1480   1.705   0.446   2.546
  290SOL    MW4 1481   1.765   0.494   2.507
  291SOL     OW 1482   0.188   0.220   2.527
  291SOL    HW2 1483   0.179   0.160   2.453
  291SOL    HW3 1484   0.121   0.191   2.590
  291SOL    MW4 1485   0.178   0.207   2.525
  292SOL     OW 1486   1.131   1.313   2.088
  292SOL    HW2 1487   1.081   1.315   2.170
  292SOL    HW3 1488   1.065   1.331   2.020
  292SOL    MW4 1489   1.117   1.315   2.090
  293SOL     OW 1490   0.135   0.393   2.890
  293SOL    HW2 1491   0.107   0.484   2.899
  293SOL    HW3 1492   0.072   0.354   2.829
  293SOL    MW4 1493   0.122   0.399   2.884
  294SOL     OW 1494   0.594   1.731   2.196
  294SOL    HW2 1495   0.515   1.689   2.229
  294SOL    HW3 1496   0.660   1.714   2.263
  294SOL    MW4 1497   0.593   1.723   2.209
  295SOL     OW 1498   1.722   1.251   3.593
  295SOL    HW2 1499   1.772   1.177   3.625
  295SOL    HW3 1500   1.668   1.278   3.668
  295SOL    MW4 1501   1.722   1.245   3.606
  296SOL     OW 1502   0.730   1.146   1.903
  296SOL    HW2 1503   0.652   1.092   1.890
  296SOL    HW3 1504   0.701   1.219   1.956
  296SOL    MW4 1505   0.716   1.148   1.908
  297SOL     OW 1506   1.856   0.886   3.095
  297SOL    HW2 1507   1.872   0.924   3.008
  297SOL    HW3 1508   1.890   0.952   3.156
  297SOL    MW4 1509   1.863   0.899   3.091
  298SOL     OW 1510   1.648   1.595   2.764
  298SOL    HW2 1511   1.677   1.662   2.825
  298SOL    HW3 1512   1.629   1.519   2.819
  298SOL    MW4 1513   1.650   1.595   2.779
  299SOL     OW 1514   1.311   1.662   1.971
  299SOL    HW2 1515   1.237   1.625   2.021
  299SOL    HW3 1516   1.319   1.752   2.004
  299SOL    MW4 1517   1.302   1.669   1.983
  300SOL     OW 1518   0.119   0.668   3.060
  300SOL    HW2 1519   0.181   0.698   3.126
  300SOL    HW3 1520   0.053   0.737   3.054
  300SOL    MW4 1521   0.118   0.681   3.067
  301SOL     OW 1522   1.535   1.336   1.913
  301SOL    HW2 1523   1.482   1.385   1.849
  301SOL    HW3 1524   1.566   1.402   1.974
  301SOL    MW4 1525   1.533   1.350   1.911
  302SOL     OW 1526   0.760   0.225   1.968
  302SOL    HW2 1527   0.708   0.145   1.956
  302SOL    HW3 1528   0.847   0.202   1.936
  302SOL    MW4 1529   0.763   0.211   1.962
  303SOL     OW 1530   0.214   1.777   3.512
  303SOL    HW2 1531   0.188   1.845   3.450
  303SOL    HW3 1532   0.262   1.714   3.460
  303SOL    MW4 1533   0.216   1.777   3.498
  304SOL     OW 1534   0.266   1.096   3.019
  304SOL    HW2 1535   0.319   1.171   3.044
  304SOL    HW3 1536   0.185   1.134   2.985
  304SOL    MW4 1537   0.262   1.111   3.019
  305SOL     OW 1538   0.806   1.000   3.007
  305SOL    HW2 1539   0.834   0.909   3.019
  305SOL    HW3 1540   0.735   0.994   2.943
  305SOL    MW4 1541   0.799   0.988   3.002
  306SOL     OW 1542   0.121   0.865   2.425
  306SOL    HW2 1543   0.212   0.880   2.452
  306SOL    HW3 1544   0.124   0.786   2.371
  306SOL    MW4 1545   0.133   0.857   2.423
  307SOL     OW 1546   0.357   0.573   3.679
  307SOL    HW2 1547   0.304   0.653   3.686
  307SOL    HW3 1548   0.427   0.585   3.744
  307SOL    MW4 1549   0.359   0.586   3.687
  308SOL     OW 1550   0.743   0.123   3.386
  308SOL    HW2 1551   0.720   0.031   3.388
  308SOL    HW3 1552   0.829   0.125   3.343
  308SOL    MW4 1553   0.750   0.113   3.382
  309SOL     OW 1554   0.427   0.647   3.425
  309SOL    HW2 1555   0.507   0.697   3.411
  309SOL    HW3 1556   0.418   0.641   3.520
  309SOL    MW4 1557   0.436   0.653   3.435
  310SOL     OW 1558   0.748   1.797   2.799
  310SOL    HW2 1559   0.837   1.812   2.829
  310SOL    HW3 1560   0.743   1.844   2.715
  310SOL    MW4 1561   0.758   1.805   2.792
  311SOL     OW 1562   1.404   0.172   3.696
  311SOL    HW2 1563   1.460   0.099   3.722
  311SOL    HW3 1564   1.374   0.210   3.778
  311SOL    MW4 1565   1.408   0.167   3.709
  312SOL     OW 1566   0.129   1.477   2.464
  312SOL    HW2 1567   0.101   1.516   2.546
  312SOL    HW3 1568   0.149   1.386   2.486
  312SOL    MW4 1569   0.127   1.469   2.477
  313SOL     OW 1570   0.962   1.520   2.499
  313SOL    HW2 1571   1.045   1.474   2.483
  313SOL    HW3 1572   0.952   1.519   2.595
  313SOL    MW4 1573   0.972   1.513   2.509
  314SOL     OW 1574   1.794   0.665   2.813
  314SOL    HW2 1575   1.883   0.695   2.795
  314SOL    HW3 1576   1.774   0.605   2.742
  314SOL    MW4 1577   1.803   0.662   2.802
  315SOL     OW 1578   1.645   0.844   3.693
  315SOL    HW2 1579   1.700   0.768   3.674
  315SOL    HW3 1580   1.647   0.852   3.788
  315SOL    MW4 1581   1.653   0.835   3.701
  316SOL     OW 1582   0.695   1.577   1.904
  316SOL    HW2 1583   0.635   1.646   1.874
  316SOL    HW3 1584   0.640   1.519   1.957
  316SOL    MW4 1585   0.679   1.579   1.906
  317SOL     OW 1586   1.133   0.222   2.127
  317SOL    HW2 1587   1.066   0.198   2.064
  317SOL    HW3 1588   1.198   0.271   2.076
  317SOL    MW4 1589   1.133   0.224   2.112
  318SOL     OW 1590   0.940   0.406   3.212
  318SOL    HW2 1591   0.859   0.447   3.240
  318SOL    HW3 1592   0.987   0.474   3.164
  318SOL    MW4 1593   0.935   0.421   3.210
  319SOL     OW 1594   1.200   0.744   2.835
  319SOL    HW2 1595   1.213   0.838   2.845
  319SOL    HW3 1596   1.161   0.734   2.749
  319SOL    MW4 1597   1.196   0.755   2.825
  320SOL     OW 1598   0.652   0.939   2.639
  320SOL    HW2 1599   0.563   0.930   2.672
  320SOL    HW3 1600   0.656   1.029   2.607
  320SOL    MW4 1601   0.641   0.950   2.639
  321SOL     OW 1602   1.451   0.522   2.634
  321SOL    HW2 1603   1.396   0.443   2.633
  321SOL    HW3 1604   1.433   0.563   2.718
  321SOL    MW4 1605   1.441   0.517   2.643
  322SOL     OW 1606   0.422   0.209   3.451
  322SOL    HW2 1607   0.343   0.227   3.503
  322SOL    HW3 1608   0.417   0.271   3.378
  322SOL    MW4 1609   0.412   0.219   3.448
  323SOL     OW 1610   1.070   0.726   2.591
  323SOL    HW2 1611   1.007   0.658   2.615
  323SOL    HW3 1612   1.090   0.707   2.499
  323SOL    MW4 1613   1.064   0.713   2.583
  324SOL     OW 1614   0.326   1.621   2.293
  324SOL    HW2 1615   0.287   1.668   2.219
  324SOL    HW3 1616   0.260   1.556   2.318
  324SOL    MW4 1617   0.313   1.619   2.287
  325SOL     OW 1618   0.818   1.030   2.317
  325SOL    HW2 1619   0.820   1.004   2.224
  325SOL    HW3 1620   0.876   0.967   2.360
  325SOL    MW4 1621   0.826   1.019   2.311
  326SOL     OW 1622   1.371   1.590   3.089
  326SOL    HW2 1623   1.296   1.636   3.127
  326SOL    HW3 1624   1.353   1.497   3.106
  326SOL    MW4 1625   1.360   1.584   3.097
  327SOL     OW 1626   1.375   1.798   2.519
  327SOL    HW2 1627   1.318   1.751   2.458
  327SOL    HW3 1628   1.461   1.759   2.506
  327SOL    MW4 1629   1.378   1.789   2.509
  328SOL     OW 1630   1.328   0.274   2.650
  328SOL    HW2 1631   1.356   0.206   2.711
  328SOL    HW3 1632   1.242   0.245   2.620
  328SOL    MW4 1633   1.321   0.261   2.654
  329SOL     OW 1634   0.133   1.208   2.584
  329SOL    HW2 1635   0.197   1.240   2.647
  329SOL    HW3 1636   0.182   1.144   2.532
  329SOL    MW4 1637   0.148   1.204   2.585
  330SOL     OW 1638   0.633   1.284   3.566
  330SOL    HW2 1639   0.681   1.367   3.553
  330SOL    HW3 1640   0.690   1.232   3.622
  330SOL    MW4 1641   0.647   1.288   3.572
  331SOL     OW 1642   0.209   1.526   3.706
  331SOL    HW2 1643   0.265   1.450   3.721
  331SOL    HW3 1644   0.158   1.504   3.628
  331SOL    MW4 1645   0.209   1.513   3.697
  332SOL     OW 1646   1.308   0.378   1.985
  332SOL    HW2 1647   1.281   0.444   1.921
  332SOL    HW3 1648   1.378   0.421   2.035
  332SOL    MW4 1649   1.313   0.391   1.982
  333SOL     OW 1650   0.976   0.083   1.922
  333SOL    HW2 1651   1.032   0.075   1.844
  333SOL    HW3 1652   0.953  -0.007   1.944
  333SOL    MW4 1653   0.981   0.070   1.915
  334SOL     OW 1654   1.481   0.934   2.127
  334SOL    HW2 1655   1.448   1.023   2.117
  334SOL    HW3 1656   1.446   0.905   2.212
  334SOL    MW4 1657   1.471   0.943   2.138
  335SOL     OW 1658   1.094   1.363   3.315
  335SOL    HW2 1659   1.005   1.369   3.283
  335SOL    HW3 1660   1.138   1.442   3.283
  335SOL    MW4 1661   1.089   1.373   3.307
  336SOL     OW 1662   0.387   0.031   3.657
  336SOL    HW2 1663   0.315  -0.004   3.605
  336SOL    HW3 1664   0.445   0.072   3.592
  336SOL    MW4 1665   0.385   0.032   3.642
  337SOL     OW 1666   0.411   1.521   2.956
  337SOL    HW2 1667   0.456   1.583   3.013
  337SOL    HW3 1668   0.318   1.540   2.969
  337SOL    MW4 1669   0.404   1.531   2.963
  338SOL     OW 1670   1.851   1.050   3.310
  338SOL    HW2 1671   1.766   1.063   3.269
  338SOL    HW3 1672   1.831   1.014   3.397
  338SOL    MW4 1673   1.838   1.046   3.315
  339SOL     OW 1674   0.833   1.589   3.064
  339SOL    HW2 1675   0.857   1.578   2.973
  339SOL    HW3 1676   0.756   1.646   3.062
  339SOL    MW4 1677   0.825   1.594   3.053
  340SOL     OW 1678   0.475   0.972   1.919
  340SOL    HW2 1679   0.398   0.985   1.975
  340SOL    HW3 1680   0.439   0.936   1.838
  340SOL    MW4 1681   0.461   0.968   1.916
  341SOL     OW 1682   1.128   0.945   2.162
  341SOL    HW2 1683   1.038   0.966   2.137
  341SOL    HW3 1684   1.155   1.018   2.218
  341SOL    MW4 1685   1.120   0.957   2.165
  342SOL     OW 1686   0.628   1.294   2.854
  342SOL    HW2 1687   0.621   1.273   2.948
  342SOL    HW3 1688   0.546   1.262   2.817
  342SOL    MW4 1689   0.616   1.288   2.861
  343SOL     OW 1690   1.492   0.304   3.256
  343SOL    HW2 1691   1.439   0.306   3.336
  343SOL    HW3 1692   1.477   0.217   3.219
  343SOL    MW4 1693   1.484   0.294   3.261
  344SOL     OW 1694   1.828   0.228   3.129
  344SOL    HW2 1695   1.809   0.295   3.064
  344SOL    HW3 1696   1.885   0.166   3.084
  344SOL    MW4 1697   1.832   0.229   3.115
  345SOL     OW 1698   0.074   1.386   3.517
  345SOL    HW2 1699   0.118   1.319   3.463
  345SOL    HW3 1700  -0.011   1.348   3.537
  345SOL    MW4 1701   0.069   1.372   3.513
  346SOL     OW 1702   0.757   0.061   2.569
  346SOL    HW2 1703   0.686   0.122   2.551
  346SOL    HW3 1704   0.808   0.058   2.488
  346SOL    MW4 1705   0.753   0.067   2.556
  347SOL     OW 1706   0.515   1.301   2.318
  347SOL    HW2 1707   0.508   1.333   2.408
  347SOL    HW3 1708   0.425   1.285   2.290
  347SOL    MW4 1709   0.503   1.303   2.325
  348SOL     OW 1710   1.110   1.694   3.227
  348SOL    HW2 1711   1.030   1.679   3.177
  348SOL    HW3 1712   1.117   1.789   3.234
  348SOL    MW4 1713   1.101   1.705   3.221
  349SOL     OW 1714   1.224   1.659   2.717
  349SOL    HW2 1715   1.271   1.732   2.676
  349SOL    HW3 1716   1.145   1.698   2.753
  349SOL    MW4 1717   1.219   1.674   2.716
  350SOL     OW 1718   1.632   1.754   2.992
  350SOL    HW2 1719   1.675   1.724   3.072
  350SOL    HW3 1720   1.551   1.702   2.989
  350SOL    MW4 1721   1.627   1.743   3.002
  351SOL     OW 1722   0.717   0.718   3.699
  351SOL    HW2 1723   0.787   0.660   3.671
  351SOL    HW3 1724   0.660   0.663   3.754
  351SOL    MW4 1725   0.719   0.705   3.703
  352SOL     OW 1726   1.504   0.930   3.332
  352SOL    HW2 1727   1.509   0.983   3.412
  352SOL    HW3 1728   1.466   0.847   3.360
  352SOL    MW4 1729   1.500   0.925   3.347
  353SOL     OW 1730   1.144   0.065   3.578
  353SOL    HW2 1731   1.139  -0.028   3.559
  353SOL    HW3 1732   1.227   0.076   3.624
  353SOL    MW4 1733   1.152   0.054   3.582
  354SOL     OW 1734   0.518   0.585   2.032
  354SOL    HW2 1735   0.484   0.641   2.102
  354SOL    HW3 1736   0.589   0.535   2.072
  354SOL    MW4 1737   0.524   0.586   2.046
  355SOL     OW 1738   1.614   1.336   2.854
  355SOL    HW2 1739   1.649   1.318   2.767
  355SOL    HW3 1740   1.519   1.337   2.841
  355SOL    MW4 1741   1.606   1.333   2.841
  356SOL     OW 1742   1.043   0.984   3.223
  356SOL    HW2 1743   1.086   1.019   3.301
  356SOL    HW3 1744   1.026   1.061   3.169
  356SOL    MW4 1745   1.046   0.999   3.226
  357SOL     OW 1746   1.574   0.471   2.096
  357SOL    HW2 1747   1.566   0.542   2.033
  357SOL    HW3 1748   1.592   0.515   2.179
  357SOL    MW4 1749   1.575   0.485   2.098
  358SOL     OW 1750   0.434   0.126   2.525
  358SOL    HW2 1751   0.484   0.169   2.456
  358SOL    HW3 1752   0.349   0.170   2.525
  358SOL    MW4 1753   0.431   0.139   2.516
  359SOL     OW 1754   0.193   1.188   3.385
  359SOL    HW2 1755   0.221   1.141   3.463
  359SOL    HW3 1756   0.114   1.143   3.356
  359SOL    MW4 1757   0.186   1.177   3.391
  360SOL     OW 1758   0.701   0.515   3.352
  360SOL    HW2 1759   0.673   0.603   3.376
  360SOL    HW3 1760   0.670   0.459   3.423
  360SOL    MW4 1761   0.693   0.518   3.364
  361SOL     OW 1762   1.243   0.733   2.071
  361SOL    HW2 1763   1.290   0.751   1.990
  361SOL    HW3 1764   1.209   0.817   2.099
  361SOL    MW4 1765   1.245   0.747   2.064
  362SOL     OW 1766   0.356   0.911   2.565
  362SOL    HW2 1767   0.414   0.967   2.513
  362SOL    HW3 1768   0.400   0.826   2.567
  362SOL    MW4 1769   0.369   0.908   2.558
  363SOL     OW 1770   1.496   0.263   2.402
  363SOL    HW2 1771   1.418   0.213   2.427
  363SOL    HW3 1772   1.467   0.354   2.402
  363SOL    MW4 1773   1.482   0.267   2.405
  364SOL     OW 1774   1.082   0.225   2.561
  364SOL    HW2 1775   1.102   0.300   2.505
  364SOL    HW3 1776   1.062   0.264   2.646
  364SOL    MW4 1777   1.083   0.241   2.565
  365SOL     OW 1778   0.978   1.475   1.893
  365SOL    HW2 1779   1.005   1.553   1.845
  365SOL    HW3 1780   0.885   1.490   1.912
  365SOL    MW4 1781   0.969   1.488   1.889
  366SOL     OW 1782   1.842   0.998   3.580
  366SOL    HW2 1783   1.755   0.978   3.616
  366SOL    HW3 1784   1.896   0.924   3.605
  366SOL    MW4 1785   1.837   0.987   3.588
  367SOL     OW 1786   0.063   1.511   2.737
  367SOL    HW2 1787   0.095   1.515   2.828
  367SOL    HW3 1788  -0.032   1.519   2.745
  367SOL    MW4 1789   0.055   1.514   2.750
  368SOL     OW 1790   0.018   0.637   2.284
  368SOL    HW2 1791  -0.042   0.609   2.354
  368SOL    HW3 1792   0.092   0.577   2.290
  368SOL    MW4 1793   0.020   0.626   2.293
  369SOL     OW 1794   1.586   1.849   3.718
  369SOL    HW2 1795   1.631   1.773   3.683
  369SOL    HW3 1796   1.624   1.862   3.805
  369SOL    MW4 1797   1.596   1.842   3.724
  370SOL     OW 1798   1.186   1.368   2.444
  370SOL    HW2 1799   1.209   1.319   2.522
  370SOL    HW3 1800   1.267   1.410   2.416
  370SOL    MW4 1801   1.199   1.368   2.451
  371SOL     OW 1802   0.444   0.376   3.173
  371SOL    HW2 1803   0.477   0.457   3.213
  371SOL    HW3 1804   0.417   0.402   3.085
  371SOL    MW4 1805   0.443   0.390   3.167
  372SOL     OW 1806   0.398   0.343   2.909
  372SOL    HW2 1807   0.428   0.257   2.880
  372SOL    HW3 1808   0.303   0.336   2.912
  372SOL    MW4 1809   0.390   0.332   2.907
  373SOL     OW 1810   1.227   0.552   3.600
  373SOL    HW2 1811   1.279   0.487   3.553
  373SOL    HW3 1812   1.185   0.603   3.530
  373SOL    MW4 1813   1.228   0.549   3.583
  374SOL     OW 1814   1.326   0.347   3.461
  374SOL    HW2 1815   1.233   0.331   3.448
  374SOL    HW3 1816   1.352   0.285   3.529
  374SOL    MW4 1817   1.316   0.337   3.468
  375SOL     OW 1818   0.541   0.121   2.800
  375SOL    HW2 1819   0.551   0.030   2.826
  375SOL    HW3 1820   0.497   0.117   2.715
  375SOL    MW4 1821   0.537   0.109   2.792
  376SOL     OW 1822   0.635   1.736   3.346
  376SOL    HW2 1823   0.552   1.721   3.391
  376SOL    HW3 1824   0.694   1.669   3.381
  376SOL    MW4 1825   0.633   1.726   3.356
  377SOL     OW 1826   1.692   0.443   2.971
  377SOL    HW2 1827   1.625   0.476   3.031
  377SOL    HW3 1828   1.735   0.521   2.937
  377SOL    MW4 1829   1.690   0.458   2.975
  378SOL     OW 1830   1.870   1.163   2.941
  378SOL    HW2 1831   1.863   1.103   2.866
  378SOL    HW3 1832   1.796   1.223   2.930
  378SOL    MW4 1833   1.860   1.163   2.930
  379SOL     OW 1834   1.252   1.025   2.859
  379SOL    HW2 1835   1.266   0.997   2.950
  379SOL    HW3 1836   1.338   1.056   2.831
  379SOL    MW4 1837   1.265   1.026   2.868
  380SOL     OW 1838   1.335   0.520   3.138
  380SOL    HW2 1839   1.356   0.521   3.045
  380SOL    HW3 1840   1.380   0.442   3.171
  380SOL    MW4 1841   1.342   0.510   3.130
  381SOL     OW 1842   1.828   0.651   3.680
  381SOL    HW2 1843   1.865   0.596   3.749
  381SOL    HW3 1844   1.853   0.608   3.598
  381SOL    MW4 1845   1.835   0.639   3.679
  382SOL     OW 1846   1.375   0.949   3.731
  382SOL    HW2 1847   1.441   0.897   3.685
  382SOL    HW3 1848   1.395   0.936   3.824
  382SOL    MW4 1849   1.386   0.940   3.738
  383SOL     OW 1850   1.326   0.035   2.080
  383SOL    HW2 1851   1.400   0.079   2.123
  383SOL    HW3 1852   1.250   0.089   2.102
  383SOL    MW4 1853   1.326   0.047   2.088
  384SOL     OW 1854   1.386   0.810   2.358
  384SOL    HW2 1855   1.301   0.780   2.328
  384SOL    HW3 1856   1.378   0.817   2.453
  384SOL    MW4 1857   1.374   0.808   2.367
  385SOL     OW 1858   0.462   1.273   3.089
  385SOL    HW2 1859   0.474   1.300   3.180
  385SOL    HW3 1860   0.443   1.354   3.042
  385SOL    MW4 1861   0.461   1.288   3.094
  386SOL     OW 1862   0.746   0.253   2.912
  386SOL    HW2 1863   0.719   0.255   3.003
  386SOL    HW3 1864   0.676   0.205   2.867
  386SOL    MW4 1865   0.734   0.249   2.919
  387SOL     OW 1866   0.600   1.745   3.074
  387SOL    HW2 1867   0.652   1.822   3.051
  387SOL    HW3 1868   0.609   1.737   3.169
  387SOL    MW4 1869   0.609   1.752   3.085
  388SOL     OW 1870   1.502   1.330   3.306
  388SOL    HW2 1871   1.487   1.259   3.369
  388SOL    HW3 1872   1.548   1.288   3.234
  388SOL    MW4 1873   1.508   1.314   3.306
  389SOL     OW 1874   0.576   1.061   3.423
  389SOL    HW2 1875   0.613   1.066   3.335
  389SOL    HW3 1876   0.615   1.134   3.470
  389SOL    MW4 1877   0.586   1.071   3.418
  390SOL     OW 1878   0.756   1.104   3.235
  390SOL    HW2 1879   0.815   1.050   3.288
  390SOL    HW3 1880   0.771   1.076   3.145
  390SOL    MW4 1881   0.766   1.093   3.231
  391SOL     OW 1882   0.759   0.476   2.084
  391SOL    HW2 1883   0.832   0.525   2.047
  391SOL    HW3 1884   0.775   0.385   2.058
  391SOL    MW4 1885   0.771   0.471   2.077
  392SOL     OW 1886   1.567   1.593   3.407
  392SOL    HW2 1887   1.609   1.578   3.492
  392SOL    HW3 1888   1.558   1.506   3.369
  392SOL    MW4 1889   1.571   1.581   3.414
  393SOL     OW 1890   1.227   0.072   2.998
  393SOL    HW2 1891   1.282   0.081   2.920
  393SOL    HW3 1892   1.282   0.106   3.069
  393SOL    MW4 1893   1.241   0.077   2.997
  394SOL     OW 1894   0.234   0.985   2.182
  394SOL    HW2 1895   0.171   1.001   2.111
  394SOL    HW3 1896   0.181   0.948   2.253
  394SOL    MW4 1897   0.219   0.982   2.182
  395SOL     OW 1898   0.590   1.339   2.041
  395SOL    HW2 1899   0.605   1.315   2.133
  395SOL    HW3 1900   0.498   1.317   2.025
  395SOL    MW4 1901   0.580   1.332   2.051
  396SOL     OW 1902   1.129   1.570   2.193
  396SOL    HW2 1903   1.137   1.488   2.144
  396SOL    HW3 1904   1.048   1.609   2.160
  396SOL    MW4 1905   1.119   1.565   2.183
  397SOL     OW 1906   0.388   1.728   2.762
  397SOL    HW2 1907   0.392   1.639   2.797
  397SOL    HW3 1908   0.414   1.719   2.671
  397SOL    MW4 1909   0.391   1.716   2.754
  398SOL     OW 1910   1.005   1.206   3.005
  398SOL    HW2 1911   0.937   1.140   3.021
  398SOL    HW3 1912   1.023   1.200   2.912
  398SOL    MW4 1913   0.998   1.197   2.996
  399SOL     OW 1914   0.094   1.481   3.256
  399SOL    HW2 1915   0.084   1.439   3.342
  399SOL    HW3 1916   0.015   1.534   3.246
  399SOL    MW4 1917   0.083   1.482   3.267
  400SOL     OW 1918   0.998   0.345   2.826
  400SOL    HW2 1919   0.928   0.297   2.871
  400SOL    HW3 1920   1.030   0.408   2.890
  400SOL    MW4 1921   0.993   0.347   2.840
  401SOL     OW 1922   0.649   0.781   3.446
  401SOL    HW2 1923   0.642   0.876   3.434
  401SOL    HW3 1924   0.658   0.770   3.541
  401SOL    MW4 1925   0.650   0.793   3.456
  402SOL     OW 1926   0.370   1.296   3.704
  402SOL    HW2 1927   0.442   1.298   3.641
  402SOL    HW3 1928   0.340   1.205   3.703
  402SOL    MW4 1929   0.375   1.285   3.696
  403SOL     OW 1930   1.454   0.059   3.171
  403SOL    HW2 1931   1.525   0.005   3.135
  403SOL    HW3 1932   1.453   0.038   3.264
  403SOL    MW4 1933   1.463   0.050   3.179
  404SOL     OW 1934   1.654   1.589   3.655
  404SOL    HW2 1935   1.627   1.586   3.746
  404SOL    HW3 1936   1.750   1.593   3.658
  404SOL    MW4 1937   1.664   1.589   3.667
  405SOL     OW 1938   0.465   0.451   2.639
  405SOL    HW2 1939   0.536   0.399   2.602
  405SOL    HW3 1940   0.451   0.416   2.726
  405SOL    MW4 1941   0.473   0.440   2.646
  406SOL     OW 1942   0.020   1.786   3.711
  406SOL    HW2 1943   0.070   1.764   3.633
  406SOL    HW3 1944   0.028   1.881   3.719
  406SOL    MW4 1945   0.028   1.795   3.702
  407SOL     OW 1946   0.781   1.544   2.715
  407SOL    HW2 1947   0.709   1.481   2.728
  407SOL    HW3 1948   0.742   1.629   2.733
  407SOL    MW4 1949   0.765   1.547   2.718
  408SOL     OW 1950   1.101   0.392   2.363
  408SOL    HW2 1951   1.123   0.329   2.295
  408SOL    HW3 1952   1.006   0.384   2.374
  408SOL    MW4 1953   1.091   0.383   2.355
  409SOL     OW 1954   0.186   0.082   2.295
  409SOL    HW2 1955   0.257   0.103   2.234
  409SOL    HW3 1956   0.140   0.010   2.253
  409SOL    MW4 1957   0.190   0.076   2.281
  410SOL     OW 1958   0.017   0.549   3.438
  410SOL    HW2 1959   0.081   0.615   3.413
  410SOL    HW3 1960  -0.064   0.576   3.395
  410SOL    MW4 1961   0.015   0.561   3.430
  411SOL     OW 1962   1.755   1.456   2.395
  411SOL    HW2 1963   1.725   1.389   2.456
  411SOL    HW3 1964   1.849   1.462   2.409
  411SOL    MW4 1965   1.763   1.448   2.405
  412SOL     OW 1966   1.311   1.133   2.325
  412SOL    HW2 1967   1.283   1.219   2.358
  412SOL    HW3 1968   1.339   1.149   2.235
  412SOL    MW4 1969   1.311   1.147   2.317
  413SOL     OW 1970   0.973   0.053   2.378
  413SOL    HW2 1971   1.010   0.112   2.443
  413SOL    HW3 1972   0.950   0.109   2.304
  413SOL    MW4 1973   0.974   0.068   2.377
  414SOL     OW 1974   1.826   0.935   2.800
  414SOL    HW2 1975   1.817   0.967   2.711
  414SOL    HW3 1976   1.779   0.851   2.800
  414SOL    MW4 1977   1.819   0.928   2.790
  415SOL     OW 1978   0.202   0.775   3.379
  415SOL    HW2 1979   0.223   0.844   3.317
  415SOL    HW3 1980   0.282   0.722   3.384
  415SOL    MW4 1981   0.215   0.776   3.373
  416SOL     OW 1982   1.738   0.866   2.501
  416SOL    HW2 1983   1.832   0.855   2.489
  416SOL    HW3 1984   1.714   0.938   2.442
  416SOL    MW4 1985   1.748   0.874   2.492
  417SOL     OW 1986   0.187   0.790   3.646
  417SOL    HW2 1987   0.113   0.734   3.672
  417SOL    HW3 1988   0.182   0.793   3.551
  417SOL    MW4 1989   0.176   0.783   3.636
  418SOL     OW 1990   0.353   0.077   3.096
  418SOL    HW2 1991   0.396   0.161   3.116
  418SOL    HW3 1992   0.426   0.015   3.089
  418SOL    MW4 1993   0.368   0.080   3.097
  419SOL     OW 1994   0.394   0.744   2.274
  419SOL    HW2 1995   0.394   0.839   2.259
  419SOL    HW3 1996   0.471   0.728   2.328
  419SOL    MW4 1997   0.404   0.755   2.279
  420SOL     OW 1998   1.170   0.603   3.338
  420SOL    HW2 1999   1.206   0.576   3.254
  420SOL    HW3 2000   1.083   0.637   3.317
  420SOL    MW4 2001   1.164   0.604   3.325
  421SOL     OW 2002   0.153   0.475   2.563
  421SOL    HW2 2003   0.215   0.482   2.636
  421SOL    HW3 2004   0.153   0.382   2.540
  421SOL    MW4 2005   0.161   0.464   2.570
  422SOL     OW 2006   1.700   1.815   2.095
  422SOL    HW2 2007   1.767   1.848   2.035
  422SOL    HW3 2008   1.657   1.894   2.129
  422SOL    MW4 2009   1.702   1.830   2.091
  423SOL     OW 2010   0.835   0.736   3.047
  423SOL    HW2 2011   0.793   0.654   3.023
  423SOL    HW3 2012   0.836   0.735   3.143
  423SOL    MW4 2013   0.828   0.725   3.056
  424SOL     OW 2014   1.506   1.869   3.446
  424SOL    HW2 2015   1.509   1.775   3.429
  424SOL    HW3 2016   1.529   1.877   3.538
  424SOL    MW4 2017   1.509   1.857   3.456
  425SOL     OW 2018   0.639   0.206   3.152
  425SOL    HW2 2019   0.570   0.269   3.173
  425SOL    HW3 2020   0.666   0.170   3.237
  425SOL    MW4 2021   0.633   0.209   3.165
  426SOL     OW 2022   0.022   1.047   2.021
  426SOL    HW2 2023  -0.009   1.112   2.084
  426SOL    HW3 2024  -0.029   0.969   2.040
  426SOL    MW4 2025   0.012   1.044   2.031
  427SOL     OW 2026   1.434   0.059   2.769
  427SOL    HW2 2027   1.522   0.068   2.806
  427SOL    HW3 2028   1.444   0.000   2.695
  427SOL    MW4 2029   1.448   0.053   2.763
  428SOL     OW 2030   1.466   0.798   2.613
  428SOL    HW2 2031   1.546   0.813   2.562
  428SOL    HW3 2032   1.459   0.703   2.619
  428SOL    MW4 2033   1.475   0.787   2.608
  429SOL     OW 2034   0.606   1.847   1.963
  429SOL    HW2 2035   0.511   1.847   1.955
  429SOL    HW3 2036   0.622   1.793   2.041
  429SOL    MW4 2037   0.596   1.841   1.972
  430SOL     OW 2038   0.916   0.724   3.310
  430SOL    HW2 2039   0.985   0.791   3.307
  430SOL    HW3 2040   0.849   0.762   3.366
  430SOL    MW4 2041   0.917   0.737   3.317
  431SOL     OW 2042   0.334   1.024   3.558
  431SOL    HW2 2043   0.288   0.940   3.560
  431SOL    HW3 2044   0.391   1.018   3.482
  431SOL    MW4 2045   0.336   1.012   3.550
  432SOL     OW 2046   1.451   0.667   1.879
  432SOL    HW2 2047   1.379   0.643   1.821
  432SOL    HW3 2048   1.517   0.704   1.821
  432SOL    MW4 2049   1.450   0.669   1.864
  433SOL     OW 2050   0.585   1.399   2.559
  433SOL    HW2 2051   0.650   1.332   2.580
  433SOL    HW3 2052   0.637   1.476   2.536
  433SOL    MW4 2053   0.600   1.401   2.558
  434SOL     OW 2054   0.846   0.564   2.689
  434SOL    HW2 2055   0.786   0.582   2.761
  434SOL    HW3 2056   0.880   0.476   2.708
  434SOL    MW4 2057   0.842   0.554   2.702
  435SOL     OW 2058   1.787   0.063   3.358
  435SOL    HW2 2059   1.708   0.109   3.386
  435SOL    HW3 2060   1.822   0.117   3.287
  435SOL    MW4 2061   1.781   0.076   3.352
  436SOL     OW 2062   1.071   1.147   2.708
  436SOL    HW2 2063   1.163   1.128   2.726
  436SOL    HW3 2064   1.044   1.077   2.648
  436SOL    MW4 2065   1.079   1.135   2.702
  437SOL     OW 2066   0.864   0.967   2.063
  437SOL    HW2 2067   0.850   0.879   2.028
  437SOL    HW3 2068   0.815   1.024   2.004
  437SOL    MW4 2069   0.856   0.962   2.051
  438SOL     OW 2070   1.345   1.385   2.804
  438SOL    HW2 2071   1.318   1.469   2.769
  438SOL    HW3 2072   1.305   1.380   2.891
  438SOL    MW4 2073   1.338   1.394   2.810
  439SOL     OW 2074   1.264   1.333   3.072
  439SOL    HW2 2075   1.275   1.300   3.161
  439SOL    HW3 2076   1.183   1.292   3.041
  439SOL    MW4 2077   1.254   1.325   3.078
  440SOL     OW 2078   0.277   0.691   2.842
  440SOL    HW2 2079   0.227   0.690   2.923
  440SOL    HW3 2080   0.297   0.783   2.826
  440SOL    MW4 2081   0.273   0.703   2.850
  441SOL     OW 2082   1.344   1.455   3.604
  441SOL    HW2 2083   1.344   1.549   3.620
  441SOL    HW3 2084   1.389   1.445   3.520
  441SOL    MW4 2085   1.350   1.465   3.595
  442SOL     OW 2086   1.583   0.173   2.165
  442SOL    HW2 2087   1.576   0.177   2.260
  442SOL    HW3 2088   1.595   0.264   2.138
  442SOL    MW4 2089   1.584   0.186   2.173
  443SOL     OW 2090   0.872   0.736   2.279
  443SOL    HW2 2091   0.852   0.722   2.186
  443SOL    HW3 2092   0.965   0.715   2.286
  443SOL    MW4 2093   0.882   0.731   2.268
  444SOL     OW 2094   0.199   0.359   3.583
  444SOL    HW2 2095   0.156   0.418   3.520
  444SOL    HW3 2096   0.267   0.414   3.623
  444SOL    MW4 2097   0.203   0.374   3.580
  445SOL     OW 2098   1.311   0.979   3.128
  445SOL    HW2 2099   1.374   0.976   3.201
  445SOL    HW3 2100   1.227   0.997   3.170
  445SOL    MW4 2101   1.307   0.981   3.143
  446SOL     OW 2102   0.855   1.694   2.317
  446SOL    HW2 2103   0.913   1.765   2.344
  446SOL    HW3 2104   0.878   1.622   2.375
  446SOL    MW4 2105   0.866   1.694   2.328
  447SOL     OW 2106   1.650   0.156   2.907
  447SOL    HW2 2107   1.695   0.074   2.926
  447SOL    HW3 2108   1.670   0.212   2.983
  447SOL    MW4 2109   1.660   0.152   2.919
  448SOL     OW 2110   0.098  -0.001   3.006
  448SOL    HW2 2111   0.089   0.000   2.911
  448SOL    HW3 2112   0.192   0.011   3.021
  448SOL    MW4 2113   0.110   0.002   2.997
  449SOL     OW 2114   1.735   1.192   2.626
  449SOL    HW2 2115   1.714   1.138   2.549
  449SOL    HW3 2116   1.831   1.190   2.630
  449SOL    MW4 2117   1.744   1.185   2.615
  450SOL     OW 2118   0.427   1.337   3.369
  450SOL    HW2 2119   0.348   1.287   3.392
  450SOL    HW3 2120   0.497   1.296   3.419
  450SOL    MW4 2121   0.425   1.325   3.379
  451SOL     OW 2122   0.311   0.126   2.052
  451SOL    HW2 2123   0.240   0.181   2.020
  451SOL    HW3 2124   0.353   0.092   1.973
  451SOL    MW4 2125   0.307   0.128   2.038
  452SOL     OW 2126   1.435   0.623   2.888
  452SOL    HW2 2127   1.358   0.669   2.854
  452SOL    HW3 2128   1.492   0.692   2.922
  452SOL    MW4 2129   1.432   0.638   2.888
  453SOL     OW 2130   0.067   0.225   1.901
  453SOL    HW2 2131   0.034   0.304   1.945
  453SOL    HW3 2132   0.122   0.258   1.830
  453SOL    MW4 2133   0.070   0.239   1.898
  454SOL     OW 2134   0.101   1.482   2.090
  454SOL    HW2 2135   0.118   1.566   2.132
  454SOL    HW3 2136   0.136   1.491   2.002
  454SOL    MW4 2137   0.106   1.495   2.084
  455SOL     OW 2138   1.373   1.571   2.307
  455SOL    HW2 2139   1.436   1.561   2.236
  455SOL    HW3 2140   1.290   1.591   2.262
  455SOL    MW4 2141   1.370   1.572   2.292
  456SOL     OW 2142   1.736   0.839   3.993
  456SOL    HW2 2143   1.777   0.781   4.058
  456SOL    HW3 2144   1.643   0.831   4.010
  456SOL    MW4 2145   1.730   0.831   4.003
  457SOL     OW 2146   1.602   0.771   4.988
  457SOL    HW2 2147   1.557   0.838   5.039
  457SOL    HW3 2148   1.690   0.807   4.974
  457SOL    MW4 2149   1.608   0.784   4.992
  458SOL     OW 2150   0.530   1.022   4.222
  458SOL    HW2 2151   0.620   0.997   4.206
  458SOL    HW3 2152   0.526   1.115   4.199
  458SOL    MW4 2153   0.542   1.031   4.217
  459SOL     OW 2154   1.646   1.725   4.364
  459SOL    HW2 2155   1.658   1.671   4.442
  459SOL    HW3 2156   1.683   1.673   4.293
  459SOL    MW4 2157   1.652   1.710   4.365
  460SOL     OW 2158   1.025   1.610   5.365
  460SOL    HW2 2159   1.066   1.646   5.286
  460SOL    HW3 2160   1.060   1.521   5.372
  460SOL    MW4 2161   1.036   1.603   5.356
  461SOL     OW 2162   1.582   1.165   4.969
  461SOL    HW2 2163   1.503   1.130   4.927
  461SOL    HW3 2164   1.609   1.237   4.913
  461SOL    MW4 2165   1.575   1.170   4.956
  462SOL     OW 2166   0.814   0.478   4.235
  462SOL    HW2 2167   0.789   0.566   4.263
  462SOL    HW3 2168   0.811   0.481   4.139
  462SOL    MW4 2169   0.810   0.490   4.227
  463SOL     OW 2170   0.256   0.506   4.163
  463SOL    HW2 2171   0.288   0.594   4.145
  463SOL    HW3 2172   0.244   0.504   4.258
  463SOL    MW4 2173   0.259   0.518   4.175
  464SOL     OW 2174   0.334   0.919   5.064
  464SOL    HW2 2175   0.397   0.866   5.015
  464SOL    HW3 2176   0.315   0.993   5.007
  464SOL    MW4 2177   0.340   0.921   5.051
  465SOL     OW 2178   0.655   0.261   4.250
  465SOL    HW2 2179   0.713   0.337   4.252
  465SOL    HW3 2180   0.590   0.282   4.183
  465SOL    MW4 2181   0.654   0.273   4.241
  466SOL     OW 2182   0.742   1.188   4.425
  466SOL    HW2 2183   0.822   1.191   4.477
  466SOL    HW3 2184   0.770   1.155   4.339
  466SOL    MW4 2185   0.756   1.184   4.420
  467SOL     OW 2186   0.767   1.529   5.328
  467SOL    HW2 2187   0.851   1.555   5.367
  467SOL    HW3 2188   0.791   1.473   5.254
  467SOL    MW4 2189   0.781   1.525   5.323
  468SOL     OW 2190   0.519   0.692   4.416
  468SOL    HW2 2191   0.504   0.612   4.467
  468SOL    HW3 2192   0.601   0.727   4.450
  468SOL    MW4 2193   0.527   0.684   4.428
  469SOL     OW 2194   0.856   1.378   5.101
  469SOL    HW2 2195   0.820   1.444   5.041
  469SOL    HW3 2196   0.784   1.316   5.114
  469SOL    MW4 2197   0.842   1.378   5.095
  470SOL     OW 2198   0.661   0.518   4.793
  470SOL    HW2 2199   0.567   0.514   4.811
  470SOL    HW3 2200   0.691   0.427   4.802
  470SOL    MW4 2201   0.652   0.506   4.796
  471SOL     OW 2202   0.407   0.932   4.697
  471SOL    HW2 2203   0.362   0.939   4.613
  471SOL    HW3 2204   0.387   1.015   4.741
  471SOL    MW4 2205   0.399   0.944   4.691
  472SOL     OW 2206   1.369   1.170   3.941
  472SOL    HW2 2207   1.287   1.206   3.907
  472SOL    HW3 2208   1.437   1.213   3.890
  472SOL    MW4 2209   1.367   1.180   3.929
  473SOL     OW 2210   0.368   1.305   4.607
  473SOL    HW2 2211   0.344   1.358   4.683
  473SOL    HW3 2212   0.424   1.363   4.555
  473SOL    MW4 2213   0.372   1.320   4.610
  474SOL     OW 2214   0.930   0.949   4.417
  474SOL    HW2 2215   0.844   0.936   4.457
  474SOL    HW3 2216   0.983   0.876   4.449
  474SOL    MW4 2217   0.926   0.938   4.426
  475SOL     OW 2218   0.338   1.601   5.202
  475SOL    HW2 2219   0.246   1.577   5.187
  475SOL    HW3 2220   0.382   1.518   5.219
  475SOL    MW4 2221   0.332   1.586   5.201
  476SOL     OW 2222   0.921   1.311   4.134
  476SOL    HW2 2223   0.898   1.373   4.202
  476SOL    HW3 2224   0.878   1.229   4.160
  476SOL    MW4 2225   0.913   1.307   4.145
  477SOL     OW 2226   1.794   0.312   4.590
  477SOL    HW2 2227   1.731   0.292   4.659
  477SOL    HW3 2228   1.784   0.241   4.527
  477SOL    MW4 2229   1.784   0.299   4.591
  478SOL     OW 2230   0.418   0.284   4.102
  478SOL    HW2 2231   0.392   0.246   4.018
  478SOL    HW3 2232   0.355   0.354   4.118
  478SOL    MW4 2233   0.407   0.287   4.093
  479SOL     OW 2234   0.253   1.245   4.139
  479SOL    HW2 2235   0.201   1.313   4.095
  479SOL    HW3 2236   0.250   1.171   4.079
  479SOL    MW4 2237   0.245   1.244   4.126
  480SOL     OW 2238   0.915   1.708   3.917
  480SOL    HW2 2239   0.870   1.724   4.000
  480SOL    HW3 2240   0.846   1.673   3.859
  480SOL    MW4 2241   0.901   1.705   3.919
  481SOL     OW 2242   1.850   0.481   3.892
  481SOL    HW2 2243   1.759   0.483   3.920
  481SOL    HW3 2244   1.895   0.543   3.950
  481SOL    MW4 2245   1.843   0.489   3.902
  482SOL     OW 2246   1.595   1.084   4.242
  482SOL    HW2 2247   1.505   1.084   4.277
  482SOL    HW3 2248   1.588   1.130   4.159
  482SOL    MW4 2249   1.582   1.090   4.236
  483SOL     OW 2250   1.395   0.719   5.314
  483SOL    HW2 2251   1.464   0.657   5.291
  483SOL    HW3 2252   1.320   0.693   5.261
  483SOL    MW4 2253   1.395   0.706   5.305
  484SOL     OW 2254   0.136   1.599   4.866
  484SOL    HW2 2255   0.119   1.545   4.943
  484SOL    HW3 2256   0.124   1.689   4.896
  484SOL    MW4 2257   0.133   1.603   4.880
  485SOL     OW 2258   1.131   1.106   5.306
  485SOL    HW2 2259   1.116   1.199   5.291
  485SOL    HW3 2260   1.226   1.096   5.306
  485SOL    MW4 2261   1.140   1.116   5.303
  486SOL     OW 2262   0.927   0.530   5.507
  486SOL    HW2 2263   1.017   0.531   5.474
  486SOL    HW3 2264   0.886   0.455   5.465
  486SOL    MW4 2265   0.933   0.520   5.498
  487SOL     OW 2266   1.502   1.062   4.634
  487SOL    HW2 2267   1.505   0.996   4.565
  487SOL    HW3 2268   1.587   1.105   4.630
  487SOL    MW4 2269   1.514   1.058   4.625
  488SOL     OW 2270   1.122   0.665   4.203
  488SOL    HW2 2271   1.148   0.689   4.114
  488SOL    HW3 2272   1.104   0.572   4.199
  488SOL    MW4 2273   1.124   0.657   4.190
  489SOL     OW 2274   1.787   1.285   4.054
  489SOL    HW2 2275   1.743   1.326   4.129
  489SOL    HW3 2276   1.844   1.353   4.019
  489SOL    MW4 2277   1.789   1.299   4.059
  490SOL     OW 2278   0.707   0.334   5.457
  490SOL    HW2 2279   0.717   0.260   5.397
  490SOL    HW3 2280   0.743   0.303   5.540
  490SOL    MW4 2281   0.713   0.320   5.459
  491SOL     OW 2282   0.443   1.701   4.372
  491SOL    HW2 2283   0.475   1.789   4.350
  491SOL    HW3 2284   0.396   1.673   4.294
  491SOL    MW4 2285   0.442   1.709   4.359
  492SOL     OW 2286   1.827   0.063   4.421
  492SOL    HW2 2287   1.881   0.014   4.483
  492SOL    HW3 2288   1.770  -0.003   4.382
  492SOL    MW4 2289   1.827   0.047   4.423
  493SOL     OW 2290   0.159   1.761   3.949
  493SOL    HW2 2291   0.188   1.851   3.941
  493SOL    HW3 2292   0.109   1.744   3.870
  493SOL    MW4 2293   0.157   1.769   3.938
  494SOL     OW 2294   0.946   0.016   4.834
  494SOL    HW2 2295   0.905   0.094   4.796
  494SOL    HW3 2296   1.040   0.034   4.829
  494SOL    MW4 2297   0.952   0.028   4.829
  495SOL     OW 2298   1.563   1.569   3.920
  495SOL    HW2 2299   1.611   1.638   3.966
  495SOL    HW3 2300   1.484   1.613   3.889
  495SOL    MW4 2301   1.558   1.583   3.923
  496SOL     OW 2302   0.961   0.694   3.864
  496SOL    HW2 2303   0.963   0.641   3.785
  496SOL    HW3 2304   1.049   0.731   3.870
  496SOL    MW4 2305   0.973   0.693   3.853
  497SOL     OW 2306   1.575   0.620   4.200
  497SOL    HW2 2307   1.614   0.620   4.287
  497SOL    HW3 2308   1.516   0.696   4.200
  497SOL    MW4 2309   1.572   0.631   4.211
  498SOL     OW 2310   0.892   0.987   5.329
  498SOL    HW2 2311   0.869   0.967   5.419
  498SOL    HW3 2312   0.977   1.031   5.334
  498SOL    MW4 2313   0.899   0.990   5.341
  499SOL     OW 2314   0.972   0.124   5.089
  499SOL    HW2 2315   0.978   0.086   5.002
  499SOL    HW3 2316   0.961   0.218   5.074
  499SOL    MW4 2317   0.973   0.132   5.077
  500SOL     OW 2318   1.061   0.613   4.923
  500SOL    HW2 2319   1.136   0.642   4.870
  500SOL    HW3 2320   0.993   0.678   4.907
  500SOL    MW4 2321   1.062   0.625   4.913
  501SOL     OW 2322   1.611   0.581   5.200
  501SOL    HW2 2323   1.592   0.490   5.179
  501SOL    HW3 2324   1.589   0.630   5.121
  501SOL    MW4 2325   1.606   0.574   5.187
  502SOL     OW 2326   1.753   1.675   5.104
  502SOL    HW2 2327   1.681   1.637   5.155
  502SOL    HW3 2328   1.770   1.760   5.145
  502SOL    MW4 2329   1.747   1.680   5.116
  503SOL     OW 2330   1.058   0.319   5.306
  503SOL    HW2 2331   1.024   0.358   5.225
  503SOL    HW3 2332   1.036   0.227   5.299
  503SOL    MW4 2333   1.051   0.312   5.296
  504SOL     OW 2334   1.467   1.133   5.382
  504SOL    HW2 2335   1.549   1.174   5.412
  504SOL    HW3 2336   1.430   1.095   5.462
  504SOL    MW4 2337   1.473   1.134   5.397
  505SOL     OW 2338   1.762   0.506   4.366
  505SOL    HW2 2339   1.851   0.475   4.383
  505SOL    HW3 2340   1.705   0.446   4.414
  505SOL    MW4 2341   1.765   0.494   4.375
  506SOL     OW 2342   0.188   0.220   4.395
  506SOL    HW2 2343   0.179   0.160   4.321
  506SOL    HW3 2344   0.121   0.191   4.458
  506SOL    MW4 2345   0.178   0.207   4.393
  507SOL     OW 2346   1.131   1.313   3.956
  507SOL    HW2 2347   1.081   1.315   4.038
  507SOL    HW3 2348   1.065   1.331   3.888
  507SOL    MW4 2349   1.117   1.315   3.958
  508SOL     OW 2350   0.135   0.393   4.758
  508SOL    HW2 2351   0.107   0.484   4.767
  508SOL    HW3 2352   0.072   0.354   4.697
  508SOL    MW4 2353   0.122   0.399   4.752
  509SOL     OW 2354   0.594   1.731   4.064
  509SOL    HW2 2355   0.515   1.689   4.097
  509SOL    HW3 2356   0.660   1.714   4.131
  509SOL    MW4 2357   0.593   1.723   4.077
  510SOL     OW 2358   1.722   1.251   5.461
  510SOL    HW2 2359   1.772   1.177   5.493
  510SOL    HW3 2360   1.668   1.278   5.536
  510SOL    MW4 2361   1.722   1.245   5.474
  511SOL     OW 2362   0.730   1.146   3.771
  511SOL    HW2 2363   0.652   1.092   3.758
  511SOL    HW3 2364   0.701   1.219   3.824
  511SOL    MW4 2365   0.716   1.148   3.776
  512SOL     OW 2366   1.856   0.886   4.963
  512SOL    HW2 2367   1.872   0.924   4.876
  512SOL    HW3 2368   1.890   0.952   5.024
  512SOL    MW4 2369   1.863   0.899   4.959
  513SOL     OW 2370   1.648   1.595   4.632
  513SOL    HW2 2371   1.677   1.662   4.693
  513SOL    HW3 2372   1.629   1.519   4.687
  513SOL    MW4 2373   1.650   1.595   4.647
  514SOL     OW 2374   1.311   1.662   3.839
  514SOL    HW2 2375   1.237   1.625   3.889
  514SOL    HW3 2376   1.319   1.752   3.872
  514SOL    MW4 2377   1.302   1.669   3.851
  515SOL     OW 2378   0.119   0.668   4.928
  515SOL    HW2 2379   0.181   0.698   4.994
  515SOL    HW3 2380   0.053   0.737   4.922
  515SOL    MW4 2381   0.118   0.681   4.935
  516SOL     OW 2382   1.535   1.336   3.781
  516SOL    HW2 2383   1.482   1.385   3.717
  516SOL    HW3 2384   1.566   1.402   3.842
  516SOL    MW4 2385   1.533   1.350   3.779
  517SOL     OW 2386   0.760   0.225   3.836
  517SOL    HW2 2387   0.708   0.145   3.824
  517SOL    HW3 2388   0.847   0.202   3.804
  517SOL    MW4 2389   0.763   0.211   3.830
  518SOL     OW 2390   0.214   1.777   5.380
  518SOL    HW2 2391   0.188   1.845   5.318
  518SOL    HW3 2392   0.262   1.714   5.328
  518SOL    MW4 2393   0.216   1.777   5.366
  519SOL     OW 2394   0.266   1.096   4.887
  519SOL    HW2 2395   0.319   1.171   4.912
  519SOL    HW3 2396   0.185   1.134   4.853
  519SOL    MW4 2397   0.262   1.111   4.887
  520SOL     OW 2398   0.806   1.000   4.875
  520SOL    HW2 2399   0.834   0.909   4.887
  520SOL    HW3 2400   0.735   0.994   4.811
  520SOL    MW4 2401   0.799   0.988   4.870
  521SOL     OW 2402   0.121   0.865   4.293
  521SOL    HW2 2403   0.212   0.880   4.320
  521SOL    HW3 2404   0.124   0.786   4.239
  521SOL    MW4 2405   0.133   0.857   4.291
  522SOL     OW 2406   0.357   0.573   5.547
  522SOL    HW2 2407   0.304   0.653   5.554
  522SOL    HW3 2408   0.427   0.585   5.612
  522SOL    MW4 2409   0.359   0.586   5.555
  523SOL     OW 2410   0.743   0.123   5.254
  523SOL    HW2 2411   0.720   0.031   5.256
  523SOL    HW3 2412   0.829   0.125   5.211
  523SOL    MW4 2413   0.750   0.113   5.250
  524SOL     OW 2414   0.427   0.647   5.293
  524SOL    HW2 2415   0.507   0.697   5.279
  524SOL    HW3 2416   0.418   0.641   5.388
  524SOL    MW4 2417   0.436   0.653   5.303
  525SOL     OW 2418   0.748   1.797   4.667
  525SOL    HW2 2419   0.837   1.812   4.697
  525SOL    HW3 2420   0.743   1.844   4.583
  525SOL    MW4 2421   0.758   1.805   4.660
  526SOL     OW 2422   1.404   0.172   5.564
  526SOL    HW2 2423   1.460   0.099   5.590
  526SOL    HW3 2424   1.374   0.210   5.646
  526SOL    MW4 2425   1.408   0.167   5.577
  527SOL     OW 2426   0.129   1.477   4.332
  527SOL    HW2 2427   0.101   1.516   4.414
  527SOL    HW3 2428   0.149   1.386   4.354
  527SOL    MW4 2429   0.127   1.469   4.345
  528SOL     OW 2430   0.962   1.520   4.367
  528SOL    HW2 2431   1.045   1.474   4.351
  528SOL    HW3 2432   0.952   1.519   4.463
  528SOL    MW4 2433   0.972   1.513   4.377
  529SOL     OW 2434   1.794   0.665   4.681
  529SOL    HW2 2435   1.883   0.695   4.663
  529SOL    HW3 2436   1.774   0.605   4.610
  529SOL    MW4 2437   1.803   0.662   4.670
  530SOL     OW 2438   1.645   0.844   5.561
  530SOL    HW2 2439   1.700   0.768   5.542
  530SOL    HW3 2440   1.647   0.852   5.656
  530SOL    MW4 2441   1.653   0.835   5.569
  531SOL     OW 2442   0.695   1.577   3.772
  531SOL    HW2 2443   0.635   1.646   3.742
  531SOL    HW3 2444   0.640   1.519   3.825
  531SOL    MW4 2445   0.679   1.579   3.774
  532SOL     OW 2446   1.133   0.222   3.995
  532SOL    HW2 2447   1.066   0.198   3.932
  532SOL    HW3 2448   1.198   0.271   3.944
  532SOL    MW4 2449   1.133   0.224   3.980
  533SOL     OW 2450   0.940   0.406   5.080
  533SOL    HW2 2451   0.859   0.447   5.108
  533SOL    HW3 2452   0.987   0.474   5.032
  533SOL    MW4 2453   0.935   0.421   5.078
  534SOL     OW 2454   1.200   0.744   4.703
  534SOL    HW2 2455   1.213   0.838   4.713
  534SOL    HW3 2456   1.161   0.734   4.617
  534SOL    MW4 2457   1.196   0.755   4.693
  535SOL     OW 2458   0.652   0.939   4.507
  535SOL    HW2 2459   0.563   0.930   4.540
  535SOL    HW3 2460   0.656   1.029   4.475
  535SOL    MW4 2461   0.641   0.950   4.507
  536SOL     OW 2462   1.451   0.522   4.502
  536SOL    HW2 2463   1.396   0.443   4.501
  536SOL    HW3 2464   1.433   0.563   4.586
  536SOL    MW4 2465   1.441   0.517   4.511
  537SOL     OW 2466   0.422   0.209   5.319
  537SOL    HW2 2467   0.343   0.227   5.371
  537SOL    HW3 2468   0.417   0.271   5.246
  537SOL    MW4 2469   0.412   0.219   5.316
  538SOL     OW 2470   1.070   0.726   4.459
  538SOL    HW2 2471   1.007   0.658   4.483
  538SOL    HW3 2472   1.090   0.707   4.367
  538SOL    MW4 2473   1.064   0.713   4.451
  539SOL     OW 2474   0.326   1.621   4.161
  539SOL    HW2 2475   0.287   1.668   4.087
  539SOL    HW3 2476   0.260   1.556   4.186
  539SOL    MW4 2477   0.313   1.619   4.155
  540SOL     OW 2478   0.818   1.030   4.185
  540SOL    HW2 2479   0.820   1.004   4.092
  540SOL    HW3 2480   0.876   0.967   4.228
  540SOL    MW4 2481   0.826   1.019   4.179
  541SOL     OW 2482   1.371   1.590   4.957
  541SOL    HW2 2483   1.296   1.636   4.995
  541SOL    HW3 2484   1.353   1.497   4.974
  541SOL    MW4 2485   1.360   1.584   4.965
  542SOL     OW 2486   1.375   1.798   4.387
  542SOL    HW2 2487   1.318   1.751   4.326
  542SOL    HW3 2488   1.461   1.759   4.374
  542SOL    MW4 2489   1.378   1.789   4.377
  543SOL     OW 2490   1.328   0.274   4.518
  543SOL    HW2 2491   1.356   0.206   4.579
  543SOL    HW3 2492   1.242   0.245   4.488
  543SOL    MW4 2493   1.321   0.261   4.522
  544SOL     OW 2494   0.133   1.208   4.452
  544SOL    HW2 2495   0.197   1.240   4.515
  544SOL    HW3 2496   0.182   1.144   4.400
  544SOL    MW4 2497   0.148   1.204   4.453
  545SOL     OW 2498   0.633   1.284   5.434
  545SOL    HW2 2499   0.681   1.367   5.421
  545SOL    HW3 2500   0.690   1.232   5.490
  545SOL    MW4 2501   0.647   1.288   5.440
  546SOL     OW 2502   0.209   1.526   5.574
  546SOL    HW2 2503   0.265   1.450   5.589
  546SOL    HW3 2504   0.158   1.504   5.496
  546SOL    MW4 2505   0.209   1.513   5.565
  547SOL     OW 2506   1.308   0.378   3.853
  547SOL    HW2 2507   1.281   0.444   3.789
  547SOL    HW3 2508   1.378   0.421   3.903
  547SOL    MW4 2509   1.313   0.391   3.850
  548SOL     OW 2510   0.976   0.083   3.790
  548SOL    HW2 2511   1.032   0.075   3.712
  548SOL    HW3 2512   0.953  -0.007   3.812
  548SOL    MW4 2513   0.981   0.070   3.783
  549SOL     OW 2514   1.481   0.934   3.995
  549SOL    HW2 2515   1.448   1.023   3.985
  549SOL    HW3 2516   1.446   0.905   4.080
  549SOL    MW4 2517   1.471   0.943   4.006
  550SOL     OW 2518   1.094   1.363   5.183
  550SOL    HW2 2519   1.005   1.369   5.151
  550SOL    HW3 2520   1.138   1.442   5.151
  550SOL    MW4 2521   1.089   1.373   5.175
  551SOL     OW 2522   0.387   0.031   5.525
  551SOL    HW2 2523   0.315  -0.004   5.473
  551SOL    HW3 2524   0.445   0.072   5.460
  551SOL    MW4 2525   0.385   0.032   5.510
  552SOL     OW 2526   0.411   1.521   4.824
  552SOL    HW2 2527   0.456   1.583   4.881
  552SOL    HW3 2528   0.318   1.540   4.837
  552SOL    MW4 2529   0.404   1.531   4.831
  553SOL     OW 2530   1.851   1.050   5.178
  553SOL    HW2 2531   1.766   1.063   5.137
  553SOL    HW3 2532   1.831   1.014   5.265
  553SOL    MW4 2533   1.838   1.046   5.183
  554SOL     OW 2534   0.833   1.589   4.932
  554SOL    HW2 2535   0.857   1.578   4.841
  554SOL    HW3 2536   0.756   1.646   4.930
  554SOL    MW4 2537   0.825   1.594   4.921
  555SOL     OW 2538   0.475   0.972   3.787
  555SOL    HW2 2539   0.398   0.985   3.843
  555SOL    HW3 2540   0.439   0.936   3.706
  555SOL    MW4 2541   0.461   0.968   3.784
  556SOL     OW 2542   1.128   0.945   4.030
  556SOL    HW2 2543   1.038   0.966   4.005
  556SOL    HW3 2544   1.155   1.018   4.086
  556SOL    MW4 2545   1.120   0.957   4.033
  557SOL     OW 2546   0.628   1.294   4.722
  557SOL    HW2 2547   0.621   1.273   4.816
  557SOL    HW3 2548   0.546   1.262   4.685
  557SOL    MW4 2549   0.616   1.288   4.729
  558SOL     OW 2550   1.492   0.304   5.124
  558SOL    HW2 2551   1.439   0.306   5.204
  558SOL    HW3 2552   1.477   0.217   5.087
  558SOL    MW4 2553   1.484   0.294   5.129
  559SOL     OW 2554   1.828   0.228   4.997
  559SOL    HW2 2555   1.809   0.295   4.932
  559SOL    HW3 2556   1.885   0.166   4.952
  559SOL    MW4 2557   1.832   0.229   4.983
  560SOL     OW 2558   0.074   1.386   5.385
  560SOL    HW2 2559   0.118   1.319   5.331
  560SOL    HW3 2560  -0.011   1.348   5.405
  560SOL    MW4 2561   0.069   1.372   5.381
  561SOL     OW 2562   0.757   0.061   4.437
  561SOL    HW2 2563   0.686   0.122   4.419
  561SOL    HW3 2564   0.808   0.058   4.356
  561SOL    MW4 2565   0.753   0.067   4.424
  562SOL     OW 2566   0.515   1.301   4.186
  562SOL    HW2 2567   0.508   1.333   4.276
  562SOL    HW3 2568   0.425   1.285   4.158
  562SOL    MW4 2569   0.503   1.303   4.193
  563SOL     OW 2570   1.110   1.694   5.095
  563SOL    HW2 2571   1.030   1.679   5.045
  563SOL    HW3 2572   1.117   1.789   5.102
  563SOL    MW4 2573   1.101   1.705   5.089
  564SOL     OW 2574   1.224   1.659   4.585
  564SOL    HW2 2575   1.271   1.732   4.544
  564SOL    HW3 2576   1.145   1.698   4.621
  564SOL    MW4 2577   1.219   1.674   4.584
  565SOL     OW 2578   1.632   1.754   4.860
  565SOL    HW2 2579   1.675   1.724   4.940
  565SOL    HW3 2580   1.551   1.702   4.857
  565SOL    MW4 2581   1.627   1.743   4.870
  566SOL     OW 2582   0.717   0.718   5.567
  566SOL    HW2 2583   0.787   0.660   5.539
  566SOL    HW3 2584   0.660   0.663   5.622
  566SOL    MW4 2585   0.719   0.705   5.571
  567SOL     OW 2586   1.504   0.930   5.200
  567SOL    HW2 2587   1.509   0.983   5.280
  567SOL    HW3 2588   1.466   0.847   5.228
  567SOL    MW4 2589   1.500   0.925   5.215
  568SOL     OW 2590   1.144   0.065   5.446
  568SOL    HW2 2591   1.139  -0.028   5.427
  568SOL    HW3 2592   1.227   0.076   5.492
  568SOL    MW4 2593   1.152   0.054   5.450
  569SOL     OW 2594   0.518   0.585   3.900
  569SOL    HW2 2595   0.484   0.641   3.970
  569SOL    HW3 2596   0.589   0.535   3.940
  569SOL    MW4 2597   0.524   0.586   3.914
  570SOL     OW 2598   1.614   1.336   4.722
  570SOL    HW2 2599   1.649   1.318   4.635
  570SOL    HW3 2600   1.519   1.337   4.709
  570SOL    MW4 2601   1.606   1.333   4.709
  571SOL     OW 2602   1.043   0.984   5.091
  571SOL    HW2 2603   1.086   1.019   5.169
  571SOL    HW3 2604   1.026   1.061   5.037
  571SOL    MW4 2605   1.046   0.999   5.094
  572SOL     OW 2606   1.574   0.471   3.964
  572SOL    HW2 2607   1.566   0.542   3.901
  572SOL    HW3 2608   1.592   0.515   4.047
  572SOL    MW4 2609   1.575   0.485   3.966
  573SOL     OW 2610   0.434   0.126   4.393
  573SOL    HW2 2611   0.484   0.169   4.324
  573SOL    HW3 2612   0.349   0.170   4.393
  573SOL    MW4 2613   0.431   0.139   4.384
  574SOL     OW 2614   0.193   1.188   5.253
  574SOL    HW2 2615   0.221   1.141   5.331
  574SOL    HW3 2616   0.114   1.143   5.224
  574SOL    MW4 2617   0.186   1.177   5.259
  575SOL     OW 2618   0.701   0.515   5.220
  575SOL    HW2 2619   0.673   0.603   5.244
  575SOL    HW3 2620   0.670   0.459   5.291
  575SOL    MW4 2621   0.693   0.518   5.232
  576SOL     OW 2622   1.243   0.733   3.939
  576SOL    HW2 2623   1.290   0.751   3.858
  576SOL    HW3 2624   1.209   0.817   3.967
  576SOL    MW4 2625   1.245   0.747   3.932
  577SOL     OW 2626   0.356   0.911   4.433
  577SOL    HW2 2627   0.414   0.967   4.381
  577SOL    HW3 2628   0.400   0.826   4.435
  577SOL    MW4 2629   0.369   0.908   4.426
  578SOL     OW 2630   1.496   0.263   4.270
  578SOL    HW2 2631   1.418   0.213   4.295
  578SOL    HW3 2632   1.467   0.354   4.270
  578SOL    MW4 2633   1.482   0.267   4.273
  579SOL     OW 2634   1.082   0.225   4.429
  579SOL    HW2 2635   1.102   0.300   4.373
  579SOL    HW3 2636   1.062   0.264   4.514
  579SOL    MW4 2637   1.083   0.241   4.433
  580SOL     OW 2638   0.978   1.475   3.761
  580SOL    HW2 2639   1.005   1.553   3.713
  580SOL    HW3 2640   0.885   1.490   3.780
  580SOL    MW4 2641   0.969   1.488   3.757
  581SOL     OW 2642   1.842   0.998   5.448
  581SOL    HW2 2643   1.755   0.978   5.484
  581SOL    HW3 2644   1.896   0.924   5.473
  581SOL    MW4 2645   1.837   0.987   5.456
  582SOL     OW 2646   0.063   1.511   4.605
  582SOL    HW2 2647   0.095   1.515   4.696
  582SOL    HW3 2648  -0.032   1.519   4.613
  582SOL    MW4 2649   0.055   1.514   4.618
  583SOL     OW 2650   0.018   0.637   4.152
  583SOL    HW2 2651  -0.042   0.609   4.222
  583SOL    HW3 2652   0.092   0.577   4.158
  583SOL    MW4 2653   0.020   0.626   4.161
  584SOL     OW 2654   1.586   1.849   5.586
  584SOL    HW2 2655   1.631   1.773   5.551
  584SOL    HW3 2656   1.624   1.862   5.673
  584SOL    MW4 2657   1.596   1.842   5.592
  585SOL     OW 2658   1.186   1.368   4.312
  585SOL    HW2 2659   1.209   1.319   4.390
  585SOL    HW3 2660   1.267   1.410   4.284
  585SOL    MW4 2661   1.199   1.368   4.319
  586SOL     OW 2662   0.444   0.376   5.041
  586SOL    HW2 2663   0.477   0.457   5.081
  586SOL    HW3 2664   0.417   0.402   4.953
  586SOL    MW4 2665   0.443   0.390   5.035
  587SOL     OW 2666   0.398   0.343   4.777
  587SOL    HW2 2667   0.428   0.257   4.748
  587SOL    HW3 2668   0.303   0.336   4.780
  587SOL    MW4 2669   0.390   0.332   4.775
  588SOL     OW 2670   1.227   0.552   5.468
  588SOL    HW2 2671   1.279   0.487   5.421
  588SOL    HW3 2672   1.185   0.603   5.398
  588SOL    MW4 2673   1.228   0.549   5.451
  589SOL     OW 2674   1.326   0.347   5.329
  589SOL    HW2 2675   1.233   0.331   5.316
  589SOL    HW3 2676   1.352   0.285   5.397
  589SOL    MW4 2677   1.316   0.337   5.336
  590SOL     OW 2678   0.541   0.121   4.668
  590SOL    HW2 2679   0.551   0.030   4.694
  590SOL    HW3 2680   0.497   0.117   4.583
  590SOL    MW4 2681   0.537   0.109   4.660
  591SOL     OW 2682   0.635   1.736   5.214
  591SOL    HW2 2683   0.552   1.721   5.259
  591SOL    HW3 2684   0.694   1.669   5.249
  591SOL    MW4 2685   0.633   1.726   5.224
  592SOL     OW 2686   1.692   0.443   4.839
  592SOL    HW2 2687   1.625   0.476   4.899
  592SOL    HW3 2688   1.735   0.521   4.805
  592SOL    MW4 2689   1.690   0.458   4.843
  593SOL     OW 2690   1.870   1.163   4.809
  593SOL    HW2 2691   1.863   1.103   4.734
  593SOL    HW3 2692   1.796   1.223   4.798
  593SOL    MW4 2693   1.860   1.163   4.798
  594SOL     OW 2694   1.252   1.025   4.727
  594SOL    HW2 2695   1.266   0.997   4.818
  594SOL    HW3 2696   1.338   1.056   4.699
  594SOL    MW4 2697   1.265   1.026   4.736
  595SOL     OW 2698   1.335   0.520   5.006
  595SOL    HW2 2699   1.356   0.521   4.913
  595SOL    HW3 2700   1.380   0.442   5.039
  595SOL    MW4 2701   1.342   0.510   4.998
  596SOL     OW 2702   1.828   0.651   5.548
  596SOL    HW2 2703   1.865   0.596   5.617
  596SOL    HW3 2704   1.853   0.608   5.466
  596SOL    MW4 2705   1.835   0.639   5.547
  597SOL     OW 2706   1.375   0.949   5.600
  597SOL    HW2 2707   1.441   0.897   5.554
  597SOL    HW3 2708   1.395   0.936   5.693
  597SOL    MW4 2709   1.386   0.940   5.607
  598SOL     OW 2710   1.326   0.035   3.948
  598SOL    HW2 2711   1.400   0.079   3.991
  598SOL    HW3 2712   1.250   0.089   3.970
  598SOL    MW4 2713   1.326   0.047   3.956
  599SOL     OW 2714   1.386   0.810   4.226
  599SOL    HW2 2715   1.301   0.780   4.196
  599SOL    HW3 2716   1.378   0.817   4.321
  599SOL    MW4 2717   1.374   0.808   4.235
  600SOL     OW 2718   0.462   1.273   4.957
  600SOL    HW2 2719   0.474   1.300   5.048
  600SOL    HW3 2720   0.443   1.354   4.910
  600SOL    MW4 2721   0.461   1.288   4.962
  601SOL     OW 2722   0.746   0.253   4.780
  601SOL    HW2 2723   0.719   0.255   4.871
  601SOL    HW3 2724   0.676   0.205   4.735
  601SOL    MW4 2725   0.734   0.249   4.787
  602SOL     OW 2726   0.600   1.745   4.942
  602SOL    HW2 2727   0.652   1.822   4.919
  602SOL    HW3 2728   0.609   1.737   5.037
  602SOL    MW4 2729   0.609   1.752   4.953
  603SOL     OW 2730   1.502   1.330   5.174
  603SOL    HW2 2731   1.487   1.259   5.237
  603SOL    HW3 2732   1.548   1.288   5.102
  603SOL    MW4 2733   1.508   1.314   5.174
  604SOL     OW 2734   0.576   1.061   5.291
  604SOL    HW2 2735   0.613   1.066   5.203
  604SOL    HW3 2736   0.615   1.134   5.338
  604SOL    MW4 2737   0.586   1.071   5.286
  605SOL     OW 2738   0.756   1.104   5.103
  605SOL    HW2 2739   0.815   1.050   5.156
  605SOL    HW3 2740   0.771   1.076   5.013
  605SOL    MW4 2741   0.766   1.093   5.099
  606SOL     OW 2742   0.759   0.476   3.952
  606SOL    HW2 2743   0.832   0.525   3.915
  606SOL    HW3 2744   0.775   0.385   3.926
  606SOL    MW4 2745   0.771   0.471   3.945
  607SOL     OW 2746   1.567   1.593   5.275
  607SOL    HW2 2747   1.609   1.578   5.360
  607SOL    HW3 2748   1.558   1.506   5.237
  607SOL    MW4 2749   1.571   1.581   5.282
  608SOL     OW 2750   1.227   0.072   4.866
  608SOL    HW2 2751   1.282   0.081   4.788
  608SOL    HW3 2752   1.282   0.106   4.937
  608SOL    MW4 2753   1.241   0.077   4.865
  609SOL     OW 2754   0.234   0.985   4.050
  609SOL    HW2 2755   0.171   1.001   3.979
  609SOL    HW3 2756   0.181   0.948   4.121
  609SOL    MW4 2757   0.219   0.982   4.050
  610SOL     OW 2758   1.129   1.570   4.061
  610SOL    HW2 2759   1.137   1.488   4.012
  610SOL    HW3 2760   1.048   1.609   4.028
  610SOL    MW4 2761   1.119   1.565   4.051
  611SOL     OW 2762   0.388   1.728   4.630
  611SOL    HW2 2763   0.392   1.639   4.665
  611SOL    HW3 2764   0.414   1.719   4.539
  611SOL    MW4 2765   0.391   1.716   4.622
  612SOL     OW 2766   1.005   1.206   4.873
  612SOL    HW2 2767   0.937   1.140   4.889
  612SOL    HW3 2768   1.023   1.200   4.780
  612SOL    MW4 2769   0.998   1.197   4.864
  613SOL     OW 2770   0.094   1.481   5.124
  613SOL    HW2 2771   0.084   1.439   5.210
  613SOL    HW3 2772   0.015   1.534   5.114
  613SOL    MW4 2773   0.083   1.482   5.135
  614SOL     OW 2774   0.998   0.345   4.694
  614SOL    HW2 2775   0.928   0.297   4.739
  614SOL    HW3 2776   1.030   0.408   4.758
  614SOL    MW4 2777   0.993   0.347   4.708
  615SOL     OW 2778   0.649   0.781   5.314
  615SOL    HW2 2779   0.642   0.876   5.302
  615SOL    HW3 2780   0.658   0.770   5.409
  615SOL    MW4 2781   0.650   0.793   5.324
  616SOL     OW 2782   0.370   1.296   5.572
  616SOL    HW2 2783   0.442   1.298   5.509
  616SOL    HW3 2784   0.340   1.205   5.571
  616SOL    MW4 2785   0.375   1.285   5.564
  617SOL     OW 2786   1.454   0.059   5.039
  617SOL    HW2 2787   1.525   0.005   5.003
  617SOL    HW3 2788   1.453   0.038   5.132
  617SOL    MW4 2789   1.463   0.050   5.047
  618SOL     OW 2790   1.654   1.589   5.523
  618SOL    HW2 2791   1.627   1.586   5.614
  618SOL    HW3 2792   1.750   1.593   5.526
  618SOL    MW4 2793   1.664   1.589   5.535
  619SOL     OW 2794   0.465   0.451   4.507
  619SOL    HW2 2795   0.536   0.399   4.470
  619SOL    HW3 2796   0.451   0.416   4.594
  619SOL    MW4 2797   0.473   0.440   4.514
  620SOL     OW 2798   0.020   1.786   5.579
  620SOL    HW2 2799   0.070   1.764   5.501
  620SOL    HW3 2800   0.028   1.881   5.587
  620SOL    MW4 2801   0.028   1.795   5.570
  621SOL     OW 2802   0.781   1.544   4.583
  621SOL    HW2 2803   0.709   1.481   4.596
  621SOL    HW3 2804   0.742   1.629   4.601
  621SOL    MW4 2805   0.765   1.547   4.586
  622SOL     OW 2806   1.101   0.392   4.231
  622SOL    HW2 2807   1.123   0.329   4.163
  622SOL    HW3 2808   1.006   0.384   4.242
  622SOL    MW4 2809   1.091   0.383   4.223
  623SOL     OW 2810   0.186   0.082   4.163
  623SOL    HW2 2811   0.257   0.103   4.102
  623SOL    HW3 2812   0.140   0.010   4.121
  623SOL    MW4 2813   0.190   0.076   4.149
  624SOL     OW 2814   0.017   0.549   5.306
  624SOL    HW2 2815   0.081   0.615   5.281
  624SOL    HW3 2816  -0.064   0.576   5.263
  624SOL    MW4 2817   0.015   0.561   5.298
  625SOL     OW 2818   1.755   1.456   4.263
  625SOL    HW2 2819   1.725   1.389   4.324
  625SOL    HW3 2820   1.849   1.462   4.277
  625SOL    MW4 2821   1.763   1.448   4.273
  626SOL     OW 2822   1.311   1.133   4.193
  626SOL    HW2 2823   1.283   1.219   4.226
  626SOL    HW3 2824   1.339   1.149   4.103
  626SOL    MW4 2825   1.311   1.147   4.185
  627SOL     OW 2826   0.973   0.053   4.246
  627SOL    HW2 2827   1.010   0.112   4.311
  627SOL    HW3 2828   0.950   0.109   4.172
  627SOL    MW4 2829   0.974   0.068   4.245
  628SOL     OW 2830   1.826   0.935   4.668
  628SOL    HW2 2831   1.817   0.967   4.579
  628SOL    HW3 2832   1.779   0.851   4.668
  628SOL    MW4 2833   1.819   0.928   4.658
  629SOL     OW 2834   0.202   0.775   5.247
  629SOL    HW2 2835   0.223   0.844   5.185
  629SOL    HW3 2836   0.282   0.722   5.252
  629SOL    MW4 2837   0.215   0.776   5.241
  630SOL     OW 2838   1.738   0.866   4.369
  630SOL    HW2 2839   1.832   0.855   4.357
  630SOL    HW3 2840   1.714   0.938   4.310
  630SOL    MW4 2841   1.748   0.874   4.360
  631SOL     OW 2842   0.187   0.790   5.514
  631SOL    HW2 2843   0.113   0.734   5.540
  631SOL    HW3 2844   0.182   0.793   5.419
  631SOL    MW4 2845   0.176   0.783   5.504
  632SOL     OW 2846   0.353   0.077   4.964
  632SOL    HW2 2847   0.396   0.161   4.984
  632SOL    HW3 2848   0.426   0.015   4.957
  632SOL    MW4 2849   0.368   0.080   4.965
  633SOL     OW 2850   0.394   0.744   4.142
  633SOL    HW2 2851   0.394   0.839   4.127
  633SOL    HW3 2852   0.471   0.728   4.196
  633SOL    MW4 2853   0.404   0.755   4.147
  634SOL     OW 2854   1.170   0.603   5.206
  634SOL    HW2 2855   1.206   0.576   5.122
  634SOL    HW3 2856   1.083   0.637   5.185
  634SOL    MW4 2857   1.164   0.604   5.193
  635SOL     OW 2858   0.153   0.475   4.431
  635SOL    HW2 2859   0.215   0.482   4.504
  635SOL    HW3 2860   0.153   0.382   4.408
  635SOL    MW4 2861   0.161   0.464   4.438
  636SOL     OW 2862   1.700   1.815   3.963
  636SOL    HW2 2863   1.767   1.848   3.903
  636SOL    HW3 2864   1.657   1.894   3.997
  636SOL    MW4 2865   1.702   1.830   3.959
  637SOL     OW 2866   0.835   0.736   4.915
  637SOL    HW2 2867   0.793   0.654   4.891
  637SOL    HW3 2868   0.836   0.735   5.011
  637SOL    MW4 2869   0.828   0.725   4.924
  638SOL     OW 2870   1.506   1.869   5.314
  638SOL    HW2 2871   1.509   1.775   5.297
  638SOL    HW3 2872   1.529   1.877   5.406
  638SOL    MW4 2873   1.509   1.857   5.324
  639SOL     OW 2874   0.639   0.206   5.020
  639SOL    HW2 2875   0.570   0.269   5.041
  639SOL    HW3 2876   0.666   0.170   5.105
  639SOL    MW4 2877   0.633   0.209   5.033
  640SOL     OW 2878   0.022   1.047   3.889
  640SOL    HW2 2879  -0.009   1.112   3.952
  640SOL    HW3 2880  -0.029   0.969   3.908
  640SOL    MW4 2881   0.012   1.044   3.899
  641SOL     OW 2882   1.434   0.059   4.637
  641SOL    HW2 2883   1.522   0.068   4.674
  641SOL    HW3 2884   1.444   0.000   4.563
  641SOL    MW4 2885   1.448   0.053   4.631
  642SOL     OW 2886   1.466   0.798   4.481
  642SOL    HW2 2887   1.546   0.813   4.430
  642SOL    HW3 2888   1.459   0.703   4.487
  642SOL    MW4 2889   1.475   0.787   4.476
  643SOL     OW 2890   0.606   1.847   3.831
  643SOL    HW2 2891   0.511   1.847   3.823
  643SOL    HW3 2892   0.622   1.793   3.909
  643SOL    MW4 2893   0.596   1.841   3.840
  644SOL     OW 2894   0.916   0.724   5.178
  644SOL    HW2 2895   0.985   0.791   5.175
  644SOL    HW3 2896   0.849   0.762   5.234
  644SOL    MW4 2897   0.917   0.737   5.185
  645SOL     OW 2898   0.334   1.024   5.426
  645SOL    HW2 2899   0.288   0.940   5.428
  645SOL    HW3 2900   0.391   1.018   5.350
  645SOL    MW4 2901   0.336   1.012   5.418
  646SOL     OW 2902   1.451   0.667   3.747
  646SOL    HW2 2903   1.379   0.643   3.689
  646SOL    HW3 2904   1.517   0.704   3.689
  646SOL    MW4 2905   1.450   0.669   3.732
  647SOL     OW 2906   0.585   1.399   4.427
  647SOL    HW2 2907   0.650   1.332   4.448
  647SOL    HW3 2908   0.637   1.476   4.404
  647SOL    MW4 2909   0.600   1.401   4.426
  648SOL     OW 2910   0.846   0.564   4.557
  648SOL    HW2 2911   0.786   0.582   4.629
  648SOL    HW3 2912   0.880   0.476   4.576
  648SOL    MW4 2913   0.842   0.554   4.570
  649SOL     OW 2914   1.787   0.063   5.226
  649SOL    HW2 2915   1.708   0.109   5.254
  649SOL    HW3 2916   1.822   0.117   5.155
  649SOL    MW4 2917   1.781   0.076   5.220
  650SOL     OW 2918   1.071   1.147   4.576
  650SOL    HW2 2919   1.163   1.128   4.594
  650SOL    HW3 2920   1.044   1.077   4.516
  650SOL    MW4 2921   1.079   1.135   4.570
  651SOL     OW 2922   0.864   0.967   3.931
  651SOL    HW2 2923   0.850   0.879   3.896
  651SOL    HW3 2924   0.815   1.024   3.872
  651SOL    MW4 2925   0.856   0.962   3.919
  652SOL     OW 2926   1.345   1.385   4.672
  652SOL    HW2 2927   1.318   1.469   4.637
  652SOL    HW3 2928   1.305   1.380   4.759
  652SOL    MW4 2929   1.338   1.394   4.678
  653SOL     OW 2930   1.264   1.333   4.940
  653SOL    HW2 2931   1.275   1.300   5.029
  653SOL    HW3 2932   1.183   1.292   4.909
  653SOL    MW4 2933   1.254   1.325   4.946
  654SOL     OW 2934   0.277   0.691   4.710
  654SOL    HW2 2935   0.227   0.690   4.791
  654SOL    HW3 2936   0.297   0.783   4.694
  654SOL    MW4 2937   0.273   0.703   4.718
  655SOL     OW 2938   1.344   1.455   5.472
  655SOL    HW2 2939   1.344   1.549   5.488
  655SOL    HW3 2940   1.389   1.445   5.388
  655SOL    MW4 2941   1.350   1.465   5.463
  656SOL     OW 2942   1.583   0.173   4.033
  656SOL    HW2 2943   1.576   0.177   4.128
  656SOL    HW3 2944   1.595   0.264   4.006
  656SOL    MW4 2945   1.584   0.186   4.041
  657SOL     OW 2946   0.872   0.736   4.147
  657SOL    HW2 2947   0.852   0.722   4.054
  657SOL    HW3 2948   0.965   0.715   4.154
  657SOL    MW4 2949   0.882   0.731   4.136
  658SOL     OW 2950   0.199   0.359   5.451
  658SOL    HW2 2951   0.156   0.418   5.388
  658SOL    HW3 2952   0.267   0.414   5.491
  658SOL    MW4 2953   0.203   0.374   5.448
  659SOL     OW 2954   1.311   0.979   4.996
  659SOL    HW2 2955   1.374   0.976   5.069
  659SOL    HW3 2956   1.227   0.997   5.038
  659SOL    MW4 2957   1.307   0.981   5.011
  660SOL     OW 2958   0.855   1.694   4.185
  660SOL    HW2 2959   0.913   1.765   4.212
  660SOL    HW3 2960   0.878   1.622   4.243
  660SOL    MW4 2961   0.866   1.694   4.196
  661SOL     OW 2962   1.650   0.156   4.775
  661SOL    HW2 2963   1.695   0.074   4.794
  661SOL    HW3 2964   1.670   0.212   4.851
  661SOL    MW4 2965   1.660   0.152   4.787
  662SOL     OW 2966   0.098  -0.001   4.874
  662SOL    HW2 2967   0.089   0.000   4.779
  662SOL    HW3 2968   0.192   0.011   4.889
  662SOL    MW4 2969   0.110   0.002   4.865
  663SOL     OW 2970   1.735   1.192   4.494
  663SOL    HW2 2971   1.714   1.138   4.417
  663SOL    HW3 2972   1.831   1.190   4.498
  663SOL    MW4 2973   1.744   1.185   4.483
  664SOL     OW 2974   0.427   1.337   5.237
  664SOL    HW2 2975   0.348   1.287   5.260
  664SOL    HW3 2976   0.497   1.296   5.287
  664SOL    MW4 2977   0.425   1.325   5.247
  665SOL     OW 2978   0.311   0.126   3.920
  665SOL    HW2 2979   0.240   0.181   3.888
  665SOL    HW3 2980   0.353   0.092   3.841
  665SOL    MW4 2981   0.307   0.128   3.906
  666SOL     OW 2982   1.435   0.623   4.756
  666SOL    HW2 2983   1.358   0.669   4.722
  666SOL    HW3 2984   1.492   0.692   4.790
  666SOL    MW4 2985   1.432   0.638   4.756
  667SOL     OW 2986   0.067   0.225   3.769
  667SOL    HW2 2987   0.034   0.304   3.813
  667SOL    HW3 2988   0.122   0.258   3.698
  667SOL    MW4 2989   0.070   0.239   3.766
  668SOL     OW 2990   0.101   1.482   3.958
  668SOL    HW2 2991   0.118   1.566   4.000
  668SOL    HW3 2992   0.136   1.491   3.870
  668SOL    MW4 2993   0.106   1.495   3.952
  669SOL     OW 2994   1.373   1.571   4.175
  669SOL    HW2 2995   1.436   1.561   4.104
  669SOL    HW3 2996   1.290   1.591   4.130
  669SOL    MW4 2997   1.370   1.572   4.160
  670SOL     OW 2998   1.736   0.839   5.862
  670SOL    HW2 2999   1.777   0.781   5.927
  670SOL    HW3 3000   1.643   0.831   5.879
  670SOL    MW4 3001   1.730   0.831   5.872
  671SOL     OW 3002   0.530   1.022   6.091
  671SOL    HW2 3003   0.620   0.997   6.075
  671SOL    HW3 3004   0.526   1.115   6.068
  671SOL    MW4 3005   0.542   1.031   6.086
  672SOL     OW 3006   1.646   1.725   6.233
  672SOL    HW2 3007   1.658   1.671   6.311
  672SOL    HW3 3008   1.683   1.673   6.162
  672SOL    MW4 3009   1.652   1.710   6.234
  673SOL     OW 3010   0.814   0.478   6.104
  673SOL    HW2 3011   0.789   0.566   6.132
  673SOL    HW3 3012   0.811   0.481   6.008
  673SOL    MW4 3013   0.810   0.490   6.096
  674SOL     OW 3014   0.256   0.506   6.032
  674SOL    HW2 3015   0.288   0.594   6.014
  674SOL    HW3 3016   0.244   0.504   6.127
  674SOL    MW4 3017   0.259   0.518   6.044
  675SOL     OW 3018   0.655   0.261   6.119
  675SOL    HW2 3019   0.713   0.337   6.121
  675SOL    HW3 3020   0.590   0.282   6.052
  675SOL    MW4 3021   0.654   0.273   6.110
  676SOL     OW 3022   0.742   1.188   6.294
  676SOL    HW2 3023   0.822   1.191   6.346
  676SOL    HW3 3024   0.770   1.155   6.208
  676SOL    MW4 3025   0.756   1.184   6.289
  677SOL     OW 3026   0.519   0.692   6.285
  677SOL    HW2 3027   0.504   0.612   6.336
  677SOL    HW3 3028   0.601   0.727   6.319
  677SOL    MW4 3029   0.527   0.684   6.297
  678SOL     OW 3030   0.104   1.778   6.441
  678SOL    HW2 3031   0.193   1.770   6.476
  678SOL    HW3 3032   0.068   1.690   6.446
  678SOL    MW4 3033   0.111   1.765   6.446
  679SOL     OW 3034   1.369   1.170   5.810
  679SOL    HW2 3035   1.287   1.206   5.776
  679SOL    HW3 3036   1.437   1.213   5.759
  679SOL    MW4 3037   1.367   1.180   5.798
  680SOL     OW 3038   0.368   1.305   6.476
  680SOL    HW2 3039   0.344   1.358   6.552
  680SOL    HW3 3040   0.424   1.363   6.424
  680SOL    MW4 3041   0.372   1.320   6.479
  681SOL     OW 3042   0.930   0.949   6.286
  681SOL    HW2 3043   0.844   0.936   6.326
  681SOL    HW3 3044   0.983   0.876   6.318
  681SOL    MW4 3045   0.926   0.938   6.295
  682SOL     OW 3046   0.921   1.311   6.003
  682SOL    HW2 3047   0.898   1.373   6.071
  682SOL    HW3 3048   0.878   1.229   6.029
  682SOL    MW4 3049   0.913   1.307   6.014
  683SOL     OW 3050   0.418   0.284   5.971
  683SOL    HW2 3051   0.392   0.246   5.887
  683SOL    HW3 3052   0.355   0.354   5.987
  683SOL    MW4 3053   0.407   0.287   5.962
  684SOL     OW 3054   0.253   1.245   6.008
  684SOL    HW2 3055   0.201   1.313   5.964
  684SOL    HW3 3056   0.250   1.171   5.948
  684SOL    MW4 3057   0.245   1.244   5.995
  685SOL     OW 3058   0.915   1.708   5.786
  685SOL    HW2 3059   0.870   1.724   5.869
  685SOL    HW3 3060   0.846   1.673   5.728
  685SOL    MW4 3061   0.901   1.705   5.788
  686SOL     OW 3062   1.850   0.481   5.761
  686SOL    HW2 3063   1.759   0.483   5.789
  686SOL    HW3 3064   1.895   0.543   5.819
  686SOL    MW4 3065   1.843   0.489   5.771
  687SOL     OW 3066   1.595   1.084   6.111
  687SOL    HW2 3067   1.505   1.084   6.146
  687SOL    HW3 3068   1.588   1.130   6.028
  687SOL    MW4 3069   1.582   1.090   6.105
  688SOL     OW 3070   1.502   1.062   6.503
  688SOL    HW2 3071   1.505   0.996   6.434
  688SOL    HW3 3072   1.587   1.105   6.499
  688SOL    MW4 3073   1.514   1.058   6.494
  689SOL     OW 3074   1.122   0.665   6.072
  689SOL    HW2 3075   1.148   0.689   5.983
  689SOL    HW3 3076   1.104   0.572   6.068
  689SOL    MW4 3077   1.124   0.657   6.059
  690SOL     OW 3078   1.787   1.285   5.923
  690SOL    HW2 3079   1.743   1.326   5.998
  690SOL    HW3 3080   1.844   1.353   5.888
  690SOL    MW4 3081   1.789   1.299   5.928
  691SOL     OW 3082   0.443   1.701   6.241
  691SOL    HW2 3083   0.475   1.789   6.219
  691SOL    HW3 3084   0.396   1.673   6.163
  691SOL    MW4 3085   0.442   1.709   6.228
  692SOL     OW 3086   1.827   0.063   6.290
  692SOL    HW2 3087   1.881   0.014   6.352
  692SOL    HW3 3088   1.770  -0.003   6.251
  692SOL    MW4 3089   1.827   0.047   6.292
  693SOL     OW 3090   0.159   1.761   5.818
  693SOL    HW2 3091   0.188   1.851   5.810
  693SOL    HW3 3092   0.109   1.744   5.739
  693SOL    MW4 3093   0.157   1.769   5.807
  694SOL     OW 3094   1.563   1.569   5.789
  694SOL    HW2 3095   1.611   1.638   5.835
  694SOL    HW3 3096   1.484   1.613   5.758
  694SOL    MW4 3097   1.558   1.583   5.792
  695SOL     OW 3098   0.961   0.694   5.733
  695SOL    HW2 3099   0.963   0.641   5.654
  695SOL    HW3 3100   1.049   0.731   5.739
  695SOL    MW4 3101   0.973   0.693   5.722
  696SOL     OW 3102   1.575   0.620   6.069
  696SOL    HW2 3103   1.614   0.620   6.156
  696SOL    HW3 3104   1.516   0.696   6.069
  696SOL    MW4 3105   1.572   0.631   6.080
  697SOL     OW 3106   1.762   0.506   6.235
  697SOL    HW2 3107   1.851   0.475   6.252
  697SOL    HW3 3108   1.705   0.446   6.283
  697SOL    MW4 3109   1.765   0.494   6.244
  698SOL     OW 3110   0.188   0.220   6.264
  698SOL    HW2 3111   0.179   0.160   6.190
  698SOL    HW3 3112   0.121   0.191   6.327
  698SOL    MW4 3113   0.178   0.207   6.262
  699SOL     OW 3114   1.131   1.313   5.825
  699SOL    HW2 3115   1.081   1.315   5.907
  699SOL    HW3 3116   1.065   1.331   5.757
  699SOL    MW4 3117   1.117   1.315   5.827
  700SOL     OW 3118   0.594   1.731   5.933
  700SOL    HW2 3119   0.515   1.689   5.966
  700SOL    HW3 3120   0.660   1.714   6.000
  700SOL    MW4 3121   0.593   1.723   5.946
  701SOL     OW 3122   0.730   1.146   5.640
  701SOL    HW2 3123   0.652   1.092   5.627
  701SOL    HW3 3124   0.701   1.219   5.693
  701SOL    MW4 3125   0.716   1.148   5.645
  702SOL     OW 3126   1.311   1.662   5.708
  702SOL    HW2 3127   1.237   1.625   5.758
  702SOL    HW3 3128   1.319   1.752   5.741
  702SOL    MW4 3129   1.302   1.669   5.720
  703SOL     OW 3130   1.535   1.336   5.650
  703SOL    HW2 3131   1.482   1.385   5.586
  703SOL    HW3 3132   1.566   1.402   5.711
  703SOL    MW4 3133   1.533   1.350   5.648
  704SOL     OW 3134   0.760   0.225   5.705
  704SOL    HW2 3135   0.708   0.145   5.693
  704SOL    HW3 3136   0.847   0.202   5.673
  704SOL    MW4 3137   0.763   0.211   5.699
  705SOL     OW 3138   0.121   0.865   6.162
  705SOL    HW2 3139   0.212   0.880   6.189
  705SOL    HW3 3140   0.124   0.786   6.108
  705SOL    MW4 3141   0.133   0.857   6.160
  706SOL     OW 3142   0.748   1.797   6.536
  706SOL    HW2 3143   0.837   1.812   6.566
  706SOL    HW3 3144   0.743   1.844   6.452
  706SOL    MW4 3145   0.758   1.805   6.529
  707SOL     OW 3146   0.129   1.477   6.201
  707SOL    HW2 3147   0.101   1.516   6.283
  707SOL    HW3 3148   0.149   1.386   6.223
  707SOL    MW4 3149   0.127   1.469   6.214
  708SOL     OW 3150   0.962   1.520   6.236
  708SOL    HW2 3151   1.045   1.474   6.220
  708SOL    HW3 3152   0.952   1.519   6.332
  708SOL    MW4 3153   0.972   1.513   6.246
  709SOL     OW 3154   0.695   1.577   5.641
  709SOL    HW2 3155   0.635   1.646   5.611
  709SOL    HW3 3156   0.640   1.519   5.694
  709SOL    MW4 3157   0.679   1.579   5.643
  710SOL     OW 3158   1.133   0.222   5.864
  710SOL    HW2 3159   1.066   0.198   5.801
  710SOL    HW3 3160   1.198   0.271   5.813
  710SOL    MW4 3161   1.133   0.224   5.849
  711SOL     OW 3162   0.652   0.939   6.376
  711SOL    HW2 3163   0.563   0.930   6.409
  711SOL    HW3 3164   0.656   1.029   6.344
  711SOL    MW4 3165   0.641   0.950   6.376
  712SOL     OW 3166   1.451   0.522   6.371
  712SOL    HW2 3167   1.396   0.443   6.370
  712SOL    HW3 3168   1.433   0.563   6.455
  712SOL    MW4 3169   1.441   0.517   6.380
  713SOL     OW 3170   1.070   0.726   6.328
  713SOL    HW2 3171   1.007   0.658   6.352
  713SOL    HW3 3172   1.090   0.707   6.236
  713SOL    MW4 3173   1.064   0.713   6.320
  714SOL     OW 3174   0.326   1.621   6.030
  714SOL    HW2 3175   0.287   1.668   5.956
  714SOL    HW3 3176   0.260   1.556   6.055
  714SOL    MW4 3177   0.313   1.619   6.024
  715SOL     OW 3178   0.818   1.030   6.054
  715SOL    HW2 3179   0.820   1.004   5.961
  715SOL    HW3 3180   0.876   0.967   6.097
  715SOL    MW4 3181   0.826   1.019   6.048
  716SOL     OW 3182   1.375   1.798   6.256
  716SOL    HW2 3183   1.318   1.751   6.195
  716SOL    HW3 3184   1.461   1.759   6.243
  716SOL    MW4 3185   1.378   1.789   6.246
  717SOL     OW 3186   1.328   0.274   6.387
  717SOL    HW2 3187   1.356   0.206   6.448
  717SOL    HW3 3188   1.242   0.245   6.357
  717SOL    MW4 3189   1.321   0.261   6.391
  718SOL     OW 3190   0.133   1.208   6.321
  718SOL    HW2 3191   0.197   1.240   6.384
  718SOL    HW3 3192   0.182   1.144   6.269
  718SOL    MW4 3193   0.148   1.204   6.322
  719SOL     OW 3194   1.308   0.378   5.722
  719SOL    HW2 3195   1.281   0.444   5.658
  719SOL    HW3 3196   1.378   0.421   5.772
  719SOL    MW4 3197   1.313   0.391   5.719
  720SOL     OW 3198   0.976   0.083   5.659
  720SOL    HW2 3199   1.032   0.075   5.581
  720SOL    HW3 3200   0.953  -0.007   5.681
  720SOL    MW4 3201   0.981   0.070   5.652
  721SOL     OW 3202   1.481   0.934   5.864
  721SOL    HW2 3203   1.448   1.023   5.854
  721SOL    HW3 3204   1.446   0.905   5.949
  721SOL    MW4 3205   1.471   0.943   5.875
  722SOL     OW 3206   0.475   0.972   5.656
  722SOL    HW2 3207   0.398   0.985   5.712
  722SOL    HW3 3208   0.439   0.936   5.575
  722SOL    MW4 3209   0.461   0.968   5.653
  723SOL     OW 3210   1.128   0.945   5.899
  723SOL    HW2 3211   1.038   0.966   5.874
  723SOL    HW3 3212   1.155   1.018   5.955
  723SOL    MW4 3213   1.120   0.957   5.902
  724SOL     OW 3214   0.757   0.061   6.306
  724SOL    HW2 3215   0.686   0.122   6.288
  724SOL    HW3 3216   0.808   0.058   6.225
  724SOL    MW4 3217   0.753   0.067   6.293
  725SOL     OW 3218   0.515   1.301   6.055
  725SOL    HW2 3219   0.508   1.333   6.145
  725SOL    HW3 3220   0.425   1.285   6.027
  725SOL    MW4 3221   0.503   1.303   6.062
  726SOL     OW 3222   1.224   1.659   6.454
  726SOL    HW2 3223   1.271   1.732   6.413
  726SOL    HW3 3224   1.145   1.698   6.490
  726SOL    MW4 3225   1.219   1.674   6.453
  727SOL     OW 3226   0.518   0.585   5.769
  727SOL    HW2 3227   0.484   0.641   5.839
  727SOL    HW3 3228   0.589   0.535   5.809
  727SOL    MW4 3229   0.524   0.586   5.783
  728SOL     OW 3230   1.574   0.471   5.833
  728SOL    HW2 3231   1.566   0.542   5.770
  728SOL    HW3 3232   1.592   0.515   5.916
  728SOL    MW4 3233   1.575   0.485   5.835
  729SOL     OW 3234   0.434   0.126   6.262
  729SOL    HW2 3235   0.484   0.169   6.193
  729SOL    HW3 3236   0.349   0.170   6.262
  729SOL    MW4 3237   0.431   0.139   6.253
  730SOL     OW 3238   1.243   0.733   5.808
  730SOL    HW2 3239   1.290   0.751   5.727
  730SOL    HW3 3240   1.209   0.817   5.836
  730SOL    MW4 3241   1.245   0.747   5.801
  731SOL     OW 3242   0.356   0.911   6.302
  731SOL    HW2 3243   0.414   0.967   6.250
  731SOL    HW3 3244   0.400   0.826   6.304
  731SOL    MW4 3245   0.369   0.908   6.295
  732SOL     OW 3246   1.496   0.263   6.139
  732SOL    HW2 3247   1.418   0.213   6.164
  732SOL    HW3 3248   1.467   0.354   6.139
  732SOL    MW4 3249   1.482   0.267   6.142
  733SOL     OW 3250   1.082   0.225   6.298
  733SOL    HW2 3251   1.102   0.300   6.242
  733SOL    HW3 3252   1.062   0.264   6.383
  733SOL    MW4 3253   1.083   0.241   6.302
  734SOL     OW 3254   0.978   1.475   5.630
  734SOL    HW2 3255   1.005   1.553   5.582
  734SOL    HW3 3256   0.885   1.490   5.649
  734SOL    MW4 3257   0.969   1.488   5.626
  735SOL     OW 3258   0.018   0.637   6.021
  735SOL    HW2 3259  -0.042   0.609   6.091
  735SOL    HW3 3260   0.092   0.577   6.027
  735SOL    MW4 3261   0.020   0.626   6.030
  736SOL     OW 3262   1.186   1.368   6.181
  736SOL    HW2 3263   1.209   1.319   6.259
  736SOL    HW3 3264   1.267   1.410   6.153
  736SOL    MW4 3265   1.199   1.368   6.188
  737SOL     OW 3266   0.541   0.121   6.537
  737SOL    HW2 3267   0.551   0.030   6.563
  737SOL    HW3 3268   0.497   0.117   6.452
  737SOL    MW4 3269   0.537   0.109   6.529
  738SOL     OW 3270   1.326   0.035   5.817
  738SOL    HW2 3271   1.400   0.079   5.860
  738SOL    HW3 3272   1.250   0.089   5.839
  738SOL    MW4 3273   1.326   0.047   5.825
  739SOL     OW 3274   1.386   0.810   6.095
  739SOL    HW2 3275   1.301   0.780   6.065
  739SOL    HW3 3276   1.378   0.817   6.190
  739SOL    MW4 3277   1.374   0.808   6.104
  740SOL     OW 3278   0.759   0.476   5.821
  740SOL    HW2 3279   0.832   0.525   5.784
  740SOL    HW3 3280   0.775   0.385   5.795
  740SOL    MW4 3281   0.771   0.471   5.814
  741SOL     OW 3282   0.234   0.985   5.919
  741SOL    HW2 3283   0.171   1.001   5.848
  741SOL    HW3 3284   0.181   0.948   5.990
  741SOL    MW4 3285   0.219   0.982   5.919
  742SOL     OW 3286   0.590   1.339   5.778
  742SOL    HW2 3287   0.605   1.315   5.870
  742SOL    HW3 3288   0.498   1.317   5.762
  742SOL    MW4 3289   0.580   1.332   5.788
  743SOL     OW 3290   1.129   1.570   5.930
  743SOL    HW2 3291   1.137   1.488   5.881
  743SOL    HW3 3292   1.048   1.609   5.897
  743SOL    MW4 3293   1.119   1.565   5.920
  744SOL     OW 3294   0.388   1.728   6.499
  744SOL    HW2 3295   0.392   1.639   6.534
  744SOL    HW3 3296   0.414   1.719   6.408
  744SOL    MW4 3297   0.391   1.716   6.491
  745SOL     OW 3298   0.465   0.451   6.376
  745SOL    HW2 3299   0.536   0.399   6.339
  745SOL    HW3 3300   0.451   0.416   6.463
  745SOL    MW4 3301   0.473   0.440   6.383
  746SOL     OW 3302   0.781   1.544   6.452
  746SOL    HW2 3303   0.709   1.481   6.465
  746SOL    HW3 3304   0.742   1.629   6.470
  746SOL    MW4 3305   0.765   1.547   6.455
  747SOL     OW 3306   1.101   0.392   6.100
  747SOL    HW2 3307   1.123   0.329   6.032
  747SOL    HW3 3308   1.006   0.384   6.111
  747SOL    MW4 3309   1.091   0.383   6.092
  748SOL     OW 3310   0.186   0.082   6.032
  748SOL    HW2 3311   0.257   0.103   5.971
  748SOL    HW3 3312   0.140   0.010   5.990
  748SOL    MW4 3313   0.190   0.076   6.018
  749SOL     OW 3314   1.755   1.456   6.132
  749SOL    HW2 3315   1.725   1.389   6.193
  749SOL    HW3 3316   1.849   1.462   6.146
  749SOL    MW4 3317   1.763   1.448   6.142
  750SOL     OW 3318   1.311   1.133   6.062
  750SOL    HW2 3319   1.283   1.219   6.095
  750SOL    HW3 3320   1.339   1.149   5.972
  750SOL    MW4 3321   1.311   1.147   6.054
  751SOL     OW 3322   0.973   0.053   6.115
  751SOL    HW2 3323   1.010   0.112   6.180
  751SOL    HW3 3324   0.950   0.109   6.041
  751SOL    MW4 3325   0.974   0.068   6.114
  752SOL     OW 3326   1.826   0.935   6.537
  752SOL    HW2 3327   1.817   0.967   6.448
  752SOL    HW3 3328   1.779   0.851   6.537
  752SOL    MW4 3329   1.819   0.928   6.527
  753SOL     OW 3330   1.738   0.866   6.238
  753SOL    HW2 3331   1.832   0.855   6.226
  753SOL    HW3 3332   1.714   0.938   6.179
  753SOL    MW4 3333   1.748   0.874   6.229
  754SOL     OW 3334   0.394   0.744   6.011
  754SOL    HW2 3335   0.394   0.839   5.996
  754SOL    HW3 3336   0.471   0.728   6.065
  754SOL    MW4 3337   0.404   0.755   6.016
  755SOL     OW 3338   0.153   0.475   6.300
  755SOL    HW2 3339   0.215   0.482   6.373
  755SOL    HW3 3340   0.153   0.382   6.277
  755SOL    MW4 3341   0.161   0.464   6.307
  756SOL     OW 3342   1.700   1.815   5.832
  756SOL    HW2 3343   1.767   1.848   5.772
  756SOL    HW3 3344   1.657   1.894   5.866
  756SOL    MW4 3345   1.702   1.830   5.828
  757SOL     OW 3346   0.022   1.047   5.758
  757SOL    HW2 3347  -0.009   1.112   5.821
  757SOL    HW3 3348  -0.029   0.969   5.777
  757SOL    MW4 3349   0.012   1.044   5.768
  758SOL     OW 3350   1.434   0.059   6.506
  758SOL    HW2 3351   1.522   0.068   6.543
  758SOL    HW3 3352   1.444   0.000   6.432
  758SOL    MW4 3353   1.448   0.053   6.500
  759SOL     OW 3354   1.466   0.798   6.350
  759SOL    HW2 3355   1.546   0.813   6.299
  759SOL    HW3 3356   1.459   0.703   6.356
  759SOL    MW4 3357   1.475   0.787   6.345
  760SOL     OW 3358   0.606   1.847   5.700
  760SOL    HW2 3359   0.511   1.847   5.692
  760SOL    HW3 3360   0.622   1.793   5.778
  760SOL    MW4 3361   0.596   1.841   5.709
  761SOL     OW 3362   1.451   0.667   5.615
  761SOL    HW2 3363   1.379   0.643   5.557
  761SOL    HW3 3364   1.517   0.704   5.557
  761SOL    MW4 3365   1.450   0.669   5.600
  762SOL     OW 3366   0.585   1.399   6.296
  762SOL    HW2 3367   0.650   1.332   6.317
  762SOL    HW3 3368   0.637   1.476   6.273
  762SOL    MW4 3369   0.600   1.401   6.295
  763SOL     OW 3370   0.846   0.564   6.426
  763SOL    HW2 3371   0.786   0.582   6.498
  763SOL    HW3 3372   0.880   0.476   6.445
  763SOL    MW4 3373   0.842   0.554   6.439
  764SOL     OW 3374   1.071   1.147   6.445
  764SOL    HW2 3375   1.163   1.128   6.463
  764SOL    HW3 3376   1.044   1.077   6.385
  764SOL    MW4 3377   1.079   1.135   6.439
  765SOL     OW 3378   0.864   0.967   5.800
  765SOL    HW2 3379   0.850   0.879   5.765
  765SOL    HW3 3380   0.815   1.024   5.741
  765SOL    MW4 3381   0.856   0.962   5.788
  766SOL     OW 3382   1.583   0.173   5.902
  766SOL    HW2 3383   1.576   0.177   5.997
  766SOL    HW3 3384   1.595   0.264   5.875
  766SOL    MW4 3385   1.584   0.186   5.910
  767SOL     OW 3386   0.872   0.736   6.016
  767SOL    HW2 3387   0.852   0.722   5.923
  767SOL    HW3 3388   0.965   0.715   6.023
  767SOL    MW4 3389   0.882   0.731   6.005
  768SOL     OW 3390   0.855   1.694   6.054
  768SOL    HW2 3391   0.913   1.765   6.081
  768SOL    HW3 3392   0.878   1.622   6.112
  768SOL    MW4 3393   0.866   1.694   6.065
  769SOL     OW 3394   1.735   1.192   6.363
  769SOL    HW2 3395   1.714   1.138   6.286
  769SOL    HW3 3396   1.831   1.190   6.367
  769SOL    MW4 3397   1.744   1.185   6.352
  770SOL     OW 3398   0.311   0.126   5.789
  770SOL    HW2 3399   0.240   0.181   5.757
  770SOL    HW3 3400   0.353   0.092   5.710
  770SOL    MW4 3401   0.307   0.128   5.775
  771SOL     OW 3402   0.067   0.225   5.638
  771SOL    HW2 3403   0.034   0.304   5.682
  771SOL    HW3 3404   0.122   0.258   5.567
  771SOL    MW4 3405   0.070   0.239   5.635
  772SOL     OW 3406   0.101   1.482   5.827
  772SOL    HW2 3407   0.118   1.566   5.869
  772SOL    HW3 3408   0.136   1.491   5.739
  772SOL    MW4 3409   0.106   1.495   5.821
  773SOL     OW 3410   1.373   1.571   6.044
  773SOL    HW2 3411   1.436   1.561   5.973
  773SOL    HW3 3412   1.290   1.591   5.999
  773SOL    MW4 3413   1.370   1.572   6.029
  774SOL     OW 3414   1.736   2.707   0.257
  774SOL    HW2 3415   1.777   2.649   0.322
  774SOL    HW3 3416   1.643   2.699   0.274
  774SOL    MW4 3417   1.730   2.699   0.267
  775SOL     OW 3418   1.602   2.639   1.252
  775SOL    HW2 3419   1.557   2.706   1.303
  775SOL    HW3 3420   1.690   2.675   1.238
  775SOL    MW4 3421   1.608   2.652   1.256
  776SOL     OW 3422   0.530   2.890   0.486
  776SOL    HW2 3423   0.620   2.865   0.470
  776SOL    HW3 3424   0.526   2.983   0.463
  776SOL    MW4 3425   0.542   2.899   0.481
  777SOL     OW 3426   1.646   3.593   0.628
  777SOL    HW2 3427   1.658   3.539   0.706
  777SOL    HW3 3428   1.683   3.541   0.557
  777SOL    MW4 3429   1.652   3.578   0.629
  778SOL     OW 3430   1.025   3.478   1.629
  778SOL    HW2 3431   1.066   3.514   1.550
  778SOL    HW3 3432   1.060   3.389   1.636
  778SOL    MW4 3433   1.036   3.471   1.620
  779SOL     OW 3434   1.582   3.033   1.233
  779SOL    HW2 3435   1.503   2.998   1.191
  779SOL    HW3 3436   1.609   3.105   1.177
  779SOL    MW4 3437   1.575   3.038   1.220
  780SOL     OW 3438   0.814   2.346   0.499
  780SOL    HW2 3439   0.789   2.434   0.527
  780SOL    HW3 3440   0.811   2.349   0.403
  780SOL    MW4 3441   0.810   2.358   0.491
  781SOL     OW 3442   0.256   2.374   0.427
  781SOL    HW2 3443   0.288   2.462   0.409
  781SOL    HW3 3444   0.244   2.372   0.522
  781SOL    MW4 3445   0.259   2.386   0.439
  782SOL     OW 3446   0.334   2.787   1.328
  782SOL    HW2 3447   0.397   2.734   1.279
  782SOL    HW3 3448   0.315   2.861   1.271
  782SOL    MW4 3449   0.340   2.789   1.315
  783SOL     OW 3450   0.655   2.129   0.514
  783SOL    HW2 3451   0.713   2.205   0.516
  783SOL    HW3 3452   0.590   2.150   0.447
  783SOL    MW4 3453   0.654   2.141   0.505
  784SOL     OW 3454   0.742   3.056   0.689
  784SOL    HW2 3455   0.822   3.059   0.741
  784SOL    HW3 3456   0.770   3.023   0.603
  784SOL    MW4 3457   0.756   3.052   0.684
  785SOL     OW 3458   0.767   3.397   1.592
  785SOL    HW2 3459   0.851   3.423   1.631
  785SOL    HW3 3460   0.791   3.341   1.518
  785SOL    MW4 3461   0.781   3.393   1.587
  786SOL     OW 3462   0.519   2.560   0.680
  786SOL    HW2 3463   0.504   2.480   0.731
  786SOL    HW3 3464   0.601   2.595   0.714
  786SOL    MW4 3465   0.527   2.552   0.692
  787SOL     OW 3466   0.856   3.246   1.365
  787SOL    HW2 3467   0.820   3.312   1.305
  787SOL    HW3 3468   0.784   3.184   1.378
  787SOL    MW4 3469   0.842   3.246   1.359
  788SOL     OW 3470   0.661   2.386   1.057
  788SOL    HW2 3471   0.567   2.382   1.075
  788SOL    HW3 3472   0.691   2.295   1.066
  788SOL    MW4 3473   0.652   2.374   1.060
  789SOL     OW 3474   0.407   2.800   0.961
  789SOL    HW2 3475   0.362   2.807   0.877
  789SOL    HW3 3476   0.387   2.883   1.005
  789SOL    MW4 3477   0.399   2.812   0.955
  790SOL     OW 3478   0.104   3.646   0.836
  790SOL    HW2 3479   0.193   3.638   0.871
  790SOL    HW3 3480   0.068   3.558   0.841
  790SOL    MW4 3481   0.111   3.633   0.841
  791SOL     OW 3482   1.369   3.038   0.205
  791SOL    HW2 3483   1.287   3.074   0.171
  791SOL    HW3 3484   1.437   3.081   0.154
  791SOL    MW4 3485   1.367   3.048   0.193
  792SOL     OW 3486   0.368   3.173   0.871
  792SOL    HW2 3487   0.344   3.226   0.947
  792SOL    HW3 3488   0.424   3.231   0.819
  792SOL    MW4 3489   0.372   3.188   0.874
  793SOL     OW 3490   0.930   2.817   0.681
  793SOL    HW2 3491   0.844   2.804   0.721
  793SOL    HW3 3492   0.983   2.744   0.713
  793SOL    MW4 3493   0.926   2.806   0.690
  794SOL     OW 3494   0.338   3.469   1.466
  794SOL    HW2 3495   0.246   3.445   1.451
  794SOL    HW3 3496   0.382   3.386   1.483
  794SOL    MW4 3497   0.332   3.454   1.465
  795SOL     OW 3498   0.921   3.179   0.398
  795SOL    HW2 3499   0.898   3.241   0.466
  795SOL    HW3 3500   0.878   3.097   0.424
  795SOL    MW4 3501   0.913   3.175   0.409
  796SOL     OW 3502   1.794   2.180   0.854
  796SOL    HW2 3503   1.731   2.160   0.923
  796SOL    HW3 3504   1.784   2.109   0.791
  796SOL    MW4 3505   1.784   2.167   0.855
  797SOL     OW 3506   0.418   2.152   0.366
  797SOL    HW2 3507   0.392   2.114   0.282
  797SOL    HW3 3508   0.355   2.222   0.382
  797SOL    MW4 3509   0.407   2.155   0.357
  798SOL     OW 3510   0.253   3.113   0.403
  798SOL    HW2 3511   0.201   3.181   0.359
  798SOL    HW3 3512   0.250   3.039   0.343
  798SOL    MW4 3513   0.245   3.112   0.390
  799SOL     OW 3514   0.915   3.576   0.181
  799SOL    HW2 3515   0.870   3.592   0.264
  799SOL    HW3 3516   0.846   3.541   0.123
  799SOL    MW4 3517   0.901   3.573   0.183
  800SOL     OW 3518   1.850   2.349   0.156
  800SOL    HW2 3519   1.759   2.351   0.184
  800SOL    HW3 3520   1.895   2.411   0.214
  800SOL    MW4 3521   1.843   2.357   0.166
  801SOL     OW 3522   1.595   2.952   0.506
  801SOL    HW2 3523   1.505   2.952   0.541
  801SOL    HW3 3524   1.588   2.998   0.423
  801SOL    MW4 3525   1.582   2.958   0.500
  802SOL     OW 3526   1.395   2.587   1.578
  802SOL    HW2 3527   1.464   2.525   1.555
  802SOL    HW3 3528   1.320   2.561   1.525
  802SOL    MW4 3529   1.395   2.574   1.569
  803SOL     OW 3530   0.136   3.467   1.130
  803SOL    HW2 3531   0.119   3.413   1.207
  803SOL    HW3 3532   0.124   3.557   1.160
  803SOL    MW4 3533   0.133   3.471   1.144
  804SOL     OW 3534   1.131   2.974   1.570
  804SOL    HW2 3535   1.116   3.067   1.555
  804SOL    HW3 3536   1.226   2.964   1.570
  804SOL    MW4 3537   1.140   2.984   1.567
  805SOL     OW 3538   0.927   2.398   1.771
  805SOL    HW2 3539   1.017   2.399   1.738
  805SOL    HW3 3540   0.886   2.323   1.729
  805SOL    MW4 3541   0.933   2.388   1.762
  806SOL     OW 3542   1.502   2.930   0.898
  806SOL    HW2 3543   1.505   2.864   0.829
  806SOL    HW3 3544   1.587   2.973   0.894
  806SOL    MW4 3545   1.514   2.926   0.889
  807SOL     OW 3546   1.122   2.533   0.467
  807SOL    HW2 3547   1.148   2.557   0.378
  807SOL    HW3 3548   1.104   2.440   0.463
  807SOL    MW4 3549   1.124   2.525   0.454
  808SOL     OW 3550   1.787   3.153   0.318
  808SOL    HW2 3551   1.743   3.194   0.393
  808SOL    HW3 3552   1.844   3.221   0.283
  808SOL    MW4 3553   1.789   3.167   0.323
  809SOL     OW 3554   0.707   2.202   1.721
  809SOL    HW2 3555   0.717   2.128   1.661
  809SOL    HW3 3556   0.743   2.171   1.804
  809SOL    MW4 3557   0.713   2.188   1.723
  810SOL     OW 3558   0.443   3.569   0.636
  810SOL    HW2 3559   0.475   3.657   0.614
  810SOL    HW3 3560   0.396   3.541   0.558
  810SOL    MW4 3561   0.442   3.577   0.623
  811SOL     OW 3562   1.827   1.931   0.685
  811SOL    HW2 3563   1.881   1.882   0.747
  811SOL    HW3 3564   1.770   1.865   0.646
  811SOL    MW4 3565   1.827   1.915   0.687
  812SOL     OW 3566   0.159   3.629   0.213
  812SOL    HW2 3567   0.188   3.719   0.205
  812SOL    HW3 3568   0.109   3.612   0.134
  812SOL    MW4 3569   0.157   3.637   0.202
  813SOL     OW 3570   0.946   1.884   1.098
  813SOL    HW2 3571   0.905   1.962   1.060
  813SOL    HW3 3572   1.040   1.902   1.093
  813SOL    MW4 3573   0.952   1.896   1.093
  814SOL     OW 3574   1.563   3.437   0.184
  814SOL    HW2 3575   1.611   3.506   0.230
  814SOL    HW3 3576   1.484   3.481   0.153
  814SOL    MW4 3577   1.558   3.451   0.187
  815SOL     OW 3578   0.961   2.562   0.128
  815SOL    HW2 3579   0.963   2.509   0.049
  815SOL    HW3 3580   1.049   2.599   0.134
  815SOL    MW4 3581   0.973   2.561   0.117
  816SOL     OW 3582   1.575   2.488   0.464
  816SOL    HW2 3583   1.614   2.488   0.551
  816SOL    HW3 3584   1.516   2.564   0.464
  816SOL    MW4 3585   1.572   2.499   0.475
  817SOL     OW 3586   0.892   2.855   1.593
  817SOL    HW2 3587   0.869   2.835   1.683
  817SOL    HW3 3588   0.977   2.899   1.598
  817SOL    MW4 3589   0.899   2.858   1.605
  818SOL     OW 3590   0.972   1.992   1.353
  818SOL    HW2 3591   0.978   1.954   1.266
  818SOL    HW3 3592   0.961   2.086   1.338
  818SOL    MW4 3593   0.973   2.000   1.341
  819SOL     OW 3594   1.061   2.481   1.187
  819SOL    HW2 3595   1.136   2.510   1.134
  819SOL    HW3 3596   0.993   2.546   1.171
  819SOL    MW4 3597   1.062   2.493   1.177
  820SOL     OW 3598   1.611   2.449   1.464
  820SOL    HW2 3599   1.592   2.358   1.443
  820SOL    HW3 3600   1.589   2.498   1.385
  820SOL    MW4 3601   1.606   2.442   1.451
  821SOL     OW 3602   1.753   3.543   1.368
  821SOL    HW2 3603   1.681   3.505   1.419
  821SOL    HW3 3604   1.770   3.628   1.409
  821SOL    MW4 3605   1.747   3.548   1.380
  822SOL     OW 3606   1.058   2.187   1.570
  822SOL    HW2 3607   1.024   2.226   1.489
  822SOL    HW3 3608   1.036   2.095   1.563
  822SOL    MW4 3609   1.051   2.180   1.560
  823SOL     OW 3610   1.467   3.001   1.646
  823SOL    HW2 3611   1.549   3.042   1.676
  823SOL    HW3 3612   1.430   2.963   1.726
  823SOL    MW4 3613   1.473   3.002   1.661
  824SOL     OW 3614   1.762   2.374   0.630
  824SOL    HW2 3615   1.851   2.343   0.647
  824SOL    HW3 3616   1.705   2.314   0.678
  824SOL    MW4 3617   1.765   2.362   0.639
  825SOL     OW 3618   0.188   2.088   0.659
  825SOL    HW2 3619   0.179   2.028   0.585
  825SOL    HW3 3620   0.121   2.059   0.722
  825SOL    MW4 3621   0.178   2.075   0.657
  826SOL     OW 3622   1.131   3.181   0.220
  826SOL    HW2 3623   1.081   3.183   0.302
  826SOL    HW3 3624   1.065   3.199   0.152
  826SOL    MW4 3625   1.117   3.183   0.222
  827SOL     OW 3626   0.135   2.261   1.022
  827SOL    HW2 3627   0.107   2.352   1.031
  827SOL    HW3 3628   0.072   2.222   0.961
  827SOL    MW4 3629   0.122   2.267   1.016
  828SOL     OW 3630   0.594   3.599   0.328
  828SOL    HW2 3631   0.515   3.557   0.361
  828SOL    HW3 3632   0.660   3.582   0.395
  828SOL    MW4 3633   0.593   3.591   0.341
  829SOL     OW 3634   1.722   3.119   1.725
  829SOL    HW2 3635   1.772   3.045   1.757
  829SOL    HW3 3636   1.668   3.146   1.800
  829SOL    MW4 3637   1.722   3.113   1.738
  830SOL     OW 3638   0.730   3.014   0.035
  830SOL    HW2 3639   0.652   2.960   0.022
  830SOL    HW3 3640   0.701   3.087   0.088
  830SOL    MW4 3641   0.716   3.016   0.040
  831SOL     OW 3642   1.856   2.754   1.227
  831SOL    HW2 3643   1.872   2.792   1.140
  831SOL    HW3 3644   1.890   2.820   1.288
  831SOL    MW4 3645   1.863   2.767   1.223
  832SOL     OW 3646   1.648   3.463   0.896
  832SOL    HW2 3647   1.677   3.530   0.957
  832SOL    HW3 3648   1.629   3.387   0.951
  832SOL    MW4 3649   1.650   3.463   0.911
  833SOL     OW 3650   1.311   3.530   0.103
  833SOL    HW2 3651   1.237   3.493   0.153
  833SOL    HW3 3652   1.319   3.620   0.136
  833SOL    MW4 3653   1.302   3.537   0.115
  834SOL     OW 3654   0.119   2.536   1.192
  834SOL    HW2 3655   0.181   2.566   1.258
  834SOL    HW3 3656   0.053   2.605   1.186
  834SOL    MW4 3657   0.118   2.549   1.199
  835SOL     OW 3658   1.535   3.204   0.045
  835SOL    HW2 3659   1.482   3.253  -0.019
  835SOL    HW3 3660   1.566   3.270   0.106
  835SOL    MW4 3661   1.533   3.218   0.043
  836SOL     OW 3662   0.760   2.093   0.100
  836SOL    HW2 3663   0.708   2.013   0.088
  836SOL    HW3 3664   0.847   2.070   0.068
  836SOL    MW4 3665   0.763   2.079   0.094
  837SOL     OW 3666   0.214   3.645   1.644
  837SOL    HW2 3667   0.188   3.713   1.582
  837SOL    HW3 3668   0.262   3.582   1.592
  837SOL    MW4 3669   0.216   3.645   1.630
  838SOL     OW 3670   0.266   2.964   1.151
  838SOL    HW2 3671   0.319   3.039   1.176
  838SOL    HW3 3672   0.185   3.002   1.117
  838SOL    MW4 3673   0.262   2.979   1.151
  839SOL     OW 3674   0.806   2.868   1.139
  839SOL    HW2 3675   0.834   2.777   1.151
  839SOL    HW3 3676   0.735   2.862   1.075
  839SOL    MW4 3677   0.799   2.856   1.134
  840SOL     OW 3678   0.121   2.733   0.557
  840SOL    HW2 3679   0.212   2.748   0.584
  840SOL    HW3 3680   0.124   2.654   0.503
  840SOL    MW4 3681   0.133   2.725   0.555
  841SOL     OW 3682   0.357   2.441   1.811
  841SOL    HW2 3683   0.304   2.521   1.818
  841SOL    HW3 3684   0.427   2.453   1.876
  841SOL    MW4 3685   0.359   2.454   1.819
  842SOL     OW 3686   0.743   1.991   1.518
  842SOL    HW2 3687   0.720   1.899   1.520
  842SOL    HW3 3688   0.829   1.993   1.475
  842SOL    MW4 3689   0.750   1.981   1.514
  843SOL     OW 3690   0.427   2.515   1.557
  843SOL    HW2 3691   0.507   2.565   1.543
  843SOL    HW3 3692   0.418   2.509   1.652
  843SOL    MW4 3693   0.436   2.521   1.567
  844SOL     OW 3694   0.748   3.665   0.931
  844SOL    HW2 3695   0.837   3.680   0.961
  844SOL    HW3 3696   0.743   3.712   0.847
  844SOL    MW4 3697   0.758   3.673   0.924
  845SOL     OW 3698   1.404   2.040   1.828
  845SOL    HW2 3699   1.460   1.967   1.854
  845SOL    HW3 3700   1.374   2.078   1.910
  845SOL    MW4 3701   1.408   2.035   1.841
  846SOL     OW 3702   0.129   3.345   0.596
  846SOL    HW2 3703   0.101   3.384   0.678
  846SOL    HW3 3704   0.149   3.254   0.618
  846SOL    MW4 3705   0.127   3.337   0.609
  847SOL     OW 3706   0.962   3.388   0.631
  847SOL    HW2 3707   1.045   3.342   0.615
  847SOL    HW3 3708   0.952   3.387   0.727
  847SOL    MW4 3709   0.972   3.381   0.641
  848SOL     OW 3710   1.794   2.533   0.945
  848SOL    HW2 3711   1.883   2.563   0.927
  848SOL    HW3 3712   1.774   2.473   0.874
  848SOL    MW4 3713   1.803   2.530   0.934
  849SOL     OW 3714   1.645   2.712   1.825
  849SOL    HW2 3715   1.700   2.636   1.806
  849SOL    HW3 3716   1.647   2.720   1.920
  849SOL    MW4 3717   1.653   2.703   1.833
  850SOL     OW 3718   0.695   3.445   0.036
  850SOL    HW2 3719   0.635   3.514   0.006
  850SOL    HW3 3720   0.640   3.387   0.089
  850SOL    MW4 3721   0.679   3.447   0.038
  851SOL     OW 3722   1.133   2.090   0.259
  851SOL    HW2 3723   1.066   2.066   0.196
  851SOL    HW3 3724   1.198   2.139   0.208
  851SOL    MW4 3725   1.133   2.092   0.244
  852SOL     OW 3726   0.940   2.274   1.344
  852SOL    HW2 3727   0.859   2.315   1.372
  852SOL    HW3 3728   0.987   2.342   1.296
  852SOL    MW4 3729   0.935   2.289   1.342
  853SOL     OW 3730   1.200   2.612   0.967
  853SOL    HW2 3731   1.213   2.706   0.977
  853SOL    HW3 3732   1.161   2.602   0.881
  853SOL    MW4 3733   1.196   2.623   0.957
  854SOL     OW 3734   0.652   2.807   0.771
  854SOL    HW2 3735   0.563   2.798   0.804
  854SOL    HW3 3736   0.656   2.897   0.739
  854SOL    MW4 3737   0.641   2.818   0.771
  855SOL     OW 3738   1.451   2.390   0.766
  855SOL    HW2 3739   1.396   2.311   0.765
  855SOL    HW3 3740   1.433   2.431   0.850
  855SOL    MW4 3741   1.441   2.385   0.775
  856SOL     OW 3742   0.422   2.077   1.583
  856SOL    HW2 3743   0.343   2.095   1.635
  856SOL    HW3 3744   0.417   2.139   1.510
  856SOL    MW4 3745   0.412   2.087   1.580
  857SOL     OW 3746   1.070   2.594   0.723
  857SOL    HW2 3747   1.007   2.526   0.747
  857SOL    HW3 3748   1.090   2.575   0.631
  857SOL    MW4 3749   1.064   2.581   0.715
  858SOL     OW 3750   0.326   3.489   0.425
  858SOL    HW2 3751   0.287   3.536   0.351
  858SOL    HW3 3752   0.260   3.424   0.450
  858SOL    MW4 3753   0.313   3.487   0.419
  859SOL     OW 3754   0.818   2.898   0.449
  859SOL    HW2 3755   0.820   2.872   0.356
  859SOL    HW3 3756   0.876   2.835   0.492
  859SOL    MW4 3757   0.826   2.887   0.443
  860SOL     OW 3758   1.371   3.458   1.221
  860SOL    HW2 3759   1.296   3.504   1.259
  860SOL    HW3 3760   1.353   3.365   1.238
  860SOL    MW4 3761   1.360   3.452   1.229
  861SOL     OW 3762   1.375   3.666   0.651
  861SOL    HW2 3763   1.318   3.619   0.590
  861SOL    HW3 3764   1.461   3.627   0.638
  861SOL    MW4 3765   1.378   3.657   0.641
  862SOL     OW 3766   1.328   2.142   0.782
  862SOL    HW2 3767   1.356   2.074   0.843
  862SOL    HW3 3768   1.242   2.113   0.752
  862SOL    MW4 3769   1.321   2.129   0.786
  863SOL     OW 3770   0.133   3.076   0.716
  863SOL    HW2 3771   0.197   3.108   0.779
  863SOL    HW3 3772   0.182   3.012   0.664
  863SOL    MW4 3773   0.148   3.072   0.717
  864SOL     OW 3774   0.633   3.152   1.698
  864SOL    HW2 3775   0.681   3.235   1.685
  864SOL    HW3 3776   0.690   3.100   1.754
  864SOL    MW4 3777   0.647   3.156   1.704
  865SOL     OW 3778   0.209   3.394   1.838
  865SOL    HW2 3779   0.265   3.318   1.853
  865SOL    HW3 3780   0.158   3.372   1.760
  865SOL    MW4 3781   0.209   3.381   1.829
  866SOL     OW 3782   1.308   2.246   0.117
  866SOL    HW2 3783   1.281   2.312   0.053
  866SOL    HW3 3784   1.378   2.289   0.167
  866SOL    MW4 3785   1.313   2.259   0.114
  867SOL     OW 3786   0.976   1.951   0.054
  867SOL    HW2 3787   1.032   1.943  -0.024
  867SOL    HW3 3788   0.953   1.861   0.076
  867SOL    MW4 3789   0.981   1.938   0.047
  868SOL     OW 3790   1.481   2.802   0.259
  868SOL    HW2 3791   1.448   2.891   0.249
  868SOL    HW3 3792   1.446   2.773   0.344
  868SOL    MW4 3793   1.471   2.811   0.270
  869SOL     OW 3794   1.094   3.231   1.447
  869SOL    HW2 3795   1.005   3.237   1.415
  869SOL    HW3 3796   1.138   3.310   1.415
  869SOL    MW4 3797   1.089   3.241   1.439
  870SOL     OW 3798   0.387   1.899   1.789
  870SOL    HW2 3799   0.315   1.864   1.737
  870SOL    HW3 3800   0.445   1.940   1.724
  870SOL    MW4 3801   0.385   1.900   1.774
  871SOL     OW 3802   0.411   3.389   1.088
  871SOL    HW2 3803   0.456   3.451   1.145
  871SOL    HW3 3804   0.318   3.408   1.101
  871SOL    MW4 3805   0.404   3.399   1.095
  872SOL     OW 3806   1.851   2.918   1.442
  872SOL    HW2 3807   1.766   2.931   1.401
  872SOL    HW3 3808   1.831   2.882   1.529
  872SOL    MW4 3809   1.838   2.914   1.447
  873SOL     OW 3810   0.833   3.457   1.196
  873SOL    HW2 3811   0.857   3.446   1.105
  873SOL    HW3 3812   0.756   3.514   1.194
  873SOL    MW4 3813   0.825   3.462   1.185
  874SOL     OW 3814   0.475   2.840   0.051
  874SOL    HW2 3815   0.398   2.853   0.107
  874SOL    HW3 3816   0.439   2.804  -0.030
  874SOL    MW4 3817   0.461   2.836   0.048
  875SOL     OW 3818   1.128   2.813   0.294
  875SOL    HW2 3819   1.038   2.834   0.269
  875SOL    HW3 3820   1.155   2.886   0.350
  875SOL    MW4 3821   1.120   2.825   0.297
  876SOL     OW 3822   0.628   3.162   0.986
  876SOL    HW2 3823   0.621   3.141   1.080
  876SOL    HW3 3824   0.546   3.130   0.949
  876SOL    MW4 3825   0.616   3.156   0.993
  877SOL     OW 3826   1.492   2.172   1.388
  877SOL    HW2 3827   1.439   2.174   1.468
  877SOL    HW3 3828   1.477   2.085   1.351
  877SOL    MW4 3829   1.484   2.162   1.393
  878SOL     OW 3830   1.828   2.096   1.261
  878SOL    HW2 3831   1.809   2.163   1.196
  878SOL    HW3 3832   1.885   2.034   1.216
  878SOL    MW4 3833   1.832   2.097   1.247
  879SOL     OW 3834   0.074   3.254   1.649
  879SOL    HW2 3835   0.118   3.187   1.595
  879SOL    HW3 3836  -0.011   3.216   1.669
  879SOL    MW4 3837   0.069   3.240   1.645
  880SOL     OW 3838   0.757   1.929   0.701
  880SOL    HW2 3839   0.686   1.990   0.683
  880SOL    HW3 3840   0.808   1.926   0.620
  880SOL    MW4 3841   0.753   1.935   0.688
  881SOL     OW 3842   0.515   3.169   0.450
  881SOL    HW2 3843   0.508   3.201   0.540
  881SOL    HW3 3844   0.425   3.153   0.422
  881SOL    MW4 3845   0.503   3.171   0.457
  882SOL     OW 3846   1.110   3.562   1.359
  882SOL    HW2 3847   1.030   3.547   1.309
  882SOL    HW3 3848   1.117   3.657   1.366
  882SOL    MW4 3849   1.101   3.573   1.353
  883SOL     OW 3850   1.224   3.527   0.849
  883SOL    HW2 3851   1.271   3.600   0.808
  883SOL    HW3 3852   1.145   3.566   0.885
  883SOL    MW4 3853   1.219   3.542   0.848
  884SOL     OW 3854   1.632   3.622   1.124
  884SOL    HW2 3855   1.675   3.592   1.204
  884SOL    HW3 3856   1.551   3.570   1.121
  884SOL    MW4 3857   1.627   3.611   1.134
  885SOL     OW 3858   0.717   2.586   1.831
  885SOL    HW2 3859   0.787   2.528   1.803
  885SOL    HW3 3860   0.660   2.531   1.886
  885SOL    MW4 3861   0.719   2.573   1.835
  886SOL     OW 3862   1.504   2.798   1.464
  886SOL    HW2 3863   1.509   2.851   1.544
  886SOL    HW3 3864   1.466   2.715   1.492
  886SOL    MW4 3865   1.500   2.793   1.479
  887SOL     OW 3866   1.144   1.933   1.710
  887SOL    HW2 3867   1.139   1.840   1.691
  887SOL    HW3 3868   1.227   1.944   1.756
  887SOL    MW4 3869   1.152   1.922   1.714
  888SOL     OW 3870   0.518   2.453   0.164
  888SOL    HW2 3871   0.484   2.509   0.234
  888SOL    HW3 3872   0.589   2.403   0.204
  888SOL    MW4 3873   0.524   2.454   0.178
  889SOL     OW 3874   1.614   3.204   0.986
  889SOL    HW2 3875   1.649   3.186   0.899
  889SOL    HW3 3876   1.519   3.205   0.973
  889SOL    MW4 3877   1.606   3.201   0.973
  890SOL     OW 3878   1.043   2.852   1.355
  890SOL    HW2 3879   1.086   2.887   1.433
  890SOL    HW3 3880   1.026   2.929   1.301
  890SOL    MW4 3881   1.046   2.867   1.358
  891SOL     OW 3882   1.574   2.339   0.228
  891SOL    HW2 3883   1.566   2.410   0.165
  891SOL    HW3 3884   1.592   2.383   0.311
  891SOL    MW4 3885   1.575   2.353   0.230
  892SOL     OW 3886   0.434   1.994   0.657
  892SOL    HW2 3887   0.484   2.037   0.588
  892SOL    HW3 3888   0.349   2.038   0.657
  892SOL    MW4 3889   0.431   2.007   0.648
  893SOL     OW 3890   0.193   3.056   1.517
  893SOL    HW2 3891   0.221   3.009   1.595
  893SOL    HW3 3892   0.114   3.011   1.488
  893SOL    MW4 3893   0.186   3.045   1.523
  894SOL     OW 3894   0.701   2.383   1.484
  894SOL    HW2 3895   0.673   2.471   1.508
  894SOL    HW3 3896   0.670   2.327   1.555
  894SOL    MW4 3897   0.693   2.386   1.496
  895SOL     OW 3898   1.243   2.601   0.203
  895SOL    HW2 3899   1.290   2.619   0.122
  895SOL    HW3 3900   1.209   2.685   0.231
  895SOL    MW4 3901   1.245   2.615   0.196
  896SOL     OW 3902   0.356   2.779   0.697
  896SOL    HW2 3903   0.414   2.835   0.645
  896SOL    HW3 3904   0.400   2.694   0.699
  896SOL    MW4 3905   0.369   2.776   0.690
  897SOL     OW 3906   1.496   2.131   0.534
  897SOL    HW2 3907   1.418   2.081   0.559
  897SOL    HW3 3908   1.467   2.222   0.534
  897SOL    MW4 3909   1.482   2.135   0.537
  898SOL     OW 3910   1.082   2.093   0.693
  898SOL    HW2 3911   1.102   2.168   0.637
  898SOL    HW3 3912   1.062   2.132   0.778
  898SOL    MW4 3913   1.083   2.109   0.697
  899SOL     OW 3914   0.978   3.343   0.025
  899SOL    HW2 3915   1.005   3.421  -0.023
  899SOL    HW3 3916   0.885   3.358   0.044
  899SOL    MW4 3917   0.969   3.356   0.021
  900SOL     OW 3918   1.842   2.866   1.712
  900SOL    HW2 3919   1.755   2.846   1.748
  900SOL    HW3 3920   1.896   2.792   1.737
  900SOL    MW4 3921   1.837   2.855   1.720
  901SOL     OW 3922   0.063   3.379   0.869
  901SOL    HW2 3923   0.095   3.383   0.960
  901SOL    HW3 3924  -0.032   3.387   0.877
  901SOL    MW4 3925   0.055   3.382   0.882
  902SOL     OW 3926   0.018   2.505   0.416
  902SOL    HW2 3927  -0.042   2.477   0.486
  902SOL    HW3 3928   0.092   2.445   0.422
  902SOL    MW4 3929   0.020   2.494   0.425
  903SOL     OW 3930   1.586   3.717   1.850
  903SOL    HW2 3931   1.631   3.641   1.815
  903SOL    HW3 3932   1.624   3.730   1.937
  903SOL    MW4 3933   1.596   3.710   1.856
  904SOL     OW 3934   1.186   3.236   0.576
  904SOL    HW2 3935   1.209   3.187   0.654
  904SOL    HW3 3936   1.267   3.278   0.548
  904SOL    MW4 3937   1.199   3.236   0.583
  905SOL     OW 3938   0.444   2.244   1.305
  905SOL    HW2 3939   0.477   2.325   1.345
  905SOL    HW3 3940   0.417   2.270   1.217
  905SOL    MW4 3941   0.443   2.258   1.299
  906SOL     OW 3942   0.398   2.211   1.041
  906SOL    HW2 3943   0.428   2.125   1.012
  906SOL    HW3 3944   0.303   2.204   1.044
  906SOL    MW4 3945   0.390   2.200   1.039
  907SOL     OW 3946   1.227   2.420   1.732
  907SOL    HW2 3947   1.279   2.355   1.685
  907SOL    HW3 3948   1.185   2.471   1.662
  907SOL    MW4 3949   1.228   2.417   1.715
  908SOL     OW 3950   1.326   2.215   1.593
  908SOL    HW2 3951   1.233   2.199   1.580
  908SOL    HW3 3952   1.352   2.153   1.661
  908SOL    MW4 3953   1.316   2.205   1.600
  909SOL     OW 3954   0.541   1.989   0.932
  909SOL    HW2 3955   0.551   1.898   0.958
  909SOL    HW3 3956   0.497   1.985   0.847
  909SOL    MW4 3957   0.537   1.977   0.924
  910SOL     OW 3958   0.635   3.604   1.478
  910SOL    HW2 3959   0.552   3.589   1.523
  910SOL    HW3 3960   0.694   3.537   1.513
  910SOL    MW4 3961   0.633   3.594   1.488
  911SOL     OW 3962   1.692   2.311   1.103
  911SOL    HW2 3963   1.625   2.344   1.163
  911SOL    HW3 3964   1.735   2.389   1.069
  911SOL    MW4 3965   1.690   2.326   1.107
  912SOL     OW 3966   1.870   3.031   1.073
  912SOL    HW2 3967   1.863   2.971   0.998
  912SOL    HW3 3968   1.796   3.091   1.062
  912SOL    MW4 3969   1.860   3.031   1.062
  913SOL     OW 3970   1.252   2.893   0.991
  913SOL    HW2 3971   1.266   2.865   1.082
  913SOL    HW3 3972   1.338   2.924   0.963
  913SOL    MW4 3973   1.265   2.894   1.000
  914SOL     OW 3974   1.335   2.388   1.270
  914SOL    HW2 3975   1.356   2.389   1.177
  914SOL    HW3 3976   1.380   2.310   1.303
  914SOL    MW4 3977   1.342   2.378   1.262
  915SOL     OW 3978   1.828   2.519   1.812
  915SOL    HW2 3979   1.865   2.464   1.881
  915SOL    HW3 3980   1.853   2.476   1.730
  915SOL    MW4 3981   1.835   2.507   1.811
  916SOL     OW 3982   1.375   2.817   1.863
  916SOL    HW2 3983   1.441   2.765   1.817
  916SOL    HW3 3984   1.395   2.804   1.956
  916SOL    MW4 3985   1.386   2.808   1.870
  917SOL     OW 3986   1.326   1.903   0.212
  917SOL    HW2 3987   1.400   1.947   0.255
  917SOL    HW3 3988   1.250   1.957   0.234
  917SOL    MW4 3989   1.326   1.915   0.220
  918SOL     OW 3990   1.386   2.678   0.490
  918SOL    HW2 3991   1.301   2.648   0.460
  918SOL    HW3 3992   1.378   2.685   0.585
  918SOL    MW4 3993   1.374   2.676   0.499
  919SOL     OW 3994   0.462   3.141   1.221
  919SOL    HW2 3995   0.474   3.168   1.312
  919SOL    HW3 3996   0.443   3.222   1.174
  919SOL    MW4 3997   0.461   3.156   1.226
  920SOL     OW 3998   0.746   2.121   1.044
  920SOL    HW2 3999   0.719   2.123   1.135
  920SOL    HW3 4000   0.676   2.073   0.999
  920SOL    MW4 4001   0.734   2.117   1.051
  921SOL     OW 4002   0.600   3.613   1.206
  921SOL    HW2 4003   0.652   3.690   1.183
  921SOL    HW3 4004   0.609   3.605   1.301
  921SOL    MW4 4005   0.609   3.620   1.217
  922SOL     OW 4006   1.502   3.198   1.438
  922SOL    HW2 4007   1.487   3.127   1.501
  922SOL    HW3 4008   1.548   3.156   1.366
  922SOL    MW4 4009   1.508   3.182   1.438
  923SOL     OW 4010   0.576   2.929   1.555
  923SOL    HW2 4011   0.613   2.934   1.467
  923SOL    HW3 4012   0.615   3.002   1.602
  923SOL    MW4 4013   0.586   2.939   1.550
  924SOL     OW 4014   0.756   2.972   1.367
  924SOL    HW2 4015   0.815   2.918   1.420
  924SOL    HW3 4016   0.771   2.944   1.277
  924SOL    MW4 4017   0.766   2.961   1.363
  925SOL     OW 4018   0.759   2.344   0.216
  925SOL    HW2 4019   0.832   2.393   0.179
  925SOL    HW3 4020   0.775   2.253   0.190
  925SOL    MW4 4021   0.771   2.339   0.209
  926SOL     OW 4022   1.567   3.461   1.539
  926SOL    HW2 4023   1.609   3.446   1.624
  926SOL    HW3 4024   1.558   3.374   1.501
  926SOL    MW4 4025   1.571   3.449   1.546
  927SOL     OW 4026   1.227   1.940   1.130
  927SOL    HW2 4027   1.282   1.949   1.052
  927SOL    HW3 4028   1.282   1.974   1.201
  927SOL    MW4 4029   1.241   1.945   1.129
  928SOL     OW 4030   0.234   2.853   0.314
  928SOL    HW2 4031   0.171   2.869   0.243
  928SOL    HW3 4032   0.181   2.816   0.385
  928SOL    MW4 4033   0.219   2.850   0.314
  929SOL     OW 4034   0.590   3.207   0.173
  929SOL    HW2 4035   0.605   3.183   0.265
  929SOL    HW3 4036   0.498   3.185   0.157
  929SOL    MW4 4037   0.580   3.200   0.183
  930SOL     OW 4038   1.129   3.438   0.325
  930SOL    HW2 4039   1.137   3.356   0.276
  930SOL    HW3 4040   1.048   3.477   0.292
  930SOL    MW4 4041   1.119   3.433   0.315
  931SOL     OW 4042   0.388   3.596   0.894
  931SOL    HW2 4043   0.392   3.507   0.929
  931SOL    HW3 4044   0.414   3.587   0.803
  931SOL    MW4 4045   0.391   3.584   0.886
  932SOL     OW 4046   1.005   3.074   1.137
  932SOL    HW2 4047   0.937   3.008   1.153
  932SOL    HW3 4048   1.023   3.068   1.044
  932SOL    MW4 4049   0.998   3.065   1.128
  933SOL     OW 4050   0.094   3.349   1.388
  933SOL    HW2 4051   0.084   3.307   1.474
  933SOL    HW3 4052   0.015   3.402   1.378
  933SOL    MW4 4053   0.083   3.350   1.399
  934SOL     OW 4054   0.998   2.213   0.958
  934SOL    HW2 4055   0.928   2.165   1.003
  934SOL    HW3 4056   1.030   2.276   1.022
  934SOL    MW4 4057   0.993   2.215   0.972
  935SOL     OW 4058   0.649   2.649   1.578
  935SOL    HW2 4059   0.642   2.744   1.566
  935SOL    HW3 4060   0.658   2.638   1.673
  935SOL    MW4 4061   0.650   2.661   1.588
  936SOL     OW 4062   0.370   3.164   1.836
  936SOL    HW2 4063   0.442   3.166   1.773
  936SOL    HW3 4064   0.340   3.073   1.835
  936SOL    MW4 4065   0.375   3.153   1.828
  937SOL     OW 4066   1.454   1.927   1.303
  937SOL    HW2 4067   1.525   1.873   1.267
  937SOL    HW3 4068   1.453   1.906   1.396
  937SOL    MW4 4069   1.463   1.918   1.311
  938SOL     OW 4070   1.654   3.457   1.787
  938SOL    HW2 4071   1.627   3.454   1.878
  938SOL    HW3 4072   1.750   3.461   1.790
  938SOL    MW4 4073   1.664   3.457   1.799
  939SOL     OW 4074   0.465   2.319   0.771
  939SOL    HW2 4075   0.536   2.267   0.734
  939SOL    HW3 4076   0.451   2.284   0.858
  939SOL    MW4 4077   0.473   2.308   0.778
  940SOL     OW 4078   0.020   3.654   1.843
  940SOL    HW2 4079   0.070   3.632   1.765
  940SOL    HW3 4080   0.028   3.749   1.851
  940SOL    MW4 4081   0.028   3.663   1.834
  941SOL     OW 4082   0.781   3.412   0.847
  941SOL    HW2 4083   0.709   3.349   0.860
  941SOL    HW3 4084   0.742   3.497   0.865
  941SOL    MW4 4085   0.765   3.415   0.850
  942SOL     OW 4086   1.101   2.260   0.495
  942SOL    HW2 4087   1.123   2.197   0.427
  942SOL    HW3 4088   1.006   2.252   0.506
  942SOL    MW4 4089   1.091   2.251   0.487
  943SOL     OW 4090   0.186   1.950   0.427
  943SOL    HW2 4091   0.257   1.971   0.366
  943SOL    HW3 4092   0.140   1.878   0.385
  943SOL    MW4 4093   0.190   1.944   0.413
  944SOL     OW 4094   0.017   2.417   1.570
  944SOL    HW2 4095   0.081   2.483   1.545
  944SOL    HW3 4096  -0.064   2.444   1.527
  944SOL    MW4 4097   0.015   2.429   1.562
  945SOL     OW 4098   1.755   3.324   0.527
  945SOL    HW2 4099   1.725   3.257   0.588
  945SOL    HW3 4100   1.849   3.330   0.541
  945SOL    MW4 4101   1.763   3.316   0.537
  946SOL     OW 4102   1.311   3.001   0.457
  946SOL    HW2 4103   1.283   3.087   0.490
  946SOL    HW3 4104   1.339   3.017   0.367
  946SOL    MW4 4105   1.311   3.015   0.449
  947SOL     OW 4106   0.973   1.921   0.510
  947SOL    HW2 4107   1.010   1.980   0.575
  947SOL    HW3 4108   0.950   1.977   0.436
  947SOL    MW4 4109   0.974   1.936   0.509
  948SOL     OW 4110   1.826   2.803   0.932
  948SOL    HW2 4111   1.817   2.835   0.843
  948SOL    HW3 4112   1.779   2.719   0.932
  948SOL    MW4 4113   1.819   2.796   0.922
  949SOL     OW 4114   0.202   2.643   1.511
  949SOL    HW2 4115   0.223   2.712   1.449
  949SOL    HW3 4116   0.282   2.590   1.516
  949SOL    MW4 4117   0.215   2.644   1.505
  950SOL     OW 4118   1.738   2.734   0.633
  950SOL    HW2 4119   1.832   2.723   0.621
  950SOL    HW3 4120   1.714   2.806   0.574
  950SOL    MW4 4121   1.748   2.742   0.624
  951SOL     OW 4122   0.187   2.658   1.778
  951SOL    HW2 4123   0.113   2.602   1.804
  951SOL    HW3 4124   0.182   2.661   1.683
  951SOL    MW4 4125   0.176   2.651   1.768
  952SOL     OW 4126   0.353   1.945   1.228
  952SOL    HW2 4127   0.396   2.029   1.248
  952SOL    HW3 4128   0.426   1.883   1.221
  952SOL    MW4 4129   0.368   1.948   1.229
  953SOL     OW 4130   0.394   2.612   0.406
  953SOL    HW2 4131   0.394   2.707   0.391
  953SOL    HW3 4132   0.471   2.596   0.460
  953SOL    MW4 4133   0.404   2.623   0.411
  954SOL     OW 4134   1.170   2.471   1.470
  954SOL    HW2 4135   1.206   2.444   1.386
  954SOL    HW3 4136   1.083   2.505   1.449
  954SOL    MW4 4137   1.164   2.472   1.457
  955SOL     OW 4138   0.153   2.343   0.695
  955SOL    HW2 4139   0.215   2.350   0.768
  955SOL    HW3 4140   0.153   2.250   0.672
  955SOL    MW4 4141   0.161   2.332   0.702
  956SOL     OW 4142   1.700   3.683   0.227
  956SOL    HW2 4143   1.767   3.716   0.167
  956SOL    HW3 4144   1.657   3.762   0.261
  956SOL    MW4 4145   1.702   3.698   0.223
  957SOL     OW 4146   0.835   2.604   1.179
  957SOL    HW2 4147   0.793   2.522   1.155
  957SOL    HW3 4148   0.836   2.603   1.275
  957SOL    MW4 4149   0.828   2.593   1.188
  958SOL     OW 4150   1.506   3.737   1.578
  958SOL    HW2 4151   1.509   3.643   1.561
  958SOL    HW3 4152   1.529   3.745   1.670
  958SOL    MW4 4153   1.509   3.725   1.588
  959SOL     OW 4154   0.639   2.074   1.284
  959SOL    HW2 4155   0.570   2.137   1.305
  959SOL    HW3 4156   0.666   2.038   1.369
  959SOL    MW4 4157   0.633   2.077   1.297
  960SOL     OW 4158   0.022   2.915   0.153
  960SOL    HW2 4159  -0.009   2.980   0.216
  960SOL    HW3 4160  -0.029   2.837   0.172
  960SOL    MW4 4161   0.012   2.912   0.163
  961SOL     OW 4162   1.434   1.927   0.901
  961SOL    HW2 4163   1.522   1.936   0.938
  961SOL    HW3 4164   1.444   1.868   0.827
  961SOL    MW4 4165   1.448   1.921   0.895
  962SOL     OW 4166   1.466   2.666   0.745
  962SOL    HW2 4167   1.546   2.681   0.694
  962SOL    HW3 4168   1.459   2.571   0.751
  962SOL    MW4 4169   1.475   2.655   0.740
  963SOL     OW 4170   0.606   3.715   0.095
  963SOL    HW2 4171   0.511   3.715   0.087
  963SOL    HW3 4172   0.622   3.661   0.173
  963SOL    MW4 4173   0.596   3.709   0.104
  964SOL     OW 4174   0.916   2.592   1.442
  964SOL    HW2 4175   0.985   2.659   1.439
  964SOL    HW3 4176   0.849   2.630   1.498
  964SOL    MW4 4177   0.917   2.605   1.449
  965SOL     OW 4178   0.334   2.892   1.690
  965SOL    HW2 4179   0.288   2.808   1.692
  965SOL    HW3 4180   0.391   2.886   1.614
  965SOL    MW4 4181   0.336   2.880   1.682
  966SOL     OW 4182   1.451   2.535   0.011
  966SOL    HW2 4183   1.379   2.511  -0.047
  966SOL    HW3 4184   1.517   2.572  -0.047
  966SOL    MW4 4185   1.450   2.537  -0.004
  967SOL     OW 4186   0.585   3.267   0.691
  967SOL    HW2 4187   0.650   3.200   0.712
  967SOL    HW3 4188   0.637   3.344   0.668
  967SOL    MW4 4189   0.600   3.269   0.690
  968SOL     OW 4190   0.846   2.432   0.821
  968SOL    HW2 4191   0.786   2.450   0.893
  968SOL    HW3 4192   0.880   2.344   0.840
  968SOL    MW4 4193   0.842   2.422   0.834
  969SOL     OW 4194   1.787   1.931   1.490
  969SOL    HW2 4195   1.708   1.977   1.518
  969SOL    HW3 4196   1.822   1.985   1.419
  969SOL    MW4 4197   1.781   1.944   1.484
  970SOL     OW 4198   1.071   3.015   0.840
  970SOL    HW2 4199   1.163   2.996   0.858
  970SOL    HW3 4200   1.044   2.945   0.780
  970SOL    MW4 4201   1.079   3.003   0.834
  971SOL     OW 4202   0.864   2.835   0.195
  971SOL    HW2 4203   0.850   2.747   0.160
  971SOL    HW3 4204   0.815   2.892   0.136
  971SOL    MW4 4205   0.856   2.830   0.183
  972SOL     OW 4206   1.345   3.253   0.936
  972SOL    HW2 4207   1.318   3.337   0.901
  972SOL    HW3 4208   1.305   3.248   1.023
  972SOL    MW4 4209   1.338   3.262   0.942
  973SOL     OW 4210   1.264   3.201   1.204
  973SOL    HW2 4211   1.275   3.168   1.293
  973SOL    HW3 4212   1.183   3.160   1.173
  973SOL    MW4 4213   1.254   3.193   1.210
  974SOL     OW 4214   0.277   2.559   0.974
  974SOL    HW2 4215   0.227   2.558   1.055
  974SOL    HW3 4216   0.297   2.651   0.958
  974SOL    MW4 4217   0.273   2.571   0.982
  975SOL     OW 4218   1.344   3.323   1.736
  975SOL    HW2 4219   1.344   3.417   1.752
  975SOL    HW3 4220   1.389   3.313   1.652
  975SOL    MW4 4221   1.350   3.333   1.727
  976SOL     OW 4222   1.583   2.041   0.297
  976SOL    HW2 4223   1.576   2.045   0.392
  976SOL    HW3 4224   1.595   2.132   0.270
  976SOL    MW4 4225   1.584   2.054   0.305
  977SOL     OW 4226   0.872   2.604   0.411
  977SOL    HW2 4227   0.852   2.590   0.318
  977SOL    HW3 4228   0.965   2.583   0.418
  977SOL    MW4 4229   0.882   2.599   0.400
  978SOL     OW 4230   0.199   2.227   1.715
  978SOL    HW2 4231   0.156   2.286   1.652
  978SOL    HW3 4232   0.267   2.282   1.755
  978SOL    MW4 4233   0.203   2.242   1.712
  979SOL     OW 4234   1.311   2.847   1.260
  979SOL    HW2 4235   1.374   2.844   1.333
  979SOL    HW3 4236   1.227   2.865   1.302
  979SOL    MW4 4237   1.307   2.849   1.275
  980SOL     OW 4238   0.855   3.562   0.449
  980SOL    HW2 4239   0.913   3.633   0.476
  980SOL    HW3 4240   0.878   3.490   0.507
  980SOL    MW4 4241   0.866   3.562   0.460
  981SOL     OW 4242   1.650   2.024   1.039
  981SOL    HW2 4243   1.695   1.942   1.058
  981SOL    HW3 4244   1.670   2.080   1.115
  981SOL    MW4 4245   1.660   2.020   1.051
  982SOL     OW 4246   0.098   1.867   1.138
  982SOL    HW2 4247   0.089   1.868   1.043
  982SOL    HW3 4248   0.192   1.879   1.153
  982SOL    MW4 4249   0.110   1.870   1.129
  983SOL     OW 4250   1.735   3.060   0.758
  983SOL    HW2 4251   1.714   3.006   0.681
  983SOL    HW3 4252   1.831   3.058   0.762
  983SOL    MW4 4253   1.744   3.053   0.747
  984SOL     OW 4254   0.427   3.205   1.501
  984SOL    HW2 4255   0.348   3.155   1.524
  984SOL    HW3 4256   0.497   3.164   1.551
  984SOL    MW4 4257   0.425   3.193   1.511
  985SOL     OW 4258   0.311   1.994   0.184
  985SOL    HW2 4259   0.240   2.049   0.152
  985SOL    HW3 4260   0.353   1.960   0.105
  985SOL    MW4 4261   0.307   1.996   0.170
  986SOL     OW 4262   1.435   2.491   1.020
  986SOL    HW2 4263   1.358   2.537   0.986
  986SOL    HW3 4264   1.492   2.560   1.054
  986SOL    MW4 4265   1.432   2.506   1.020
  987SOL     OW 4266   0.067   2.093   0.033
  987SOL    HW2 4267   0.034   2.172   0.077
  987SOL    HW3 4268   0.122   2.126  -0.038
  987SOL    MW4 4269   0.070   2.107   0.030
  988SOL     OW 4270   0.101   3.350   0.222
  988SOL    HW2 4271   0.118   3.434   0.264
  988SOL    HW3 4272   0.136   3.359   0.134
  988SOL    MW4 4273   0.106   3.363   0.216
  989SOL     OW 4274   1.373   3.439   0.439
  989SOL    HW2 4275   1.436   3.429   0.368
  989SOL    HW3 4276   1.290   3.459   0.394
  989SOL    MW4 4277   1.370   3.440   0.424
  990SOL     OW 4278   1.736   2.707   2.125
  990SOL    HW2 4279   1.777   2.649   2.190
  990SOL    HW3 4280   1.643   2.699   2.142
  990SOL    MW4 4281   1.730   2.699   2.135
  991SOL     OW 4282   1.602   2.639   3.120
  991SOL    HW2 4283   1.557   2.706   3.171
  991SOL    HW3 4284   1.690   2.675   3.106
  991SOL    MW4 4285   1.608   2.652   3.124
  992SOL     OW 4286   0.530   2.890   2.354
  992SOL    HW2 4287   0.620   2.865   2.338
  992SOL    HW3 4288   0.526   2.983   2.331
  992SOL    MW4 4289   0.542   2.899   2.349
  993SOL     OW 4290   1.646   3.593   2.496
  993SOL    HW2 4291   1.658   3.539   2.574
  993SOL    HW3 4292   1.683   3.541   2.425
  993SOL    MW4 4293   1.652   3.578   2.497
  994SOL     OW 4294   1.025   3.478   3.497
  994SOL    HW2 4295   1.066   3.514   3.418
  994SOL    HW3 4296   1.060   3.389   3.504
  994SOL    MW4 4297   1.036   3.471   3.488
  995SOL     OW 4298   1.582   3.033   3.101
  995SOL    HW2 4299   1.503   2.998   3.059
  995SOL    HW3 4300   1.609   3.105   3.045
  995SOL    MW4 4301   1.575   3.038   3.088
  996SOL     OW 4302   0.814   2.346   2.367
  996SOL    HW2 4303   0.789   2.434   2.395
  996SOL    HW3 4304   0.811   2.349   2.271
  996SOL    MW4 4305   0.810   2.358   2.359
  997SOL     OW 4306   0.256   2.374   2.295
  997SOL    HW2 4307   0.288   2.462   2.277
  997SOL    HW3 4308   0.244   2.372   2.390
  997SOL    MW4 4309   0.259   2.386   2.307
  998SOL     OW 4310   0.334   2.787   3.196
  998SOL    HW2 4311   0.397   2.734   3.147
  998SOL    HW3 4312   0.315   2.861   3.139
  998SOL    MW4 4313   0.340   2.789   3.183
  999SOL     OW 4314   0.655   2.129   2.382
  999SOL    HW2 4315   0.713   2.205   2.384
  999SOL    HW3 4316   0.590   2.150   2.315
  999SOL    MW4 4317   0.654   2.141   2.373
 1000SOL     OW 4318   0.742   3.056   2.557
 1000SOL    HW2 4319   0.822   3.059   2.609
 1000SOL    HW3 4320   0.770   3.023   2.471
 1000SOL    MW4 4321   0.756   3.052   2.552
 1001SOL     OW 4322   0.767   3.397   3.460
 1001SOL    HW2 4323   0.851   3.423   3.499
 1001SOL    HW3 4324   0.791   3.341   3.386
 1001SOL    MW4 4325   0.781   3.393   3.455
 1002SOL     OW 4326   0.519   2.560   2.548
 1002SOL    HW2 4327   0.504   2.480   2.599
 1002SOL    HW3 4328   0.601   2.595   2.582
 1002SOL    MW4 4329   0.527   2.552   2.560
 1003SOL     OW 4330   0.856   3.246   3.233
 1003SOL    HW2 4331   0.820   3.312   3.173
 1003SOL    HW3 4332   0.784   3.184   3.246
 1003SOL    MW4 4333   0.842   3.246   3.227
 1004SOL     OW 4334   0.661   2.386   2.925
 1004SOL    HW2 4335   0.567   2.382   2.943
 1004SOL    HW3 4336   0.691   2.295   2.934
 1004SOL    MW4 4337   0.652   2.374   2.928
 1005SOL     OW 4338   0.407   2.800   2.829
 1005SOL    HW2 4339   0.362   2.807   2.745
 1005SOL    HW3 4340   0.387   2.883   2.873
 1005SOL    MW4 4341   0.399   2.812   2.823
 1006SOL     OW 4342   0.104   3.646   2.704
 1006SOL    HW2 4343   0.193   3.638   2.739
 1006SOL    HW3 4344   0.068   3.558   2.709
 1006SOL    MW4 4345   0.111   3.633   2.709
 1007SOL     OW 4346   1.369   3.038   2.073
 1007SOL    HW2 4347   1.287   3.074   2.039
 1007SOL    HW3 4348   1.437   3.081   2.022
 1007SOL    MW4 4349   1.367   3.048   2.061
 1008SOL     OW 4350   0.368   3.173   2.739
 1008SOL    HW2 4351   0.344   3.226   2.815
 1008SOL    HW3 4352   0.424   3.231   2.687
 1008SOL    MW4 4353   0.372   3.188   2.742
 1009SOL     OW 4354   0.930   2.817   2.549
 1009SOL    HW2 4355   0.844   2.804   2.589
 1009SOL    HW3 4356   0.983   2.744   2.581
 1009SOL    MW4 4357   0.926   2.806   2.558
 1010SOL     OW 4358   0.338   3.469   3.334
 1010SOL    HW2 4359   0.246   3.445   3.319
 1010SOL    HW3 4360   0.382   3.386   3.351
 1010SOL    MW4 4361   0.332   3.454   3.333
 1011SOL     OW 4362   0.921   3.179   2.266
 1011SOL    HW2 4363   0.898   3.241   2.334
 1011SOL    HW3 4364   0.878   3.097   2.292
 1011SOL    MW4 4365   0.913   3.175   2.277
 1012SOL     OW 4366   1.794   2.180   2.722
 1012SOL    HW2 4367   1.731   2.160   2.791
 1012SOL    HW3 4368   1.784   2.109   2.659
 1012SOL    MW4 4369   1.784   2.167   2.723
 1013SOL     OW 4370   0.418   2.152   2.234
 1013SOL    HW2 4371   0.392   2.114   2.150
 1013SOL    HW3 4372   0.355   2.222   2.250
 1013SOL    MW4 4373   0.407   2.155   2.225
 1014SOL     OW 4374   0.253   3.113   2.271
 1014SOL    HW2 4375   0.201   3.181   2.227
 1014SOL    HW3 4376   0.250   3.039   2.211
 1014SOL    MW4 4377   0.245   3.112   2.258
 1015SOL     OW 4378   0.915   3.576   2.049
 1015SOL    HW2 4379   0.870   3.592   2.132
 1015SOL    HW3 4380   0.846   3.541   1.991
 1015SOL    MW4 4381   0.901   3.573   2.051
 1016SOL     OW 4382   1.850   2.349   2.024
 1016SOL    HW2 4383   1.759   2.351   2.052
 1016SOL    HW3 4384   1.895   2.411   2.082
 1016SOL    MW4 4385   1.843   2.357   2.034
 1017SOL     OW 4386   1.595   2.952   2.374
 1017SOL    HW2 4387   1.505   2.952   2.409
 1017SOL    HW3 4388   1.588   2.998   2.291
 1017SOL    MW4 4389   1.582   2.958   2.368
 1018SOL     OW 4390   1.395   2.587   3.446
 1018SOL    HW2 4391   1.464   2.525   3.423
 1018SOL    HW3 4392   1.320   2.561   3.393
 1018SOL    MW4 4393   1.395   2.574   3.437
 1019SOL     OW 4394   0.136   3.467   2.998
 1019SOL    HW2 4395   0.119   3.413   3.075
 1019SOL    HW3 4396   0.124   3.557   3.028
 1019SOL    MW4 4397   0.133   3.471   3.012
 1020SOL     OW 4398   1.131   2.974   3.438
 1020SOL    HW2 4399   1.116   3.067   3.423
 1020SOL    HW3 4400   1.226   2.964   3.438
 1020SOL    MW4 4401   1.140   2.984   3.435
 1021SOL     OW 4402   0.927   2.398   3.639
 1021SOL    HW2 4403   1.017   2.399   3.606
 1021SOL    HW3 4404   0.886   2.323   3.597
 1021SOL    MW4 4405   0.933   2.388   3.630
 1022SOL     OW 4406   1.502   2.930   2.766
 1022SOL    HW2 4407   1.505   2.864   2.697
 1022SOL    HW3 4408   1.587   2.973   2.762
 1022SOL    MW4 4409   1.514   2.926   2.757
 1023SOL     OW 4410   1.122   2.533   2.335
 1023SOL    HW2 4411   1.148   2.557   2.246
 1023SOL    HW3 4412   1.104   2.440   2.331
 1023SOL    MW4 4413   1.124   2.525   2.322
 1024SOL     OW 4414   1.787   3.153   2.186
 1024SOL    HW2 4415   1.743   3.194   2.261
 1024SOL    HW3 4416   1.844   3.221   2.151
 1024SOL    MW4 4417   1.789   3.167   2.191
 1025SOL     OW 4418   0.707   2.202   3.589
 1025SOL    HW2 4419   0.717   2.128   3.529
 1025SOL    HW3 4420   0.743   2.171   3.672
 1025SOL    MW4 4421   0.713   2.188   3.591
 1026SOL     OW 4422   0.443   3.569   2.504
 1026SOL    HW2 4423   0.475   3.657   2.482
 1026SOL    HW3 4424   0.396   3.541   2.426
 1026SOL    MW4 4425   0.442   3.577   2.491
 1027SOL     OW 4426   1.827   1.931   2.553
 1027SOL    HW2 4427   1.881   1.882   2.615
 1027SOL    HW3 4428   1.770   1.865   2.514
 1027SOL    MW4 4429   1.827   1.915   2.555
 1028SOL     OW 4430   0.159   3.629   2.081
 1028SOL    HW2 4431   0.188   3.719   2.073
 1028SOL    HW3 4432   0.109   3.612   2.002
 1028SOL    MW4 4433   0.157   3.637   2.070
 1029SOL     OW 4434   0.946   1.884   2.966
 1029SOL    HW2 4435   0.905   1.962   2.928
 1029SOL    HW3 4436   1.040   1.902   2.961
 1029SOL    MW4 4437   0.952   1.896   2.961
 1030SOL     OW 4438   1.563   3.437   2.052
 1030SOL    HW2 4439   1.611   3.506   2.098
 1030SOL    HW3 4440   1.484   3.481   2.021
 1030SOL    MW4 4441   1.558   3.451   2.055
 1031SOL     OW 4442   0.961   2.562   1.996
 1031SOL    HW2 4443   0.963   2.509   1.917
 1031SOL    HW3 4444   1.049   2.599   2.002
 1031SOL    MW4 4445   0.973   2.561   1.985
 1032SOL     OW 4446   1.575   2.488   2.332
 1032SOL    HW2 4447   1.614   2.488   2.419
 1032SOL    HW3 4448   1.516   2.564   2.332
 1032SOL    MW4 4449   1.572   2.499   2.343
 1033SOL     OW 4450   0.892   2.855   3.461
 1033SOL    HW2 4451   0.869   2.835   3.551
 1033SOL    HW3 4452   0.977   2.899   3.466
 1033SOL    MW4 4453   0.899   2.858   3.473
 1034SOL     OW 4454   0.972   1.992   3.221
 1034SOL    HW2 4455   0.978   1.954   3.134
 1034SOL    HW3 4456   0.961   2.086   3.206
 1034SOL    MW4 4457   0.973   2.000   3.209
 1035SOL     OW 4458   1.061   2.481   3.055
 1035SOL    HW2 4459   1.136   2.510   3.002
 1035SOL    HW3 4460   0.993   2.546   3.039
 1035SOL    MW4 4461   1.062   2.493   3.045
 1036SOL     OW 4462   1.611   2.449   3.332
 1036SOL    HW2 4463   1.592   2.358   3.311
 1036SOL    HW3 4464   1.589   2.498   3.253
 1036SOL    MW4 4465   1.606   2.442   3.319
 1037SOL     OW 4466   1.753   3.543   3.236
 1037SOL    HW2 4467   1.681   3.505   3.287
 1037SOL    HW3 4468   1.770   3.628   3.277
 1037SOL    MW4 4469   1.747   3.548   3.248
 1038SOL     OW 4470   1.058   2.187   3.438
 1038SOL    HW2 4471   1.024   2.226   3.357
 1038SOL    HW3 4472   1.036   2.095   3.431
 1038SOL    MW4 4473   1.051   2.180   3.428
 1039SOL     OW 4474   1.467   3.001   3.514
 1039SOL    HW2 4475   1.549   3.042   3.544
 1039SOL    HW3 4476   1.430   2.963   3.594
 1039SOL    MW4 4477   1.473   3.002   3.529
 1040SOL     OW 4478   1.762   2.374   2.498
 1040SOL    HW2 4479   1.851   2.343   2.515
 1040SOL    HW3 4480   1.705   2.314   2.546
 1040SOL    MW4 4481   1.765   2.362   2.507
 1041SOL     OW 4482   0.188   2.088   2.527
 1041SOL    HW2 4483   0.179   2.028   2.453
 1041SOL    HW3 4484   0.121   2.059   2.590
 1041SOL    MW4 4485   0.178   2.075   2.525
 1042SOL     OW 4486   1.131   3.181   2.088
 1042SOL    HW2 4487   1.081   3.183   2.170
 1042SOL    HW3 4488   1.065   3.199   2.020
 1042SOL    MW4 4489   1.117   3.183   2.090
 1043SOL     OW 4490   0.135   2.261   2.890
 1043SOL    HW2 4491   0.107   2.352   2.899
 1043SOL    HW3 4492   0.072   2.222   2.829
 1043SOL    MW4 4493   0.122   2.267   2.884
 1044SOL     OW 4494   0.594   3.599   2.196
 1044SOL    HW2 4495   0.515   3.557   2.229
 1044SOL    HW3 4496   0.660   3.582   2.263
 1044SOL    MW4 4497   0.593   3.591   2.209
 1045SOL     OW 4498   1.722   3.119   3.593
 1045SOL    HW2 4499   1.772   3.045   3.625
 1045SOL    HW3 4500   1.668   3.146   3.668
 1045SOL    MW4 4501   1.722   3.113   3.606
 1046SOL     OW 4502   0.730   3.014   1.903
 1046SOL    HW2 4503   0.652   2.960   1.890
 1046SOL    HW3 4504   0.701   3.087   1.956
 1046SOL    MW4 4505   0.716   3.016   1.908
 1047SOL     OW 4506   1.856   2.754   3.095
 1047SOL    HW2 4507   1.872   2.792   3.008
 1047SOL    HW3 4508   1.890   2.820   3.156
 1047SOL    MW4 4509   1.863   2.767   3.091
 1048SOL     OW 4510   1.648   3.463   2.764
 1048SOL    HW2 4511   1.677   3.530   2.825
 1048SOL    HW3 4512   1.629   3.387   2.819
 1048SOL    MW4 4513   1.650   3.463   2.779
 1049SOL     OW 4514   1.311   3.530   1.971
 1049SOL    HW2 4515   1.237   3.493   2.021
 1049SOL    HW3 4516   1.319   3.620   2.004
 1049SOL    MW4 4517   1.302   3.537   1.983
 1050SOL     OW 4518   0.119   2.536   3.060
 1050SOL    HW2 4519   0.181   2.566   3.126
 1050SOL    HW3 4520   0.053   2.605   3.054
 1050SOL    MW4 4521   0.118   2.549   3.067
 1051SOL     OW 4522   1.535   3.204   1.913
 1051SOL    HW2 4523   1.482   3.253   1.849
 1051SOL    HW3 4524   1.566   3.270   1.974
 1051SOL    MW4 4525   1.533   3.218   1.911
 1052SOL     OW 4526   0.760   2.093   1.968
 1052SOL    HW2 4527   0.708   2.013   1.956
 1052SOL    HW3 4528   0.847   2.070   1.936
 1052SOL    MW4 4529   0.763   2.079   1.962
 1053SOL     OW 4530   0.214   3.645   3.512
 1053SOL    HW2 4531   0.188   3.713   3.450
 1053SOL    HW3 4532   0.262   3.582   3.460
 1053SOL    MW4 4533   0.216   3.645   3.498
 1054SOL     OW 4534   0.266   2.964   3.019
 1054SOL    HW2 4535   0.319   3.039   3.044
 1054SOL    HW3 4536   0.185   3.002   2.985
 1054SOL    MW4 4537   0.262   2.979   3.019
 1055SOL     OW 4538   0.806   2.868   3.007
 1055SOL    HW2 4539   0.834   2.777   3.019
 1055SOL    HW3 4540   0.735   2.862   2.943
 1055SOL    MW4 4541   0.799   2.856   3.002
 1056SOL     OW 4542   0.121   2.733   2.425
 1056SOL    HW2 4543   0.212   2.748   2.452
 1056SOL    HW3 4544   0.124   2.654   2.371
 1056SOL    MW4 4545   0.133   2.725   2.423
 1057SOL     OW 4546   0.357   2.441   3.679
 1057SOL    HW2 4547   0.304   2.521   3.686
 1057SOL    HW3 4548   0.427   2.453   3.744
 1057SOL    MW4 4549   0.359   2.454   3.687
 1058SOL     OW 4550   0.743   1.991   3.386
 1058SOL    HW2 4551   0.720   1.899   3.388
 1058SOL    HW3 4552   0.829   1.993   3.343
 1058SOL    MW4 4553   0.750   1.981   3.382
 1059SOL     OW 4554   0.427   2.515   3.425
 1059SOL    HW2 4555   0.507   2.565   3.411
 1059SOL    HW3 4556   0.418   2.509   3.520
 1059SOL    MW4 4557   0.436   2.521   3.435
 1060SOL     OW 4558   0.748   3.665   2.799
 1060SOL    HW2 4559   0.837   3.680   2.829
 1060SOL    HW3 4560   0.743   3.712   2.715
 1060SOL    MW4 4561   0.758   3.673   2.792
 1061SOL     OW 4562   1.404   2.040   3.696
 1061SOL    HW2 4563   1.460   1.967   3.722
 1061SOL    HW3 4564   1.374   2.078   3.778
 1061SOL    MW4 4565   1.408   2.035   3.709
 1062SOL     OW 4566   0.129   3.345   2.464
 1062SOL    HW2 4567   0.101   3.384   2.546
 1062SOL    HW3 4568   0.149   3.254   2.486
 1062SOL    MW4 4569   0.127   3.337   2.477
 1063SOL     OW 4570   0.962   3.388   2.499
 1063SOL    HW2 4571   1.045   3.342   2.483
 1063SOL    HW3 4572   0.952   3.387   2.595
 1063SOL    MW4 4573   0.972   3.381   2.509
 1064SOL     OW 4574   1.794   2.533   2.813
 1064SOL    HW2 4575   1.883   2.563   2.795
 1064SOL    HW3 4576   1.774   2.473   2.742
 1064SOL    MW4 4577   1.803   2.530   2.802
 1065SOL     OW 4578   1.645   2.712   3.693
 1065SOL    HW2 4579   1.700   2.636   3.674
 1065SOL    HW3 4580   1.647   2.720   3.788
 1065SOL    MW4 4581   1.653   2.703   3.701
 1066SOL     OW 4582   0.695   3.445   1.904
 1066SOL    HW2 4583   0.635   3.514   1.874
 1066SOL    HW3 4584   0.640   3.387   1.957
 1066SOL    MW4 4585   0.679   3.447   1.906
 1067SOL     OW 4586   1.133   2.090   2.127
 1067SOL    HW2 4587   1.066   2.066   2.064
 1067SOL    HW3 4588   1.198   2.139   2.076
 1067SOL    MW4 4589   1.133   2.092   2.112
 1068SOL     OW 4590   0.940   2.274   3.212
 1068SOL    HW2 4591   0.859   2.315   3.240
 1068SOL    HW3 4592   0.987   2.342   3.164
 1068SOL    MW4 4593   0.935   2.289   3.210
 1069SOL     OW 4594   1.200   2.612   2.835
 1069SOL    HW2 4595   1.213   2.706   2.845
 1069SOL    HW3 4596   1.161   2.602   2.749
 1069SOL    MW4 4597   1.196   2.623   2.825
 1070SOL     OW 4598   0.652   2.807   2.639
 1070SOL    HW2 4599   0.563   2.798   2.672
 1070SOL    HW3 4600   0.656   2.897   2.607
 1070SOL    MW4 4601   0.641   2.818   2.639
 1071SOL     OW 4602   1.451   2.390   2.634
 1071SOL    HW2 4603   1.396   2.311   2.633
 1071SOL    HW3 4604   1.433   2.431   2.718
 1071SOL    MW4 4605   1.441   2.385   2.643
 1072SOL     OW 4606   0.422   2.077   3.451
 1072SOL    HW2 4607   0.343   2.095   3.503
 1072SOL    HW3 4608   0.417   2.139   3.378
 1072SOL    MW4 4609   0.412   2.087   3.448
 1073SOL     OW 4610   1.070   2.594   2.591
 1073SOL    HW2 4611   1.007   2.526   2.615
 1073SOL    HW3 4612   1.090   2.575   2.499
 1073SOL    MW4 4613   1.064   2.581   2.583
 1074SOL     OW 4614   0.326   3.489   2.293
 1074SOL    HW2 4615   0.287   3.536   2.219
 1074SOL    HW3 4616   0.260   3.424   2.318
 1074SOL    MW4 4617   0.313   3.487   2.287
 1075SOL     OW 4618   0.818   2.898   2.317
 1075SOL    HW2 4619   0.820   2.872   2.224
 1075SOL    HW3 4620   0.876   2.835   2.360
 1075SOL    MW4 4621   0.826   2.887   2.311
 1076SOL     OW 4622   1.371   3.458   3.089
 1076SOL    HW2 4623   1.296   3.504   3.127
 1076SOL    HW3 4624   1.353   3.365   3.106
 1076SOL    MW4 4625   1.360   3.452   3.097
 1077SOL     OW 4626   1.375   3.666   2.519
 1077SOL    HW2 4627   1.318   3.619   2.458
 1077SOL    HW3 4628   1.461   3.627   2.506
 1077SOL    MW4 4629   1.378   3.657   2.509
 1078SOL     OW 4630   1.328   2.142   2.650
 1078SOL    HW2 4631   1.356   2.074   2.711
 1078SOL    HW3 4632   1.242   2.113   2.620
 1078SOL    MW4 4633   1.321   2.129   2.654
 1079SOL     OW 4634   0.133   3.076   2.584
 1079SOL    HW2 4635   0.197   3.108   2.647
 1079SOL    HW3 4636   0.182   3.012   2.532
 1079SOL    MW4 4637   0.148   3.072   2.585
 1080SOL     OW 4638   0.633   3.152   3.566
 1080SOL    HW2 4639   0.681   3.235   3.553
 1080SOL    HW3 4640   0.690   3.100   3.622
 1080SOL    MW4 4641   0.647   3.156   3.572
 1081SOL     OW 4642   1.308   2.246   1.985
 1081SOL    HW2 4643   1.281   2.312   1.921
 1081SOL    HW3 4644   1.378   2.289   2.035
 1081SOL    MW4 4645   1.313   2.259   1.982
 1082SOL     OW 4646   0.976   1.951   1.922
 1082SOL    HW2 4647   1.032   1.943   1.844
 1082SOL    HW3 4648   0.953   1.861   1.944
 1082SOL    MW4 4649   0.981   1.938   1.915
 1083SOL     OW 4650   1.481   2.802   2.127
 1083SOL    HW2 4651   1.448   2.891   2.117
 1083SOL    HW3 4652   1.446   2.773   2.212
 1083SOL    MW4 4653   1.471   2.811   2.138
 1084SOL     OW 4654   1.094   3.231   3.315
 1084SOL    HW2 4655   1.005   3.237   3.283
 1084SOL    HW3 4656   1.138   3.310   3.283
 1084SOL    MW4 4657   1.089   3.241   3.307
 1085SOL     OW 4658   0.387   1.899   3.657
 1085SOL    HW2 4659   0.315   1.864   3.605
 1085SOL    HW3 4660   0.445   1.940   3.592
 1085SOL    MW4 4661   0.385   1.900   3.642
 1086SOL     OW 4662   0.411   3.389   2.956
 1086SOL    HW2 4663   0.456   3.451   3.013
 1086SOL    HW3 4664   0.318   3.408   2.969
 1086SOL    MW4 4665   0.404   3.399   2.963
 1087SOL     OW 4666   1.851   2.918   3.310
 1087SOL    HW2 4667   1.766   2.931   3.269
 1087SOL    HW3 4668   1.831   2.882   3.397
 1087SOL    MW4 4669   1.838   2.914   3.315
 1088SOL     OW 4670   0.833   3.457   3.064
 1088SOL    HW2 4671   0.857   3.446   2.973
 1088SOL    HW3 4672   0.756   3.514   3.062
 1088SOL    MW4 4673   0.825   3.462   3.053
 1089SOL     OW 4674   0.475   2.840   1.919
 1089SOL    HW2 4675   0.398   2.853   1.975
 1089SOL    HW3 4676   0.439   2.804   1.838
 1089SOL    MW4 4677   0.461   2.836   1.916
 1090SOL     OW 4678   1.128   2.813   2.162
 1090SOL    HW2 4679   1.038   2.834   2.137
 1090SOL    HW3 4680   1.155   2.886   2.218
 1090SOL    MW4 4681   1.120   2.825   2.165
 1091SOL     OW 4682   0.628   3.162   2.854
 1091SOL    HW2 4683   0.621   3.141   2.948
 1091SOL    HW3 4684   0.546   3.130   2.817
 1091SOL    MW4 4685   0.616   3.156   2.861
 1092SOL     OW 4686   1.828   2.096   3.129
 1092SOL    HW2 4687   1.809   2.163   3.064
 1092SOL    HW3 4688   1.885   2.034   3.084
 1092SOL    MW4 4689   1.832   2.097   3.115
 1093SOL     OW 4690   0.074   3.254   3.517
 1093SOL    HW2 4691   0.118   3.187   3.463
 1093SOL    HW3 4692  -0.011   3.216   3.537
 1093SOL    MW4 4693   0.069   3.240   3.513
 1094SOL     OW 4694   0.757   1.929   2.569
 1094SOL    HW2 4695   0.686   1.990   2.551
 1094SOL    HW3 4696   0.808   1.926   2.488
 1094SOL    MW4 4697   0.753   1.935   2.556
 1095SOL     OW 4698   0.515   3.169   2.318
 1095SOL    HW2 4699   0.508   3.201   2.408
 1095SOL    HW3 4700   0.425   3.153   2.290
 1095SOL    MW4 4701   0.503   3.171   2.325
 1096SOL     OW 4702   1.110   3.562   3.227
 1096SOL    HW2 4703   1.030   3.547   3.177
 1096SOL    HW3 4704   1.117   3.657   3.234
 1096SOL    MW4 4705   1.101   3.573   3.221
 1097SOL     OW 4706   1.224   3.527   2.717
 1097SOL    HW2 4707   1.271   3.600   2.676
 1097SOL    HW3 4708   1.145   3.566   2.753
 1097SOL    MW4 4709   1.219   3.542   2.716
 1098SOL     OW 4710   1.632   3.622   2.992
 1098SOL    HW2 4711   1.675   3.592   3.072
 1098SOL    HW3 4712   1.551   3.570   2.989
 1098SOL    MW4 4713   1.627   3.611   3.002
 1099SOL     OW 4714   0.717   2.586   3.699
 1099SOL    HW2 4715   0.787   2.528   3.671
 1099SOL    HW3 4716   0.660   2.531   3.754
 1099SOL    MW4 4717   0.719   2.573   3.703
 1100SOL     OW 4718   1.504   2.798   3.332
 1100SOL    HW2 4719   1.509   2.851   3.412
 1100SOL    HW3 4720   1.466   2.715   3.360
 1100SOL    MW4 4721   1.500   2.793   3.347
 1101SOL     OW 4722   1.144   1.933   3.578
 1101SOL    HW2 4723   1.139   1.840   3.559
 1101SOL    HW3 4724   1.227   1.944   3.624
 1101SOL    MW4 4725   1.152   1.922   3.582
 1102SOL     OW 4726   0.518   2.453   2.032
 1102SOL    HW2 4727   0.484   2.509   2.102
 1102SOL    HW3 4728   0.589   2.403   2.072
 1102SOL    MW4 4729   0.524   2.454   2.046
 1103SOL     OW 4730   1.614   3.204   2.854
 1103SOL    HW2 4731   1.649   3.186   2.767
 1103SOL    HW3 4732   1.519   3.205   2.841
 1103SOL    MW4 4733   1.606   3.201   2.841
 1104SOL     OW 4734   1.043   2.852   3.223
 1104SOL    HW2 4735   1.086   2.887   3.301
 1104SOL    HW3 4736   1.026   2.929   3.169
 1104SOL    MW4 4737   1.046   2.867   3.226
 1105SOL     OW 4738   1.574   2.339   2.096
 1105SOL    HW2 4739   1.566   2.410   2.033
 1105SOL    HW3 4740   1.592   2.383   2.179
 1105SOL    MW4 4741   1.575   2.353   2.098
 1106SOL     OW 4742   0.434   1.994   2.525
 1106SOL    HW2 4743   0.484   2.037   2.456
 1106SOL    HW3 4744   0.349   2.038   2.525
 1106SOL    MW4 4745   0.431   2.007   2.516
 1107SOL     OW 4746   0.193   3.056   3.385
 1107SOL    HW2 4747   0.221   3.009   3.463
 1107SOL    HW3 4748   0.114   3.011   3.356
 1107SOL    MW4 4749   0.186   3.045   3.391
 1108SOL     OW 4750   0.701   2.383   3.352
 1108SOL    HW2 4751   0.673   2.471   3.376
 1108SOL    HW3 4752   0.670   2.327   3.423
 1108SOL    MW4 4753   0.693   2.386   3.364
 1109SOL     OW 4754   1.243   2.601   2.071
 1109SOL    HW2 4755   1.290   2.619   1.990
 1109SOL    HW3 4756   1.209   2.685   2.099
 1109SOL    MW4 4757   1.245   2.615   2.064
 1110SOL     OW 4758   0.356   2.779   2.565
 1110SOL    HW2 4759   0.414   2.835   2.513
 1110SOL    HW3 4760   0.400   2.694   2.567
 1110SOL    MW4 4761   0.369   2.776   2.558
 1111SOL     OW 4762   1.496   2.131   2.402
 1111SOL    HW2 4763   1.418   2.081   2.427
 1111SOL    HW3 4764   1.467   2.222   2.402
 1111SOL    MW4 4765   1.482   2.135   2.405
 1112SOL     OW 4766   1.082   2.093   2.561
 1112SOL    HW2 4767   1.102   2.168   2.505
 1112SOL    HW3 4768   1.062   2.132   2.646
 1112SOL    MW4 4769   1.083   2.109   2.565
 1113SOL     OW 4770   0.978   3.343   1.893
 1113SOL    HW2 4771   1.005   3.421   1.845
 1113SOL    HW3 4772   0.885   3.358   1.912
 1113SOL    MW4 4773   0.969   3.356   1.889
 1114SOL     OW 4774   1.842   2.866   3.580
 1114SOL    HW2 4775   1.755   2.846   3.616
 1114SOL    HW3 4776   1.896   2.792   3.605
 1114SOL    MW4 4777   1.837   2.855   3.588
 1115SOL     OW 4778   0.063   3.379   2.737
 1115SOL    HW2 4779   0.095   3.383   2.828
 1115SOL    HW3 4780  -0.032   3.387   2.745
 1115SOL    MW4 4781   0.055   3.382   2.750
 1116SOL     OW 4782   0.018   2.505   2.284
 1116SOL    HW2 4783  -0.042   2.477   2.354
 1116SOL    HW3 4784   0.092   2.445   2.290
 1116SOL    MW4 4785   0.020   2.494   2.293
 1117SOL     OW 4786   1.586   3.717   3.718
 1117SOL    HW2 4787   1.631   3.641   3.683
 1117SOL    HW3 4788   1.624   3.730   3.805
 1117SOL    MW4 4789   1.596   3.710   3.724
 1118SOL     OW 4790   1.186   3.236   2.444
 1118SOL    HW2 4791   1.209   3.187   2.522
 1118SOL    HW3 4792   1.267   3.278   2.416
 1118SOL    MW4 4793   1.199   3.236   2.451
 1119SOL     OW 4794   0.444   2.244   3.173
 1119SOL    HW2 4795   0.477   2.325   3.213
 1119SOL    HW3 4796   0.417   2.270   3.085
 1119SOL    MW4 4797   0.443   2.258   3.167
 1120SOL     OW 4798   0.398   2.211   2.909
 1120SOL    HW2 4799   0.428   2.125   2.880
 1120SOL    HW3 4800   0.303   2.204   2.912
 1120SOL    MW4 4801   0.390   2.200   2.907
 1121SOL     OW 4802   1.227   2.420   3.600
 1121SOL    HW2 4803   1.279   2.355   3.553
 1121SOL    HW3 4804   1.185   2.471   3.530
 1121SOL    MW4 4805   1.228   2.417   3.583
 1122SOL     OW 4806   1.326   2.215   3.461
 1122SOL    HW2 4807   1.233   2.199   3.448
 1122SOL    HW3 4808   1.352   2.153   3.529
 1122SOL    MW4 4809   1.316   2.205   3.468
 1123SOL     OW 4810   0.541   1.989   2.800
 1123SOL    HW2 4811   0.551   1.898   2.826
 1123SOL    HW3 4812   0.497   1.985   2.715
 1123SOL    MW4 4813   0.537   1.977   2.792
 1124SOL     OW 4814   0.635   3.604   3.346
 1124SOL    HW2 4815   0.552   3.589   3.391
 1124SOL    HW3 4816   0.694   3.537   3.381
 1124SOL    MW4 4817   0.633   3.594   3.356
 1125SOL     OW 4818   1.692   2.311   2.971
 1125SOL    HW2 4819   1.625   2.344   3.031
 1125SOL    HW3 4820   1.735   2.389   2.937
 1125SOL    MW4 4821   1.690   2.326   2.975
 1126SOL     OW 4822   1.870   3.031   2.941
 1126SOL    HW2 4823   1.863   2.971   2.866
 1126SOL    HW3 4824   1.796   3.091   2.930
 1126SOL    MW4 4825   1.860   3.031   2.930
 1127SOL     OW 4826   1.252   2.893   2.859
 1127SOL    HW2 4827   1.266   2.865   2.950
 1127SOL    HW3 4828   1.338   2.924   2.831
 1127SOL    MW4 4829   1.265   2.894   2.868
 1128SOL     OW 4830   1.335   2.388   3.138
 1128SOL    HW2 4831   1.356   2.389   3.045
 1128SOL    HW3 4832   1.380   2.310   3.171
 1128SOL    MW4 4833   1.342   2.378   3.130
 1129SOL     OW 4834   1.828   2.519   3.680
 1129SOL    HW2 4835   1.865   2.464   3.749
 1129SOL    HW3 4836   1.853   2.476   3.598
 1129SOL    MW4 4837   1.835   2.507   3.679
 1130SOL     OW 4838   1.375   2.817   3.731
 1130SOL    HW2 4839   1.441   2.765   3.685
 1130SOL    HW3 4840   1.395   2.804   3.824
 1130SOL    MW4 4841   1.386   2.808   3.738
 1131SOL     OW 4842   1.326   1.903   2.080
 1131SOL    HW2 4843   1.400   1.947   2.123
 1131SOL    HW3 4844   1.250   1.957   2.102
 1131SOL    MW4 4845   1.326   1.915   2.088
 1132SOL     OW 4846   1.386   2.678   2.358
 1132SOL    HW2 4847   1.301   2.648   2.328
 1132SOL    HW3 4848   1.378   2.685   2.453
 1132SOL    MW4 4849   1.374   2.676   2.367
 1133SOL     OW 4850   0.462   3.141   3.089
 1133SOL    HW2 4851   0.474   3.168   3.180
 1133SOL    HW3 4852   0.443   3.222   3.042
 1133SOL    MW4 4853   0.461   3.156   3.094
 1134SOL     OW 4854   0.746   2.121   2.912
 1134SOL    HW2 4855   0.719   2.123   3.003
 1134SOL    HW3 4856   0.676   2.073   2.867
 1134SOL    MW4 4857   0.734   2.117   2.919
 1135SOL     OW 4858   0.600   3.613   3.074
 1135SOL    HW2 4859   0.652   3.690   3.051
 1135SOL    HW3 4860   0.609   3.605   3.169
 1135SOL    MW4 4861   0.609   3.620   3.085
 1136SOL     OW 4862   1.502   3.198   3.306
 1136SOL    HW2 4863   1.487   3.127   3.369
 1136SOL    HW3 4864   1.548   3.156   3.234
 1136SOL    MW4 4865   1.508   3.182   3.306
 1137SOL     OW 4866   0.576   2.929   3.423
 1137SOL    HW2 4867   0.613   2.934   3.335
 1137SOL    HW3 4868   0.615   3.002   3.470
 1137SOL    MW4 4869   0.586   2.939   3.418
 1138SOL     OW 4870   0.756   2.972   3.235
 1138SOL    HW2 4871   0.815   2.918   3.288
 1138SOL    HW3 4872   0.771   2.944   3.145
 1138SOL    MW4 4873   0.766   2.961   3.231
 1139SOL     OW 4874   0.759   2.344   2.084
 1139SOL    HW2 4875   0.832   2.393   2.047
 1139SOL    HW3 4876   0.775   2.253   2.058
 1139SOL    MW4 4877   0.771   2.339   2.077
 1140SOL     OW 4878   1.567   3.461   3.407
 1140SOL    HW2 4879   1.609   3.446   3.492
 1140SOL    HW3 4880   1.558   3.374   3.369
 1140SOL    MW4 4881   1.571   3.449   3.414
 1141SOL     OW 4882   1.227   1.940   2.998
 1141SOL    HW2 4883   1.282   1.949   2.920
 1141SOL    HW3 4884   1.282   1.974   3.069
 1141SOL    MW4 4885   1.241   1.945   2.997
 1142SOL     OW 4886   0.234   2.853   2.182
 1142SOL    HW2 4887   0.171   2.869   2.111
 1142SOL    HW3 4888   0.181   2.816   2.253
 1142SOL    MW4 4889   0.219   2.850   2.182
 1143SOL     OW 4890   0.590   3.207   2.041
 1143SOL    HW2 4891   0.605   3.183   2.133
 1143SOL    HW3 4892   0.498   3.185   2.025
 1143SOL    MW4 4893   0.580   3.200   2.051
 1144SOL     OW 4894   1.129   3.438   2.193
 1144SOL    HW2 4895   1.137   3.356   2.144
 1144SOL    HW3 4896   1.048   3.477   2.160
 1144SOL    MW4 4897   1.119   3.433   2.183
 1145SOL     OW 4898   0.388   3.596   2.762
 1145SOL    HW2 4899   0.392   3.507   2.797
 1145SOL    HW3 4900   0.414   3.587   2.671
 1145SOL    MW4 4901   0.391   3.584   2.754
 1146SOL     OW 4902   1.005   3.074   3.005
 1146SOL    HW2 4903   0.937   3.008   3.021
 1146SOL    HW3 4904   1.023   3.068   2.912
 1146SOL    MW4 4905   0.998   3.065   2.996
 1147SOL     OW 4906   0.094   3.349   3.256
 1147SOL    HW2 4907   0.084   3.307   3.342
 1147SOL    HW3 4908   0.015   3.402   3.246
 1147SOL    MW4 4909   0.083   3.350   3.267
 1148SOL     OW 4910   0.998   2.213   2.826
 1148SOL    HW2 4911   0.928   2.165   2.871
 1148SOL    HW3 4912   1.030   2.276   2.890
 1148SOL    MW4 4913   0.993   2.215   2.840
 1149SOL     OW 4914   0.649   2.649   3.446
 1149SOL    HW2 4915   0.642   2.744   3.434
 1149SOL    HW3 4916   0.658   2.638   3.541
 1149SOL    MW4 4917   0.650   2.661   3.456
 1150SOL     OW 4918   0.370   3.164   3.704
 1150SOL    HW2 4919   0.442   3.166   3.641
 1150SOL    HW3 4920   0.340   3.073   3.703
 1150SOL    MW4 4921   0.375   3.153   3.696
 1151SOL     OW 4922   1.454   1.927   3.171
 1151SOL    HW2 4923   1.525   1.873   3.135
 1151SOL    HW3 4924   1.453   1.906   3.264
 1151SOL    MW4 4925   1.463   1.918   3.179
 1152SOL     OW 4926   1.654   3.457   3.655
 1152SOL    HW2 4927   1.627   3.454   3.746
 1152SOL    HW3 4928   1.750   3.461   3.658
 1152SOL    MW4 4929   1.664   3.457   3.667
 1153SOL     OW 4930   0.465   2.319   2.639
 1153SOL    HW2 4931   0.536   2.267   2.602
 1153SOL    HW3 4932   0.451   2.284   2.726
 1153SOL    MW4 4933   0.473   2.308   2.646
 1154SOL     OW 4934   0.020   3.654   3.711
 1154SOL    HW2 4935   0.070   3.632   3.633
 1154SOL    HW3 4936   0.028   3.749   3.719
 1154SOL    MW4 4937   0.028   3.663   3.702
 1155SOL     OW 4938   0.781   3.412   2.715
 1155SOL    HW2 4939   0.709   3.349   2.728
 1155SOL    HW3 4940   0.742   3.497   2.733
 1155SOL    MW4 4941   0.765   3.415   2.718
 1156SOL     OW 4942   1.101   2.260   2.363
 1156SOL    HW2 4943   1.123   2.197   2.295
 1156SOL    HW3 4944   1.006   2.252   2.374
 1156SOL    MW4 4945   1.091   2.251   2.355
 1157SOL     OW 4946   0.186   1.950   2.295
 1157SOL    HW2 4947   0.257   1.971   2.234
 1157SOL    HW3 4948   0.140   1.878   2.253
 1157SOL    MW4 4949   0.190   1.944   2.281
 1158SOL     OW 4950   0.017   2.417   3.438
 1158SOL    HW2 4951   0.081   2.483   3.413
 1158SOL    HW3 4952  -0.064   2.444   3.395
 1158SOL    MW4 4953   0.015   2.429   3.430
 1159SOL     OW 4954   1.755   3.324   2.395
 1159SOL    HW2 4955   1.725   3.257   2.456
 1159SOL    HW3 4956   1.849   3.330   2.409
 1159SOL    MW4 4957   1.763   3.316   2.405
 1160SOL     OW 4958   1.311   3.001   2.325
 1160SOL    HW2 4959   1.283   3.087   2.358
 1160SOL    HW3 4960   1.339   3.017   2.235
 1160SOL    MW4 4961   1.311   3.015   2.317
 1161SOL     OW 4962   0.973   1.921   2.378
 1161SOL    HW2 4963   1.010   1.980   2.443
 1161SOL    HW3 4964   0.950   1.977   2.304
 1161SOL    MW4 4965   0.974   1.936   2.377
 1162SOL     OW 4966   1.826   2.803   2.800
 1162SOL    HW2 4967   1.817   2.835   2.711
 1162SOL    HW3 4968   1.779   2.719   2.800
 1162SOL    MW4 4969   1.819   2.796   2.790
 1163SOL     OW 4970   0.202   2.643   3.379
 1163SOL    HW2 4971   0.223   2.712   3.317
 1163SOL    HW3 4972   0.282   2.590   3.384
 1163SOL    MW4 4973   0.215   2.644   3.373
 1164SOL     OW 4974   1.738   2.734   2.501
 1164SOL    HW2 4975   1.832   2.723   2.489
 1164SOL    HW3 4976   1.714   2.806   2.442
 1164SOL    MW4 4977   1.748   2.742   2.492
 1165SOL     OW 4978   0.187   2.658   3.646
 1165SOL    HW2 4979   0.113   2.602   3.672
 1165SOL    HW3 4980   0.182   2.661   3.551
 1165SOL    MW4 4981   0.176   2.651   3.636
 1166SOL     OW 4982   0.353   1.945   3.096
 1166SOL    HW2 4983   0.396   2.029   3.116
 1166SOL    HW3 4984   0.426   1.883   3.089
 1166SOL    MW4 4985   0.368   1.948   3.097
 1167SOL     OW 4986   0.394   2.612   2.274
 1167SOL    HW2 4987   0.394   2.707   2.259
 1167SOL    HW3 4988   0.471   2.596   2.328
 1167SOL    MW4 4989   0.404   2.623   2.279
 1168SOL     OW 4990   1.170   2.471   3.338
 1168SOL    HW2 4991   1.206   2.444   3.254
 1168SOL    HW3 4992   1.083   2.505   3.317
 1168SOL    MW4 4993   1.164   2.472   3.325
 1169SOL     OW 4994   0.153   2.343   2.563
 1169SOL    HW2 4995   0.215   2.350   2.636
 1169SOL    HW3 4996   0.153   2.250   2.540
 1169SOL    MW4 4997   0.161   2.332   2.570
 1170SOL     OW 4998   1.700   3.683   2.095
 1170SOL    HW2 4999   1.767   3.716   2.035
 1170SOL    HW3 5000   1.657   3.762   2.129
 1170SOL    MW4 5001   1.702   3.698   2.091
 1171SOL     OW 5002   0.835   2.604   3.047
 1171SOL    HW2 5003   0.793   2.522   3.023
 1171SOL    HW3 5004   0.836   2.603   3.143
 1171SOL    MW4 5005   0.828   2.593   3.056
 1172SOL     OW 5006   1.506   3.737   3.446
 1172SOL    HW2 5007   1.509   3.643   3.429
 1172SOL    HW3 5008   1.529   3.745   3.538
 1172SOL    MW4 5009   1.509   3.725   3.456
 1173SOL     OW 5010   0.639   2.074   3.152
 1173SOL    HW2 5011   0.570   2.137   3.173
 1173SOL    HW3 5012   0.666   2.038   3.237
 1173SOL    MW4 5013   0.633   2.077   3.165
 1174SOL     OW 5014   0.022   2.915   2.021
 1174SOL    HW2 5015  -0.009   2.980   2.084
 1174SOL    HW3 5016  -0.029   2.837   2.040
 1174SOL    MW4 5017   0.012   2.912   2.031
 1175SOL     OW 5018   1.434   1.927   2.769
 1175SOL    HW2 5019   1.522   1.936   2.806
 1175SOL    HW3 5020   1.444   1.868   2.695
 1175SOL    MW4 5021   1.448   1.921   2.763
 1176SOL     OW 5022   1.466   2.666   2.613
 1176SOL    HW2 5023   1.546   2.681   2.562
 1176SOL    HW3 5024   1.459   2.571   2.619
 1176SOL    MW4 5025   1.475   2.655   2.608
 1177SOL     OW 5026   0.606   3.715   1.963
 1177SOL    HW2 5027   0.511   3.715   1.955
 1177SOL    HW3 5028   0.622   3.661   2.041
 1177SOL    MW4 5029   0.596   3.709   1.972
 1178SOL     OW 5030   0.916   2.592   3.310
 1178SOL    HW2 5031   0.985   2.659   3.307
 1178SOL    HW3 5032   0.849   2.630   3.366
 1178SOL    MW4 5033   0.917   2.605   3.317
 1179SOL     OW 5034   0.334   2.892   3.558
 1179SOL    HW2 5035   0.288   2.808   3.560
 1179SOL    HW3 5036   0.391   2.886   3.482
 1179SOL    MW4 5037   0.336   2.880   3.550
 1180SOL     OW 5038   1.451   2.535   1.879
 1180SOL    HW2 5039   1.379   2.511   1.821
 1180SOL    HW3 5040   1.517   2.572   1.821
 1180SOL    MW4 5041   1.450   2.537   1.864
 1181SOL     OW 5042   0.585   3.267   2.559
 1181SOL    HW2 5043   0.650   3.200   2.580
 1181SOL    HW3 5044   0.637   3.344   2.536
 1181SOL    MW4 5045   0.600   3.269   2.558
 1182SOL     OW 5046   0.846   2.432   2.689
 1182SOL    HW2 5047   0.786   2.450   2.761
 1182SOL    HW3 5048   0.880   2.344   2.708
 1182SOL    MW4 5049   0.842   2.422   2.702
 1183SOL     OW 5050   1.787   1.931   3.358
 1183SOL    HW2 5051   1.708   1.977   3.386
 1183SOL    HW3 5052   1.822   1.985   3.287
 1183SOL    MW4 5053   1.781   1.944   3.352
 1184SOL     OW 5054   1.071   3.015   2.708
 1184SOL    HW2 5055   1.163   2.996   2.726
 1184SOL    HW3 5056   1.044   2.945   2.648
 1184SOL    MW4 5057   1.079   3.003   2.702
 1185SOL     OW 5058   0.864   2.835   2.063
 1185SOL    HW2 5059   0.850   2.747   2.028
 1185SOL    HW3 5060   0.815   2.892   2.004
 1185SOL    MW4 5061   0.856   2.830   2.051
 1186SOL     OW 5062   1.345   3.253   2.804
 1186SOL    HW2 5063   1.318   3.337   2.769
 1186SOL    HW3 5064   1.305   3.248   2.891
 1186SOL    MW4 5065   1.338   3.262   2.810
 1187SOL     OW 5066   0.277   2.559   2.842
 1187SOL    HW2 5067   0.227   2.558   2.923
 1187SOL    HW3 5068   0.297   2.651   2.826
 1187SOL    MW4 5069   0.273   2.571   2.850
 1188SOL     OW 5070   1.344   3.323   3.604
 1188SOL    HW2 5071   1.344   3.417   3.620
 1188SOL    HW3 5072   1.389   3.313   3.520
 1188SOL    MW4 5073   1.350   3.333   3.595
 1189SOL     OW 5074   1.583   2.041   2.165
 1189SOL    HW2 5075   1.576   2.045   2.260
 1189SOL    HW3 5076   1.595   2.132   2.138
 1189SOL    MW4 5077   1.584   2.054   2.173
 1190SOL     OW 5078   0.872   2.604   2.279
 1190SOL    HW2 5079   0.852   2.590   2.186
 1190SOL    HW3 5080   0.965   2.583   2.286
 1190SOL    MW4 5081   0.882   2.599   2.268
 1191SOL     OW 5082   0.199   2.227   3.583
 1191SOL    HW2 5083   0.156   2.286   3.520
 1191SOL    HW3 5084   0.267   2.282   3.623
 1191SOL    MW4 5085   0.203   2.242   3.580
 1192SOL     OW 5086   1.311   2.847   3.128
 1192SOL    HW2 5087   1.374   2.844   3.201
 1192SOL    HW3 5088   1.227   2.865   3.170
 1192SOL    MW4 5089   1.307   2.849   3.143
 1193SOL     OW 5090   0.855   3.562   2.317
 1193SOL    HW2 5091   0.913   3.633   2.344
 1193SOL    HW3 5092   0.878   3.490   2.375
 1193SOL    MW4 5093   0.866   3.562   2.328
 1194SOL     OW 5094   1.650   2.024   2.907
 1194SOL    HW2 5095   1.695   1.942   2.926
 1194SOL    HW3 5096   1.670   2.080   2.983
 1194SOL    MW4 5097   1.660   2.020   2.919
 1195SOL     OW 5098   0.098   1.867   3.006
 1195SOL    HW2 5099   0.089   1.868   2.911
 1195SOL    HW3 5100   0.192   1.879   3.021
 1195SOL    MW4 5101   0.110   1.870   2.997
 1196SOL     OW 5102   1.735   3.060   2.626
 1196SOL    HW2 5103   1.714   3.006   2.549
 1196SOL    HW3 5104   1.831   3.058   2.630
 1196SOL    MW4 5105   1.744   3.053   2.615
 1197SOL     OW 5106   0.427   3.205   3.369
 1197SOL    HW2 5107   0.348   3.155   3.392
 1197SOL    HW3 5108   0.497   3.164   3.419
 1197SOL    MW4 5109   0.425   3.193   3.379
 1198SOL     OW 5110   0.311   1.994   2.052
 1198SOL    HW2 5111   0.240   2.049   2.020
 1198SOL    HW3 5112   0.353   1.960   1.973
 1198SOL    MW4 5113   0.307   1.996   2.038
 1199SOL     OW 5114   1.435   2.491   2.888
 1199SOL    HW2 5115   1.358   2.537   2.854
 1199SOL    HW3 5116   1.492   2.560   2.922
 1199SOL    MW4 5117   1.432   2.506   2.888
 1200SOL     OW 5118   0.067   2.093   1.901
 1200SOL    HW2 5119   0.034   2.172   1.945
 1200SOL    HW3 5120   0.122   2.126   1.830
 1200SOL    MW4 5121   0.070   2.107   1.898
 1201SOL     OW 5122   0.101   3.350   2.090
 1201SOL    HW2 5123   0.118   3.434   2.132
 1201SOL    HW3 5124   0.136   3.359   2.002
 1201SOL    MW4 5125   0.106   3.363   2.084
 1202SOL     OW 5126   1.373   3.439   2.307
 1202SOL    HW2 5127   1.436   3.429   2.236
 1202SOL    HW3 5128   1.290   3.459   2.262
 1202SOL    MW4 5129   1.370   3.440   2.292
 1203SOL     OW 5130   1.736   2.707   3.993
 1203SOL    HW2 5131   1.777   2.649   4.058
 1203SOL    HW3 5132   1.643   2.699   4.010
 1203SOL    MW4 5133   1.730   2.699   4.003
 1204SOL     OW 5134   1.602   2.639   4.988
 1204SOL    HW2 5135   1.557   2.706   5.039
 1204SOL    HW3 5136   1.690   2.675   4.974
 1204SOL    MW4 5137   1.608   2.652   4.992
 1205SOL     OW 5138   0.530   2.890   4.222
 1205SOL    HW2 5139   0.620   2.865   4.206
 1205SOL    HW3 5140   0.526   2.983   4.199
 1205SOL    MW4 5141   0.542   2.899   4.217
 1206SOL     OW 5142   1.646   3.593   4.364
 1206SOL    HW2 5143   1.658   3.539   4.442
 1206SOL    HW3 5144   1.683   3.541   4.293
 1206SOL    MW4 5145   1.652   3.578   4.365
 1207SOL     OW 5146   1.025   3.478   5.365
 1207SOL    HW2 5147   1.066   3.514   5.286
 1207SOL    HW3 5148   1.060   3.389   5.372
 1207SOL    MW4 5149   1.036   3.471   5.356
 1208SOL     OW 5150   1.582   3.033   4.969
 1208SOL    HW2 5151   1.503   2.998   4.927
 1208SOL    HW3 5152   1.609   3.105   4.913
 1208SOL    MW4 5153   1.575   3.038   4.956
 1209SOL     OW 5154   0.814   2.346   4.235
 1209SOL    HW2 5155   0.789   2.434   4.263
 1209SOL    HW3 5156   0.811   2.349   4.139
 1209SOL    MW4 5157   0.810   2.358   4.227
 1210SOL     OW 5158   0.256   2.374   4.163
 1210SOL    HW2 5159   0.288   2.462   4.145
 1210SOL    HW3 5160   0.244   2.372   4.258
 1210SOL    MW4 5161   0.259   2.386   4.175
 1211SOL     OW 5162   0.334   2.787   5.064
 1211SOL    HW2 5163   0.397   2.734   5.015
 1211SOL    HW3 5164   0.315   2.861   5.007
 1211SOL    MW4 5165   0.340   2.789   5.051
 1212SOL     OW 5166   0.655   2.129   4.250
 1212SOL    HW2 5167   0.713   2.205   4.252
 1212SOL    HW3 5168   0.590   2.150   4.183
 1212SOL    MW4 5169   0.654   2.141   4.241
 1213SOL     OW 5170   0.742   3.056   4.425
 1213SOL    HW2 5171   0.822   3.059   4.477
 1213SOL    HW3 5172   0.770   3.023   4.339
 1213SOL    MW4 5173   0.756   3.052   4.420
 1214SOL     OW 5174   0.767   3.397   5.328
 1214SOL    HW2 5175   0.851   3.423   5.367
 1214SOL    HW3 5176   0.791   3.341   5.254
 1214SOL    MW4 5177   0.781   3.393   5.323
 1215SOL     OW 5178   0.519   2.560   4.416
 1215SOL    HW2 5179   0.504   2.480   4.467
 1215SOL    HW3 5180   0.601   2.595   4.450
 1215SOL    MW4 5181   0.527   2.552   4.428
 1216SOL     OW 5182   0.856   3.246   5.101
 1216SOL    HW2 5183   0.820   3.312   5.041
 1216SOL    HW3 5184   0.784   3.184   5.114
 1216SOL    MW4 5185   0.842   3.246   5.095
 1217SOL     OW 5186   0.661   2.386   4.793
 1217SOL    HW2 5187   0.567   2.382   4.811
 1217SOL    HW3 5188   0.691   2.295   4.802
 1217SOL    MW4 5189   0.652   2.374   4.796
 1218SOL     OW 5190   0.407   2.800   4.697
 1218SOL    HW2 5191   0.362   2.807   4.613
 1218SOL    HW3 5192   0.387   2.883   4.741
 1218SOL    MW4 5193   0.399   2.812   4.691
 1219SOL     OW 5194   0.104   3.646   4.572
 1219SOL    HW2 5195   0.193   3.638   4.607
 1219SOL    HW3 5196   0.068   3.558   4.577
 1219SOL    MW4 5197   0.111   3.633   4.577
 1220SOL     OW 5198   1.369   3.038   3.941
 1220SOL    HW2 5199   1.287   3.074   3.907
 1220SOL    HW3 5200   1.437   3.081   3.890
 1220SOL    MW4 5201   1.367   3.048   3.929
 1221SOL     OW 5202   0.368   3.173   4.607
 1221SOL    HW2 5203   0.344   3.226   4.683
 1221SOL    HW3 5204   0.424   3.231   4.555
 1221SOL    MW4 5205   0.372   3.188   4.610
 1222SOL     OW 5206   0.930   2.817   4.417
 1222SOL    HW2 5207   0.844   2.804   4.457
 1222SOL    HW3 5208   0.983   2.744   4.449
 1222SOL    MW4 5209   0.926   2.806   4.426
 1223SOL     OW 5210   0.338   3.469   5.202
 1223SOL    HW2 5211   0.246   3.445   5.187
 1223SOL    HW3 5212   0.382   3.386   5.219
 1223SOL    MW4 5213   0.332   3.454   5.201
 1224SOL     OW 5214   0.921   3.179   4.134
 1224SOL    HW2 5215   0.898   3.241   4.202
 1224SOL    HW3 5216   0.878   3.097   4.160
 1224SOL    MW4 5217   0.913   3.175   4.145
 1225SOL     OW 5218   1.794   2.180   4.590
 1225SOL    HW2 5219   1.731   2.160   4.659
 1225SOL    HW3 5220   1.784   2.109   4.527
 1225SOL    MW4 5221   1.784   2.167   4.591
 1226SOL     OW 5222   0.418   2.152   4.102
 1226SOL    HW2 5223   0.392   2.114   4.018
 1226SOL    HW3 5224   0.355   2.222   4.118
 1226SOL    MW4 5225   0.407   2.155   4.093
 1227SOL     OW 5226   0.253   3.113   4.139
 1227SOL    HW2 5227   0.201   3.181   4.095
 1227SOL    HW3 5228   0.250   3.039   4.079
 1227SOL    MW4 5229   0.245   3.112   4.126
 1228SOL     OW 5230   0.915   3.576   3.917
 1228SOL    HW2 5231   0.870   3.592   4.000
 1228SOL    HW3 5232   0.846   3.541   3.859
 1228SOL    MW4 5233   0.901   3.573   3.919
 1229SOL     OW 5234   1.850   2.349   3.892
 1229SOL    HW2 5235   1.759   2.351   3.920
 1229SOL    HW3 5236   1.895   2.411   3.950
 1229SOL    MW4 5237   1.843   2.357   3.902
 1230SOL     OW 5238   1.595   2.952   4.242
 1230SOL    HW2 5239   1.505   2.952   4.277
 1230SOL    HW3 5240   1.588   2.998   4.159
 1230SOL    MW4 5241   1.582   2.958   4.236
 1231SOL     OW 5242   1.395   2.587   5.314
 1231SOL    HW2 5243   1.464   2.525   5.291
 1231SOL    HW3 5244   1.320   2.561   5.261
 1231SOL    MW4 5245   1.395   2.574   5.305
 1232SOL     OW 5246   0.136   3.467   4.866
 1232SOL    HW2 5247   0.119   3.413   4.943
 1232SOL    HW3 5248   0.124   3.557   4.896
 1232SOL    MW4 5249   0.133   3.471   4.880
 1233SOL     OW 5250   1.131   2.974   5.306
 1233SOL    HW2 5251   1.116   3.067   5.291
 1233SOL    HW3 5252   1.226   2.964   5.306
 1233SOL    MW4 5253   1.140   2.984   5.303
 1234SOL     OW 5254   0.927   2.398   5.507
 1234SOL    HW2 5255   1.017   2.399   5.474
 1234SOL    HW3 5256   0.886   2.323   5.465
 1234SOL    MW4 5257   0.933   2.388   5.498
 1235SOL     OW 5258   1.502   2.930   4.634
 1235SOL    HW2 5259   1.505   2.864   4.565
 1235SOL    HW3 5260   1.587   2.973   4.630
 1235SOL    MW4 5261   1.514   2.926   4.625
 1236SOL     OW 5262   1.122   2.533   4.203
 1236SOL    HW2 5263   1.148   2.557   4.114
 1236SOL    HW3 5264   1.104   2.440   4.199
 1236SOL    MW4 5265   1.124   2.525   4.190
 1237SOL     OW 5266   1.787   3.153   4.054
 1237SOL    HW2 5267   1.743   3.194   4.129
 1237SOL    HW3 5268   1.844   3.221   4.019
 1237SOL    MW4 5269   1.789   3.167   4.059
 1238SOL     OW 5270   0.707   2.202   5.457
 1238SOL    HW2 5271   0.717   2.128   5.397
 1238SOL    HW3 5272   0.743   2.171   5.540
 1238SOL    MW4 5273   0.713   2.188   5.459
 1239SOL     OW 5274   0.443   3.569   4.372
 1239SOL    HW2 5275   0.475   3.657   4.350
 1239SOL    HW3 5276   0.396   3.541   4.294
 1239SOL    MW4 5277   0.442   3.577   4.359
 1240SOL     OW 5278   1.827   1.931   4.421
 1240SOL    HW2 5279   1.881   1.882   4.483
 1240SOL    HW3 5280   1.770   1.865   4.382
 1240SOL    MW4 5281   1.827   1.915   4.423
 1241SOL     OW 5282   0.159   3.629   3.949
 1241SOL    HW2 5283   0.188   3.719   3.941
 1241SOL    HW3 5284   0.109   3.612   3.870
 1241SOL    MW4 5285   0.157   3.637   3.938
 1242SOL     OW 5286   0.946   1.884   4.834
 1242SOL    HW2 5287   0.905   1.962   4.796
 1242SOL    HW3 5288   1.040   1.902   4.829
 1242SOL    MW4 5289   0.952   1.896   4.829
 1243SOL     OW 5290   1.563   3.437   3.920
 1243SOL    HW2 5291   1.611   3.506   3.966
 1243SOL    HW3 5292   1.484   3.481   3.889
 1243SOL    MW4 5293   1.558   3.451   3.923
 1244SOL     OW 5294   0.961   2.562   3.864
 1244SOL    HW2 5295   0.963   2.509   3.785
 1244SOL    HW3 5296   1.049   2.599   3.870
 1244SOL    MW4 5297   0.973   2.561   3.853
 1245SOL     OW 5298   1.575   2.488   4.200
 1245SOL    HW2 5299   1.614   2.488   4.287
 1245SOL    HW3 5300   1.516   2.564   4.200
 1245SOL    MW4 5301   1.572   2.499   4.211
 1246SOL     OW 5302   0.892   2.855   5.329
 1246SOL    HW2 5303   0.869   2.835   5.419
 1246SOL    HW3 5304   0.977   2.899   5.334
 1246SOL    MW4 5305   0.899   2.858   5.341
 1247SOL     OW 5306   0.972   1.992   5.089
 1247SOL    HW2 5307   0.978   1.954   5.002
 1247SOL    HW3 5308   0.961   2.086   5.074
 1247SOL    MW4 5309   0.973   2.000   5.077
 1248SOL     OW 5310   1.061   2.481   4.923
 1248SOL    HW2 5311   1.136   2.510   4.870
 1248SOL    HW3 5312   0.993   2.546   4.907
 1248SOL    MW4 5313   1.062   2.493   4.913
 1249SOL     OW 5314   1.611   2.449   5.200
 1249SOL    HW2 5315   1.592   2.358   5.179
 1249SOL    HW3 5316   1.589   2.498   5.121
 1249SOL    MW4 5317   1.606   2.442   5.187
 1250SOL     OW 5318   1.753   3.543   5.104
 1250SOL    HW2 5319   1.681   3.505   5.155
 1250SOL    HW3 5320   1.770   3.628   5.145
 1250SOL    MW4 5321   1.747   3.548   5.116
 1251SOL     OW 5322   1.058   2.187   5.306
 1251SOL    HW2 5323   1.024   2.226   5.225
 1251SOL    HW3 5324   1.036   2.095   5.299
 1251SOL    MW4 5325   1.051   2.180   5.296
 1252SOL     OW 5326   1.467   3.001   5.382
 1252SOL    HW2 5327   1.549   3.042   5.412
 1252SOL    HW3 5328   1.430   2.963   5.462
 1252SOL    MW4 5329   1.473   3.002   5.397
 1253SOL     OW 5330   1.762   2.374   4.366
 1253SOL    HW2 5331   1.851   2.343   4.383
 1253SOL    HW3 5332   1.705   2.314   4.414
 1253SOL    MW4 5333   1.765   2.362   4.375
 1254SOL     OW 5334   0.188   2.088   4.395
 1254SOL    HW2 5335   0.179   2.028   4.321
 1254SOL    HW3 5336   0.121   2.059   4.458
 1254SOL    MW4 5337   0.178   2.075   4.393
 1255SOL     OW 5338   1.131   3.181   3.956
 1255SOL    HW2 5339   1.081   3.183   4.038
 1255SOL    HW3 5340   1.065   3.199   3.888
 1255SOL    MW4 5341   1.117   3.183   3.958
 1256SOL     OW 5342   0.135   2.261   4.758
 1256SOL    HW2 5343   0.107   2.352   4.767
 1256SOL    HW3 5344   0.072   2.222   4.697
 1256SOL    MW4 5345   0.122   2.267   4.752
 1257SOL     OW 5346   0.594   3.599   4.064
 1257SOL    HW2 5347   0.515   3.557   4.097
 1257SOL    HW3 5348   0.660   3.582   4.131
 1257SOL    MW4 5349   0.593   3.591   4.077
 1258SOL     OW 5350   1.722   3.119   5.461
 1258SOL    HW2 5351   1.772   3.045   5.493
 1258SOL    HW3 5352   1.668   3.146   5.536
 1258SOL    MW4 5353   1.722   3.113   5.474
 1259SOL     OW 5354   0.730   3.014   3.771
 1259SOL    HW2 5355   0.652   2.960   3.758
 1259SOL    HW3 5356   0.701   3.087   3.824
 1259SOL    MW4 5357   0.716   3.016   3.776
 1260SOL     OW 5358   1.856   2.754   4.963
 1260SOL    HW2 5359   1.872   2.792   4.876
 1260SOL    HW3 5360   1.890   2.820   5.024
 1260SOL    MW4 5361   1.863   2.767   4.959
 1261SOL     OW 5362   1.648   3.463   4.632
 1261SOL    HW2 5363   1.677   3.530   4.693
 1261SOL    HW3 5364   1.629   3.387   4.687
 1261SOL    MW4 5365   1.650   3.463   4.647
 1262SOL     OW 5366   1.311   3.530   3.839
 1262SOL    HW2 5367   1.237   3.493   3.889
 1262SOL    HW3 5368   1.319   3.620   3.872
 1262SOL    MW4 5369   1.302   3.537   3.851
 1263SOL     OW 5370   0.119   2.536   4.928
 1263SOL    HW2 5371   0.181   2.566   4.994
 1263SOL    HW3 5372   0.053   2.605   4.922
 1263SOL    MW4 5373   0.118   2.549   4.935
 1264SOL     OW 5374   1.535   3.204   3.781
 1264SOL    HW2 5375   1.482   3.253   3.717
 1264SOL    HW3 5376   1.566   3.270   3.842
 1264SOL    MW4 5377   1.533   3.218   3.779
 1265SOL     OW 5378   0.760   2.093   3.836
 1265SOL    HW2 5379   0.708   2.013   3.824
 1265SOL    HW3 5380   0.847   2.070   3.804
 1265SOL    MW4 5381   0.763   2.079   3.830
 1266SOL     OW 5382   0.214   3.645   5.380
 1266SOL    HW2 5383   0.188   3.713   5.318
 1266SOL    HW3 5384   0.262   3.582   5.328
 1266SOL    MW4 5385   0.216   3.645   5.366
 1267SOL     OW 5386   0.266   2.964   4.887
 1267SOL    HW2 5387   0.319   3.039   4.912
 1267SOL    HW3 5388   0.185   3.002   4.853
 1267SOL    MW4 5389   0.262   2.979   4.887
 1268SOL     OW 5390   0.806   2.868   4.875
 1268SOL    HW2 5391   0.834   2.777   4.887
 1268SOL    HW3 5392   0.735   2.862   4.811
 1268SOL    MW4 5393   0.799   2.856   4.870
 1269SOL     OW 5394   0.121   2.733   4.293
 1269SOL    HW2 5395   0.212   2.748   4.320
 1269SOL    HW3 5396   0.124   2.654   4.239
 1269SOL    MW4 5397   0.133   2.725   4.291
 1270SOL     OW 5398   0.357   2.441   5.547
 1270SOL    HW2 5399   0.304   2.521   5.554
 1270SOL    HW3 5400   0.427   2.453   5.612
 1270SOL    MW4 5401   0.359   2.454   5.555
 1271SOL     OW 5402   0.743   1.991   5.254
 1271SOL    HW2 5403   0.720   1.899   5.256
 1271SOL    HW3 5404   0.829   1.993   5.211
 1271SOL    MW4 5405   0.750   1.981   5.250
 1272SOL     OW 5406   0.427   2.515   5.293
 1272SOL    HW2 5407   0.507   2.565   5.279
 1272SOL    HW3 5408   0.418   2.509   5.388
 1272SOL    MW4 5409   0.436   2.521   5.303
 1273SOL     OW 5410   0.748   3.665   4.667
 1273SOL    HW2 5411   0.837   3.680   4.697
 1273SOL    HW3 5412   0.743   3.712   4.583
 1273SOL    MW4 5413   0.758   3.673   4.660
 1274SOL     OW 5414   1.404   2.040   5.564
 1274SOL    HW2 5415   1.460   1.967   5.590
 1274SOL    HW3 5416   1.374   2.078   5.646
 1274SOL    MW4 5417   1.408   2.035   5.577
 1275SOL     OW 5418   0.129   3.345   4.332
 1275SOL    HW2 5419   0.101   3.384   4.414
 1275SOL    HW3 5420   0.149   3.254   4.354
 1275SOL    MW4 5421   0.127   3.337   4.345
 1276SOL     OW 5422   0.962   3.388   4.367
 1276SOL    HW2 5423   1.045   3.342   4.351
 1276SOL    HW3 5424   0.952   3.387   4.463
 1276SOL    MW4 5425   0.972   3.381   4.377
 1277SOL     OW 5426   1.794   2.533   4.681
 1277SOL    HW2 5427   1.883   2.563   4.663
 1277SOL    HW3 5428   1.774   2.473   4.610
 1277SOL    MW4 5429   1.803   2.530   4.670
 1278SOL     OW 5430   1.645   2.712   5.561
 1278SOL    HW2 5431   1.700   2.636   5.542
 1278SOL    HW3 5432   1.647   2.720   5.656
 1278SOL    MW4 5433   1.653   2.703   5.569
 1279SOL     OW 5434   0.695   3.445   3.772
 1279SOL    HW2 5435   0.635   3.514   3.742
 1279SOL    HW3 5436   0.640   3.387   3.825
 1279SOL    MW4 5437   0.679   3.447   3.774
 1280SOL     OW 5438   1.133   2.090   3.995
 1280SOL    HW2 5439   1.066   2.066   3.932
 1280SOL    HW3 5440   1.198   2.139   3.944
 1280SOL    MW4 5441   1.133   2.092   3.980
 1281SOL     OW 5442   0.940   2.274   5.080
 1281SOL    HW2 5443   0.859   2.315   5.108
 1281SOL    HW3 5444   0.987   2.342   5.032
 1281SOL    MW4 5445   0.935   2.289   5.078
 1282SOL     OW 5446   1.200   2.612   4.703
 1282SOL    HW2 5447   1.213   2.706   4.713
 1282SOL    HW3 5448   1.161   2.602   4.617
 1282SOL    MW4 5449   1.196   2.623   4.693
 1283SOL     OW 5450   0.652   2.807   4.507
 1283SOL    HW2 5451   0.563   2.798   4.540
 1283SOL    HW3 5452   0.656   2.897   4.475
 1283SOL    MW4 5453   0.641   2.818   4.507
 1284SOL     OW 5454   1.451   2.390   4.502
 1284SOL    HW2 5455   1.396   2.311   4.501
 1284SOL    HW3 5456   1.433   2.431   4.586
 1284SOL    MW4 5457   1.441   2.385   4.511
 1285SOL     OW 5458   0.422   2.077   5.319
 1285SOL    HW2 5459   0.343   2.095   5.371
 1285SOL    HW3 5460   0.417   2.139   5.246
 1285SOL    MW4 5461   0.412   2.087   5.316
 1286SOL     OW 5462   1.070   2.594   4.459
 1286SOL    HW2 5463   1.007   2.526   4.483
 1286SOL    HW3 5464   1.090   2.575   4.367
 1286SOL    MW4 5465   1.064   2.581   4.451
 1287SOL     OW 5466   0.326   3.489   4.161
 1287SOL    HW2 5467   0.287   3.536   4.087
 1287SOL    HW3 5468   0.260   3.424   4.186
 1287SOL    MW4 5469   0.313   3.487   4.155
 1288SOL     OW 5470   0.818   2.898   4.185
 1288SOL    HW2 5471   0.820   2.872   4.092
 1288SOL    HW3 5472   0.876   2.835   4.228
 1288SOL    MW4 5473   0.826   2.887   4.179
 1289SOL     OW 5474   1.371   3.458   4.957
 1289SOL    HW2 5475   1.296   3.504   4.995
 1289SOL    HW3 5476   1.353   3.365   4.974
 1289SOL    MW4 5477   1.360   3.452   4.965
 1290SOL     OW 5478   1.375   3.666   4.387
 1290SOL    HW2 5479   1.318   3.619   4.326
 1290SOL    HW3 5480   1.461   3.627   4.374
 1290SOL    MW4 5481   1.378   3.657   4.377
 1291SOL     OW 5482   1.328   2.142   4.518
 1291SOL    HW2 5483   1.356   2.074   4.579
 1291SOL    HW3 5484   1.242   2.113   4.488
 1291SOL    MW4 5485   1.321   2.129   4.522
 1292SOL     OW 5486   0.133   3.076   4.452
 1292SOL    HW2 5487   0.197   3.108   4.515
 1292SOL    HW3 5488   0.182   3.012   4.400
 1292SOL    MW4 5489   0.148   3.072   4.453
 1293SOL     OW 5490   0.633   3.152   5.434
 1293SOL    HW2 5491   0.681   3.235   5.421
 1293SOL    HW3 5492   0.690   3.100   5.490
 1293SOL    MW4 5493   0.647   3.156   5.440
 1294SOL     OW 5494   0.209   3.394   5.574
 1294SOL    HW2 5495   0.265   3.318   5.589
 1294SOL    HW3 5496   0.158   3.372   5.496
 1294SOL    MW4 5497   0.209   3.381   5.565
 1295SOL     OW 5498   1.308   2.246   3.853
 1295SOL    HW2 5499   1.281   2.312   3.789
 1295SOL    HW3 5500   1.378   2.289   3.903
 1295SOL    MW4 5501   1.313   2.259   3.850
 1296SOL     OW 5502   0.976   1.951   3.790
 1296SOL    HW2 5503   1.032   1.943   3.712
 1296SOL    HW3 5504   0.953   1.861   3.812
 1296SOL    MW4 5505   0.981   1.938   3.783
 1297SOL     OW 5506   1.481   2.802   3.995
 1297SOL    HW2 5507   1.448   2.891   3.985
 1297SOL    HW3 5508   1.446   2.773   4.080
 1297SOL    MW4 5509   1.471   2.811   4.006
 1298SOL     OW 5510   1.094   3.231   5.183
 1298SOL    HW2 5511   1.005   3.237   5.151
 1298SOL    HW3 5512   1.138   3.310   5.151
 1298SOL    MW4 5513   1.089   3.241   5.175
 1299SOL     OW 5514   0.387   1.899   5.525
 1299SOL    HW2 5515   0.315   1.864   5.473
 1299SOL    HW3 5516   0.445   1.940   5.460
 1299SOL    MW4 5517   0.385   1.900   5.510
 1300SOL     OW 5518   0.411   3.389   4.824
 1300SOL    HW2 5519   0.456   3.451   4.881
 1300SOL    HW3 5520   0.318   3.408   4.837
 1300SOL    MW4 5521   0.404   3.399   4.831
 1301SOL     OW 5522   1.851   2.918   5.178
 1301SOL    HW2 5523   1.766   2.931   5.137
 1301SOL    HW3 5524   1.831   2.882   5.265
 1301SOL    MW4 5525   1.838   2.914   5.183
 1302SOL     OW 5526   0.833   3.457   4.932
 1302SOL    HW2 5527   0.857   3.446   4.841
 1302SOL    HW3 5528   0.756   3.514   4.930
 1302SOL    MW4 5529   0.825   3.462   4.921
 1303SOL     OW 5530   0.475   2.840   3.787
 1303SOL    HW2 5531   0.398   2.853   3.843
 1303SOL    HW3 5532   0.439   2.804   3.706
 1303SOL    MW4 5533   0.461   2.836   3.784
 1304SOL     OW 5534   1.128   2.813   4.030
 1304SOL    HW2 5535   1.038   2.834   4.005
 1304SOL    HW3 5536   1.155   2.886   4.086
 1304SOL    MW4 5537   1.120   2.825   4.033
 1305SOL     OW 5538   0.628   3.162   4.722
 1305SOL    HW2 5539   0.621   3.141   4.816
 1305SOL    HW3 5540   0.546   3.130   4.685
 1305SOL    MW4 5541   0.616   3.156   4.729
 1306SOL     OW 5542   1.492   2.172   5.124
 1306SOL    HW2 5543   1.439   2.174   5.204
 1306SOL    HW3 5544   1.477   2.085   5.087
 1306SOL    MW4 5545   1.484   2.162   5.129
 1307SOL     OW 5546   1.828   2.096   4.997
 1307SOL    HW2 5547   1.809   2.163   4.932
 1307SOL    HW3 5548   1.885   2.034   4.952
 1307SOL    MW4 5549   1.832   2.097   4.983
 1308SOL     OW 5550   0.074   3.254   5.385
 1308SOL    HW2 5551   0.118   3.187   5.331
 1308SOL    HW3 5552  -0.011   3.216   5.405
 1308SOL    MW4 5553   0.069   3.240   5.381
 1309SOL     OW 5554   0.757   1.929   4.437
 1309SOL    HW2 5555   0.686   1.990   4.419
 1309SOL    HW3 5556   0.808   1.926   4.356
 1309SOL    MW4 5557   0.753   1.935   4.424
 1310SOL     OW 5558   0.515   3.169   4.186
 1310SOL    HW2 5559   0.508   3.201   4.276
 1310SOL    HW3 5560   0.425   3.153   4.158
 1310SOL    MW4 5561   0.503   3.171   4.193
 1311SOL     OW 5562   1.110   3.562   5.095
 1311SOL    HW2 5563   1.030   3.547   5.045
 1311SOL    HW3 5564   1.117   3.657   5.102
 1311SOL    MW4 5565   1.101   3.573   5.089
 1312SOL     OW 5566   1.224   3.527   4.585
 1312SOL    HW2 5567   1.271   3.600   4.544
 1312SOL    HW3 5568   1.145   3.566   4.621
 1312SOL    MW4 5569   1.219   3.542   4.584
 1313SOL     OW 5570   1.632   3.622   4.860
 1313SOL    HW2 5571   1.675   3.592   4.940
 1313SOL    HW3 5572   1.551   3.570   4.857
 1313SOL    MW4 5573   1.627   3.611   4.870
 1314SOL     OW 5574   0.717   2.586   5.567
 1314SOL    HW2 5575   0.787   2.528   5.539
 1314SOL    HW3 5576   0.660   2.531   5.622
 1314SOL    MW4 5577   0.719   2.573   5.571
 1315SOL     OW 5578   1.504   2.798   5.200
 1315SOL    HW2 5579   1.509   2.851   5.280
 1315SOL    HW3 5580   1.466   2.715   5.228
 1315SOL    MW4 5581   1.500   2.793   5.215
 1316SOL     OW 5582   1.144   1.933   5.446
 1316SOL    HW2 5583   1.139   1.840   5.427
 1316SOL    HW3 5584   1.227   1.944   5.492
 1316SOL    MW4 5585   1.152   1.922   5.450
 1317SOL     OW 5586   0.518   2.453   3.900
 1317SOL    HW2 5587   0.484   2.509   3.970
 1317SOL    HW3 5588   0.589   2.403   3.940
 1317SOL    MW4 5589   0.524   2.454   3.914
 1318SOL     OW 5590   1.614   3.204   4.722
 1318SOL    HW2 5591   1.649   3.186   4.635
 1318SOL    HW3 5592   1.519   3.205   4.709
 1318SOL    MW4 5593   1.606   3.201   4.709
 1319SOL     OW 5594   1.043   2.852   5.091
 1319SOL    HW2 5595   1.086   2.887   5.169
 1319SOL    HW3 5596   1.026   2.929   5.037
 1319SOL    MW4 5597   1.046   2.867   5.094
 1320SOL     OW 5598   1.574   2.339   3.964
 1320SOL    HW2 5599   1.566   2.410   3.901
 1320SOL    HW3 5600   1.592   2.383   4.047
 1320SOL    MW4 5601   1.575   2.353   3.966
 1321SOL     OW 5602   0.434   1.994   4.393
 1321SOL    HW2 5603   0.484   2.037   4.324
 1321SOL    HW3 5604   0.349   2.038   4.393
 1321SOL    MW4 5605   0.431   2.007   4.384
 1322SOL     OW 5606   0.193   3.056   5.253
 1322SOL    HW2 5607   0.221   3.009   5.331
 1322SOL    HW3 5608   0.114   3.011   5.224
 1322SOL    MW4 5609   0.186   3.045   5.259
 1323SOL     OW 5610   0.701   2.383   5.220
 1323SOL    HW2 5611   0.673   2.471   5.244
 1323SOL    HW3 5612   0.670   2.327   5.291
 1323SOL    MW4 5613   0.693   2.386   5.232
 1324SOL     OW 5614   1.243   2.601   3.939
 1324SOL    HW2 5615   1.290   2.619   3.858
 1324SOL    HW3 5616   1.209   2.685   3.967
 1324SOL    MW4 5617   1.245   2.615   3.932
 1325SOL     OW 5618   0.356   2.779   4.433
 1325SOL    HW2 5619   0.414   2.835   4.381
 1325SOL    HW3 5620   0.400   2.694   4.435
 1325SOL    MW4 5621   0.369   2.776   4.426
 1326SOL     OW 5622   1.496   2.131   4.270
 1326SOL    HW2 5623   1.418   2.081   4.295
 1326SOL    HW3 5624   1.467   2.222   4.270
 1326SOL    MW4 5625   1.482   2.135   4.273
 1327SOL     OW 5626   1.082   2.093   4.429
 1327SOL    HW2 5627   1.102   2.168   4.373
 1327SOL    HW3 5628   1.062   2.132   4.514
 1327SOL    MW4 5629   1.083   2.109   4.433
 1328SOL     OW 5630   0.978   3.343   3.761
 1328SOL    HW2 5631   1.005   3.421   3.713
 1328SOL    HW3 5632   0.885   3.358   3.780
 1328SOL    MW4 5633   0.969   3.356   3.757
 1329SOL     OW 5634   1.842   2.866   5.448
 1329SOL    HW2 5635   1.755   2.846   5.484
 1329SOL    HW3 5636   1.896   2.792   5.473
 1329SOL    MW4 5637   1.837   2.855   5.456
 1330SOL     OW 5638   0.063   3.379   4.605
 1330SOL    HW2 5639   0.095   3.383   4.696
 1330SOL    HW3 5640  -0.032   3.387   4.613
 1330SOL    MW4 5641   0.055   3.382   4.618
 1331SOL     OW 5642   0.018   2.505   4.152
 1331SOL    HW2 5643  -0.042   2.477   4.222
 1331SOL    HW3 5644   0.092   2.445   4.158
 1331SOL    MW4 5645   0.020   2.494   4.161
 1332SOL     OW 5646   1.586   3.717   5.586
 1332SOL    HW2 5647   1.631   3.641   5.551
 1332SOL    HW3 5648   1.624   3.730   5.673
 1332SOL    MW4 5649   1.596   3.710   5.592
 1333SOL     OW 5650   1.186   3.236   4.312
 1333SOL    HW2 5651   1.209   3.187   4.390
 1333SOL    HW3 5652   1.267   3.278   4.284
 1333SOL    MW4 5653   1.199   3.236   4.319
 1334SOL     OW 5654   0.444   2.244   5.041
 1334SOL    HW2 5655   0.477   2.325   5.081
 1334SOL    HW3 5656   0.417   2.270   4.953
 1334SOL    MW4 5657   0.443   2.258   5.035
 1335SOL     OW 5658   0.398   2.211   4.777
 1335SOL    HW2 5659   0.428   2.125   4.748
 1335SOL    HW3 5660   0.303   2.204   4.780
 1335SOL    MW4 5661   0.390   2.200   4.775
 1336SOL     OW 5662   1.227   2.420   5.468
 1336SOL    HW2 5663   1.279   2.355   5.421
 1336SOL    HW3 5664   1.185   2.471   5.398
 1336SOL    MW4 5665   1.228   2.417   5.451
 1337SOL     OW 5666   1.326   2.215   5.329
 1337SOL    HW2 5667   1.233   2.199   5.316
 1337SOL    HW3 5668   1.352   2.153   5.397
 1337SOL    MW4 5669   1.316   2.205   5.336
 1338SOL     OW 5670   0.541   1.989   4.668
 1338SOL    HW2 5671   0.551   1.898   4.694
 1338SOL    HW3 5672   0.497   1.985   4.583
 1338SOL    MW4 5673   0.537   1.977   4.660
 1339SOL     OW 5674   0.635   3.604   5.214
 1339SOL    HW2 5675   0.552   3.589   5.259
 1339SOL    HW3 5676   0.694   3.537   5.249
 1339SOL    MW4 5677   0.633   3.594   5.224
 1340SOL     OW 5678   1.692   2.311   4.839
 1340SOL    HW2 5679   1.625   2.344   4.899
 1340SOL    HW3 5680   1.735   2.389   4.805
 1340SOL    MW4 5681   1.690   2.326   4.843
 1341SOL     OW 5682   1.870   3.031   4.809
 1341SOL    HW2 5683   1.863   2.971   4.734
 1341SOL    HW3 5684   1.796   3.091   4.798
 1341SOL    MW4 5685   1.860   3.031   4.798
 1342SOL     OW 5686   1.252   2.893   4.727
 1342SOL    HW2 5687   1.266   2.865   4.818
 1342SOL    HW3 5688   1.338   2.924   4.699
 1342SOL    MW4 5689   1.265   2.894   4.736
 1343SOL     OW 5690   1.335   2.388   5.006
 1343SOL    HW2 5691   1.356   2.389   4.913
 1343SOL    HW3 5692   1.380   2.310   5.039
 1343SOL    MW4 5693   1.342   2.378   4.998
 1344SOL     OW 5694   1.828   2.519   5.548
 1344SOL    HW2 5695   1.865   2.464   5.617
 1344SOL    HW3 5696   1.853   2.476   5.466
 1344SOL    MW4 5697   1.835   2.507   5.547
 1345SOL     OW 5698   1.375   2.817   5.600
 1345SOL    HW2 5699   1.441   2.765   5.554
 1345SOL    HW3 5700   1.395   2.804   5.693
 1345SOL    MW4 5701   1.386   2.808   5.607
 1346SOL     OW 5702   1.326   1.903   3.948
 1346SOL    HW2 5703   1.400   1.947   3.991
 1346SOL    HW3 5704   1.250   1.957   3.970
 1346SOL    MW4 5705   1.326   1.915   3.956
 1347SOL     OW 5706   1.386   2.678   4.226
 1347SOL    HW2 5707   1.301   2.648   4.196
 1347SOL    HW3 5708   1.378   2.685   4.321
 1347SOL    MW4 5709   1.374   2.676   4.235
 1348SOL     OW 5710   0.462   3.141   4.957
 1348SOL    HW2 5711   0.474   3.168   5.048
 1348SOL    HW3 5712   0.443   3.222   4.910
 1348SOL    MW4 5713   0.461   3.156   4.962
 1349SOL     OW 5714   0.746   2.121   4.780
 1349SOL    HW2 5715   0.719   2.123   4.871
 1349SOL    HW3 5716   0.676   2.073   4.735
 1349SOL    MW4 5717   0.734   2.117   4.787
 1350SOL     OW 5718   0.600   3.613   4.942
 1350SOL    HW2 5719   0.652   3.690   4.919
 1350SOL    HW3 5720   0.609   3.605   5.037
 1350SOL    MW4 5721   0.609   3.620   4.953
 1351SOL     OW 5722   1.502   3.198   5.174
 1351SOL    HW2 5723   1.487   3.127   5.237
 1351SOL    HW3 5724   1.548   3.156   5.102
 1351SOL    MW4 5725   1.508   3.182   5.174
 1352SOL     OW 5726   0.576   2.929   5.291
 1352SOL    HW2 5727   0.613   2.934   5.203
 1352SOL    HW3 5728   0.615   3.002   5.338
 1352SOL    MW4 5729   0.586   2.939   5.286
 1353SOL     OW 5730   0.756   2.972   5.103
 1353SOL    HW2 5731   0.815   2.918   5.156
 1353SOL    HW3 5732   0.771   2.944   5.013
 1353SOL    MW4 5733   0.766   2.961   5.099
 1354SOL     OW 5734   0.759   2.344   3.952
 1354SOL    HW2 5735   0.832   2.393   3.915
 1354SOL    HW3 5736   0.775   2.253   3.926
 1354SOL    MW4 5737   0.771   2.339   3.945
 1355SOL     OW 5738   1.567   3.461   5.275
 1355SOL    HW2 5739   1.609   3.446   5.360
 1355SOL    HW3 5740   1.558   3.374   5.237
 1355SOL    MW4 5741   1.571   3.449   5.282
 1356SOL     OW 5742   1.227   1.940   4.866
 1356SOL    HW2 5743   1.282   1.949   4.788
 1356SOL    HW3 5744   1.282   1.974   4.937
 1356SOL    MW4 5745   1.241   1.945   4.865
 1357SOL     OW 5746   0.234   2.853   4.050
 1357SOL    HW2 5747   0.171   2.869   3.979
 1357SOL    HW3 5748   0.181   2.816   4.121
 1357SOL    MW4 5749   0.219   2.850   4.050
 1358SOL     OW 5750   0.590   3.207   3.909
 1358SOL    HW2 5751   0.605   3.183   4.001
 1358SOL    HW3 5752   0.498   3.185   3.893
 1358SOL    MW4 5753   0.580   3.200   3.919
 1359SOL     OW 5754   1.129   3.438   4.061
 1359SOL    HW2 5755   1.137   3.356   4.012
 1359SOL    HW3 5756   1.048   3.477   4.028
 1359SOL    MW4 5757   1.119   3.433   4.051
 1360SOL     OW 5758   0.388   3.596   4.630
 1360SOL    HW2 5759   0.392   3.507   4.665
 1360SOL    HW3 5760   0.414   3.587   4.539
 1360SOL    MW4 5761   0.391   3.584   4.622
 1361SOL     OW 5762   1.005   3.074   4.873
 1361SOL    HW2 5763   0.937   3.008   4.889
 1361SOL    HW3 5764   1.023   3.068   4.780
 1361SOL    MW4 5765   0.998   3.065   4.864
 1362SOL     OW 5766   0.094   3.349   5.124
 1362SOL    HW2 5767   0.084   3.307   5.210
 1362SOL    HW3 5768   0.015   3.402   5.114
 1362SOL    MW4 5769   0.083   3.350   5.135
 1363SOL     OW 5770   0.998   2.213   4.694
 1363SOL    HW2 5771   0.928   2.165   4.739
 1363SOL    HW3 5772   1.030   2.276   4.758
 1363SOL    MW4 5773   0.993   2.215   4.708
 1364SOL     OW 5774   0.649   2.649   5.314
 1364SOL    HW2 5775   0.642   2.744   5.302
 1364SOL    HW3 5776   0.658   2.638   5.409
 1364SOL    MW4 5777   0.650   2.661   5.324
 1365SOL     OW 5778   0.370   3.164   5.572
 1365SOL    HW2 5779   0.442   3.166   5.509
 1365SOL    HW3 5780   0.340   3.073   5.571
 1365SOL    MW4 5781   0.375   3.153   5.564
 1366SOL     OW 5782   1.454   1.927   5.039
 1366SOL    HW2 5783   1.525   1.873   5.003
 1366SOL    HW3 5784   1.453   1.906   5.132
 1366SOL    MW4 5785   1.463   1.918   5.047
 1367SOL     OW 5786   1.654   3.457   5.523
 1367SOL    HW2 5787   1.627   3.454   5.614
 1367SOL    HW3 5788   1.750   3.461   5.526
 1367SOL    MW4 5789   1.664   3.457   5.535
 1368SOL     OW 5790   0.465   2.319   4.507
 1368SOL    HW2 5791   0.536   2.267   4.470
 1368SOL    HW3 5792   0.451   2.284   4.594
 1368SOL    MW4 5793   0.473   2.308   4.514
 1369SOL     OW 5794   0.020   3.654   5.579
 1369SOL    HW2 5795   0.070   3.632   5.501
 1369SOL    HW3 5796   0.028   3.749   5.587
 1369SOL    MW4 5797   0.028   3.663   5.570
 1370SOL     OW 5798   0.781   3.412   4.583
 1370SOL    HW2 5799   0.709   3.349   4.596
 1370SOL    HW3 5800   0.742   3.497   4.601
 1370SOL    MW4 5801   0.765   3.415   4.586
 1371SOL     OW 5802   1.101   2.260   4.231
 1371SOL    HW2 5803   1.123   2.197   4.163
 1371SOL    HW3 5804   1.006   2.252   4.242
 1371SOL    MW4 5805   1.091   2.251   4.223
 1372SOL     OW 5806   0.186   1.950   4.163
 1372SOL    HW2 5807   0.257   1.971   4.102
 1372SOL    HW3 5808   0.140   1.878   4.121
 1372SOL    MW4 5809   0.190   1.944   4.149
 1373SOL     OW 5810   0.017   2.417   5.306
 1373SOL    HW2 5811   0.081   2.483   5.281
 1373SOL    HW3 5812  -0.064   2.444   5.263
 1373SOL    MW4 5813   0.015   2.429   5.298
 1374SOL     OW 5814   1.755   3.324   4.263
 1374SOL    HW2 5815   1.725   3.257   4.324
 1374SOL    HW3 5816   1.849   3.330   4.277
 1374SOL    MW4 5817   1.763   3.316   4.273
 1375SOL     OW 5818   1.311   3.001   4.193
 1375SOL    HW2 5819   1.283   3.087   4.226
 1375SOL    HW3 5820   1.339   3.017   4.103
 1375SOL    MW4 5821   1.311   3.015   4.185
 1376SOL     OW 5822   0.973   1.921   4.246
 1376SOL    HW2 5823   1.010   1.980   4.311
 1376SOL    HW3 5824   0.950   1.977   4.172
 1376SOL    MW4 5825   0.974   1.936   4.245
 1377SOL     OW 5826   1.826   2.803   4.668
 1377SOL    HW2 5827   1.817   2.835   4.579
 1377SOL    HW3 5828   1.779   2.719   4.668
 1377SOL    MW4 5829   1.819   2.796   4.658
 1378SOL     OW 5830   0.202   2.643   5.247
 1378SOL    HW2 5831   0.223   2.712   5.185
 1378SOL    HW3 5832   0.282   2.590   5.252
 1378SOL    MW4 5833   0.215   2.644   5.241
 1379SOL     OW 5834   1.738   2.734   4.369
 1379SOL    HW2 5835   1.832   2.723   4.357
 1379SOL    HW3 5836   1.714   2.806   4.310
 1379SOL    MW4 5837   1.748   2.742   4.360
 1380SOL     OW 5838   0.187   2.658   5.514
 1380SOL    HW2 5839   0.113   2.602   5.540
 1380SOL    HW3 5840   0.182   2.661   5.419
 1380SOL    MW4 5841   0.176   2.651   5.504
 1381SOL     OW 5842   0.353   1.945   4.964
 1381SOL    HW2 5843   0.396   2.029   4.984
 1381SOL    HW3 5844   0.426   1.883   4.957
 1381SOL    MW4 5845   0.368   1.948   4.965
 1382SOL     OW 5846   0.394   2.612   4.142
 1382SOL    HW2 5847   0.394   2.707   4.127
 1382SOL    HW3 5848   0.471   2.596   4.196
 1382SOL    MW4 5849   0.404   2.623   4.147
 1383SOL     OW 5850   1.170   2.471   5.206
 1383SOL    HW2 5851   1.206   2.444   5.122
 1383SOL    HW3 5852   1.083   2.505   5.185
 1383SOL    MW4 5853   1.164   2.472   5.193
 1384SOL     OW 5854   0.153   2.343   4.431
 1384SOL    HW2 5855   0.215   2.350   4.504
 1384SOL    HW3 5856   0.153   2.250   4.408
 1384SOL    MW4 5857   0.161   2.332   4.438
 1385SOL     OW 5858   1.700   3.683   3.963
 1385SOL    HW2 5859   1.767   3.716   3.903
 1385SOL    HW3 5860   1.657   3.762   3.997
 1385SOL    MW4 5861   1.702   3.698   3.959
 1386SOL     OW 5862   0.835   2.604   4.915
 1386SOL    HW2 5863   0.793   2.522   4.891
 1386SOL    HW3 5864   0.836   2.603   5.011
 1386SOL    MW4 5865   0.828   2.593   4.924
 1387SOL     OW 5866   1.506   3.737   5.314
 1387SOL    HW2 5867   1.509   3.643   5.297
 1387SOL    HW3 5868   1.529   3.745   5.406
 1387SOL    MW4 5869   1.509   3.725   5.324
 1388SOL     OW 5870   0.639   2.074   5.020
 1388SOL    HW2 5871   0.570   2.137   5.041
 1388SOL    HW3 5872   0.666   2.038   5.105
 1388SOL    MW4 5873   0.633   2.077   5.033
 1389SOL     OW 5874   0.022   2.915   3.889
 1389SOL    HW2 5875  -0.009   2.980   3.952
 1389SOL    HW3 5876  -0.029   2.837   3.908
 1389SOL    MW4 5877   0.012   2.912   3.899
 1390SOL     OW 5878   1.434   1.927   4.637
 1390SOL    HW2 5879   1.522   1.936   4.674
 1390SOL    HW3 5880   1.444   1.868   4.563
 1390SOL    MW4 5881   1.448   1.921   4.631
 1391SOL     OW 5882   1.466   2.666   4.481
 1391SOL    HW2 5883   1.546   2.681   4.430
 1391SOL    HW3 5884   1.459   2.571   4.487
 1391SOL    MW4 5885   1.475   2.655   4.476
 1392SOL     OW 5886   0.606   3.715   3.831
 1392SOL    HW2 5887   0.511   3.715   3.823
 1392SOL    HW3 5888   0.622   3.661   3.909
 1392SOL    MW4 5889   0.596   3.709   3.840
 1393SOL     OW 5890   0.916   2.592   5.178
 1393SOL    HW2 5891   0.985   2.659   5.175
 1393SOL    HW3 5892   0.849   2.630   5.234
 1393SOL    MW4 5893   0.917   2.605   5.185
 1394SOL     OW 5894   0.334   2.892   5.426
 1394SOL    HW2 5895   0.288   2.808   5.428
 1394SOL    HW3 5896   0.391   2.886   5.350
 1394SOL    MW4 5897   0.336   2.880   5.418
 1395SOL     OW 5898   1.451   2.535   3.747
 1395SOL    HW2 5899   1.379   2.511   3.689
 1395SOL    HW3 5900   1.517   2.572   3.689
 1395SOL    MW4 5901   1.450   2.537   3.732
 1396SOL     OW 5902   0.585   3.267   4.427
 1396SOL    HW2 5903   0.650   3.200   4.448
 1396SOL    HW3 5904   0.637   3.344   4.404
 1396SOL    MW4 5905   0.600   3.269   4.426
 1397SOL     OW 5906   0.846   2.432   4.557
 1397SOL    HW2 5907   0.786   2.450   4.629
 1397SOL    HW3 5908   0.880   2.344   4.576
 1397SOL    MW4 5909   0.842   2.422   4.570
 1398SOL     OW 5910   1.787   1.931   5.226
 1398SOL    HW2 5911   1.708   1.977   5.254
 1398SOL    HW3 5912   1.822   1.985   5.155
 1398SOL    MW4 5913   1.781   1.944   5.220
 1399SOL     OW 5914   1.071   3.015   4.576
 1399SOL    HW2 5915   1.163   2.996   4.594
 1399SOL    HW3 5916   1.044   2.945   4.516
 1399SOL    MW4 5917   1.079   3.003   4.570
 1400SOL     OW 5918   0.864   2.835   3.931
 1400SOL    HW2 5919   0.850   2.747   3.896
 1400SOL    HW3 5920   0.815   2.892   3.872
 1400SOL    MW4 5921   0.856   2.830   3.919
 1401SOL     OW 5922   1.345   3.253   4.672
 1401SOL    HW2 5923   1.318   3.337   4.637
 1401SOL    HW3 5924   1.305   3.248   4.759
 1401SOL    MW4 5925   1.338   3.262   4.678
 1402SOL     OW 5926   1.264   3.201   4.940
 1402SOL    HW2 5927   1.275   3.168   5.029
 1402SOL    HW3 5928   1.183   3.160   4.909
 1402SOL    MW4 5929   1.254   3.193   4.946
 1403SOL     OW 5930   0.277   2.559   4.710
 1403SOL    HW2 5931   0.227   2.558   4.791
 1403SOL    HW3 5932   0.297   2.651   4.694
 1403SOL    MW4 5933   0.273   2.571   4.718
 1404SOL     OW 5934   1.344   3.323   5.472
 1404SOL    HW2 5935   1.344   3.417   5.488
 1404SOL    HW3 5936   1.389   3.313   5.388
 1404SOL    MW4 5937   1.350   3.333   5.463
 1405SOL     OW 5938   1.583   2.041   4.033
 1405SOL    HW2 5939   1.576   2.045   4.128
 1405SOL    HW3 5940   1.595   2.132   4.006
 1405SOL    MW4 5941   1.584   2.054   4.041
 1406SOL     OW 5942   0.872   2.604   4.147
 1406SOL    HW2 5943   0.852   2.590   4.054
 1406SOL    HW3 5944   0.965   2.583   4.154
 1406SOL    MW4 5945   0.882   2.599   4.136
 1407SOL     OW 5946   0.199   2.227   5.451
 1407SOL    HW2 5947   0.156   2.286   5.388
 1407SOL    HW3 5948   0.267   2.282   5.491
 1407SOL    MW4 5949   0.203   2.242   5.448
 1408SOL     OW 5950   1.311   2.847   4.996
 1408SOL    HW2 5951   1.374   2.844   5.069
 1408SOL    HW3 5952   1.227   2.865   5.038
 1408SOL    MW4 5953   1.307   2.849   5.011
 1409SOL     OW 5954   0.855   3.562   4.185
 1409SOL    HW2 5955   0.913   3.633   4.212
 1409SOL    HW3 5956   0.878   3.490   4.243
 1409SOL    MW4 5957   0.866   3.562   4.196
 1410SOL     OW 5958   1.650   2.024   4.775
 1410SOL    HW2 5959   1.695   1.942   4.794
 1410SOL    HW3 5960   1.670   2.080   4.851
 1410SOL    MW4 5961   1.660   2.020   4.787
 1411SOL     OW 5962   0.098   1.867   4.874
 1411SOL    HW2 5963   0.089   1.868   4.779
 1411SOL    HW3 5964   0.192   1.879   4.889
 1411SOL    MW4 5965   0.110   1.870   4.865
 1412SOL     OW 5966   1.735   3.060   4.494
 1412SOL    HW2 5967   1.714   3.006   4.417
 1412SOL    HW3 5968   1.831   3.058   4.498
 1412SOL    MW4 5969   1.744   3.053   4.483
 1413SOL     OW 5970   0.427   3.205   5.237
 1413SOL    HW2 5971   0.348   3.155   5.260
 1413SOL    HW3 5972   0.497   3.164   5.287
 1413SOL    MW4 5973   0.425   3.193   5.247
 1414SOL     OW 5974   0.311   1.994   3.920
 1414SOL    HW2 5975   0.240   2.049   3.888
 1414SOL    HW3 5976   0.353   1.960   3.841
 1414SOL    MW4 5977   0.307   1.996   3.906
 1415SOL     OW 5978   1.435   2.491   4.756
 1415SOL    HW2 5979   1.358   2.537   4.722
 1415SOL    HW3 5980   1.492   2.560   4.790
 1415SOL    MW4 5981   1.432   2.506   4.756
 1416SOL     OW 5982   0.067   2.093   3.769
 1416SOL    HW2 5983   0.034   2.172   3.813
 1416SOL    HW3 5984   0.122   2.126   3.698
 1416SOL    MW4 5985   0.070   2.107   3.766
 1417SOL     OW 5986   0.101   3.350   3.958
 1417SOL    HW2 5987   0.118   3.434   4.000
 1417SOL    HW3 5988   0.136   3.359   3.870
 1417SOL    MW4 5989   0.106   3.363   3.952
 1418SOL     OW 5990   1.373   3.439   4.175
 1418SOL    HW2 5991   1.436   3.429   4.104
 1418SOL    HW3 5992   1.290   3.459   4.130
 1418SOL    MW4 5993   1.370   3.440   4.160
 1419SOL     OW 5994   1.736   2.707   5.862
 1419SOL    HW2 5995   1.777   2.649   5.927
 1419SOL    HW3 5996   1.643   2.699   5.879
 1419SOL    MW4 5997   1.730   2.699   5.872
 1420SOL     OW 5998   0.530   2.890   6.091
 1420SOL    HW2 5999   0.620   2.865   6.075
 1420SOL    HW3 6000   0.526   2.983   6.068
 1420SOL    MW4 6001   0.542   2.899   6.086
 1421SOL     OW 6002   1.646   3.593   6.233
 1421SOL    HW2 6003   1.658   3.539   6.311
 1421SOL    HW3 6004   1.683   3.541   6.162
 1421SOL    MW4 6005   1.652   3.578   6.234
 1422SOL     OW 6006   0.814   2.346   6.104
 1422SOL    HW2 6007   0.789   2.434   6.132
 1422SOL    HW3 6008   0.811   2.349   6.008
 1422SOL    MW4 6009   0.810   2.358   6.096
 1423SOL     OW 6010   0.256   2.374   6.032
 1423SOL    HW2 6011   0.288   2.462   6.014
 1423SOL    HW3 6012   0.244   2.372   6.127
 1423SOL    MW4 6013   0.259   2.386   6.044
 1424SOL     OW 6014   0.655   2.129   6.119
 1424SOL    HW2 6015   0.713   2.205   6.121
 1424SOL    HW3 6016   0.590   2.150   6.052
 1424SOL    MW4 6017   0.654   2.141   6.110
 1425SOL     OW 6018   0.742   3.056   6.294
 1425SOL    HW2 6019   0.822   3.059   6.346
 1425SOL    HW3 6020   0.770   3.023   6.208
 1425SOL    MW4 6021   0.756   3.052   6.289
 1426SOL     OW 6022   0.519   2.560   6.285
 1426SOL    HW2 6023   0.504   2.480   6.336
 1426SOL    HW3 6024   0.601   2.595   6.319
 1426SOL    MW4 6025   0.527   2.552   6.297
 1427SOL     OW 6026   0.104   3.646   6.441
 1427SOL    HW2 6027   0.193   3.638   6.476
 1427SOL    HW3 6028   0.068   3.558   6.446
 1427SOL    MW4 6029   0.111   3.633   6.446
 1428SOL     OW 6030   1.369   3.038   5.810
 1428SOL    HW2 6031   1.287   3.074   5.776
 1428SOL    HW3 6032   1.437   3.081   5.759
 1428SOL    MW4 6033   1.367   3.048   5.798
 1429SOL     OW 6034   0.368   3.173   6.476
 1429SOL    HW2 6035   0.344   3.226   6.552
 1429SOL    HW3 6036   0.424   3.231   6.424
 1429SOL    MW4 6037   0.372   3.188   6.479
 1430SOL     OW 6038   0.930   2.817   6.286
 1430SOL    HW2 6039   0.844   2.804   6.326
 1430SOL    HW3 6040   0.983   2.744   6.318
 1430SOL    MW4 6041   0.926   2.806   6.295
 1431SOL     OW 6042   0.921   3.179   6.003
 1431SOL    HW2 6043   0.898   3.241   6.071
 1431SOL    HW3 6044   0.878   3.097   6.029
 1431SOL    MW4 6045   0.913   3.175   6.014
 1432SOL     OW 6046   1.794   2.180   6.459
 1432SOL    HW2 6047   1.731   2.160   6.528
 1432SOL    HW3 6048   1.784   2.109   6.396
 1432SOL    MW4 6049   1.784   2.167   6.460
 1433SOL     OW 6050   0.253   3.113   6.008
 1433SOL    HW2 6051   0.201   3.181   5.964
 1433SOL    HW3 6052   0.250   3.039   5.948
 1433SOL    MW4 6053   0.245   3.112   5.995
 1434SOL     OW 6054   0.915   3.576   5.786
 1434SOL    HW2 6055   0.870   3.592   5.869
 1434SOL    HW3 6056   0.846   3.541   5.728
 1434SOL    MW4 6057   0.901   3.573   5.788
 1435SOL     OW 6058   1.850   2.349   5.761
 1435SOL    HW2 6059   1.759   2.351   5.789
 1435SOL    HW3 6060   1.895   2.411   5.819
 1435SOL    MW4 6061   1.843   2.357   5.771
 1436SOL     OW 6062   1.595   2.952   6.111
 1436SOL    HW2 6063   1.505   2.952   6.146
 1436SOL    HW3 6064   1.588   2.998   6.028
 1436SOL    MW4 6065   1.582   2.958   6.105
 1437SOL     OW 6066   1.502   2.930   6.503
 1437SOL    HW2 6067   1.505   2.864   6.434
 1437SOL    HW3 6068   1.587   2.973   6.499
 1437SOL    MW4 6069   1.514   2.926   6.494
 1438SOL     OW 6070   1.122   2.533   6.072
 1438SOL    HW2 6071   1.148   2.557   5.983
 1438SOL    HW3 6072   1.104   2.440   6.068
 1438SOL    MW4 6073   1.124   2.525   6.059
 1439SOL     OW 6074   1.787   3.153   5.923
 1439SOL    HW2 6075   1.743   3.194   5.998
 1439SOL    HW3 6076   1.844   3.221   5.888
 1439SOL    MW4 6077   1.789   3.167   5.928
 1440SOL     OW 6078   0.443   3.569   6.241
 1440SOL    HW2 6079   0.475   3.657   6.219
 1440SOL    HW3 6080   0.396   3.541   6.163
 1440SOL    MW4 6081   0.442   3.577   6.228
 1441SOL     OW 6082   1.827   1.931   6.290
 1441SOL    HW2 6083   1.881   1.882   6.352
 1441SOL    HW3 6084   1.770   1.865   6.251
 1441SOL    MW4 6085   1.827   1.915   6.292
 1442SOL     OW 6086   0.159   3.629   5.818
 1442SOL    HW2 6087   0.188   3.719   5.810
 1442SOL    HW3 6088   0.109   3.612   5.739
 1442SOL    MW4 6089   0.157   3.637   5.807
 1443SOL     OW 6090   1.563   3.437   5.789
 1443SOL    HW2 6091   1.611   3.506   5.835
 1443SOL    HW3 6092   1.484   3.481   5.758
 1443SOL    MW4 6093   1.558   3.451   5.792
 1444SOL     OW 6094   0.961   2.562   5.733
 1444SOL    HW2 6095   0.963   2.509   5.654
 1444SOL    HW3 6096   1.049   2.599   5.739
 1444SOL    MW4 6097   0.973   2.561   5.722
 1445SOL     OW 6098   1.575   2.488   6.069
 1445SOL    HW2 6099   1.614   2.488   6.156
 1445SOL    HW3 6100   1.516   2.564   6.069
 1445SOL    MW4 6101   1.572   2.499   6.080
 1446SOL     OW 6102   1.762   2.374   6.235
 1446SOL    HW2 6103   1.851   2.343   6.252
 1446SOL    HW3 6104   1.705   2.314   6.283
 1446SOL    MW4 6105   1.765   2.362   6.244
 1447SOL     OW 6106   0.188   2.088   6.264
 1447SOL    HW2 6107   0.179   2.028   6.190
 1447SOL    HW3 6108   0.121   2.059   6.327
 1447SOL    MW4 6109   0.178   2.075   6.262
 1448SOL     OW 6110   1.131   3.181   5.825
 1448SOL    HW2 6111   1.081   3.183   5.907
 1448SOL    HW3 6112   1.065   3.199   5.757
 1448SOL    MW4 6113   1.117   3.183   5.827
 1449SOL     OW 6114   0.594   3.599   5.933
 1449SOL    HW2 6115   0.515   3.557   5.966
 1449SOL    HW3 6116   0.660   3.582   6.000
 1449SOL    MW4 6117   0.593   3.591   5.946
 1450SOL     OW 6118   0.730   3.014   5.640
 1450SOL    HW2 6119   0.652   2.960   5.627
 1450SOL    HW3 6120   0.701   3.087   5.693
 1450SOL    MW4 6121   0.716   3.016   5.645
 1451SOL     OW 6122   1.311   3.530   5.708
 1451SOL    HW2 6123   1.237   3.493   5.758
 1451SOL    HW3 6124   1.319   3.620   5.741
 1451SOL    MW4 6125   1.302   3.537   5.720
 1452SOL     OW 6126   1.535   3.204   5.650
 1452SOL    HW2 6127   1.482   3.253   5.586
 1452SOL    HW3 6128   1.566   3.270   5.711
 1452SOL    MW4 6129   1.533   3.218   5.648
 1453SOL     OW 6130   0.760   2.093   5.705
 1453SOL    HW2 6131   0.708   2.013   5.693
 1453SOL    HW3 6132   0.847   2.070   5.673
 1453SOL    MW4 6133   0.763   2.079   5.699
 1454SOL     OW 6134   0.121   2.733   6.162
 1454SOL    HW2 6135   0.212   2.748   6.189
 1454SOL    HW3 6136   0.124   2.654   6.108
 1454SOL    MW4 6137   0.133   2.725   6.160
 1455SOL     OW 6138   0.748   3.665   6.536
 1455SOL    HW2 6139   0.837   3.680   6.566
 1455SOL    HW3 6140   0.743   3.712   6.452
 1455SOL    MW4 6141   0.758   3.673   6.529
 1456SOL     OW 6142   0.129   3.345   6.201
 1456SOL    HW2 6143   0.101   3.384   6.283
 1456SOL    HW3 6144   0.149   3.254   6.223
 1456SOL    MW4 6145   0.127   3.337   6.214
 1457SOL     OW 6146   0.962   3.388   6.236
 1457SOL    HW2 6147   1.045   3.342   6.220
 1457SOL    HW3 6148   0.952   3.387   6.332
 1457SOL    MW4 6149   0.972   3.381   6.246
 1458SOL     OW 6150   0.695   3.445   5.641
 1458SOL    HW2 6151   0.635   3.514   5.611
 1458SOL    HW3 6152   0.640   3.387   5.694
 1458SOL    MW4 6153   0.679   3.447   5.643
 1459SOL     OW 6154   1.133   2.090   5.864
 1459SOL    HW2 6155   1.066   2.066   5.801
 1459SOL    HW3 6156   1.198   2.139   5.813
 1459SOL    MW4 6157   1.133   2.092   5.849
 1460SOL     OW 6158   0.652   2.807   6.376
 1460SOL    HW2 6159   0.563   2.798   6.409
 1460SOL    HW3 6160   0.656   2.897   6.344
 1460SOL    MW4 6161   0.641   2.818   6.376
 1461SOL     OW 6162   1.451   2.390   6.371
 1461SOL    HW2 6163   1.396   2.311   6.370
 1461SOL    HW3 6164   1.433   2.431   6.455
 1461SOL    MW4 6165   1.441   2.385   6.380
 1462SOL     OW 6166   1.070   2.594   6.328
 1462SOL    HW2 6167   1.007   2.526   6.352
 1462SOL    HW3 6168   1.090   2.575   6.236
 1462SOL    MW4 6169   1.064   2.581   6.320
 1463SOL     OW 6170   0.326   3.489   6.030
 1463SOL    HW2 6171   0.287   3.536   5.956
 1463SOL    HW3 6172   0.260   3.424   6.055
 1463SOL    MW4 6173   0.313   3.487   6.024
 1464SOL     OW 6174   0.818   2.898   6.054
 1464SOL    HW2 6175   0.820   2.872   5.961
 1464SOL    HW3 6176   0.876   2.835   6.097
 1464SOL    MW4 6177   0.826   2.887   6.048
 1465SOL     OW 6178   1.375   3.666   6.256
 1465SOL    HW2 6179   1.318   3.619   6.195
 1465SOL    HW3 6180   1.461   3.627   6.243
 1465SOL    MW4 6181   1.378   3.657   6.246
 1466SOL     OW 6182   1.328   2.142   6.387
 1466SOL    HW2 6183   1.356   2.074   6.448
 1466SOL    HW3 6184   1.242   2.113   6.357
 1466SOL    MW4 6185   1.321   2.129   6.391
 1467SOL     OW 6186   0.133   3.076   6.321
 1467SOL    HW2 6187   0.197   3.108   6.384
 1467SOL    HW3 6188   0.182   3.012   6.269
 1467SOL    MW4 6189   0.148   3.072   6.322
 1468SOL     OW 6190   1.308   2.246   5.722
 1468SOL    HW2 6191   1.281   2.312   5.658
 1468SOL    HW3 6192   1.378   2.289   5.772
 1468SOL    MW4 6193   1.313   2.259   5.719
 1469SOL     OW 6194   0.976   1.951   5.659
 1469SOL    HW2 6195   1.032   1.943   5.581
 1469SOL    HW3 6196   0.953   1.861   5.681
 1469SOL    MW4 6197   0.981   1.938   5.652
 1470SOL     OW 6198   1.481   2.802   5.864
 1470SOL    HW2 6199   1.448   2.891   5.854
 1470SOL    HW3 6200   1.446   2.773   5.949
 1470SOL    MW4 6201   1.471   2.811   5.875
 1471SOL     OW 6202   0.475   2.840   5.656
 1471SOL    HW2 6203   0.398   2.853   5.712
 1471SOL    HW3 6204   0.439   2.804   5.575
 1471SOL    MW4 6205   0.461   2.836   5.653
 1472SOL     OW 6206   1.128   2.813   5.899
 1472SOL    HW2 6207   1.038   2.834   5.874
 1472SOL    HW3 6208   1.155   2.886   5.955
 1472SOL    MW4 6209   1.120   2.825   5.902
 1473SOL     OW 6210   0.757   1.929   6.306
 1473SOL    HW2 6211   0.686   1.990   6.288
 1473SOL    HW3 6212   0.808   1.926   6.225
 1473SOL    MW4 6213   0.753   1.935   6.293
 1474SOL     OW 6214   0.515   3.169   6.055
 1474SOL    HW2 6215   0.508   3.201   6.145
 1474SOL    HW3 6216   0.425   3.153   6.027
 1474SOL    MW4 6217   0.503   3.171   6.062
 1475SOL     OW 6218   1.224   3.527   6.454
 1475SOL    HW2 6219   1.271   3.600   6.413
 1475SOL    HW3 6220   1.145   3.566   6.490
 1475SOL    MW4 6221   1.219   3.542   6.453
 1476SOL     OW 6222   0.518   2.453   5.769
 1476SOL    HW2 6223   0.484   2.509   5.839
 1476SOL    HW3 6224   0.589   2.403   5.809
 1476SOL    MW4 6225   0.524   2.454   5.783
 1477SOL     OW 6226   1.574   2.339   5.833
 1477SOL    HW2 6227   1.566   2.410   5.770
 1477SOL    HW3 6228   1.592   2.383   5.916
 1477SOL    MW4 6229   1.575   2.353   5.835
 1478SOL     OW 6230   0.434   1.994   6.262
 1478SOL    HW2 6231   0.484   2.037   6.193
 1478SOL    HW3 6232   0.349   2.038   6.262
 1478SOL    MW4 6233   0.431   2.007   6.253
 1479SOL     OW 6234   1.243   2.601   5.808
 1479SOL    HW2 6235   1.290   2.619   5.727
 1479SOL    HW3 6236   1.209   2.685   5.836
 1479SOL    MW4 6237   1.245   2.615   5.801
 1480SOL     OW 6238   0.356   2.779   6.302
 1480SOL    HW2 6239   0.414   2.835   6.250
 1480SOL    HW3 6240   0.400   2.694   6.304
 1480SOL    MW4 6241   0.369   2.776   6.295
 1481SOL     OW 6242   1.496   2.131   6.139
 1481SOL    HW2 6243   1.418   2.081   6.164
 1481SOL    HW3 6244   1.467   2.222   6.139
 1481SOL    MW4 6245   1.482   2.135   6.142
 1482SOL     OW 6246   1.082   2.093   6.298
 1482SOL    HW2 6247   1.102   2.168   6.242
 1482SOL    HW3 6248   1.062   2.132   6.383
 1482SOL    MW4 6249   1.083   2.109   6.302
 1483SOL     OW 6250   0.978   3.343   5.630
 1483SOL    HW2 6251   1.005   3.421   5.582
 1483SOL    HW3 6252   0.885   3.358   5.649
 1483SOL    MW4 6253   0.969   3.356   5.626
 1484SOL     OW 6254   0.018   2.505   6.021
 1484SOL    HW2 6255  -0.042   2.477   6.091
 1484SOL    HW3 6256   0.092   2.445   6.027
 1484SOL    MW4 6257   0.020   2.494   6.030
 1485SOL     OW 6258   1.186   3.236   6.181
 1485SOL    HW2 6259   1.209   3.187   6.259
 1485SOL    HW3 6260   1.267   3.278   6.153
 1485SOL    MW4 6261   1.199   3.236   6.188
 1486SOL     OW 6262   0.541   1.989   6.537
 1486SOL    HW2 6263   0.551   1.898   6.563
 1486SOL    HW3 6264   0.497   1.985   6.452
 1486SOL    MW4 6265   0.537   1.977   6.529
 1487SOL     OW 6266   1.326   1.903   5.817
 1487SOL    HW2 6267   1.400   1.947   5.860
 1487SOL    HW3 6268   1.250   1.957   5.839
 1487SOL    MW4 6269   1.326   1.915   5.825
 1488SOL     OW 6270   1.386   2.678   6.095
 1488SOL    HW2 6271   1.301   2.648   6.065
 1488SOL    HW3 6272   1.378   2.685   6.190
 1488SOL    MW4 6273   1.374   2.676   6.104
 1489SOL     OW 6274   0.759   2.344   5.821
 1489SOL    HW2 6275   0.832   2.393   5.784
 1489SOL    HW3 6276   0.775   2.253   5.795
 1489SOL    MW4 6277   0.771   2.339   5.814
 1490SOL     OW 6278   0.234   2.853   5.919
 1490SOL    HW2 6279   0.171   2.869   5.848
 1490SOL    HW3 6280   0.181   2.816   5.990
 1490SOL    MW4 6281   0.219   2.850   5.919
 1491SOL     OW 6282   0.590   3.207   5.778
 1491SOL    HW2 6283   0.605   3.183   5.870
 1491SOL    HW3 6284   0.498   3.185   5.762
 1491SOL    MW4 6285   0.580   3.200   5.788
 1492SOL     OW 6286   1.129   3.438   5.930
 1492SOL    HW2 6287   1.137   3.356   5.881
 1492SOL    HW3 6288   1.048   3.477   5.897
 1492SOL    MW4 6289   1.119   3.433   5.920
 1493SOL     OW 6290   0.388   3.596   6.499
 1493SOL    HW2 6291   0.392   3.507   6.534
 1493SOL    HW3 6292   0.414   3.587   6.408
 1493SOL    MW4 6293   0.391   3.584   6.491
 1494SOL     OW 6294   0.465   2.319   6.376
 1494SOL    HW2 6295   0.536   2.267   6.339
 1494SOL    HW3 6296   0.451   2.284   6.463
 1494SOL    MW4 6297   0.473   2.308   6.383
 1495SOL     OW 6298   0.781   3.412   6.452
 1495SOL    HW2 6299   0.709   3.349   6.465
 1495SOL    HW3 6300   0.742   3.497   6.470
 1495SOL    MW4 6301   0.765   3.415   6.455
 1496SOL     OW 6302   1.101   2.260   6.100
 1496SOL    HW2 6303   1.123   2.197   6.032
 1496SOL    HW3 6304   1.006   2.252   6.111
 1496SOL    MW4 6305   1.091   2.251   6.092
 1497SOL     OW 6306   0.186   1.950   6.032
 1497SOL    HW2 6307   0.257   1.971   5.971
 1497SOL    HW3 6308   0.140   1.878   5.990
 1497SOL    MW4 6309   0.190   1.944   6.018
 1498SOL     OW 6310   1.755   3.324   6.132
 1498SOL    HW2 6311   1.725   3.257   6.193
 1498SOL    HW3 6312   1.849   3.330   6.146
 1498SOL    MW4 6313   1.763   3.316   6.142
 1499SOL     OW 6314   1.311   3.001   6.062
 1499SOL    HW2 6315   1.283   3.087   6.095
 1499SOL    HW3 6316   1.339   3.017   5.972
 1499SOL    MW4 6317   1.311   3.015   6.054
 1500SOL     OW 6318   0.973   1.921   6.115
 1500SOL    HW2 6319   1.010   1.980   6.180
 1500SOL    HW3 6320   0.950   1.977   6.041
 1500SOL    MW4 6321   0.974   1.936   6.114
 1501SOL     OW 6322   1.826   2.803   6.537
 1501SOL    HW2 6323   1.817   2.835   6.448
 1501SOL    HW3 6324   1.779   2.719   6.537
 1501SOL    MW4 6325   1.819   2.796   6.527
 1502SOL     OW 6326   1.738   2.734   6.238
 1502SOL    HW2 6327   1.832   2.723   6.226
 1502SOL    HW3 6328   1.714   2.806   6.179
 1502SOL    MW4 6329   1.748   2.742   6.229
 1503SOL     OW 6330   0.394   2.612   6.011
 1503SOL    HW2 6331   0.394   2.707   5.996
 1503SOL    HW3 6332   0.471   2.596   6.065
 1503SOL    MW4 6333   0.404   2.623   6.016
 1504SOL     OW 6334   0.153   2.343   6.300
 1504SOL    HW2 6335   0.215   2.350   6.373
 1504SOL    HW3 6336   0.153   2.250   6.277
 1504SOL    MW4 6337   0.161   2.332   6.307
 1505SOL     OW 6338   1.700   3.683   5.832
 1505SOL    HW2 6339   1.767   3.716   5.772
 1505SOL    HW3 6340   1.657   3.762   5.866
 1505SOL    MW4 6341   1.702   3.698   5.828
 1506SOL     OW 6342   0.022   2.915   5.758
 1506SOL    HW2 6343  -0.009   2.980   5.821
 1506SOL    HW3 6344  -0.029   2.837   5.777
 1506SOL    MW4 6345   0.012   2.912   5.768
 1507SOL     OW 6346   1.434   1.927   6.506
 1507SOL    HW2 6347   1.522   1.936   6.543
 1507SOL    HW3 6348   1.444   1.868   6.432
 1507SOL    MW4 6349   1.448   1.921   6.500
 1508SOL     OW 6350   1.466   2.666   6.350
 1508SOL    HW2 6351   1.546   2.681   6.299
 1508SOL    HW3 6352   1.459   2.571   6.356
 1508SOL    MW4 6353   1.475   2.655   6.345
 1509SOL     OW 6354   0.606   3.715   5.700
 1509SOL    HW2 6355   0.511   3.715   5.692
 1509SOL    HW3 6356   0.622   3.661   5.778
 1509SOL    MW4 6357   0.596   3.709   5.709
 1510SOL     OW 6358   1.451   2.535   5.615
 1510SOL    HW2 6359   1.379   2.511   5.557
 1510SOL    HW3 6360   1.517   2.572   5.557
 1510SOL    MW4 6361   1.450   2.537   5.600
 1511SOL     OW 6362   0.585   3.267   6.296
 1511SOL    HW2 6363   0.650   3.200   6.317
 1511SOL    HW3 6364   0.637   3.344   6.273
 1511SOL    MW4 6365   0.600   3.269   6.295
 1512SOL     OW 6366   0.846   2.432   6.426
 1512SOL    HW2 6367   0.786   2.450   6.498
 1512SOL    HW3 6368   0.880   2.344   6.445
 1512SOL    MW4 6369   0.842   2.422   6.439
 1513SOL     OW 6370   1.071   3.015   6.445
 1513SOL    HW2 6371   1.163   2.996   6.463
 1513SOL    HW3 6372   1.044   2.945   6.385
 1513SOL    MW4 6373   1.079   3.003   6.439
 1514SOL     OW 6374   0.864   2.835   5.800
 1514SOL    HW2 6375   0.850   2.747   5.765
 1514SOL    HW3 6376   0.815   2.892   5.741
 1514SOL    MW4 6377   0.856   2.830   5.788
 1515SOL     OW 6378   1.583   2.041   5.902
 1515SOL    HW2 6379   1.576   2.045   5.997
 1515SOL    HW3 6380   1.595   2.132   5.875
 1515SOL    MW4 6381   1.584   2.054   5.910
 1516SOL     OW 6382   0.872   2.604   6.016
 1516SOL    HW2 6383   0.852   2.590   5.923
 1516SOL    HW3 6384   0.965   2.583   6.023
 1516SOL    MW4 6385   0.882   2.599   6.005
 1517SOL     OW 6386   0.855   3.562   6.054
 1517SOL    HW2 6387   0.913   3.633   6.081
 1517SOL    HW3 6388   0.878   3.490   6.112
 1517SOL    MW4 6389   0.866   3.562   6.065
 1518SOL     OW 6390   1.735   3.060   6.363
 1518SOL    HW2 6391   1.714   3.006   6.286
 1518SOL    HW3 6392   1.831   3.058   6.367
 1518SOL    MW4 6393   1.744   3.053   6.352
 1519SOL     OW 6394   0.311   1.994   5.789
 1519SOL    HW2 6395   0.240   2.049   5.757
 1519SOL    HW3 6396   0.353   1.960   5.710
 1519SOL    MW4 6397   0.307   1.996   5.775
 1520SOL     OW 6398   0.067   2.093   5.638
 1520SOL    HW2 6399   0.034   2.172   5.682
 1520SOL    HW3 6400   0.122   2.126   5.567
 1520SOL    MW4 6401   0.070   2.107   5.635
 1521SOL     OW 6402   0.101   3.350   5.827
 1521SOL    HW2 6403   0.118   3.434   5.869
 1521SOL    HW3 6404   0.136   3.359   5.739
 1521SOL    MW4 6405   0.106   3.363   5.821
 1522SOL     OW 6406   1.736   4.575   0.257
 1522SOL    HW2 6407   1.777   4.517   0.322
 1522SOL    HW3 6408   1.643   4.567   0.274
 1522SOL    MW4 6409   1.730   4.567   0.267
 1523SOL     OW 6410   1.602   4.507   1.252
 1523SOL    HW2 6411   1.557   4.574   1.303
 1523SOL    HW3 6412   1.690   4.543   1.238
 1523SOL    MW4 6413   1.608   4.520   1.256
 1524SOL     OW 6414   0.530   4.758   0.486
 1524SOL    HW2 6415   0.620   4.733   0.470
 1524SOL    HW3 6416   0.526   4.851   0.463
 1524SOL    MW4 6417   0.542   4.767   0.481
 1525SOL     OW 6418   1.646   5.461   0.628
 1525SOL    HW2 6419   1.658   5.407   0.706
 1525SOL    HW3 6420   1.683   5.409   0.557
 1525SOL    MW4 6421   1.652   5.446   0.629
 1526SOL     OW 6422   1.025   5.346   1.629
 1526SOL    HW2 6423   1.066   5.382   1.550
 1526SOL    HW3 6424   1.060   5.257   1.636
 1526SOL    MW4 6425   1.036   5.339   1.620
 1527SOL     OW 6426   1.582   4.901   1.233
 1527SOL    HW2 6427   1.503   4.866   1.191
 1527SOL    HW3 6428   1.609   4.973   1.177
 1527SOL    MW4 6429   1.575   4.906   1.220
 1528SOL     OW 6430   0.814   4.214   0.499
 1528SOL    HW2 6431   0.789   4.302   0.527
 1528SOL    HW3 6432   0.811   4.217   0.403
 1528SOL    MW4 6433   0.810   4.226   0.491
 1529SOL     OW 6434   0.256   4.242   0.427
 1529SOL    HW2 6435   0.288   4.330   0.409
 1529SOL    HW3 6436   0.244   4.240   0.522
 1529SOL    MW4 6437   0.259   4.254   0.439
 1530SOL     OW 6438   0.334   4.655   1.328
 1530SOL    HW2 6439   0.397   4.602   1.279
 1530SOL    HW3 6440   0.315   4.729   1.271
 1530SOL    MW4 6441   0.340   4.657   1.315
 1531SOL     OW 6442   0.655   3.997   0.514
 1531SOL    HW2 6443   0.713   4.073   0.516
 1531SOL    HW3 6444   0.590   4.018   0.447
 1531SOL    MW4 6445   0.654   4.009   0.505
 1532SOL     OW 6446   0.742   4.924   0.689
 1532SOL    HW2 6447   0.822   4.927   0.741
 1532SOL    HW3 6448   0.770   4.891   0.603
 1532SOL    MW4 6449   0.756   4.920   0.684
 1533SOL     OW 6450   0.767   5.265   1.592
 1533SOL    HW2 6451   0.851   5.291   1.631
 1533SOL    HW3 6452   0.791   5.209   1.518
 1533SOL    MW4 6453   0.781   5.261   1.587
 1534SOL     OW 6454   0.519   4.428   0.680
 1534SOL    HW2 6455   0.504   4.348   0.731
 1534SOL    HW3 6456   0.601   4.463   0.714
 1534SOL    MW4 6457   0.527   4.420   0.692
 1535SOL     OW 6458   0.856   5.114   1.365
 1535SOL    HW2 6459   0.820   5.180   1.305
 1535SOL    HW3 6460   0.784   5.052   1.378
 1535SOL    MW4 6461   0.842   5.114   1.359
 1536SOL     OW 6462   0.661   4.254   1.057
 1536SOL    HW2 6463   0.567   4.250   1.075
 1536SOL    HW3 6464   0.691   4.163   1.066
 1536SOL    MW4 6465   0.652   4.242   1.060
 1537SOL     OW 6466   0.407   4.668   0.961
 1537SOL    HW2 6467   0.362   4.675   0.877
 1537SOL    HW3 6468   0.387   4.751   1.005
 1537SOL    MW4 6469   0.399   4.680   0.955
 1538SOL     OW 6470   0.104   5.514   0.836
 1538SOL    HW2 6471   0.193   5.506   0.871
 1538SOL    HW3 6472   0.068   5.426   0.841
 1538SOL    MW4 6473   0.111   5.501   0.841
 1539SOL     OW 6474   1.369   4.906   0.205
 1539SOL    HW2 6475   1.287   4.942   0.171
 1539SOL    HW3 6476   1.437   4.949   0.154
 1539SOL    MW4 6477   1.367   4.916   0.193
 1540SOL     OW 6478   0.368   5.041   0.871
 1540SOL    HW2 6479   0.344   5.094   0.947
 1540SOL    HW3 6480   0.424   5.099   0.819
 1540SOL    MW4 6481   0.372   5.056   0.874
 1541SOL     OW 6482   0.930   4.685   0.681
 1541SOL    HW2 6483   0.844   4.672   0.721
 1541SOL    HW3 6484   0.983   4.612   0.713
 1541SOL    MW4 6485   0.926   4.674   0.690
 1542SOL     OW 6486   0.338   5.337   1.466
 1542SOL    HW2 6487   0.246   5.313   1.451
 1542SOL    HW3 6488   0.382   5.254   1.483
 1542SOL    MW4 6489   0.332   5.322   1.465
 1543SOL     OW 6490   0.921   5.047   0.398
 1543SOL    HW2 6491   0.898   5.109   0.466
 1543SOL    HW3 6492   0.878   4.965   0.424
 1543SOL    MW4 6493   0.913   5.043   0.409
 1544SOL     OW 6494   1.794   4.048   0.854
 1544SOL    HW2 6495   1.731   4.028   0.923
 1544SOL    HW3 6496   1.784   3.977   0.791
 1544SOL    MW4 6497   1.784   4.035   0.855
 1545SOL     OW 6498   0.418   4.020   0.366
 1545SOL    HW2 6499   0.392   3.982   0.282
 1545SOL    HW3 6500   0.355   4.090   0.382
 1545SOL    MW4 6501   0.407   4.023   0.357
 1546SOL     OW 6502   0.253   4.981   0.403
 1546SOL    HW2 6503   0.201   5.049   0.359
 1546SOL    HW3 6504   0.250   4.907   0.343
 1546SOL    MW4 6505   0.245   4.980   0.390
 1547SOL     OW 6506   0.915   5.444   0.181
 1547SOL    HW2 6507   0.870   5.460   0.264
 1547SOL    HW3 6508   0.846   5.409   0.123
 1547SOL    MW4 6509   0.901   5.441   0.183
 1548SOL     OW 6510   1.850   4.217   0.156
 1548SOL    HW2 6511   1.759   4.219   0.184
 1548SOL    HW3 6512   1.895   4.279   0.214
 1548SOL    MW4 6513   1.843   4.225   0.166
 1549SOL     OW 6514   1.595   4.820   0.506
 1549SOL    HW2 6515   1.505   4.820   0.541
 1549SOL    HW3 6516   1.588   4.866   0.423
 1549SOL    MW4 6517   1.582   4.826   0.500
 1550SOL     OW 6518   1.395   4.455   1.578
 1550SOL    HW2 6519   1.464   4.393   1.555
 1550SOL    HW3 6520   1.320   4.429   1.525
 1550SOL    MW4 6521   1.395   4.442   1.569
 1551SOL     OW 6522   0.136   5.335   1.130
 1551SOL    HW2 6523   0.119   5.281   1.207
 1551SOL    HW3 6524   0.124   5.425   1.160
 1551SOL    MW4 6525   0.133   5.339   1.144
 1552SOL     OW 6526   1.131   4.842   1.570
 1552SOL    HW2 6527   1.116   4.935   1.555
 1552SOL    HW3 6528   1.226   4.832   1.570
 1552SOL    MW4 6529   1.140   4.852   1.567
 1553SOL     OW 6530   0.927   4.266   1.771
 1553SOL    HW2 6531   1.017   4.267   1.738
 1553SOL    HW3 6532   0.886   4.191   1.729
 1553SOL    MW4 6533   0.933   4.256   1.762
 1554SOL     OW 6534   1.502   4.798   0.898
 1554SOL    HW2 6535   1.505   4.732   0.829
 1554SOL    HW3 6536   1.587   4.841   0.894
 1554SOL    MW4 6537   1.514   4.794   0.889
 1555SOL     OW 6538   1.122   4.401   0.467
 1555SOL    HW2 6539   1.148   4.425   0.378
 1555SOL    HW3 6540   1.104   4.308   0.463
 1555SOL    MW4 6541   1.124   4.393   0.454
 1556SOL     OW 6542   1.787   5.021   0.318
 1556SOL    HW2 6543   1.743   5.062   0.393
 1556SOL    HW3 6544   1.844   5.089   0.283
 1556SOL    MW4 6545   1.789   5.035   0.323
 1557SOL     OW 6546   0.707   4.070   1.721
 1557SOL    HW2 6547   0.717   3.996   1.661
 1557SOL    HW3 6548   0.743   4.039   1.804
 1557SOL    MW4 6549   0.713   4.056   1.723
 1558SOL     OW 6550   0.443   5.437   0.636
 1558SOL    HW2 6551   0.475   5.525   0.614
 1558SOL    HW3 6552   0.396   5.409   0.558
 1558SOL    MW4 6553   0.442   5.445   0.623
 1559SOL     OW 6554   1.827   3.799   0.685
 1559SOL    HW2 6555   1.881   3.750   0.747
 1559SOL    HW3 6556   1.770   3.733   0.646
 1559SOL    MW4 6557   1.827   3.783   0.687
 1560SOL     OW 6558   0.159   5.497   0.213
 1560SOL    HW2 6559   0.188   5.587   0.205
 1560SOL    HW3 6560   0.109   5.480   0.134
 1560SOL    MW4 6561   0.157   5.505   0.202
 1561SOL     OW 6562   0.946   3.752   1.098
 1561SOL    HW2 6563   0.905   3.830   1.060
 1561SOL    HW3 6564   1.040   3.770   1.093
 1561SOL    MW4 6565   0.952   3.764   1.093
 1562SOL     OW 6566   1.563   5.305   0.184
 1562SOL    HW2 6567   1.611   5.374   0.230
 1562SOL    HW3 6568   1.484   5.349   0.153
 1562SOL    MW4 6569   1.558   5.319   0.187
 1563SOL     OW 6570   0.961   4.430   0.128
 1563SOL    HW2 6571   0.963   4.377   0.049
 1563SOL    HW3 6572   1.049   4.467   0.134
 1563SOL    MW4 6573   0.973   4.429   0.117
 1564SOL     OW 6574   1.575   4.356   0.464
 1564SOL    HW2 6575   1.614   4.356   0.551
 1564SOL    HW3 6576   1.516   4.432   0.464
 1564SOL    MW4 6577   1.572   4.367   0.475
 1565SOL     OW 6578   0.892   4.723   1.593
 1565SOL    HW2 6579   0.869   4.703   1.683
 1565SOL    HW3 6580   0.977   4.767   1.598
 1565SOL    MW4 6581   0.899   4.726   1.605
 1566SOL     OW 6582   0.972   3.860   1.353
 1566SOL    HW2 6583   0.978   3.822   1.266
 1566SOL    HW3 6584   0.961   3.954   1.338
 1566SOL    MW4 6585   0.973   3.868   1.341
 1567SOL     OW 6586   1.061   4.349   1.187
 1567SOL    HW2 6587   1.136   4.378   1.134
 1567SOL    HW3 6588   0.993   4.414   1.171
 1567SOL    MW4 6589   1.062   4.361   1.177
 1568SOL     OW 6590   1.611   4.317   1.464
 1568SOL    HW2 6591   1.592   4.226   1.443
 1568SOL    HW3 6592   1.589   4.366   1.385
 1568SOL    MW4 6593   1.606   4.310   1.451
 1569SOL     OW 6594   1.753   5.411   1.368
 1569SOL    HW2 6595   1.681   5.373   1.419
 1569SOL    HW3 6596   1.770   5.496   1.409
 1569SOL    MW4 6597   1.747   5.416   1.380
 1570SOL     OW 6598   1.058   4.055   1.570
 1570SOL    HW2 6599   1.024   4.094   1.489
 1570SOL    HW3 6600   1.036   3.963   1.563
 1570SOL    MW4 6601   1.051   4.048   1.560
 1571SOL     OW 6602   1.467   4.869   1.646
 1571SOL    HW2 6603   1.549   4.910   1.676
 1571SOL    HW3 6604   1.430   4.831   1.726
 1571SOL    MW4 6605   1.473   4.870   1.661
 1572SOL     OW 6606   1.762   4.242   0.630
 1572SOL    HW2 6607   1.851   4.211   0.647
 1572SOL    HW3 6608   1.705   4.182   0.678
 1572SOL    MW4 6609   1.765   4.230   0.639
 1573SOL     OW 6610   0.188   3.956   0.659
 1573SOL    HW2 6611   0.179   3.896   0.585
 1573SOL    HW3 6612   0.121   3.927   0.722
 1573SOL    MW4 6613   0.178   3.943   0.657
 1574SOL     OW 6614   1.131   5.049   0.220
 1574SOL    HW2 6615   1.081   5.051   0.302
 1574SOL    HW3 6616   1.065   5.067   0.152
 1574SOL    MW4 6617   1.117   5.051   0.222
 1575SOL     OW 6618   0.135   4.129   1.022
 1575SOL    HW2 6619   0.107   4.220   1.031
 1575SOL    HW3 6620   0.072   4.090   0.961
 1575SOL    MW4 6621   0.122   4.135   1.016
 1576SOL     OW 6622   0.594   5.467   0.328
 1576SOL    HW2 6623   0.515   5.425   0.361
 1576SOL    HW3 6624   0.660   5.450   0.395
 1576SOL    MW4 6625   0.593   5.459   0.341
 1577SOL     OW 6626   1.722   4.987   1.725
 1577SOL    HW2 6627   1.772   4.913   1.757
 1577SOL    HW3 6628   1.668   5.014   1.800
 1577SOL    MW4 6629   1.722   4.981   1.738
 1578SOL     OW 6630   0.730   4.882   0.035
 1578SOL    HW2 6631   0.652   4.828   0.022
 1578SOL    HW3 6632   0.701   4.955   0.088
 1578SOL    MW4 6633   0.716   4.884   0.040
 1579SOL     OW 6634   1.856   4.622   1.227
 1579SOL    HW2 6635   1.872   4.660   1.140
 1579SOL    HW3 6636   1.890   4.688   1.288
 1579SOL    MW4 6637   1.863   4.635   1.223
 1580SOL     OW 6638   1.648   5.331   0.896
 1580SOL    HW2 6639   1.677   5.398   0.957
 1580SOL    HW3 6640   1.629   5.255   0.951
 1580SOL    MW4 6641   1.650   5.331   0.911
 1581SOL     OW 6642   1.311   5.398   0.103
 1581SOL    HW2 6643   1.237   5.361   0.153
 1581SOL    HW3 6644   1.319   5.488   0.136
 1581SOL    MW4 6645   1.302   5.405   0.115
 1582SOL     OW 6646   0.119   4.404   1.192
 1582SOL    HW2 6647   0.181   4.434   1.258
 1582SOL    HW3 6648   0.053   4.473   1.186
 1582SOL    MW4 6649   0.118   4.417   1.199
 1583SOL     OW 6650   1.535   5.072   0.045
 1583SOL    HW2 6651   1.482   5.121  -0.019
 1583SOL    HW3 6652   1.566   5.138   0.106
 1583SOL    MW4 6653   1.533   5.086   0.043
 1584SOL     OW 6654   0.760   3.961   0.100
 1584SOL    HW2 6655   0.708   3.881   0.088
 1584SOL    HW3 6656   0.847   3.938   0.068
 1584SOL    MW4 6657   0.763   3.947   0.094
 1585SOL     OW 6658   0.214   5.513   1.644
 1585SOL    HW2 6659   0.188   5.581   1.582
 1585SOL    HW3 6660   0.262   5.450   1.592
 1585SOL    MW4 6661   0.216   5.513   1.630
 1586SOL     OW 6662   0.266   4.832   1.151
 1586SOL    HW2 6663   0.319   4.907   1.176
 1586SOL    HW3 6664   0.185   4.870   1.117
 1586SOL    MW4 6665   0.262   4.847   1.151
 1587SOL     OW 6666   0.806   4.736   1.139
 1587SOL    HW2 6667   0.834   4.645   1.151
 1587SOL    HW3 6668   0.735   4.730   1.075
 1587SOL    MW4 6669   0.799   4.724   1.134
 1588SOL     OW 6670   0.121   4.601   0.557
 1588SOL    HW2 6671   0.212   4.616   0.584
 1588SOL    HW3 6672   0.124   4.522   0.503
 1588SOL    MW4 6673   0.133   4.593   0.555
 1589SOL     OW 6674   0.357   4.309   1.811
 1589SOL    HW2 6675   0.304   4.389   1.818
 1589SOL    HW3 6676   0.427   4.321   1.876
 1589SOL    MW4 6677   0.359   4.322   1.819
 1590SOL     OW 6678   0.743   3.859   1.518
 1590SOL    HW2 6679   0.720   3.767   1.520
 1590SOL    HW3 6680   0.829   3.861   1.475
 1590SOL    MW4 6681   0.750   3.849   1.514
 1591SOL     OW 6682   0.427   4.383   1.557
 1591SOL    HW2 6683   0.507   4.433   1.543
 1591SOL    HW3 6684   0.418   4.377   1.652
 1591SOL    MW4 6685   0.436   4.389   1.567
 1592SOL     OW 6686   0.748   5.533   0.931
 1592SOL    HW2 6687   0.837   5.548   0.961
 1592SOL    HW3 6688   0.743   5.580   0.847
 1592SOL    MW4 6689   0.758   5.541   0.924
 1593SOL     OW 6690   1.404   3.908   1.828
 1593SOL    HW2 6691   1.460   3.835   1.854
 1593SOL    HW3 6692   1.374   3.946   1.910
 1593SOL    MW4 6693   1.408   3.903   1.841
 1594SOL     OW 6694   0.129   5.213   0.596
 1594SOL    HW2 6695   0.101   5.252   0.678
 1594SOL    HW3 6696   0.149   5.122   0.618
 1594SOL    MW4 6697   0.127   5.205   0.609
 1595SOL     OW 6698   0.962   5.256   0.631
 1595SOL    HW2 6699   1.045   5.210   0.615
 1595SOL    HW3 6700   0.952   5.255   0.727
 1595SOL    MW4 6701   0.972   5.249   0.641
 1596SOL     OW 6702   1.794   4.401   0.945
 1596SOL    HW2 6703   1.883   4.431   0.927
 1596SOL    HW3 6704   1.774   4.341   0.874
 1596SOL    MW4 6705   1.803   4.398   0.934
 1597SOL     OW 6706   1.645   4.580   1.825
 1597SOL    HW2 6707   1.700   4.504   1.806
 1597SOL    HW3 6708   1.647   4.588   1.920
 1597SOL    MW4 6709   1.653   4.571   1.833
 1598SOL     OW 6710   0.695   5.313   0.036
 1598SOL    HW2 6711   0.635   5.382   0.006
 1598SOL    HW3 6712   0.640   5.255   0.089
 1598SOL    MW4 6713   0.679   5.315   0.038
 1599SOL     OW 6714   1.133   3.958   0.259
 1599SOL    HW2 6715   1.066   3.934   0.196
 1599SOL    HW3 6716   1.198   4.007   0.208
 1599SOL    MW4 6717   1.133   3.960   0.244
 1600SOL     OW 6718   0.940   4.142   1.344
 1600SOL    HW2 6719   0.859   4.183   1.372
 1600SOL    HW3 6720   0.987   4.210   1.296
 1600SOL    MW4 6721   0.935   4.157   1.342
 1601SOL     OW 6722   1.200   4.480   0.967
 1601SOL    HW2 6723   1.213   4.574   0.977
 1601SOL    HW3 6724   1.161   4.470   0.881
 1601SOL    MW4 6725   1.196   4.491   0.957
 1602SOL     OW 6726   0.652   4.675   0.771
 1602SOL    HW2 6727   0.563   4.666   0.804
 1602SOL    HW3 6728   0.656   4.765   0.739
 1602SOL    MW4 6729   0.641   4.686   0.771
 1603SOL     OW 6730   1.451   4.258   0.766
 1603SOL    HW2 6731   1.396   4.179   0.765
 1603SOL    HW3 6732   1.433   4.299   0.850
 1603SOL    MW4 6733   1.441   4.253   0.775
 1604SOL     OW 6734   0.422   3.945   1.583
 1604SOL    HW2 6735   0.343   3.963   1.635
 1604SOL    HW3 6736   0.417   4.007   1.510
 1604SOL    MW4 6737   0.412   3.955   1.580
 1605SOL     OW 6738   1.070   4.462   0.723
 1605SOL    HW2 6739   1.007   4.394   0.747
 1605SOL    HW3 6740   1.090   4.443   0.631
 1605SOL    MW4 6741   1.064   4.449   0.715
 1606SOL     OW 6742   0.326   5.357   0.425
 1606SOL    HW2 6743   0.287   5.404   0.351
 1606SOL    HW3 6744   0.260   5.292   0.450
 1606SOL    MW4 6745   0.313   5.355   0.419
 1607SOL     OW 6746   0.818   4.766   0.449
 1607SOL    HW2 6747   0.820   4.740   0.356
 1607SOL    HW3 6748   0.876   4.703   0.492
 1607SOL    MW4 6749   0.826   4.755   0.443
 1608SOL     OW 6750   1.371   5.326   1.221
 1608SOL    HW2 6751   1.296   5.372   1.259
 1608SOL    HW3 6752   1.353   5.233   1.238
 1608SOL    MW4 6753   1.360   5.320   1.229
 1609SOL     OW 6754   1.375   5.534   0.651
 1609SOL    HW2 6755   1.318   5.487   0.590
 1609SOL    HW3 6756   1.461   5.495   0.638
 1609SOL    MW4 6757   1.378   5.525   0.641
 1610SOL     OW 6758   1.328   4.010   0.782
 1610SOL    HW2 6759   1.356   3.942   0.843
 1610SOL    HW3 6760   1.242   3.981   0.752
 1610SOL    MW4 6761   1.321   3.997   0.786
 1611SOL     OW 6762   0.133   4.944   0.716
 1611SOL    HW2 6763   0.197   4.976   0.779
 1611SOL    HW3 6764   0.182   4.880   0.664
 1611SOL    MW4 6765   0.148   4.940   0.717
 1612SOL     OW 6766   0.633   5.020   1.698
 1612SOL    HW2 6767   0.681   5.103   1.685
 1612SOL    HW3 6768   0.690   4.968   1.754
 1612SOL    MW4 6769   0.647   5.024   1.704
 1613SOL     OW 6770   0.209   5.262   1.838
 1613SOL    HW2 6771   0.265   5.186   1.853
 1613SOL    HW3 6772   0.158   5.240   1.760
 1613SOL    MW4 6773   0.209   5.249   1.829
 1614SOL     OW 6774   1.308   4.114   0.117
 1614SOL    HW2 6775   1.281   4.180   0.053
 1614SOL    HW3 6776   1.378   4.157   0.167
 1614SOL    MW4 6777   1.313   4.127   0.114
 1615SOL     OW 6778   0.976   3.819   0.054
 1615SOL    HW2 6779   1.032   3.811  -0.024
 1615SOL    HW3 6780   0.953   3.729   0.076
 1615SOL    MW4 6781   0.981   3.806   0.047
 1616SOL     OW 6782   1.481   4.670   0.259
 1616SOL    HW2 6783   1.448   4.759   0.249
 1616SOL    HW3 6784   1.446   4.641   0.344
 1616SOL    MW4 6785   1.471   4.679   0.270
 1617SOL     OW 6786   1.094   5.099   1.447
 1617SOL    HW2 6787   1.005   5.105   1.415
 1617SOL    HW3 6788   1.138   5.178   1.415
 1617SOL    MW4 6789   1.089   5.109   1.439
 1618SOL     OW 6790   0.387   3.767   1.789
 1618SOL    HW2 6791   0.315   3.732   1.737
 1618SOL    HW3 6792   0.445   3.808   1.724
 1618SOL    MW4 6793   0.385   3.768   1.774
 1619SOL     OW 6794   0.411   5.257   1.088
 1619SOL    HW2 6795   0.456   5.319   1.145
 1619SOL    HW3 6796   0.318   5.276   1.101
 1619SOL    MW4 6797   0.404   5.267   1.095
 1620SOL     OW 6798   1.851   4.786   1.442
 1620SOL    HW2 6799   1.766   4.799   1.401
 1620SOL    HW3 6800   1.831   4.750   1.529
 1620SOL    MW4 6801   1.838   4.782   1.447
 1621SOL     OW 6802   0.833   5.325   1.196
 1621SOL    HW2 6803   0.857   5.314   1.105
 1621SOL    HW3 6804   0.756   5.382   1.194
 1621SOL    MW4 6805   0.825   5.330   1.185
 1622SOL     OW 6806   0.475   4.708   0.051
 1622SOL    HW2 6807   0.398   4.721   0.107
 1622SOL    HW3 6808   0.439   4.672  -0.030
 1622SOL    MW4 6809   0.461   4.704   0.048
 1623SOL     OW 6810   1.128   4.681   0.294
 1623SOL    HW2 6811   1.038   4.702   0.269
 1623SOL    HW3 6812   1.155   4.754   0.350
 1623SOL    MW4 6813   1.120   4.693   0.297
 1624SOL     OW 6814   0.628   5.030   0.986
 1624SOL    HW2 6815   0.621   5.009   1.080
 1624SOL    HW3 6816   0.546   4.998   0.949
 1624SOL    MW4 6817   0.616   5.024   0.993
 1625SOL     OW 6818   1.492   4.040   1.388
 1625SOL    HW2 6819   1.439   4.042   1.468
 1625SOL    HW3 6820   1.477   3.953   1.351
 1625SOL    MW4 6821   1.484   4.030   1.393
 1626SOL     OW 6822   1.828   3.964   1.261
 1626SOL    HW2 6823   1.809   4.031   1.196
 1626SOL    HW3 6824   1.885   3.902   1.216
 1626SOL    MW4 6825   1.832   3.965   1.247
 1627SOL     OW 6826   0.074   5.122   1.649
 1627SOL    HW2 6827   0.118   5.055   1.595
 1627SOL    HW3 6828  -0.011   5.084   1.669
 1627SOL    MW4 6829   0.069   5.108   1.645
 1628SOL     OW 6830   0.757   3.797   0.701
 1628SOL    HW2 6831   0.686   3.858   0.683
 1628SOL    HW3 6832   0.808   3.794   0.620
 1628SOL    MW4 6833   0.753   3.803   0.688
 1629SOL     OW 6834   0.515   5.037   0.450
 1629SOL    HW2 6835   0.508   5.069   0.540
 1629SOL    HW3 6836   0.425   5.021   0.422
 1629SOL    MW4 6837   0.503   5.039   0.457
 1630SOL     OW 6838   1.110   5.430   1.359
 1630SOL    HW2 6839   1.030   5.415   1.309
 1630SOL    HW3 6840   1.117   5.525   1.366
 1630SOL    MW4 6841   1.101   5.441   1.353
 1631SOL     OW 6842   1.224   5.395   0.849
 1631SOL    HW2 6843   1.271   5.468   0.808
 1631SOL    HW3 6844   1.145   5.434   0.885
 1631SOL    MW4 6845   1.219   5.410   0.848
 1632SOL     OW 6846   1.632   5.490   1.124
 1632SOL    HW2 6847   1.675   5.460   1.204
 1632SOL    HW3 6848   1.551   5.438   1.121
 1632SOL    MW4 6849   1.627   5.479   1.134
 1633SOL     OW 6850   0.717   4.454   1.831
 1633SOL    HW2 6851   0.787   4.396   1.803
 1633SOL    HW3 6852   0.660   4.399   1.886
 1633SOL    MW4 6853   0.719   4.441   1.835
 1634SOL     OW 6854   1.504   4.666   1.464
 1634SOL    HW2 6855   1.509   4.719   1.544
 1634SOL    HW3 6856   1.466   4.583   1.492
 1634SOL    MW4 6857   1.500   4.661   1.479
 1635SOL     OW 6858   1.144   3.801   1.710
 1635SOL    HW2 6859   1.139   3.708   1.691
 1635SOL    HW3 6860   1.227   3.812   1.756
 1635SOL    MW4 6861   1.152   3.790   1.714
 1636SOL     OW 6862   0.518   4.321   0.164
 1636SOL    HW2 6863   0.484   4.377   0.234
 1636SOL    HW3 6864   0.589   4.271   0.204
 1636SOL    MW4 6865   0.524   4.322   0.178
 1637SOL     OW 6866   1.614   5.072   0.986
 1637SOL    HW2 6867   1.649   5.054   0.899
 1637SOL    HW3 6868   1.519   5.073   0.973
 1637SOL    MW4 6869   1.606   5.069   0.973
 1638SOL     OW 6870   1.043   4.720   1.355
 1638SOL    HW2 6871   1.086   4.755   1.433
 1638SOL    HW3 6872   1.026   4.797   1.301
 1638SOL    MW4 6873   1.046   4.735   1.358
 1639SOL     OW 6874   1.574   4.207   0.228
 1639SOL    HW2 6875   1.566   4.278   0.165
 1639SOL    HW3 6876   1.592   4.251   0.311
 1639SOL    MW4 6877   1.575   4.221   0.230
 1640SOL     OW 6878   0.434   3.862   0.657
 1640SOL    HW2 6879   0.484   3.905   0.588
 1640SOL    HW3 6880   0.349   3.906   0.657
 1640SOL    MW4 6881   0.431   3.875   0.648
 1641SOL     OW 6882   0.193   4.924   1.517
 1641SOL    HW2 6883   0.221   4.877   1.595
 1641SOL    HW3 6884   0.114   4.879   1.488
 1641SOL    MW4 6885   0.186   4.913   1.523
 1642SOL     OW 6886   0.701   4.251   1.484
 1642SOL    HW2 6887   0.673   4.339   1.508
 1642SOL    HW3 6888   0.670   4.195   1.555
 1642SOL    MW4 6889   0.693   4.254   1.496
 1643SOL     OW 6890   1.243   4.469   0.203
 1643SOL    HW2 6891   1.290   4.487   0.122
 1643SOL    HW3 6892   1.209   4.553   0.231
 1643SOL    MW4 6893   1.245   4.483   0.196
 1644SOL     OW 6894   0.356   4.647   0.697
 1644SOL    HW2 6895   0.414   4.703   0.645
 1644SOL    HW3 6896   0.400   4.562   0.699
 1644SOL    MW4 6897   0.369   4.644   0.690
 1645SOL     OW 6898   1.496   3.999   0.534
 1645SOL    HW2 6899   1.418   3.949   0.559
 1645SOL    HW3 6900   1.467   4.090   0.534
 1645SOL    MW4 6901   1.482   4.003   0.537
 1646SOL     OW 6902   1.082   3.961   0.693
 1646SOL    HW2 6903   1.102   4.036   0.637
 1646SOL    HW3 6904   1.062   4.000   0.778
 1646SOL    MW4 6905   1.083   3.977   0.697
 1647SOL     OW 6906   0.978   5.211   0.025
 1647SOL    HW2 6907   1.005   5.289  -0.023
 1647SOL    HW3 6908   0.885   5.226   0.044
 1647SOL    MW4 6909   0.969   5.224   0.021
 1648SOL     OW 6910   1.842   4.734   1.712
 1648SOL    HW2 6911   1.755   4.714   1.748
 1648SOL    HW3 6912   1.896   4.660   1.737
 1648SOL    MW4 6913   1.837   4.723   1.720
 1649SOL     OW 6914   0.063   5.247   0.869
 1649SOL    HW2 6915   0.095   5.251   0.960
 1649SOL    HW3 6916  -0.032   5.255   0.877
 1649SOL    MW4 6917   0.055   5.250   0.882
 1650SOL     OW 6918   0.018   4.373   0.416
 1650SOL    HW2 6919  -0.042   4.345   0.486
 1650SOL    HW3 6920   0.092   4.313   0.422
 1650SOL    MW4 6921   0.020   4.362   0.425
 1651SOL     OW 6922   1.586   5.585   1.850
 1651SOL    HW2 6923   1.631   5.509   1.815
 1651SOL    HW3 6924   1.624   5.598   1.937
 1651SOL    MW4 6925   1.596   5.578   1.856
 1652SOL     OW 6926   1.186   5.104   0.576
 1652SOL    HW2 6927   1.209   5.055   0.654
 1652SOL    HW3 6928   1.267   5.146   0.548
 1652SOL    MW4 6929   1.199   5.104   0.583
 1653SOL     OW 6930   0.444   4.112   1.305
 1653SOL    HW2 6931   0.477   4.193   1.345
 1653SOL    HW3 6932   0.417   4.138   1.217
 1653SOL    MW4 6933   0.443   4.126   1.299
 1654SOL     OW 6934   0.398   4.079   1.041
 1654SOL    HW2 6935   0.428   3.993   1.012
 1654SOL    HW3 6936   0.303   4.072   1.044
 1654SOL    MW4 6937   0.390   4.068   1.039
 1655SOL     OW 6938   1.227   4.288   1.732
 1655SOL    HW2 6939   1.279   4.223   1.685
 1655SOL    HW3 6940   1.185   4.339   1.662
 1655SOL    MW4 6941   1.228   4.285   1.715
 1656SOL     OW 6942   1.326   4.083   1.593
 1656SOL    HW2 6943   1.233   4.067   1.580
 1656SOL    HW3 6944   1.352   4.021   1.661
 1656SOL    MW4 6945   1.316   4.073   1.600
 1657SOL     OW 6946   0.541   3.857   0.932
 1657SOL    HW2 6947   0.551   3.766   0.958
 1657SOL    HW3 6948   0.497   3.853   0.847
 1657SOL    MW4 6949   0.537   3.845   0.924
 1658SOL     OW 6950   0.635   5.472   1.478
 1658SOL    HW2 6951   0.552   5.457   1.523
 1658SOL    HW3 6952   0.694   5.405   1.513
 1658SOL    MW4 6953   0.633   5.462   1.488
 1659SOL     OW 6954   1.692   4.179   1.103
 1659SOL    HW2 6955   1.625   4.212   1.163
 1659SOL    HW3 6956   1.735   4.257   1.069
 1659SOL    MW4 6957   1.690   4.194   1.107
 1660SOL     OW 6958   1.870   4.899   1.073
 1660SOL    HW2 6959   1.863   4.839   0.998
 1660SOL    HW3 6960   1.796   4.959   1.062
 1660SOL    MW4 6961   1.860   4.899   1.062
 1661SOL     OW 6962   1.252   4.761   0.991
 1661SOL    HW2 6963   1.266   4.733   1.082
 1661SOL    HW3 6964   1.338   4.792   0.963
 1661SOL    MW4 6965   1.265   4.762   1.000
 1662SOL     OW 6966   1.335   4.256   1.270
 1662SOL    HW2 6967   1.356   4.257   1.177
 1662SOL    HW3 6968   1.380   4.178   1.303
 1662SOL    MW4 6969   1.342   4.246   1.262
 1663SOL     OW 6970   1.828   4.387   1.812
 1663SOL    HW2 6971   1.865   4.332   1.881
 1663SOL    HW3 6972   1.853   4.344   1.730
 1663SOL    MW4 6973   1.835   4.375   1.811
 1664SOL     OW 6974   1.375   4.685   1.863
 1664SOL    HW2 6975   1.441   4.633   1.817
 1664SOL    HW3 6976   1.395   4.672   1.956
 1664SOL    MW4 6977   1.386   4.676   1.870
 1665SOL     OW 6978   1.326   3.771   0.212
 1665SOL    HW2 6979   1.400   3.815   0.255
 1665SOL    HW3 6980   1.250   3.825   0.234
 1665SOL    MW4 6981   1.326   3.783   0.220
 1666SOL     OW 6982   1.386   4.546   0.490
 1666SOL    HW2 6983   1.301   4.516   0.460
 1666SOL    HW3 6984   1.378   4.553   0.585
 1666SOL    MW4 6985   1.374   4.544   0.499
 1667SOL     OW 6986   0.462   5.009   1.221
 1667SOL    HW2 6987   0.474   5.036   1.312
 1667SOL    HW3 6988   0.443   5.090   1.174
 1667SOL    MW4 6989   0.461   5.024   1.226
 1668SOL     OW 6990   0.746   3.989   1.044
 1668SOL    HW2 6991   0.719   3.991   1.135
 1668SOL    HW3 6992   0.676   3.941   0.999
 1668SOL    MW4 6993   0.734   3.985   1.051
 1669SOL     OW 6994   0.600   5.481   1.206
 1669SOL    HW2 6995   0.652   5.558   1.183
 1669SOL    HW3 6996   0.609   5.473   1.301
 1669SOL    MW4 6997   0.609   5.488   1.217
 1670SOL     OW 6998   1.502   5.066   1.438
 1670SOL    HW2 6999   1.487   4.995   1.501
 1670SOL    HW3 7000   1.548   5.024   1.366
 1670SOL    MW4 7001   1.508   5.050   1.438
 1671SOL     OW 7002   0.576   4.797   1.555
 1671SOL    HW2 7003   0.613   4.802   1.467
 1671SOL    HW3 7004   0.615   4.870   1.602
 1671SOL    MW4 7005   0.586   4.807   1.550
 1672SOL     OW 7006   0.756   4.840   1.367
 1672SOL    HW2 7007   0.815   4.786   1.420
 1672SOL    HW3 7008   0.771   4.812   1.277
 1672SOL    MW4 7009   0.766   4.829   1.363
 1673SOL     OW 7010   0.759   4.212   0.216
 1673SOL    HW2 7011   0.832   4.261   0.179
 1673SOL    HW3 7012   0.775   4.121   0.190
 1673SOL    MW4 7013   0.771   4.207   0.209
 1674SOL     OW 7014   1.567   5.329   1.539
 1674SOL    HW2 7015   1.609   5.314   1.624
 1674SOL    HW3 7016   1.558   5.242   1.501
 1674SOL    MW4 7017   1.571   5.317   1.546
 1675SOL     OW 7018   1.227   3.808   1.130
 1675SOL    HW2 7019   1.282   3.817   1.052
 1675SOL    HW3 7020   1.282   3.842   1.201
 1675SOL    MW4 7021   1.241   3.813   1.129
 1676SOL     OW 7022   0.234   4.721   0.314
 1676SOL    HW2 7023   0.171   4.737   0.243
 1676SOL    HW3 7024   0.181   4.684   0.385
 1676SOL    MW4 7025   0.219   4.718   0.314
 1677SOL     OW 7026   0.590   5.075   0.173
 1677SOL    HW2 7027   0.605   5.051   0.265
 1677SOL    HW3 7028   0.498   5.053   0.157
 1677SOL    MW4 7029   0.580   5.068   0.183
 1678SOL     OW 7030   1.129   5.306   0.325
 1678SOL    HW2 7031   1.137   5.224   0.276
 1678SOL    HW3 7032   1.048   5.345   0.292
 1678SOL    MW4 7033   1.119   5.301   0.315
 1679SOL     OW 7034   0.388   5.464   0.894
 1679SOL    HW2 7035   0.392   5.375   0.929
 1679SOL    HW3 7036   0.414   5.455   0.803
 1679SOL    MW4 7037   0.391   5.452   0.886
 1680SOL     OW 7038   1.005   4.942   1.137
 1680SOL    HW2 7039   0.937   4.876   1.153
 1680SOL    HW3 7040   1.023   4.936   1.044
 1680SOL    MW4 7041   0.998   4.933   1.128
 1681SOL     OW 7042   0.094   5.217   1.388
 1681SOL    HW2 7043   0.084   5.175   1.474
 1681SOL    HW3 7044   0.015   5.270   1.378
 1681SOL    MW4 7045   0.083   5.218   1.399
 1682SOL     OW 7046   0.998   4.081   0.958
 1682SOL    HW2 7047   0.928   4.033   1.003
 1682SOL    HW3 7048   1.030   4.144   1.022
 1682SOL    MW4 7049   0.993   4.083   0.972
 1683SOL     OW 7050   0.649   4.517   1.578
 1683SOL    HW2 7051   0.642   4.612   1.566
 1683SOL    HW3 7052   0.658   4.506   1.673
 1683SOL    MW4 7053   0.650   4.529   1.588
 1684SOL     OW 7054   0.370   5.032   1.836
 1684SOL    HW2 7055   0.442   5.034   1.773
 1684SOL    HW3 7056   0.340   4.941   1.835
 1684SOL    MW4 7057   0.375   5.021   1.828
 1685SOL     OW 7058   1.454   3.795   1.303
 1685SOL    HW2 7059   1.525   3.741   1.267
 1685SOL    HW3 7060   1.453   3.774   1.396
 1685SOL    MW4 7061   1.463   3.786   1.311
 1686SOL     OW 7062   1.654   5.325   1.787
 1686SOL    HW2 7063   1.627   5.322   1.878
 1686SOL    HW3 7064   1.750   5.329   1.790
 1686SOL    MW4 7065   1.664   5.325   1.799
 1687SOL     OW 7066   0.465   4.187   0.771
 1687SOL    HW2 7067   0.536   4.135   0.734
 1687SOL    HW3 7068   0.451   4.152   0.858
 1687SOL    MW4 7069   0.473   4.176   0.778
 1688SOL     OW 7070   0.020   5.522   1.843
 1688SOL    HW2 7071   0.070   5.500   1.765
 1688SOL    HW3 7072   0.028   5.617   1.851
 1688SOL    MW4 7073   0.028   5.531   1.834
 1689SOL     OW 7074   0.781   5.280   0.847
 1689SOL    HW2 7075   0.709   5.217   0.860
 1689SOL    HW3 7076   0.742   5.365   0.865
 1689SOL    MW4 7077   0.765   5.283   0.850
 1690SOL     OW 7078   1.101   4.128   0.495
 1690SOL    HW2 7079   1.123   4.065   0.427
 1690SOL    HW3 7080   1.006   4.120   0.506
 1690SOL    MW4 7081   1.091   4.119   0.487
 1691SOL     OW 7082   0.186   3.818   0.427
 1691SOL    HW2 7083   0.257   3.839   0.366
 1691SOL    HW3 7084   0.140   3.746   0.385
 1691SOL    MW4 7085   0.190   3.812   0.413
 1692SOL     OW 7086   0.017   4.285   1.570
 1692SOL    HW2 7087   0.081   4.351   1.545
 1692SOL    HW3 7088  -0.064   4.312   1.527
 1692SOL    MW4 7089   0.015   4.297   1.562
 1693SOL     OW 7090   1.755   5.192   0.527
 1693SOL    HW2 7091   1.725   5.125   0.588
 1693SOL    HW3 7092   1.849   5.198   0.541
 1693SOL    MW4 7093   1.763   5.184   0.537
 1694SOL     OW 7094   1.311   4.869   0.457
 1694SOL    HW2 7095   1.283   4.955   0.490
 1694SOL    HW3 7096   1.339   4.885   0.367
 1694SOL    MW4 7097   1.311   4.883   0.449
 1695SOL     OW 7098   0.973   3.789   0.510
 1695SOL    HW2 7099   1.010   3.848   0.575
 1695SOL    HW3 7100   0.950   3.845   0.436
 1695SOL    MW4 7101   0.974   3.804   0.509
 1696SOL     OW 7102   1.826   4.671   0.932
 1696SOL    HW2 7103   1.817   4.703   0.843
 1696SOL    HW3 7104   1.779   4.587   0.932
 1696SOL    MW4 7105   1.819   4.664   0.922
 1697SOL     OW 7106   0.202   4.511   1.511
 1697SOL    HW2 7107   0.223   4.580   1.449
 1697SOL    HW3 7108   0.282   4.458   1.516
 1697SOL    MW4 7109   0.215   4.512   1.505
 1698SOL     OW 7110   1.738   4.602   0.633
 1698SOL    HW2 7111   1.832   4.591   0.621
 1698SOL    HW3 7112   1.714   4.674   0.574
 1698SOL    MW4 7113   1.748   4.610   0.624
 1699SOL     OW 7114   0.187   4.526   1.778
 1699SOL    HW2 7115   0.113   4.470   1.804
 1699SOL    HW3 7116   0.182   4.529   1.683
 1699SOL    MW4 7117   0.176   4.519   1.768
 1700SOL     OW 7118   0.353   3.813   1.228
 1700SOL    HW2 7119   0.396   3.897   1.248
 1700SOL    HW3 7120   0.426   3.751   1.221
 1700SOL    MW4 7121   0.368   3.816   1.229
 1701SOL     OW 7122   0.394   4.480   0.406
 1701SOL    HW2 7123   0.394   4.575   0.391
 1701SOL    HW3 7124   0.471   4.464   0.460
 1701SOL    MW4 7125   0.404   4.491   0.411
 1702SOL     OW 7126   1.170   4.339   1.470
 1702SOL    HW2 7127   1.206   4.312   1.386
 1702SOL    HW3 7128   1.083   4.373   1.449
 1702SOL    MW4 7129   1.164   4.340   1.457
 1703SOL     OW 7130   0.153   4.211   0.695
 1703SOL    HW2 7131   0.215   4.218   0.768
 1703SOL    HW3 7132   0.153   4.118   0.672
 1703SOL    MW4 7133   0.161   4.200   0.702
 1704SOL     OW 7134   1.700   5.551   0.227
 1704SOL    HW2 7135   1.767   5.584   0.167
 1704SOL    HW3 7136   1.657   5.630   0.261
 1704SOL    MW4 7137   1.702   5.566   0.223
 1705SOL     OW 7138   0.835   4.472   1.179
 1705SOL    HW2 7139   0.793   4.390   1.155
 1705SOL    HW3 7140   0.836   4.471   1.275
 1705SOL    MW4 7141   0.828   4.461   1.188
 1706SOL     OW 7142   1.506   5.605   1.578
 1706SOL    HW2 7143   1.509   5.511   1.561
 1706SOL    HW3 7144   1.529   5.613   1.670
 1706SOL    MW4 7145   1.509   5.593   1.588
 1707SOL     OW 7146   0.639   3.942   1.284
 1707SOL    HW2 7147   0.570   4.005   1.305
 1707SOL    HW3 7148   0.666   3.906   1.369
 1707SOL    MW4 7149   0.633   3.945   1.297
 1708SOL     OW 7150   0.022   4.783   0.153
 1708SOL    HW2 7151  -0.009   4.848   0.216
 1708SOL    HW3 7152  -0.029   4.705   0.172
 1708SOL    MW4 7153   0.012   4.780   0.163
 1709SOL     OW 7154   1.434   3.795   0.901
 1709SOL    HW2 7155   1.522   3.804   0.938
 1709SOL    HW3 7156   1.444   3.736   0.827
 1709SOL    MW4 7157   1.448   3.789   0.895
 1710SOL     OW 7158   1.466   4.534   0.745
 1710SOL    HW2 7159   1.546   4.549   0.694
 1710SOL    HW3 7160   1.459   4.439   0.751
 1710SOL    MW4 7161   1.475   4.523   0.740
 1711SOL     OW 7162   0.606   5.583   0.095
 1711SOL    HW2 7163   0.511   5.583   0.087
 1711SOL    HW3 7164   0.622   5.529   0.173
 1711SOL    MW4 7165   0.596   5.577   0.104
 1712SOL     OW 7166   0.916   4.460   1.442
 1712SOL    HW2 7167   0.985   4.527   1.439
 1712SOL    HW3 7168   0.849   4.498   1.498
 1712SOL    MW4 7169   0.917   4.473   1.449
 1713SOL     OW 7170   0.334   4.760   1.690
 1713SOL    HW2 7171   0.288   4.676   1.692
 1713SOL    HW3 7172   0.391   4.754   1.614
 1713SOL    MW4 7173   0.336   4.748   1.682
 1714SOL     OW 7174   1.451   4.403   0.011
 1714SOL    HW2 7175   1.379   4.379  -0.047
 1714SOL    HW3 7176   1.517   4.440  -0.047
 1714SOL    MW4 7177   1.450   4.405  -0.004
 1715SOL     OW 7178   0.585   5.135   0.691
 1715SOL    HW2 7179   0.650   5.068   0.712
 1715SOL    HW3 7180   0.637   5.212   0.668
 1715SOL    MW4 7181   0.600   5.137   0.690
 1716SOL     OW 7182   0.846   4.300   0.821
 1716SOL    HW2 7183   0.786   4.318   0.893
 1716SOL    HW3 7184   0.880   4.212   0.840
 1716SOL    MW4 7185   0.842   4.290   0.834
 1717SOL     OW 7186   1.787   3.799   1.490
 1717SOL    HW2 7187   1.708   3.845   1.518
 1717SOL    HW3 7188   1.822   3.853   1.419
 1717SOL    MW4 7189   1.781   3.812   1.484
 1718SOL     OW 7190   1.071   4.883   0.840
 1718SOL    HW2 7191   1.163   4.864   0.858
 1718SOL    HW3 7192   1.044   4.813   0.780
 1718SOL    MW4 7193   1.079   4.871   0.834
 1719SOL     OW 7194   0.864   4.703   0.195
 1719SOL    HW2 7195   0.850   4.615   0.160
 1719SOL    HW3 7196   0.815   4.760   0.136
 1719SOL    MW4 7197   0.856   4.698   0.183
 1720SOL     OW 7198   1.345   5.121   0.936
 1720SOL    HW2 7199   1.318   5.205   0.901
 1720SOL    HW3 7200   1.305   5.116   1.023
 1720SOL    MW4 7201   1.338   5.130   0.942
 1721SOL     OW 7202   1.264   5.069   1.204
 1721SOL    HW2 7203   1.275   5.036   1.293
 1721SOL    HW3 7204   1.183   5.028   1.173
 1721SOL    MW4 7205   1.254   5.061   1.210
 1722SOL     OW 7206   0.277   4.427   0.974
 1722SOL    HW2 7207   0.227   4.426   1.055
 1722SOL    HW3 7208   0.297   4.519   0.958
 1722SOL    MW4 7209   0.273   4.439   0.982
 1723SOL     OW 7210   1.344   5.191   1.736
 1723SOL    HW2 7211   1.344   5.285   1.752
 1723SOL    HW3 7212   1.389   5.181   1.652
 1723SOL    MW4 7213   1.350   5.201   1.727
 1724SOL     OW 7214   1.583   3.909   0.297
 1724SOL    HW2 7215   1.576   3.913   0.392
 1724SOL    HW3 7216   1.595   4.000   0.270
 1724SOL    MW4 7217   1.584   3.922   0.305
 1725SOL     OW 7218   0.872   4.472   0.411
 1725SOL    HW2 7219   0.852   4.458   0.318
 1725SOL    HW3 7220   0.965   4.451   0.418
 1725SOL    MW4 7221   0.882   4.467   0.400
 1726SOL     OW 7222   0.199   4.095   1.715
 1726SOL    HW2 7223   0.156   4.154   1.652
 1726SOL    HW3 7224   0.267   4.150   1.755
 1726SOL    MW4 7225   0.203   4.110   1.712
 1727SOL     OW 7226   1.311   4.715   1.260
 1727SOL    HW2 7227   1.374   4.712   1.333
 1727SOL    HW3 7228   1.227   4.733   1.302
 1727SOL    MW4 7229   1.307   4.717   1.275
 1728SOL     OW 7230   0.855   5.430   0.449
 1728SOL    HW2 7231   0.913   5.501   0.476
 1728SOL    HW3 7232   0.878   5.358   0.507
 1728SOL    MW4 7233   0.866   5.430   0.460
 1729SOL     OW 7234   1.650   3.892   1.039
 1729SOL    HW2 7235   1.695   3.810   1.058
 1729SOL    HW3 7236   1.670   3.948   1.115
 1729SOL    MW4 7237   1.660   3.888   1.051
 1730SOL     OW 7238   0.098   3.735   1.138
 1730SOL    HW2 7239   0.089   3.736   1.043
 1730SOL    HW3 7240   0.192   3.747   1.153
 1730SOL    MW4 7241   0.110   3.738   1.129
 1731SOL     OW 7242   1.735   4.928   0.758
 1731SOL    HW2 7243   1.714   4.874   0.681
 1731SOL    HW3 7244   1.831   4.926   0.762
 1731SOL    MW4 7245   1.744   4.921   0.747
 1732SOL     OW 7246   0.427   5.073   1.501
 1732SOL    HW2 7247   0.348   5.023   1.524
 1732SOL    HW3 7248   0.497   5.032   1.551
 1732SOL    MW4 7249   0.425   5.061   1.511
 1733SOL     OW 7250   0.311   3.862   0.184
 1733SOL    HW2 7251   0.240   3.917   0.152
 1733SOL    HW3 7252   0.353   3.828   0.105
 1733SOL    MW4 7253   0.307   3.864   0.170
 1734SOL     OW 7254   1.435   4.359   1.020
 1734SOL    HW2 7255   1.358   4.405   0.986
 1734SOL    HW3 7256   1.492   4.428   1.054
 1734SOL    MW4 7257   1.432   4.374   1.020
 1735SOL     OW 7258   0.067   3.961   0.033
 1735SOL    HW2 7259   0.034   4.040   0.077
 1735SOL    HW3 7260   0.122   3.994  -0.038
 1735SOL    MW4 7261   0.070   3.975   0.030
 1736SOL     OW 7262   0.101   5.218   0.222
 1736SOL    HW2 7263   0.118   5.302   0.264
 1736SOL    HW3 7264   0.136   5.227   0.134
 1736SOL    MW4 7265   0.106   5.231   0.216
 1737SOL     OW 7266   1.373   5.307   0.439
 1737SOL    HW2 7267   1.436   5.297   0.368
 1737SOL    HW3 7268   1.290   5.327   0.394
 1737SOL    MW4 7269   1.370   5.308   0.424
 1738SOL     OW 7270   1.736   4.575   2.125
 1738SOL    HW2 7271   1.777   4.517   2.190
 1738SOL    HW3 7272   1.643   4.567   2.142
 1738SOL    MW4 7273   1.730   4.567   2.135
 1739SOL     OW 7274   1.602   4.507   3.120
 1739SOL    HW2 7275   1.557   4.574   3.171
 1739SOL    HW3 7276   1.690   4.543   3.106
 1739SOL    MW4 7277   1.608   4.520   3.124
 1740SOL     OW 7278   0.530   4.758   2.354
 1740SOL    HW2 7279   0.620   4.733   2.338
 1740SOL    HW3 7280   0.526   4.851   2.331
 1740SOL    MW4 7281   0.542   4.767   2.349
 1741SOL     OW 7282   1.646   5.461   2.496
 1741SOL    HW2 7283   1.658   5.407   2.574
 1741SOL    HW3 7284   1.683   5.409   2.425
 1741SOL    MW4 7285   1.652   5.446   2.497
 1742SOL     OW 7286   1.025   5.346   3.497
 1742SOL    HW2 7287   1.066   5.382   3.418
 1742SOL    HW3 7288   1.060   5.257   3.504
 1742SOL    MW4 7289   1.036   5.339   3.488
 1743SOL     OW 7290   1.582   4.901   3.101
 1743SOL    HW2 7291   1.503   4.866   3.059
 1743SOL    HW3 7292   1.609   4.973   3.045
 1743SOL    MW4 7293   1.575   4.906   3.088
 1744SOL     OW 7294   0.814   4.214   2.367
 1744SOL    HW2 7295   0.789   4.302   2.395
 1744SOL    HW3 7296   0.811   4.217   2.271
 1744SOL    MW4 7297   0.810   4.226   2.359
 1745SOL     OW 7298   0.256   4.242   2.295
 1745SOL    HW2 7299   0.288   4.330   2.277
 1745SOL    HW3 7300   0.244   4.240   2.390
 1745SOL    MW4 7301   0.259   4.254   2.307
 1746SOL     OW 7302   0.334   4.655   3.196
 1746SOL    HW2 7303   0.397   4.602   3.147
 1746SOL    HW3 7304   0.315   4.729   3.139
 1746SOL    MW4 7305   0.340   4.657   3.183
 1747SOL     OW 7306   0.655   3.997   2.382
 1747SOL    HW2 7307   0.713   4.073   2.384
 1747SOL    HW3 7308   0.590   4.018   2.315
 1747SOL    MW4 7309   0.654   4.009   2.373
 1748SOL     OW 7310   0.742   4.924   2.557
 1748SOL    HW2 7311   0.822   4.927   2.609
 1748SOL    HW3 7312   0.770   4.891   2.471
 1748SOL    MW4 7313   0.756   4.920   2.552
 1749SOL     OW 7314   0.767   5.265   3.460
 1749SOL    HW2 7315   0.851   5.291   3.499
 1749SOL    HW3 7316   0.791   5.209   3.386
 1749SOL    MW4 7317   0.781   5.261   3.455
 1750SOL     OW 7318   0.519   4.428   2.548
 1750SOL    HW2 7319   0.504   4.348   2.599
 1750SOL    HW3 7320   0.601   4.463   2.582
 1750SOL    MW4 7321   0.527   4.420   2.560
 1751SOL     OW 7322   0.856   5.114   3.233
 1751SOL    HW2 7323   0.820   5.180   3.173
 1751SOL    HW3 7324   0.784   5.052   3.246
 1751SOL    MW4 7325   0.842   5.114   3.227
 1752SOL     OW 7326   0.661   4.254   2.925
 1752SOL    HW2 7327   0.567   4.250   2.943
 1752SOL    HW3 7328   0.691   4.163   2.934
 1752SOL    MW4 7329   0.652   4.242   2.928
 1753SOL     OW 7330   0.407   4.668   2.829
 1753SOL    HW2 7331   0.362   4.675   2.745
 1753SOL    HW3 7332   0.387   4.751   2.873
 1753SOL    MW4 7333   0.399   4.680   2.823
 1754SOL     OW 7334   0.104   5.514   2.704
 1754SOL    HW2 7335   0.193   5.506   2.739
 1754SOL    HW3 7336   0.068   5.426   2.709
 1754SOL    MW4 7337   0.111   5.501   2.709
 1755SOL     OW 7338   1.369   4.906   2.073
 1755SOL    HW2 7339   1.287   4.942   2.039
 1755SOL    HW3 7340   1.437   4.949   2.022
 1755SOL    MW4 7341   1.367   4.916   2.061
 1756SOL     OW 7342   0.368   5.041   2.739
 1756SOL    HW2 7343   0.344   5.094   2.815
 1756SOL    HW3 7344   0.424   5.099   2.687
 1756SOL    MW4 7345   0.372   5.056   2.742
 1757SOL     OW 7346   0.930   4.685   2.549
 1757SOL    HW2 7347   0.844   4.672   2.589
 1757SOL    HW3 7348   0.983   4.612   2.581
 1757SOL    MW4 7349   0.926   4.674   2.558
 1758SOL     OW 7350   0.338   5.337   3.334
 1758SOL    HW2 7351   0.246   5.313   3.319
 1758SOL    HW3 7352   0.382   5.254   3.351
 1758SOL    MW4 7353   0.332   5.322   3.333
 1759SOL     OW 7354   0.921   5.047   2.266
 1759SOL    HW2 7355   0.898   5.109   2.334
 1759SOL    HW3 7356   0.878   4.965   2.292
 1759SOL    MW4 7357   0.913   5.043   2.277
 1760SOL     OW 7358   1.794   4.048   2.722
 1760SOL    HW2 7359   1.731   4.028   2.791
 1760SOL    HW3 7360   1.784   3.977   2.659
 1760SOL    MW4 7361   1.784   4.035   2.723
 1761SOL     OW 7362   0.418   4.020   2.234
 1761SOL    HW2 7363   0.392   3.982   2.150
 1761SOL    HW3 7364   0.355   4.090   2.250
 1761SOL    MW4 7365   0.407   4.023   2.225
 1762SOL     OW 7366   0.253   4.981   2.271
 1762SOL    HW2 7367   0.201   5.049   2.227
 1762SOL    HW3 7368   0.250   4.907   2.211
 1762SOL    MW4 7369   0.245   4.980   2.258
 1763SOL     OW 7370   0.915   5.444   2.049
 1763SOL    HW2 7371   0.870   5.460   2.132
 1763SOL    HW3 7372   0.846   5.409   1.991
 1763SOL    MW4 7373   0.901   5.441   2.051
 1764SOL     OW 7374   1.850   4.217   2.024
 1764SOL    HW2 7375   1.759   4.219   2.052
 1764SOL    HW3 7376   1.895   4.279   2.082
 1764SOL    MW4 7377   1.843   4.225   2.034
 1765SOL     OW 7378   1.595   4.820   2.374
 1765SOL    HW2 7379   1.505   4.820   2.409
 1765SOL    HW3 7380   1.588   4.866   2.291
 1765SOL    MW4 7381   1.582   4.826   2.368
 1766SOL     OW 7382   1.395   4.455   3.446
 1766SOL    HW2 7383   1.464   4.393   3.423
 1766SOL    HW3 7384   1.320   4.429   3.393
 1766SOL    MW4 7385   1.395   4.442   3.437
 1767SOL     OW 7386   0.136   5.335   2.998
 1767SOL    HW2 7387   0.119   5.281   3.075
 1767SOL    HW3 7388   0.124   5.425   3.028
 1767SOL    MW4 7389   0.133   5.339   3.012
 1768SOL     OW 7390   1.131   4.842   3.438
 1768SOL    HW2 7391   1.116   4.935   3.423
 1768SOL    HW3 7392   1.226   4.832   3.438
 1768SOL    MW4 7393   1.140   4.852   3.435
 1769SOL     OW 7394   0.927   4.266   3.639
 1769SOL    HW2 7395   1.017   4.267   3.606
 1769SOL    HW3 7396   0.886   4.191   3.597
 1769SOL    MW4 7397   0.933   4.256   3.630
 1770SOL     OW 7398   1.502   4.798   2.766
 1770SOL    HW2 7399   1.505   4.732   2.697
 1770SOL    HW3 7400   1.587   4.841   2.762
 1770SOL    MW4 7401   1.514   4.794   2.757
 1771SOL     OW 7402   1.122   4.401   2.335
 1771SOL    HW2 7403   1.148   4.425   2.246
 1771SOL    HW3 7404   1.104   4.308   2.331
 1771SOL    MW4 7405   1.124   4.393   2.322
 1772SOL     OW 7406   1.787   5.021   2.186
 1772SOL    HW2 7407   1.743   5.062   2.261
 1772SOL    HW3 7408   1.844   5.089   2.151
 1772SOL    MW4 7409   1.789   5.035   2.191
 1773SOL     OW 7410   0.707   4.070   3.589
 1773SOL    HW2 7411   0.717   3.996   3.529
 1773SOL    HW3 7412   0.743   4.039   3.672
 1773SOL    MW4 7413   0.713   4.056   3.591
 1774SOL     OW 7414   0.443   5.437   2.504
 1774SOL    HW2 7415   0.475   5.525   2.482
 1774SOL    HW3 7416   0.396   5.409   2.426
 1774SOL    MW4 7417   0.442   5.445   2.491
 1775SOL     OW 7418   1.827   3.799   2.553
 1775SOL    HW2 7419   1.881   3.750   2.615
 1775SOL    HW3 7420   1.770   3.733   2.514
 1775SOL    MW4 7421   1.827   3.783   2.555
 1776SOL     OW 7422   0.159   5.497   2.081
 1776SOL    HW2 7423   0.188   5.587   2.073
 1776SOL    HW3 7424   0.109   5.480   2.002
 1776SOL    MW4 7425   0.157   5.505   2.070
 1777SOL     OW 7426   0.946   3.752   2.966
 1777SOL    HW2 7427   0.905   3.830   2.928
 1777SOL    HW3 7428   1.040   3.770   2.961
 1777SOL    MW4 7429   0.952   3.764   2.961
 1778SOL     OW 7430   1.563   5.305   2.052
 1778SOL    HW2 7431   1.611   5.374   2.098
 1778SOL    HW3 7432   1.484   5.349   2.021
 1778SOL    MW4 7433   1.558   5.319   2.055
 1779SOL     OW 7434   0.961   4.430   1.996
 1779SOL    HW2 7435   0.963   4.377   1.917
 1779SOL    HW3 7436   1.049   4.467   2.002
 1779SOL    MW4 7437   0.973   4.429   1.985
 1780SOL     OW 7438   1.575   4.356   2.332
 1780SOL    HW2 7439   1.614   4.356   2.419
 1780SOL    HW3 7440   1.516   4.432   2.332
 1780SOL    MW4 7441   1.572   4.367   2.343
 1781SOL     OW 7442   0.892   4.723   3.461
 1781SOL    HW2 7443   0.869   4.703   3.551
 1781SOL    HW3 7444   0.977   4.767   3.466
 1781SOL    MW4 7445   0.899   4.726   3.473
 1782SOL     OW 7446   0.972   3.860   3.221
 1782SOL    HW2 7447   0.978   3.822   3.134
 1782SOL    HW3 7448   0.961   3.954   3.206
 1782SOL    MW4 7449   0.973   3.868   3.209
 1783SOL     OW 7450   1.061   4.349   3.055
 1783SOL    HW2 7451   1.136   4.378   3.002
 1783SOL    HW3 7452   0.993   4.414   3.039
 1783SOL    MW4 7453   1.062   4.361   3.045
 1784SOL     OW 7454   1.611   4.317   3.332
 1784SOL    HW2 7455   1.592   4.226   3.311
 1784SOL    HW3 7456   1.589   4.366   3.253
 1784SOL    MW4 7457   1.606   4.310   3.319
 1785SOL     OW 7458   1.753   5.411   3.236
 1785SOL    HW2 7459   1.681   5.373   3.287
 1785SOL    HW3 7460   1.770   5.496   3.277
 1785SOL    MW4 7461   1.747   5.416   3.248
 1786SOL     OW 7462   1.058   4.055   3.438
 1786SOL    HW2 7463   1.024   4.094   3.357
 1786SOL    HW3 7464   1.036   3.963   3.431
 1786SOL    MW4 7465   1.051   4.048   3.428
 1787SOL     OW 7466   1.467   4.869   3.514
 1787SOL    HW2 7467   1.549   4.910   3.544
 1787SOL    HW3 7468   1.430   4.831   3.594
 1787SOL    MW4 7469   1.473   4.870   3.529
 1788SOL     OW 7470   1.762   4.242   2.498
 1788SOL    HW2 7471   1.851   4.211   2.515
 1788SOL    HW3 7472   1.705   4.182   2.546
 1788SOL    MW4 7473   1.765   4.230   2.507
 1789SOL     OW 7474   0.188   3.956   2.527
 1789SOL    HW2 7475   0.179   3.896   2.453
 1789SOL    HW3 7476   0.121   3.927   2.590
 1789SOL    MW4 7477   0.178   3.943   2.525
 1790SOL     OW 7478   1.131   5.049   2.088
 1790SOL    HW2 7479   1.081   5.051   2.170
 1790SOL    HW3 7480   1.065   5.067   2.020
 1790SOL    MW4 7481   1.117   5.051   2.090
 1791SOL     OW 7482   0.135   4.129   2.890
 1791SOL    HW2 7483   0.107   4.220   2.899
 1791SOL    HW3 7484   0.072   4.090   2.829
 1791SOL    MW4 7485   0.122   4.135   2.884
 1792SOL     OW 7486   0.594   5.467   2.196
 1792SOL    HW2 7487   0.515   5.425   2.229
 1792SOL    HW3 7488   0.660   5.450   2.263
 1792SOL    MW4 7489   0.593   5.459   2.209
 1793SOL     OW 7490   1.722   4.987   3.593
 1793SOL    HW2 7491   1.772   4.913   3.625
 1793SOL    HW3 7492   1.668   5.014   3.668
 1793SOL    MW4 7493   1.722   4.981   3.606
 1794SOL     OW 7494   0.730   4.882   1.903
 1794SOL    HW2 7495   0.652   4.828   1.890
 1794SOL    HW3 7496   0.701   4.955   1.956
 1794SOL    MW4 7497   0.716   4.884   1.908
 1795SOL     OW 7498   1.856   4.622   3.095
 1795SOL    HW2 7499   1.872   4.660   3.008
 1795SOL    HW3 7500   1.890   4.688   3.156
 1795SOL    MW4 7501   1.863   4.635   3.091
 1796SOL     OW 7502   1.648   5.331   2.764
 1796SOL    HW2 7503   1.677   5.398   2.825
 1796SOL    HW3 7504   1.629   5.255   2.819
 1796SOL    MW4 7505   1.650   5.331   2.779
 1797SOL     OW 7506   1.311   5.398   1.971
 1797SOL    HW2 7507   1.237   5.361   2.021
 1797SOL    HW3 7508   1.319   5.488   2.004
 1797SOL    MW4 7509   1.302   5.405   1.983
 1798SOL     OW 7510   0.119   4.404   3.060
 1798SOL    HW2 7511   0.181   4.434   3.126
 1798SOL    HW3 7512   0.053   4.473   3.054
 1798SOL    MW4 7513   0.118   4.417   3.067
 1799SOL     OW 7514   1.535   5.072   1.913
 1799SOL    HW2 7515   1.482   5.121   1.849
 1799SOL    HW3 7516   1.566   5.138   1.974
 1799SOL    MW4 7517   1.533   5.086   1.911
 1800SOL     OW 7518   0.760   3.961   1.968
 1800SOL    HW2 7519   0.708   3.881   1.956
 1800SOL    HW3 7520   0.847   3.938   1.936
 1800SOL    MW4 7521   0.763   3.947   1.962
 1801SOL     OW 7522   0.214   5.513   3.512
 1801SOL    HW2 7523   0.188   5.581   3.450
 1801SOL    HW3 7524   0.262   5.450   3.460
 1801SOL    MW4 7525   0.216   5.513   3.498
 1802SOL     OW 7526   0.266   4.832   3.019
 1802SOL    HW2 7527   0.319   4.907   3.044
 1802SOL    HW3 7528   0.185   4.870   2.985
 1802SOL    MW4 7529   0.262   4.847   3.019
 1803SOL     OW 7530   0.806   4.736   3.007
 1803SOL    HW2 7531   0.834   4.645   3.019
 1803SOL    HW3 7532   0.735   4.730   2.943
 1803SOL    MW4 7533   0.799   4.724   3.002
 1804SOL     OW 7534   0.121   4.601   2.425
 1804SOL    HW2 7535   0.212   4.616   2.452
 1804SOL    HW3 7536   0.124   4.522   2.371
 1804SOL    MW4 7537   0.133   4.593   2.423
 1805SOL     OW 7538   0.357   4.309   3.679
 1805SOL    HW2 7539   0.304   4.389   3.686
 1805SOL    HW3 7540   0.427   4.321   3.744
 1805SOL    MW4 7541   0.359   4.322   3.687
 1806SOL     OW 7542   0.743   3.859   3.386
 1806SOL    HW2 7543   0.720   3.767   3.388
 1806SOL    HW3 7544   0.829   3.861   3.343
 1806SOL    MW4 7545   0.750   3.849   3.382
 1807SOL     OW 7546   0.427   4.383   3.425
 1807SOL    HW2 7547   0.507   4.433   3.411
 1807SOL    HW3 7548   0.418   4.377   3.520
 1807SOL    MW4 7549   0.436   4.389   3.435
 1808SOL     OW 7550   0.748   5.533   2.799
 1808SOL    HW2 7551   0.837   5.548   2.829
 1808SOL    HW3 7552   0.743   5.580   2.715
 1808SOL    MW4 7553   0.758   5.541   2.792
 1809SOL     OW 7554   1.404   3.908   3.696
 1809SOL    HW2 7555   1.460   3.835   3.722
 1809SOL    HW3 7556   1.374   3.946   3.778
 1809SOL    MW4 7557   1.408   3.903   3.709
 1810SOL     OW 7558   0.129   5.213   2.464
 1810SOL    HW2 7559   0.101   5.252   2.546
 1810SOL    HW3 7560   0.149   5.122   2.486
 1810SOL    MW4 7561   0.127   5.205   2.477
 1811SOL     OW 7562   0.962   5.256   2.499
 1811SOL    HW2 7563   1.045   5.210   2.483
 1811SOL    HW3 7564   0.952   5.255   2.595
 1811SOL    MW4 7565   0.972   5.249   2.509
 1812SOL     OW 7566   1.794   4.401   2.813
 1812SOL    HW2 7567   1.883   4.431   2.795
 1812SOL    HW3 7568   1.774   4.341   2.742
 1812SOL    MW4 7569   1.803   4.398   2.802
 1813SOL     OW 7570   1.645   4.580   3.693
 1813SOL    HW2 7571   1.700   4.504   3.674
 1813SOL    HW3 7572   1.647   4.588   3.788
 1813SOL    MW4 7573   1.653   4.571   3.701
 1814SOL     OW 7574   0.695   5.313   1.904
 1814SOL    HW2 7575   0.635   5.382   1.874
 1814SOL    HW3 7576   0.640   5.255   1.957
 1814SOL    MW4 7577   0.679   5.315   1.906
 1815SOL     OW 7578   1.133   3.958   2.127
 1815SOL    HW2 7579   1.066   3.934   2.064
 1815SOL    HW3 7580   1.198   4.007   2.076
 1815SOL    MW4 7581   1.133   3.960   2.112
 1816SOL     OW 7582   0.940   4.142   3.212
 1816SOL    HW2 7583   0.859   4.183   3.240
 1816SOL    HW3 7584   0.987   4.210   3.164
 1816SOL    MW4 7585   0.935   4.157   3.210
 1817SOL     OW 7586   1.200   4.480   2.835
 1817SOL    HW2 7587   1.213   4.574   2.845
 1817SOL    HW3 7588   1.161   4.470   2.749
 1817SOL    MW4 7589   1.196   4.491   2.825
 1818SOL     OW 7590   0.652   4.675   2.639
 1818SOL    HW2 7591   0.563   4.666   2.672
 1818SOL    HW3 7592   0.656   4.765   2.607
 1818SOL    MW4 7593   0.641   4.686   2.639
 1819SOL     OW 7594   1.451   4.258   2.634
 1819SOL    HW2 7595   1.396   4.179   2.633
 1819SOL    HW3 7596   1.433   4.299   2.718
 1819SOL    MW4 7597   1.441   4.253   2.643
 1820SOL     OW 7598   0.422   3.945   3.451
 1820SOL    HW2 7599   0.343   3.963   3.503
 1820SOL    HW3 7600   0.417   4.007   3.378
 1820SOL    MW4 7601   0.412   3.955   3.448
 1821SOL     OW 7602   1.070   4.462   2.591
 1821SOL    HW2 7603   1.007   4.394   2.615
 1821SOL    HW3 7604   1.090   4.443   2.499
 1821SOL    MW4 7605   1.064   4.449   2.583
 1822SOL     OW 7606   0.326   5.357   2.293
 1822SOL    HW2 7607   0.287   5.404   2.219
 1822SOL    HW3 7608   0.260   5.292   2.318
 1822SOL    MW4 7609   0.313   5.355   2.287
 1823SOL     OW 7610   0.818   4.766   2.317
 1823SOL    HW2 7611   0.820   4.740   2.224
 1823SOL    HW3 7612   0.876   4.703   2.360
 1823SOL    MW4 7613   0.826   4.755   2.311
 1824SOL     OW 7614   1.371   5.326   3.089
 1824SOL    HW2 7615   1.296   5.372   3.127
 1824SOL    HW3 7616   1.353   5.233   3.106
 1824SOL    MW4 7617   1.360   5.320   3.097
 1825SOL     OW 7618   1.375   5.534   2.519
 1825SOL    HW2 7619   1.318   5.487   2.458
 1825SOL    HW3 7620   1.461   5.495   2.506
 1825SOL    MW4 7621   1.378   5.525   2.509
 1826SOL     OW 7622   1.328   4.010   2.650
 1826SOL    HW2 7623   1.356   3.942   2.711
 1826SOL    HW3 7624   1.242   3.981   2.620
 1826SOL    MW4 7625   1.321   3.997   2.654
 1827SOL     OW 7626   0.133   4.944   2.584
 1827SOL    HW2 7627   0.197   4.976   2.647
 1827SOL    HW3 7628   0.182   4.880   2.532
 1827SOL    MW4 7629   0.148   4.940   2.585
 1828SOL     OW 7630   0.633   5.020   3.566
 1828SOL    HW2 7631   0.681   5.103   3.553
 1828SOL    HW3 7632   0.690   4.968   3.622
 1828SOL    MW4 7633   0.647   5.024   3.572
 1829SOL     OW 7634   0.209   5.262   3.706
 1829SOL    HW2 7635   0.265   5.186   3.721
 1829SOL    HW3 7636   0.158   5.240   3.628
 1829SOL    MW4 7637   0.209   5.249   3.697
 1830SOL     OW 7638   1.308   4.114   1.985
 1830SOL    HW2 7639   1.281   4.180   1.921
 1830SOL    HW3 7640   1.378   4.157   2.035
 1830SOL    MW4 7641   1.313   4.127   1.982
 1831SOL     OW 7642   0.976   3.819   1.922
 1831SOL    HW2 7643   1.032   3.811   1.844
 1831SOL    HW3 7644   0.953   3.729   1.944
 1831SOL    MW4 7645   0.981   3.806   1.915
 1832SOL     OW 7646   1.481   4.670   2.127
 1832SOL    HW2 7647   1.448   4.759   2.117
 1832SOL    HW3 7648   1.446   4.641   2.212
 1832SOL    MW4 7649   1.471   4.679   2.138
 1833SOL     OW 7650   1.094   5.099   3.315
 1833SOL    HW2 7651   1.005   5.105   3.283
 1833SOL    HW3 7652   1.138   5.178   3.283
 1833SOL    MW4 7653   1.089   5.109   3.307
 1834SOL     OW 7654   0.387   3.767   3.657
 1834SOL    HW2 7655   0.315   3.732   3.605
 1834SOL    HW3 7656   0.445   3.808   3.592
 1834SOL    MW4 7657   0.385   3.768   3.642
 1835SOL     OW 7658   0.411   5.257   2.956
 1835SOL    HW2 7659   0.456   5.319   3.013
 1835SOL    HW3 7660   0.318   5.276   2.969
 1835SOL    MW4 7661   0.404   5.267   2.963
 1836SOL     OW 7662   1.851   4.786   3.310
 1836SOL    HW2 7663   1.766   4.799   3.269
 1836SOL    HW3 7664   1.831   4.750   3.397
 1836SOL    MW4 7665   1.838   4.782   3.315
 1837SOL     OW 7666   0.833   5.325   3.064
 1837SOL    HW2 7667   0.857   5.314   2.973
 1837SOL    HW3 7668   0.756   5.382   3.062
 1837SOL    MW4 7669   0.825   5.330   3.053
 1838SOL     OW 7670   0.475   4.708   1.919
 1838SOL    HW2 7671   0.398   4.721   1.975
 1838SOL    HW3 7672   0.439   4.672   1.838
 1838SOL    MW4 7673   0.461   4.704   1.916
 1839SOL     OW 7674   1.128   4.681   2.162
 1839SOL    HW2 7675   1.038   4.702   2.137
 1839SOL    HW3 7676   1.155   4.754   2.218
 1839SOL    MW4 7677   1.120   4.693   2.165
 1840SOL     OW 7678   0.628   5.030   2.854
 1840SOL    HW2 7679   0.621   5.009   2.948
 1840SOL    HW3 7680   0.546   4.998   2.817
 1840SOL    MW4 7681   0.616   5.024   2.861
 1841SOL     OW 7682   1.492   4.040   3.256
 1841SOL    HW2 7683   1.439   4.042   3.336
 1841SOL    HW3 7684   1.477   3.953   3.219
 1841SOL    MW4 7685   1.484   4.030   3.261
 1842SOL     OW 7686   1.828   3.964   3.129
 1842SOL    HW2 7687   1.809   4.031   3.064
 1842SOL    HW3 7688   1.885   3.902   3.084
 1842SOL    MW4 7689   1.832   3.965   3.115
 1843SOL     OW 7690   0.074   5.122   3.517
 1843SOL    HW2 7691   0.118   5.055   3.463
 1843SOL    HW3 7692  -0.011   5.084   3.537
 1843SOL    MW4 7693   0.069   5.108   3.513
 1844SOL     OW 7694   0.757   3.797   2.569
 1844SOL    HW2 7695   0.686   3.858   2.551
 1844SOL    HW3 7696   0.808   3.794   2.488
 1844SOL    MW4 7697   0.753   3.803   2.556
 1845SOL     OW 7698   0.515   5.037   2.318
 1845SOL    HW2 7699   0.508   5.069   2.408
 1845SOL    HW3 7700   0.425   5.021   2.290
 1845SOL    MW4 7701   0.503   5.039   2.325
 1846SOL     OW 7702   1.110   5.430   3.227
 1846SOL    HW2 7703   1.030   5.415   3.177
 1846SOL    HW3 7704   1.117   5.525   3.234
 1846SOL    MW4 7705   1.101   5.441   3.221
 1847SOL     OW 7706   1.224   5.395   2.717
 1847SOL    HW2 7707   1.271   5.468   2.676
 1847SOL    HW3 7708   1.145   5.434   2.753
 1847SOL    MW4 7709   1.219   5.410   2.716
 1848SOL     OW 7710   1.632   5.490   2.992
 1848SOL    HW2 7711   1.675   5.460   3.072
 1848SOL    HW3 7712   1.551   5.438   2.989
 1848SOL    MW4 7713   1.627   5.479   3.002
 1849SOL     OW 7714   0.717   4.454   3.699
 1849SOL    HW2 7715   0.787   4.396   3.671
 1849SOL    HW3 7716   0.660   4.399   3.754
 1849SOL    MW4 7717   0.719   4.441   3.703
 1850SOL     OW 7718   1.504   4.666   3.332
 1850SOL    HW2 7719   1.509   4.719   3.412
 1850SOL    HW3 7720   1.466   4.583   3.360
 1850SOL    MW4 7721   1.500   4.661   3.347
 1851SOL     OW 7722   1.144   3.801   3.578
 1851SOL    HW2 7723   1.139   3.708   3.559
 1851SOL    HW3 7724   1.227   3.812   3.624
 1851SOL    MW4 7725   1.152   3.790   3.582
 1852SOL     OW 7726   0.518   4.321   2.032
 1852SOL    HW2 7727   0.484   4.377   2.102
 1852SOL    HW3 7728   0.589   4.271   2.072
 1852SOL    MW4 7729   0.524   4.322   2.046
 1853SOL     OW 7730   1.614   5.072   2.854
 1853SOL    HW2 7731   1.649   5.054   2.767
 1853SOL    HW3 7732   1.519   5.073   2.841
 1853SOL    MW4 7733   1.606   5.069   2.841
 1854SOL     OW 7734   1.043   4.720   3.223
 1854SOL    HW2 7735   1.086   4.755   3.301
 1854SOL    HW3 7736   1.026   4.797   3.169
 1854SOL    MW4 7737   1.046   4.735   3.226
 1855SOL     OW 7738   1.574   4.207   2.096
 1855SOL    HW2 7739   1.566   4.278   2.033
 1855SOL    HW3 7740   1.592   4.251   2.179
 1855SOL    MW4 7741   1.575   4.221   2.098
 1856SOL     OW 7742   0.434   3.862   2.525
 1856SOL    HW2 7743   0.484   3.905   2.456
 1856SOL    HW3 7744   0.349   3.906   2.525
 1856SOL    MW4 7745   0.431   3.875   2.516
 1857SOL     OW 7746   0.193   4.924   3.385
 1857SOL    HW2 7747   0.221   4.877   3.463
 1857SOL    HW3 7748   0.114   4.879   3.356
 1857SOL    MW4 7749   0.186   4.913   3.391
 1858SOL     OW 7750   0.701   4.251   3.352
 1858SOL    HW2 7751   0.673   4.339   3.376
 1858SOL    HW3 7752   0.670   4.195   3.423
 1858SOL    MW4 7753   0.693   4.254   3.364
 1859SOL     OW 7754   1.243   4.469   2.071
 1859SOL    HW2 7755   1.290   4.487   1.990
 1859SOL    HW3 7756   1.209   4.553   2.099
 1859SOL    MW4 7757   1.245   4.483   2.064
 1860SOL     OW 7758   0.356   4.647   2.565
 1860SOL    HW2 7759   0.414   4.703   2.513
 1860SOL    HW3 7760   0.400   4.562   2.567
 1860SOL    MW4 7761   0.369   4.644   2.558
 1861SOL     OW 7762   1.496   3.999   2.402
 1861SOL    HW2 7763   1.418   3.949   2.427
 1861SOL    HW3 7764   1.467   4.090   2.402
 1861SOL    MW4 7765   1.482   4.003   2.405
 1862SOL     OW 7766   1.082   3.961   2.561
 1862SOL    HW2 7767   1.102   4.036   2.505
 1862SOL    HW3 7768   1.062   4.000   2.646
 1862SOL    MW4 7769   1.083   3.977   2.565
 1863SOL     OW 7770   0.978   5.211   1.893
 1863SOL    HW2 7771   1.005   5.289   1.845
 1863SOL    HW3 7772   0.885   5.226   1.912
 1863SOL    MW4 7773   0.969   5.224   1.889
 1864SOL     OW 7774   1.842   4.734   3.580
 1864SOL    HW2 7775   1.755   4.714   3.616
 1864SOL    HW3 7776   1.896   4.660   3.605
 1864SOL    MW4 7777   1.837   4.723   3.588
 1865SOL     OW 7778   0.063   5.247   2.737
 1865SOL    HW2 7779   0.095   5.251   2.828
 1865SOL    HW3 7780  -0.032   5.255   2.745
 1865SOL    MW4 7781   0.055   5.250   2.750
 1866SOL     OW 7782   0.018   4.373   2.284
 1866SOL    HW2 7783  -0.042   4.345   2.354
 1866SOL    HW3 7784   0.092   4.313   2.290
 1866SOL    MW4 7785   0.020   4.362   2.293
 1867SOL     OW 7786   1.586   5.585   3.718
 1867SOL    HW2 7787   1.631   5.509   3.683
 1867SOL    HW3 7788   1.624   5.598   3.805
 1867SOL    MW4 7789   1.596   5.578   3.724
 1868SOL     OW 7790   1.186   5.104   2.444
 1868SOL    HW2 7791   1.209   5.055   2.522
 1868SOL    HW3 7792   1.267   5.146   2.416
 1868SOL    MW4 7793   1.199   5.104   2.451
 1869SOL     OW 7794   0.444   4.112   3.173
 1869SOL    HW2 7795   0.477   4.193   3.213
 1869SOL    HW3 7796   0.417   4.138   3.085
 1869SOL    MW4 7797   0.443   4.126   3.167
 1870SOL     OW 7798   0.398   4.079   2.909
 1870SOL    HW2 7799   0.428   3.993   2.880
 1870SOL    HW3 7800   0.303   4.072   2.912
 1870SOL    MW4 7801   0.390   4.068   2.907
 1871SOL     OW 7802   1.227   4.288   3.600
 1871SOL    HW2 7803   1.279   4.223   3.553
 1871SOL    HW3 7804   1.185   4.339   3.530
 1871SOL    MW4 7805   1.228   4.285   3.583
 1872SOL     OW 7806   1.326   4.083   3.461
 1872SOL    HW2 7807   1.233   4.067   3.448
 1872SOL    HW3 7808   1.352   4.021   3.529
 1872SOL    MW4 7809   1.316   4.073   3.468
 1873SOL     OW 7810   0.541   3.857   2.800
 1873SOL    HW2 7811   0.551   3.766   2.826
 1873SOL    HW3 7812   0.497   3.853   2.715
 1873SOL    MW4 7813   0.537   3.845   2.792
 1874SOL     OW 7814   0.635   5.472   3.346
 1874SOL    HW2 7815   0.552   5.457   3.391
 1874SOL    HW3 7816   0.694   5.405   3.381
 1874SOL    MW4 7817   0.633   5.462   3.356
 1875SOL     OW 7818   1.692   4.179   2.971
 1875SOL    HW2 7819   1.625   4.212   3.031
 1875SOL    HW3 7820   1.735   4.257   2.937
 1875SOL    MW4 7821   1.690   4.194   2.975
 1876SOL     OW 7822   1.870   4.899   2.941
 1876SOL    HW2 7823   1.863   4.839   2.866
 1876SOL    HW3 7824   1.796   4.959   2.930
 1876SOL    MW4 7825   1.860   4.899   2.930
 1877SOL     OW 7826   1.252   4.761   2.859
 1877SOL    HW2 7827   1.266   4.733   2.950
 1877SOL    HW3 7828   1.338   4.792   2.831
 1877SOL    MW4 7829   1.265   4.762   2.868
 1878SOL     OW 7830   1.335   4.256   3.138
 1878SOL    HW2 7831   1.356   4.257   3.045
 1878SOL    HW3 7832   1.380   4.178   3.171
 1878SOL    MW4 7833   1.342   4.246   3.130
 1879SOL     OW 7834   1.828   4.387   3.680
 1879SOL    HW2 7835   1.865   4.332   3.749
 1879SOL    HW3 7836   1.853   4.344   3.598
 1879SOL    MW4 7837   1.835   4.375   3.679
 1880SOL     OW 7838   1.375   4.685   3.731
 1880SOL    HW2 7839   1.441   4.633   3.685
 1880SOL    HW3 7840   1.395   4.672   3.824
 1880SOL    MW4 7841   1.386   4.676   3.738
 1881SOL     OW 7842   1.326   3.771   2.080
 1881SOL    HW2 7843   1.400   3.815   2.123
 1881SOL    HW3 7844   1.250   3.825   2.102
 1881SOL    MW4 7845   1.326   3.783   2.088
 1882SOL     OW 7846   1.386   4.546   2.358
 1882SOL    HW2 7847   1.301   4.516   2.328
 1882SOL    HW3 7848   1.378   4.553   2.453
 1882SOL    MW4 7849   1.374   4.544   2.367
 1883SOL     OW 7850   0.462   5.009   3.089
 1883SOL    HW2 7851   0.474   5.036   3.180
 1883SOL    HW3 7852   0.443   5.090   3.042
 1883SOL    MW4 7853   0.461   5.024   3.094
 1884SOL     OW 7854   0.746   3.989   2.912
 1884SOL    HW2 7855   0.719   3.991   3.003
 1884SOL    HW3 7856   0.676   3.941   2.867
 1884SOL    MW4 7857   0.734   3.985   2.919
 1885SOL     OW 7858   0.600   5.481   3.074
 1885SOL    HW2 7859   0.652   5.558   3.051
 1885SOL    HW3 7860   0.609   5.473   3.169
 1885SOL    MW4 7861   0.609   5.488   3.085
 1886SOL     OW 7862   1.502   5.066   3.306
 1886SOL    HW2 7863   1.487   4.995   3.369
 1886SOL    HW3 7864   1.548   5.024   3.234
 1886SOL    MW4 7865   1.508   5.050   3.306
 1887SOL     OW 7866   0.576   4.797   3.423
 1887SOL    HW2 7867   0.613   4.802   3.335
 1887SOL    HW3 7868   0.615   4.870   3.470
 1887SOL    MW4 7869   0.586   4.807   3.418
 1888SOL     OW 7870   0.756   4.840   3.235
 1888SOL    HW2 7871   0.815   4.786   3.288
 1888SOL    HW3 7872   0.771   4.812   3.145
 1888SOL    MW4 7873   0.766   4.829   3.231
 1889SOL     OW 7874   0.759   4.212   2.084
 1889SOL    HW2 7875   0.832   4.261   2.047
 1889SOL    HW3 7876   0.775   4.121   2.058
 1889SOL    MW4 7877   0.771   4.207   2.077
 1890SOL     OW 7878   1.567   5.329   3.407
 1890SOL    HW2 7879   1.609   5.314   3.492
 1890SOL    HW3 7880   1.558   5.242   3.369
 1890SOL    MW4 7881   1.571   5.317   3.414
 1891SOL     OW 7882   0.234   4.721   2.182
 1891SOL    HW2 7883   0.171   4.737   2.111
 1891SOL    HW3 7884   0.181   4.684   2.253
 1891SOL    MW4 7885   0.219   4.718   2.182
 1892SOL     OW 7886   0.590   5.075   2.041
 1892SOL    HW2 7887   0.605   5.051   2.133
 1892SOL    HW3 7888   0.498   5.053   2.025
 1892SOL    MW4 7889   0.580   5.068   2.051
 1893SOL     OW 7890   1.129   5.306   2.193
 1893SOL    HW2 7891   1.137   5.224   2.144
 1893SOL    HW3 7892   1.048   5.345   2.160
 1893SOL    MW4 7893   1.119   5.301   2.183
 1894SOL     OW 7894   0.388   5.464   2.762
 1894SOL    HW2 7895   0.392   5.375   2.797
 1894SOL    HW3 7896   0.414   5.455   2.671
 1894SOL    MW4 7897   0.391   5.452   2.754
 1895SOL     OW 7898   1.005   4.942   3.005
 1895SOL    HW2 7899   0.937   4.876   3.021
 1895SOL    HW3 7900   1.023   4.936   2.912
 1895SOL    MW4 7901   0.998   4.933   2.996
 1896SOL     OW 7902   0.094   5.217   3.256
 1896SOL    HW2 7903   0.084   5.175   3.342
 1896SOL    HW3 7904   0.015   5.270   3.246
 1896SOL    MW4 7905   0.083   5.218   3.267
 1897SOL     OW 7906   0.998   4.081   2.826
 1897SOL    HW2 7907   0.928   4.033   2.871
 1897SOL    HW3 7908   1.030   4.144   2.890
 1897SOL    MW4 7909   0.993   4.083   2.840
 1898SOL     OW 7910   0.649   4.517   3.446
 1898SOL    HW2 7911   0.642   4.612   3.434
 1898SOL    HW3 7912   0.658   4.506   3.541
 1898SOL    MW4 7913   0.650   4.529   3.456
 1899SOL     OW 7914   0.370   5.032   3.704
 1899SOL    HW2 7915   0.442   5.034   3.641
 1899SOL    HW3 7916   0.340   4.941   3.703
 1899SOL    MW4 7917   0.375   5.021   3.696
 1900SOL     OW 7918   1.454   3.795   3.171
 1900SOL    HW2 7919   1.525   3.741   3.135
 1900SOL    HW3 7920   1.453   3.774   3.264
 1900SOL    MW4 7921   1.463   3.786   3.179
 1901SOL     OW 7922   1.654   5.325   3.655
 1901SOL    HW2 7923   1.627   5.322   3.746
 1901SOL    HW3 7924   1.750   5.329   3.658
 1901SOL    MW4 7925   1.664   5.325   3.667
 1902SOL     OW 7926   0.465   4.187   2.639
 1902SOL    HW2 7927   0.536   4.135   2.602
 1902SOL    HW3 7928   0.451   4.152   2.726
 1902SOL    MW4 7929   0.473   4.176   2.646
 1903SOL     OW 7930   0.020   5.522   3.711
 1903SOL    HW2 7931   0.070   5.500   3.633
 1903SOL    HW3 7932   0.028   5.617   3.719
 1903SOL    MW4 7933   0.028   5.531   3.702
 1904SOL     OW 7934   0.781   5.280   2.715
 1904SOL    HW2 7935   0.709   5.217   2.728
 1904SOL    HW3 7936   0.742   5.365   2.733
 1904SOL    MW4 7937   0.765   5.283   2.718
 1905SOL     OW 7938   1.101   4.128   2.363
 1905SOL    HW2 7939   1.123   4.065   2.295
 1905SOL    HW3 7940   1.006   4.120   2.374
 1905SOL    MW4 7941   1.091   4.119   2.355
 1906SOL     OW 7942   0.186   3.818   2.295
 1906SOL    HW2 7943   0.257   3.839   2.234
 1906SOL    HW3 7944   0.140   3.746   2.253
 1906SOL    MW4 7945   0.190   3.812   2.281
 1907SOL     OW 7946   0.017   4.285   3.438
 1907SOL    HW2 7947   0.081   4.351   3.413
 1907SOL    HW3 7948  -0.064   4.312   3.395
 1907SOL    MW4 7949   0.015   4.297   3.430
 1908SOL     OW 7950   1.755   5.192   2.395
 1908SOL    HW2 7951   1.725   5.125   2.456
 1908SOL    HW3 7952   1.849   5.198   2.409
 1908SOL    MW4 7953   1.763   5.184   2.405
 1909SOL     OW 7954   1.311   4.869   2.325
 1909SOL    HW2 7955   1.283   4.955   2.358
 1909SOL    HW3 7956   1.339   4.885   2.235
 1909SOL    MW4 7957   1.311   4.883   2.317
 1910SOL     OW 7958   0.973   3.789   2.378
 1910SOL    HW2 7959   1.010   3.848   2.443
 1910SOL    HW3 7960   0.950   3.845   2.304
 1910SOL    MW4 7961   0.974   3.804   2.377
 1911SOL     OW 7962   1.826   4.671   2.800
 1911SOL    HW2 7963   1.817   4.703   2.711
 1911SOL    HW3 7964   1.779   4.587   2.800
 1911SOL    MW4 7965   1.819   4.664   2.790
 1912SOL     OW 7966   0.202   4.511   3.379
 1912SOL    HW2 7967   0.223   4.580   3.317
 1912SOL    HW3 7968   0.282   4.458   3.384
 1912SOL    MW4 7969   0.215   4.512   3.373
 1913SOL     OW 7970   1.738   4.602   2.501
 1913SOL    HW2 7971   1.832   4.591   2.489
 1913SOL    HW3 7972   1.714   4.674   2.442
 1913SOL    MW4 7973   1.748   4.610   2.492
 1914SOL     OW 7974   0.187   4.526   3.646
 1914SOL    HW2 7975   0.113   4.470   3.672
 1914SOL    HW3 7976   0.182   4.529   3.551
 1914SOL    MW4 7977   0.176   4.519   3.636
 1915SOL     OW 7978   0.353   3.813   3.096
 1915SOL    HW2 7979   0.396   3.897   3.116
 1915SOL    HW3 7980   0.426   3.751   3.089
 1915SOL    MW4 7981   0.368   3.816   3.097
 1916SOL     OW 7982   0.394   4.480   2.274
 1916SOL    HW2 7983   0.394   4.575   2.259
 1916SOL    HW3 7984   0.471   4.464   2.328
 1916SOL    MW4 7985   0.404   4.491   2.279
 1917SOL     OW 7986   1.170   4.339   3.338
 1917SOL    HW2 7987   1.206   4.312   3.254
 1917SOL    HW3 7988   1.083   4.373   3.317
 1917SOL    MW4 7989   1.164   4.340   3.325
 1918SOL     OW 7990   0.153   4.211   2.563
 1918SOL    HW2 7991   0.215   4.218   2.636
 1918SOL    HW3 7992   0.153   4.118   2.540
 1918SOL    MW4 7993   0.161   4.200   2.570
 1919SOL     OW 7994   1.700   5.551   2.095
 1919SOL    HW2 7995   1.767   5.584   2.035
 1919SOL    HW3 7996   1.657   5.630   2.129
 1919SOL    MW4 7997   1.702   5.566   2.091
 1920SOL     OW 7998   0.835   4.472   3.047
 1920SOL    HW2 7999   0.793   4.390   3.023
 1920SOL    HW3 8000   0.836   4.471   3.143
 1920SOL    MW4 8001   0.828   4.461   3.056
 1921SOL     OW 8002   0.639   3.942   3.152
 1921SOL    HW2 8003   0.570   4.005   3.173
 1921SOL    HW3 8004   0.666   3.906   3.237
 1921SOL    MW4 8005   0.633   3.945   3.165
 1922SOL     OW 8006   0.022   4.783   2.021
 1922SOL    HW2 8007  -0.009   4.848   2.084
 1922SOL    HW3 8008  -0.029   4.705   2.040
 1922SOL    MW4 8009   0.012   4.780   2.031
 1923SOL     OW 8010   1.434   3.795   2.769
 1923SOL    HW2 8011   1.522   3.804   2.806
 1923SOL    HW3 8012   1.444   3.736   2.695
 1923SOL    MW4 8013   1.448   3.789   2.763
 1924SOL     OW 8014   1.466   4.534   2.613
 1924SOL    HW2 8015   1.546   4.549   2.562
 1924SOL    HW3 8016   1.459   4.439   2.619
 1924SOL    MW4 8017   1.475   4.523   2.608
 1925SOL     OW 8018   0.606   5.583   1.963
 1925SOL    HW2 8019   0.511   5.583   1.955
 1925SOL    HW3 8020   0.622   5.529   2.041
 1925SOL    MW4 8021   0.596   5.577   1.972
 1926SOL     OW 8022   0.916   4.460   3.310
 1926SOL    HW2 8023   0.985   4.527   3.307
 1926SOL    HW3 8024   0.849   4.498   3.366
 1926SOL    MW4 8025   0.917   4.473   3.317
 1927SOL     OW 8026   0.334   4.760   3.558
 1927SOL    HW2 8027   0.288   4.676   3.560
 1927SOL    HW3 8028   0.391   4.754   3.482
 1927SOL    MW4 8029   0.336   4.748   3.550
 1928SOL     OW 8030   1.451   4.403   1.879
 1928SOL    HW2 8031   1.379   4.379   1.821
 1928SOL    HW3 8032   1.517   4.440   1.821
 1928SOL    MW4 8033   1.450   4.405   1.864
 1929SOL     OW 8034   0.585   5.135   2.559
 1929SOL    HW2 8035   0.650   5.068   2.580
 1929SOL    HW3 8036   0.637   5.212   2.536
 1929SOL    MW4 8037   0.600   5.137   2.558
 1930SOL     OW 8038   0.846   4.300   2.689
 1930SOL    HW2 8039   0.786   4.318   2.761
 1930SOL    HW3 8040   0.880   4.212   2.708
 1930SOL    MW4 8041   0.842   4.290   2.702
 1931SOL     OW 8042   1.787   3.799   3.358
 1931SOL    HW2 8043   1.708   3.845   3.386
 1931SOL    HW3 8044   1.822   3.853   3.287
 1931SOL    MW4 8045   1.781   3.812   3.352
 1932SOL     OW 8046   1.071   4.883   2.708
 1932SOL    HW2 8047   1.163   4.864   2.726
 1932SOL    HW3 8048   1.044   4.813   2.648
 1932SOL    MW4 8049   1.079   4.871   2.702
 1933SOL     OW 8050   0.864   4.703   2.063
 1933SOL    HW2 8051   0.850   4.615   2.028
 1933SOL    HW3 8052   0.815   4.760   2.004
 1933SOL    MW4 8053   0.856   4.698   2.051
 1934SOL     OW 8054   1.345   5.121   2.804
 1934SOL    HW2 8055   1.318   5.205   2.769
 1934SOL    HW3 8056   1.305   5.116   2.891
 1934SOL    MW4 8057   1.338   5.130   2.810
 1935SOL     OW 8058   1.264   5.069   3.072
 1935SOL    HW2 8059   1.275   5.036   3.161
 1935SOL    HW3 8060   1.183   5.028   3.041
 1935SOL    MW4 8061   1.254   5.061   3.078
 1936SOL     OW 8062   0.277   4.427   2.842
 1936SOL    HW2 8063   0.227   4.426   2.923
 1936SOL    HW3 8064   0.297   4.519   2.826
 1936SOL    MW4 8065   0.273   4.439   2.850
 1937SOL     OW 8066   1.344   5.191   3.604
 1937SOL    HW2 8067   1.344   5.285   3.620
 1937SOL    HW3 8068   1.389   5.181   3.520
 1937SOL    MW4 8069   1.350   5.201   3.595
 1938SOL     OW 8070   1.583   3.909   2.165
 1938SOL    HW2 8071   1.576   3.913   2.260
 1938SOL    HW3 8072   1.595   4.000   2.138
 1938SOL    MW4 8073   1.584   3.922   2.173
 1939SOL     OW 8074   0.872   4.472   2.279
 1939SOL    HW2 8075   0.852   4.458   2.186
 1939SOL    HW3 8076   0.965   4.451   2.286
 1939SOL    MW4 8077   0.882   4.467   2.268
 1940SOL     OW 8078   0.199   4.095   3.583
 1940SOL    HW2 8079   0.156   4.154   3.520
 1940SOL    HW3 8080   0.267   4.150   3.623
 1940SOL    MW4 8081   0.203   4.110   3.580
 1941SOL     OW 8082   1.311   4.715   3.128
 1941SOL    HW2 8083   1.374   4.712   3.201
 1941SOL    HW3 8084   1.227   4.733   3.170
 1941SOL    MW4 8085   1.307   4.717   3.143
 1942SOL     OW 8086   0.855   5.430   2.317
 1942SOL    HW2 8087   0.913   5.501   2.344
 1942SOL    HW3 8088   0.878   5.358   2.375
 1942SOL    MW4 8089   0.866   5.430   2.328
 1943SOL     OW 8090   1.650   3.892   2.907
 1943SOL    HW2 8091   1.695   3.810   2.926
 1943SOL    HW3 8092   1.670   3.948   2.983
 1943SOL    MW4 8093   1.660   3.888   2.919
 1944SOL     OW 8094   0.098   3.735   3.006
 1944SOL    HW2 8095   0.089   3.736   2.911
 1944SOL    HW3 8096   0.192   3.747   3.021
 1944SOL    MW4 8097   0.110   3.738   2.997
 1945SOL     OW 8098   1.735   4.928   2.626
 1945SOL    HW2 8099   1.714   4.874   2.549
 1945SOL    HW3 8100   1.831   4.926   2.630
 1945SOL    MW4 8101   1.744   4.921   2.615
 1946SOL     OW 8102   0.427   5.073   3.369
 1946SOL    HW2 8103   0.348   5.023   3.392
 1946SOL    HW3 8104   0.497   5.032   3.419
 1946SOL    MW4 8105   0.425   5.061   3.379
 1947SOL     OW 8106   0.311   3.862   2.052
 1947SOL    HW2 8107   0.240   3.917   2.020
 1947SOL    HW3 8108   0.353   3.828   1.973
 1947SOL    MW4 8109   0.307   3.864   2.038
 1948SOL     OW 8110   1.435   4.359   2.888
 1948SOL    HW2 8111   1.358   4.405   2.854
 1948SOL    HW3 8112   1.492   4.428   2.922
 1948SOL    MW4 8113   1.432   4.374   2.888
 1949SOL     OW 8114   0.067   3.961   1.901
 1949SOL    HW2 8115   0.034   4.040   1.945
 1949SOL    HW3 8116   0.122   3.994   1.830
 1949SOL    MW4 8117   0.070   3.975   1.898
 1950SOL     OW 8118   0.101   5.218   2.090
 1950SOL    HW2 8119   0.118   5.302   2.132
 1950SOL    HW3 8120   0.136   5.227   2.002
 1950SOL    MW4 8121   0.106   5.231   2.084
 1951SOL     OW 8122   1.373   5.307   2.307
 1951SOL    HW2 8123   1.436   5.297   2.236
 1951SOL    HW3 8124   1.290   5.327   2.262
 1951SOL    MW4 8125   1.370   5.308   2.292
 1952SOL     OW 8126   1.736   4.575   3.993
 1952SOL    HW2 8127   1.777   4.517   4.058
 1952SOL    HW3 8128   1.643   4.567   4.010
 1952SOL    MW4 8129   1.730   4.567   4.003
 1953SOL     OW 8130   1.602   4.507   4.988
 1953SOL    HW2 8131   1.557   4.574   5.039
 1953SOL    HW3 8132   1.690   4.543   4.974
 1953SOL    MW4 8133   1.608   4.520   4.992
 1954SOL     OW 8134   0.530   4.758   4.222
 1954SOL    HW2 8135   0.620   4.733   4.206
 1954SOL    HW3 8136   0.526   4.851   4.199
 1954SOL    MW4 8137   0.542   4.767   4.217
 1955SOL     OW 8138   1.646   5.461   4.364
 1955SOL    HW2 8139   1.658   5.407   4.442
 1955SOL    HW3 8140   1.683   5.409   4.293
 1955SOL    MW4 8141   1.652   5.446   4.365
 1956SOL     OW 8142   1.025   5.346   5.365
 1956SOL    HW2 8143   1.066   5.382   5.286
 1956SOL    HW3 8144   1.060   5.257   5.372
 1956SOL    MW4 8145   1.036   5.339   5.356
 1957SOL     OW 8146   1.582   4.901   4.969
 1957SOL    HW2 8147   1.503   4.866   4.927
 1957SOL    HW3 8148   1.609   4.973   4.913
 1957SOL    MW4 8149   1.575   4.906   4.956
 1958SOL     OW 8150   0.814   4.214   4.235
 1958SOL    HW2 8151   0.789   4.302   4.263
 1958SOL    HW3 8152   0.811   4.217   4.139
 1958SOL    MW4 8153   0.810   4.226   4.227
 1959SOL     OW 8154   0.256   4.242   4.163
 1959SOL    HW2 8155   0.288   4.330   4.145
 1959SOL    HW3 8156   0.244   4.240   4.258
 1959SOL    MW4 8157   0.259   4.254   4.175
 1960SOL     OW 8158   0.334   4.655   5.064
 1960SOL    HW2 8159   0.397   4.602   5.015
 1960SOL    HW3 8160   0.315   4.729   5.007
 1960SOL    MW4 8161   0.340   4.657   5.051
 1961SOL     OW 8162   0.655   3.997   4.250
 1961SOL    HW2 8163   0.713   4.073   4.252
 1961SOL    HW3 8164   0.590   4.018   4.183
 1961SOL    MW4 8165   0.654   4.009   4.241
 1962SOL     OW 8166   0.742   4.924   4.425
 1962SOL    HW2 8167   0.822   4.927   4.477
 1962SOL    HW3 8168   0.770   4.891   4.339
 1962SOL    MW4 8169   0.756   4.920   4.420
 1963SOL     OW 8170   0.767   5.265   5.328
 1963SOL    HW2 8171   0.851   5.291   5.367
 1963SOL    HW3 8172   0.791   5.209   5.254
 1963SOL    MW4 8173   0.781   5.261   5.323
 1964SOL     OW 8174   0.519   4.428   4.416
 1964SOL    HW2 8175   0.504   4.348   4.467
 1964SOL    HW3 8176   0.601   4.463   4.450
 1964SOL    MW4 8177   0.527   4.420   4.428
 1965SOL     OW 8178   0.856   5.114   5.101
 1965SOL    HW2 8179   0.820   5.180   5.041
 1965SOL    HW3 8180   0.784   5.052   5.114
 1965SOL    MW4 8181   0.842   5.114   5.095
 1966SOL     OW 8182   0.661   4.254   4.793
 1966SOL    HW2 8183   0.567   4.250   4.811
 1966SOL    HW3 8184   0.691   4.163   4.802
 1966SOL    MW4 8185   0.652   4.242   4.796
 1967SOL     OW 8186   0.407   4.668   4.697
 1967SOL    HW2 8187   0.362   4.675   4.613
 1967SOL    HW3 8188   0.387   4.751   4.741
 1967SOL    MW4 8189   0.399   4.680   4.691
 1968SOL     OW 8190   0.104   5.514   4.572
 1968SOL    HW2 8191   0.193   5.506   4.607
 1968SOL    HW3 8192   0.068   5.426   4.577
 1968SOL    MW4 8193   0.111   5.501   4.577
 1969SOL     OW 8194   1.369   4.906   3.941
 1969SOL    HW2 8195   1.287   4.942   3.907
 1969SOL    HW3 8196   1.437   4.949   3.890
 1969SOL    MW4 8197   1.367   4.916   3.929
 1970SOL     OW 8198   0.368   5.041   4.607
 1970SOL    HW2 8199   0.344   5.094   4.683
 1970SOL    HW3 8200   0.424   5.099   4.555
 1970SOL    MW4 8201   0.372   5.056   4.610
 1971SOL     OW 8202   0.930   4.685   4.417
 1971SOL    HW2 8203   0.844   4.672   4.457
 1971SOL    HW3 8204   0.983   4.612   4.449
 1971SOL    MW4 8205   0.926   4.674   4.426
 1972SOL     OW 8206   0.338   5.337   5.202
 1972SOL    HW2 8207   0.246   5.313   5.187
 1972SOL    HW3 8208   0.382   5.254   5.219
 1972SOL    MW4 8209   0.332   5.322   5.201
 1973SOL     OW 8210   0.921   5.047   4.134
 1973SOL    HW2 8211   0.898   5.109   4.202
 1973SOL    HW3 8212   0.878   4.965   4.160
 1973SOL    MW4 8213   0.913   5.043   4.145
 1974SOL     OW 8214   1.794   4.048   4.590
 1974SOL    HW2 8215   1.731   4.028   4.659
 1974SOL    HW3 8216   1.784   3.977   4.527
 1974SOL    MW4 8217   1.784   4.035   4.591
 1975SOL     OW 8218   0.418   4.020   4.102
 1975SOL    HW2 8219   0.392   3.982   4.018
 1975SOL    HW3 8220   0.355   4.090   4.118
 1975SOL    MW4 8221   0.407   4.023   4.093
 1976SOL     OW 8222   0.253   4.981   4.139
 1976SOL    HW2 8223   0.201   5.049   4.095
 1976SOL    HW3 8224   0.250   4.907   4.079
 1976SOL    MW4 8225   0.245   4.980   4.126
 1977SOL     OW 8226   1.850   4.217   3.892
 1977SOL    HW2 8227   1.759   4.219   3.920
 1977SOL    HW3 8228   1.895   4.279   3.950
 1977SOL    MW4 8229   1.843   4.225   3.902
 1978SOL     OW 8230   1.595   4.820   4.242
 1978SOL    HW2 8231   1.505   4.820   4.277
 1978SOL    HW3 8232   1.588   4.866   4.159
 1978SOL    MW4 8233   1.582   4.826   4.236
 1979SOL     OW 8234   1.395   4.455   5.314
 1979SOL    HW2 8235   1.464   4.393   5.291
 1979SOL    HW3 8236   1.320   4.429   5.261
 1979SOL    MW4 8237   1.395   4.442   5.305
 1980SOL     OW 8238   0.136   5.335   4.866
 1980SOL    HW2 8239   0.119   5.281   4.943
 1980SOL    HW3 8240   0.124   5.425   4.896
 1980SOL    MW4 8241   0.133   5.339   4.880
 1981SOL     OW 8242   1.131   4.842   5.306
 1981SOL    HW2 8243   1.116   4.935   5.291
 1981SOL    HW3 8244   1.226   4.832   5.306
 1981SOL    MW4 8245   1.140   4.852   5.303
 1982SOL     OW 8246   0.927   4.266   5.507
 1982SOL    HW2 8247   1.017   4.267   5.474
 1982SOL    HW3 8248   0.886   4.191   5.465
 1982SOL    MW4 8249   0.933   4.256   5.498
 1983SOL     OW 8250   1.502   4.798   4.634
 1983SOL    HW2 8251   1.505   4.732   4.565
 1983SOL    HW3 8252   1.587   4.841   4.630
 1983SOL    MW4 8253   1.514   4.794   4.625
 1984SOL     OW 8254   1.122   4.401   4.203
 1984SOL    HW2 8255   1.148   4.425   4.114
 1984SOL    HW3 8256   1.104   4.308   4.199
 1984SOL    MW4 8257   1.124   4.393   4.190
 1985SOL     OW 8258   1.787   5.021   4.054
 1985SOL    HW2 8259   1.743   5.062   4.129
 1985SOL    HW3 8260   1.844   5.089   4.019
 1985SOL    MW4 8261   1.789   5.035   4.059
 1986SOL     OW 8262   0.707   4.070   5.457
 1986SOL    HW2 8263   0.717   3.996   5.397
 1986SOL    HW3 8264   0.743   4.039   5.540
 1986SOL    MW4 8265   0.713   4.056   5.459
 1987SOL     OW 8266   0.443   5.437   4.372
 1987SOL    HW2 8267   0.475   5.525   4.350
 1987SOL    HW3 8268   0.396   5.409   4.294
 1987SOL    MW4 8269   0.442   5.445   4.359
 1988SOL     OW 8270   1.827   3.799   4.421
 1988SOL    HW2 8271   1.881   3.750   4.483
 1988SOL    HW3 8272   1.770   3.733   4.382
 1988SOL    MW4 8273   1.827   3.783   4.423
 1989SOL     OW 8274   0.159   5.497   3.949
 1989SOL    HW2 8275   0.188   5.587   3.941
 1989SOL    HW3 8276   0.109   5.480   3.870
 1989SOL    MW4 8277   0.157   5.505   3.938
 1990SOL     OW 8278   0.946   3.752   4.834
 1990SOL    HW2 8279   0.905   3.830   4.796
 1990SOL    HW3 8280   1.040   3.770   4.829
 1990SOL    MW4 8281   0.952   3.764   4.829
 1991SOL     OW 8282   1.563   5.305   3.920
 1991SOL    HW2 8283   1.611   5.374   3.966
 1991SOL    HW3 8284   1.484   5.349   3.889
 1991SOL    MW4 8285   1.558   5.319   3.923
 1992SOL     OW 8286   0.961   4.430   3.864
 1992SOL    HW2 8287   0.963   4.377   3.785
 1992SOL    HW3 8288   1.049   4.467   3.870
 1992SOL    MW4 8289   0.973   4.429   3.853
 1993SOL     OW 8290   1.575   4.356   4.200
 1993SOL    HW2 8291   1.614   4.356   4.287
 1993SOL    HW3 8292   1.516   4.432   4.200
 1993SOL    MW4 8293   1.572   4.367   4.211
 1994SOL     OW 8294   0.892   4.723   5.329
 1994SOL    HW2 8295   0.869   4.703   5.419
 1994SOL    HW3 8296   0.977   4.767   5.334
 1994SOL    MW4 8297   0.899   4.726   5.341
 1995SOL     OW 8298   0.972   3.860   5.089
 1995SOL    HW2 8299   0.978   3.822   5.002
 1995SOL    HW3 8300   0.961   3.954   5.074
 1995SOL    MW4 8301   0.973   3.868   5.077
 1996SOL     OW 8302   1.061   4.349   4.923
 1996SOL    HW2 8303   1.136   4.378   4.870
 1996SOL    HW3 8304   0.993   4.414   4.907
 1996SOL    MW4 8305   1.062   4.361   4.913
 1997SOL     OW 8306   1.611   4.317   5.200
 1997SOL    HW2 8307   1.592   4.226   5.179
 1997SOL    HW3 8308   1.589   4.366   5.121
 1997SOL    MW4 8309   1.606   4.310   5.187
 1998SOL     OW 8310   1.753   5.411   5.104
 1998SOL    HW2 8311   1.681   5.373   5.155
 1998SOL    HW3 8312   1.770   5.496   5.145
 1998SOL    MW4 8313   1.747   5.416   5.116
 1999SOL     OW 8314   1.058   4.055   5.306
 1999SOL    HW2 8315   1.024   4.094   5.225
 1999SOL    HW3 8316   1.036   3.963   5.299
 1999SOL    MW4 8317   1.051   4.048   5.296
 2000SOL     OW 8318   1.467   4.869   5.382
 2000SOL    HW2 8319   1.549   4.910   5.412
 2000SOL    HW3 8320   1.430   4.831   5.462
 2000SOL    MW4 8321   1.473   4.870   5.397
 2001SOL     OW 8322   1.762   4.242   4.366
 2001SOL    HW2 8323   1.851   4.211   4.383
 2001SOL    HW3 8324   1.705   4.182   4.414
 2001SOL    MW4 8325   1.765   4.230   4.375
 2002SOL     OW 8326   0.188   3.956   4.395
 2002SOL    HW2 8327   0.179   3.896   4.321
 2002SOL    HW3 8328   0.121   3.927   4.458
 2002SOL    MW4 8329   0.178   3.943   4.393
 2003SOL     OW 8330   1.131   5.049   3.956
 2003SOL    HW2 8331   1.081   5.051   4.038
 2003SOL    HW3 8332   1.065   5.067   3.888
 2003SOL    MW4 8333   1.117   5.051   3.958
 2004SOL     OW 8334   0.135   4.129   4.758
 2004SOL    HW2 8335   0.107   4.220   4.767
 2004SOL    HW3 8336   0.072   4.090   4.697
 2004SOL    MW4 8337   0.122   4.135   4.752
 2005SOL     OW 8338   0.594   5.467   4.064
 2005SOL    HW2 8339   0.515   5.425   4.097
 2005SOL    HW3 8340   0.660   5.450   4.131
 2005SOL    MW4 8341   0.593   5.459   4.077
 2006SOL     OW 8342   1.722   4.987   5.461
 2006SOL    HW2 8343   1.772   4.913   5.493
 2006SOL    HW3 8344   1.668   5.014   5.536
 2006SOL    MW4 8345   1.722   4.981   5.474
 2007SOL     OW 8346   0.730   4.882   3.771
 2007SOL    HW2 8347   0.652   4.828   3.758
 2007SOL    HW3 8348   0.701   4.955   3.824
 2007SOL    MW4 8349   0.716   4.884   3.776
 2008SOL     OW 8350   1.856   4.622   4.963
 2008SOL    HW2 8351   1.872   4.660   4.876
 2008SOL    HW3 8352   1.890   4.688   5.024
 2008SOL    MW4 8353   1.863   4.635   4.959
 2009SOL     OW 8354   1.648   5.331   4.632
 2009SOL    HW2 8355   1.677   5.398   4.693
 2009SOL    HW3 8356   1.629   5.255   4.687
 2009SOL    MW4 8357   1.650   5.331   4.647
 2010SOL     OW 8358   1.311   5.398   3.839
 2010SOL    HW2 8359   1.237   5.361   3.889
 2010SOL    HW3 8360   1.319   5.488   3.872
 2010SOL    MW4 8361   1.302   5.405   3.851
 2011SOL     OW 8362   0.119   4.404   4.928
 2011SOL    HW2 8363   0.181   4.434   4.994
 2011SOL    HW3 8364   0.053   4.473   4.922
 2011SOL    MW4 8365   0.118   4.417   4.935
 2012SOL     OW 8366   1.535   5.072   3.781
 2012SOL    HW2 8367   1.482   5.121   3.717
 2012SOL    HW3 8368   1.566   5.138   3.842
 2012SOL    MW4 8369   1.533   5.086   3.779
 2013SOL     OW 8370   0.760   3.961   3.836
 2013SOL    HW2 8371   0.708   3.881   3.824
 2013SOL    HW3 8372   0.847   3.938   3.804
 2013SOL    MW4 8373   0.763   3.947   3.830
 2014SOL     OW 8374   0.214   5.513   5.380
 2014SOL    HW2 8375   0.188   5.581   5.318
 2014SOL    HW3 8376   0.262   5.450   5.328
 2014SOL    MW4 8377   0.216   5.513   5.366
 2015SOL     OW 8378   0.266   4.832   4.887
 2015SOL    HW2 8379   0.319   4.907   4.912
 2015SOL    HW3 8380   0.185   4.870   4.853
 2015SOL    MW4 8381   0.262   4.847   4.887
 2016SOL     OW 8382   0.806   4.736   4.875
 2016SOL    HW2 8383   0.834   4.645   4.887
 2016SOL    HW3 8384   0.735   4.730   4.811
 2016SOL    MW4 8385   0.799   4.724   4.870
 2017SOL     OW 8386   0.121   4.601   4.293
 2017SOL    HW2 8387   0.212   4.616   4.320
 2017SOL    HW3 8388   0.124   4.522   4.239
 2017SOL    MW4 8389   0.133   4.593   4.291
 2018SOL     OW 8390   0.743   3.859   5.254
 2018SOL    HW2 8391   0.720   3.767   5.256
 2018SOL    HW3 8392   0.829   3.861   5.211
 2018SOL    MW4 8393   0.750   3.849   5.250
 2019SOL     OW 8394   0.427   4.383   5.293
 2019SOL    HW2 8395   0.507   4.433   5.279
 2019SOL    HW3 8396   0.418   4.377   5.388
 2019SOL    MW4 8397   0.436   4.389   5.303
 2020SOL     OW 8398   0.748   5.533   4.667
 2020SOL    HW2 8399   0.837   5.548   4.697
 2020SOL    HW3 8400   0.743   5.580   4.583
 2020SOL    MW4 8401   0.758   5.541   4.660
 2021SOL     OW 8402   1.404   3.908   5.564
 2021SOL    HW2 8403   1.460   3.835   5.590
 2021SOL    HW3 8404   1.374   3.946   5.646
 2021SOL    MW4 8405   1.408   3.903   5.577
 2022SOL     OW 8406   0.129   5.213   4.332
 2022SOL    HW2 8407   0.101   5.252   4.414
 2022SOL    HW3 8408   0.149   5.122   4.354
 2022SOL    MW4 8409   0.127   5.205   4.345
 2023SOL     OW 8410   0.962   5.256   4.367
 2023SOL    HW2 8411   1.045   5.210   4.351
 2023SOL    HW3 8412   0.952   5.255   4.463
 2023SOL    MW4 8413   0.972   5.249   4.377
 2024SOL     OW 8414   1.794   4.401   4.681
 2024SOL    HW2 8415   1.883   4.431   4.663
 2024SOL    HW3 8416   1.774   4.341   4.610
 2024SOL    MW4 8417   1.803   4.398   4.670
 2025SOL     OW 8418   1.645   4.580   5.561
 2025SOL    HW2 8419   1.700   4.504   5.542
 2025SOL    HW3 8420   1.647   4.588   5.656
 2025SOL    MW4 8421   1.653   4.571   5.569
 2026SOL     OW 8422   0.695   5.313   3.772
 2026SOL    HW2 8423   0.635   5.382   3.742
 2026SOL    HW3 8424   0.640   5.255   3.825
 2026SOL    MW4 8425   0.679   5.315   3.774
 2027SOL     OW 8426   1.133   3.958   3.995
 2027SOL    HW2 8427   1.066   3.934   3.932
 2027SOL    HW3 8428   1.198   4.007   3.944
 2027SOL    MW4 8429   1.133   3.960   3.980
 2028SOL     OW 8430   0.940   4.142   5.080
 2028SOL    HW2 8431   0.859   4.183   5.108
 2028SOL    HW3 8432   0.987   4.210   5.032
 2028SOL    MW4 8433   0.935   4.157   5.078
 2029SOL     OW 8434   1.200   4.480   4.703
 2029SOL    HW2 8435   1.213   4.574   4.713
 2029SOL    HW3 8436   1.161   4.470   4.617
 2029SOL    MW4 8437   1.196   4.491   4.693
 2030SOL     OW 8438   0.652   4.675   4.507
 2030SOL    HW2 8439   0.563   4.666   4.540
 2030SOL    HW3 8440   0.656   4.765   4.475
 2030SOL    MW4 8441   0.641   4.686   4.507
 2031SOL     OW 8442   1.451   4.258   4.502
 2031SOL    HW2 8443   1.396   4.179   4.501
 2031SOL    HW3 8444   1.433   4.299   4.586
 2031SOL    MW4 8445   1.441   4.253   4.511
 2032SOL     OW 8446   0.422   3.945   5.319
 2032SOL    HW2 8447   0.343   3.963   5.371
 2032SOL    HW3 8448   0.417   4.007   5.246
 2032SOL    MW4 8449   0.412   3.955   5.316
 2033SOL     OW 8450   1.070   4.462   4.459
 2033SOL    HW2 8451   1.007   4.394   4.483
 2033SOL    HW3 8452   1.090   4.443   4.367
 2033SOL    MW4 8453   1.064   4.449   4.451
 2034SOL     OW 8454   0.326   5.357   4.161
 2034SOL    HW2 8455   0.287   5.404   4.087
 2034SOL    HW3 8456   0.260   5.292   4.186
 2034SOL    MW4 8457   0.313   5.355   4.155
 2035SOL     OW 8458   0.818   4.766   4.185
 2035SOL    HW2 8459   0.820   4.740   4.092
 2035SOL    HW3 8460   0.876   4.703   4.228
 2035SOL    MW4 8461   0.826   4.755   4.179
 2036SOL     OW 8462   1.371   5.326   4.957
 2036SOL    HW2 8463   1.296   5.372   4.995
 2036SOL    HW3 8464   1.353   5.233   4.974
 2036SOL    MW4 8465   1.360   5.320   4.965
 2037SOL     OW 8466   1.375   5.534   4.387
 2037SOL    HW2 8467   1.318   5.487   4.326
 2037SOL    HW3 8468   1.461   5.495   4.374
 2037SOL    MW4 8469   1.378   5.525   4.377
 2038SOL     OW 8470   1.328   4.010   4.518
 2038SOL    HW2 8471   1.356   3.942   4.579
 2038SOL    HW3 8472   1.242   3.981   4.488
 2038SOL    MW4 8473   1.321   3.997   4.522
 2039SOL     OW 8474   0.133   4.944   4.452
 2039SOL    HW2 8475   0.197   4.976   4.515
 2039SOL    HW3 8476   0.182   4.880   4.400
 2039SOL    MW4 8477   0.148   4.940   4.453
 2040SOL     OW 8478   0.633   5.020   5.434
 2040SOL    HW2 8479   0.681   5.103   5.421
 2040SOL    HW3 8480   0.690   4.968   5.490
 2040SOL    MW4 8481   0.647   5.024   5.440
 2041SOL     OW 8482   0.209   5.262   5.574
 2041SOL    HW2 8483   0.265   5.186   5.589
 2041SOL    HW3 8484   0.158   5.240   5.496
 2041SOL    MW4 8485   0.209   5.249   5.565
 2042SOL     OW 8486   1.308   4.114   3.853
 2042SOL    HW2 8487   1.281   4.180   3.789
 2042SOL    HW3 8488   1.378   4.157   3.903
 2042SOL    MW4 8489   1.313   4.127   3.850
 2043SOL     OW 8490   0.976   3.819   3.790
 2043SOL    HW2 8491   1.032   3.811   3.712
 2043SOL    HW3 8492   0.953   3.729   3.812
 2043SOL    MW4 8493   0.981   3.806   3.783
 2044SOL     OW 8494   1.481   4.670   3.995
 2044SOL    HW2 8495   1.448   4.759   3.985
 2044SOL    HW3 8496   1.446   4.641   4.080
 2044SOL    MW4 8497   1.471   4.679   4.006
 2045SOL     OW 8498   1.094   5.099   5.183
 2045SOL    HW2 8499   1.005   5.105   5.151
 2045SOL    HW3 8500   1.138   5.178   5.151
 2045SOL    MW4 8501   1.089   5.109   5.175
 2046SOL     OW 8502   0.387   3.767   5.525
 2046SOL    HW2 8503   0.315   3.732   5.473
 2046SOL    HW3 8504   0.445   3.808   5.460
 2046SOL    MW4 8505   0.385   3.768   5.510
 2047SOL     OW 8506   0.411   5.257   4.824
 2047SOL    HW2 8507   0.456   5.319   4.881
 2047SOL    HW3 8508   0.318   5.276   4.837
 2047SOL    MW4 8509   0.404   5.267   4.831
 2048SOL     OW 8510   1.851   4.786   5.178
 2048SOL    HW2 8511   1.766   4.799   5.137
 2048SOL    HW3 8512   1.831   4.750   5.265
 2048SOL    MW4 8513   1.838   4.782   5.183
 2049SOL     OW 8514   0.833   5.325   4.932
 2049SOL    HW2 8515   0.857   5.314   4.841
 2049SOL    HW3 8516   0.756   5.382   4.930
 2049SOL    MW4 8517   0.825   5.330   4.921
 2050SOL     OW 8518   0.475   4.708   3.787
 2050SOL    HW2 8519   0.398   4.721   3.843
 2050SOL    HW3 8520   0.439   4.672   3.706
 2050SOL    MW4 8521   0.461   4.704   3.784
 2051SOL     OW 8522   1.128   4.681   4.030
 2051SOL    HW2 8523   1.038   4.702   4.005
 2051SOL    HW3 8524   1.155   4.754   4.086
 2051SOL    MW4 8525   1.120   4.693   4.033
 2052SOL     OW 8526   0.628   5.030   4.722
 2052SOL    HW2 8527   0.621   5.009   4.816
 2052SOL    HW3 8528   0.546   4.998   4.685
 2052SOL    MW4 8529   0.616   5.024   4.729
 2053SOL     OW 8530   1.492   4.040   5.124
 2053SOL    HW2 8531   1.439   4.042   5.204
 2053SOL    HW3 8532   1.477   3.953   5.087
 2053SOL    MW4 8533   1.484   4.030   5.129
 2054SOL     OW 8534   1.828   3.964   4.997
 2054SOL    HW2 8535   1.809   4.031   4.932
 2054SOL    HW3 8536   1.885   3.902   4.952
 2054SOL    MW4 8537   1.832   3.965   4.983
 2055SOL     OW 8538   0.074   5.122   5.385
 2055SOL    HW2 8539   0.118   5.055   5.331
 2055SOL    HW3 8540  -0.011   5.084   5.405
 2055SOL    MW4 8541   0.069   5.108   5.381
 2056SOL     OW 8542   0.757   3.797   4.437
 2056SOL    HW2 8543   0.686   3.858   4.419
 2056SOL    HW3 8544   0.808   3.794   4.356
 2056SOL    MW4 8545   0.753   3.803   4.424
 2057SOL     OW 8546   0.515   5.037   4.186
 2057SOL    HW2 8547   0.508   5.069   4.276
 2057SOL    HW3 8548   0.425   5.021   4.158
 2057SOL    MW4 8549   0.503   5.039   4.193
 2058SOL     OW 8550   1.110   5.430   5.095
 2058SOL    HW2 8551   1.030   5.415   5.045
 2058SOL    HW3 8552   1.117   5.525   5.102
 2058SOL    MW4 8553   1.101   5.441   5.089
 2059SOL     OW 8554   1.224   5.395   4.585
 2059SOL    HW2 8555   1.271   5.468   4.544
 2059SOL    HW3 8556   1.145   5.434   4.621
 2059SOL    MW4 8557   1.219   5.410   4.584
 2060SOL     OW 8558   1.632   5.490   4.860
 2060SOL    HW2 8559   1.675   5.460   4.940
 2060SOL    HW3 8560   1.551   5.438   4.857
 2060SOL    MW4 8561   1.627   5.479   4.870
 2061SOL     OW 8562   0.717   4.454   5.567
 2061SOL    HW2 8563   0.787   4.396   5.539
 2061SOL    HW3 8564   0.660   4.399   5.622
 2061SOL    MW4 8565   0.719   4.441   5.571
 2062SOL     OW 8566   1.504   4.666   5.200
 2062SOL    HW2 8567   1.509   4.719   5.280
 2062SOL    HW3 8568   1.466   4.583   5.228
 2062SOL    MW4 8569   1.500   4.661   5.215
 2063SOL     OW 8570   1.144   3.801   5.446
 2063SOL    HW2 8571   1.139   3.708   5.427
 2063SOL    HW3 8572   1.227   3.812   5.492
 2063SOL    MW4 8573   1.152   3.790   5.450
 2064SOL     OW 8574   0.518   4.321   3.900
 2064SOL    HW2 8575   0.484   4.377   3.970
 2064SOL    HW3 8576   0.589   4.271   3.940
 2064SOL    MW4 8577   0.524   4.322   3.914
 2065SOL     OW 8578   1.614   5.072   4.722
 2065SOL    HW2 8579   1.649   5.054   4.635
 2065SOL    HW3 8580   1.519   5.073   4.709
 2065SOL    MW4 8581   1.606   5.069   4.709
 2066SOL     OW 8582   1.043   4.720   5.091
 2066SOL    HW2 8583   1.086   4.755   5.169
 2066SOL    HW3 8584   1.026   4.797   5.037
 2066SOL    MW4 8585   1.046   4.735   5.094
 2067SOL     OW 8586   1.574   4.207   3.964
 2067SOL    HW2 8587   1.566   4.278   3.901
 2067SOL    HW3 8588   1.592   4.251   4.047
 2067SOL    MW4 8589   1.575   4.221   3.966
 2068SOL     OW 8590   0.434   3.862   4.393
 2068SOL    HW2 8591   0.484   3.905   4.324
 2068SOL    HW3 8592   0.349   3.906   4.393
 2068SOL    MW4 8593   0.431   3.875   4.384
 2069SOL     OW 8594   0.193   4.924   5.253
 2069SOL    HW2 8595   0.221   4.877   5.331
 2069SOL    HW3 8596   0.114   4.879   5.224
 2069SOL    MW4 8597   0.186   4.913   5.259
 2070SOL     OW 8598   0.701   4.251   5.220
 2070SOL    HW2 8599   0.673   4.339   5.244
 2070SOL    HW3 8600   0.670   4.195   5.291
 2070SOL    MW4 8601   0.693   4.254   5.232
 2071SOL     OW 8602   1.243   4.469   3.939
 2071SOL    HW2 8603   1.290   4.487   3.858
 2071SOL    HW3 8604   1.209   4.553   3.967
 2071SOL    MW4 8605   1.245   4.483   3.932
 2072SOL     OW 8606   0.356   4.647   4.433
 2072SOL    HW2 8607   0.414   4.703   4.381
 2072SOL    HW3 8608   0.400   4.562   4.435
 2072SOL    MW4 8609   0.369   4.644   4.426
 2073SOL     OW 8610   1.496   3.999   4.270
 2073SOL    HW2 8611   1.418   3.949   4.295
 2073SOL    HW3 8612   1.467   4.090   4.270
 2073SOL    MW4 8613   1.482   4.003   4.273
 2074SOL     OW 8614   1.082   3.961   4.429
 2074SOL    HW2 8615   1.102   4.036   4.373
 2074SOL    HW3 8616   1.062   4.000   4.514
 2074SOL    MW4 8617   1.083   3.977   4.433
 2075SOL     OW 8618   0.978   5.211   3.761
 2075SOL    HW2 8619   1.005   5.289   3.713
 2075SOL    HW3 8620   0.885   5.226   3.780
 2075SOL    MW4 8621   0.969   5.224   3.757
 2076SOL     OW 8622   1.842   4.734   5.448
 2076SOL    HW2 8623   1.755   4.714   5.484
 2076SOL    HW3 8624   1.896   4.660   5.473
 2076SOL    MW4 8625   1.837   4.723   5.456
 2077SOL     OW 8626   0.063   5.247   4.605
 2077SOL    HW2 8627   0.095   5.251   4.696
 2077SOL    HW3 8628  -0.032   5.255   4.613
 2077SOL    MW4 8629   0.055   5.250   4.618
 2078SOL     OW 8630   0.018   4.373   4.152
 2078SOL    HW2 8631  -0.042   4.345   4.222
 2078SOL    HW3 8632   0.092   4.313   4.158
 2078SOL    MW4 8633   0.020   4.362   4.161
 2079SOL     OW 8634   1.586   5.585   5.586
 2079SOL    HW2 8635   1.631   5.509   5.551
 2079SOL    HW3 8636   1.624   5.598   5.673
 2079SOL    MW4 8637   1.596   5.578   5.592
 2080SOL     OW 8638   1.186   5.104   4.312
 2080SOL    HW2 8639   1.209   5.055   4.390
 2080SOL    HW3 8640   1.267   5.146   4.284
 2080SOL    MW4 8641   1.199   5.104   4.319
 2081SOL     OW 8642   0.444   4.112   5.041
 2081SOL    HW2 8643   0.477   4.193   5.081
 2081SOL    HW3 8644   0.417   4.138   4.953
 2081SOL    MW4 8645   0.443   4.126   5.035
 2082SOL     OW 8646   0.398   4.079   4.777
 2082SOL    HW2 8647   0.428   3.993   4.748
 2082SOL    HW3 8648   0.303   4.072   4.780
 2082SOL    MW4 8649   0.390   4.068   4.775
 2083SOL     OW 8650   1.227   4.288   5.468
 2083SOL    HW2 8651   1.279   4.223   5.421
 2083SOL    HW3 8652   1.185   4.339   5.398
 2083SOL    MW4 8653   1.228   4.285   5.451
 2084SOL     OW 8654   1.326   4.083   5.329
 2084SOL    HW2 8655   1.233   4.067   5.316
 2084SOL    HW3 8656   1.352   4.021   5.397
 2084SOL    MW4 8657   1.316   4.073   5.336
 2085SOL     OW 8658   0.541   3.857   4.668
 2085SOL    HW2 8659   0.551   3.766   4.694
 2085SOL    HW3 8660   0.497   3.853   4.583
 2085SOL    MW4 8661   0.537   3.845   4.660
 2086SOL     OW 8662   0.635   5.472   5.214
 2086SOL    HW2 8663   0.552   5.457   5.259
 2086SOL    HW3 8664   0.694   5.405   5.249
 2086SOL    MW4 8665   0.633   5.462   5.224
 2087SOL     OW 8666   1.692   4.179   4.839
 2087SOL    HW2 8667   1.625   4.212   4.899
 2087SOL    HW3 8668   1.735   4.257   4.805
 2087SOL    MW4 8669   1.690   4.194   4.843
 2088SOL     OW 8670   1.870   4.899   4.809
 2088SOL    HW2 8671   1.863   4.839   4.734
 2088SOL    HW3 8672   1.796   4.959   4.798
 2088SOL    MW4 8673   1.860   4.899   4.798
 2089SOL     OW 8674   1.252   4.761   4.727
 2089SOL    HW2 8675   1.266   4.733   4.818
 2089SOL    HW3 8676   1.338   4.792   4.699
 2089SOL    MW4 8677   1.265   4.762   4.736
 2090SOL     OW 8678   1.335   4.256   5.006
 2090SOL    HW2 8679   1.356   4.257   4.913
 2090SOL    HW3 8680   1.380   4.178   5.039
 2090SOL    MW4 8681   1.342   4.246   4.998
 2091SOL     OW 8682   1.828   4.387   5.548
 2091SOL    HW2 8683   1.865   4.332   5.617
 2091SOL    HW3 8684   1.853   4.344   5.466
 2091SOL    MW4 8685   1.835   4.375   5.547
 2092SOL     OW 8686   1.375   4.685   5.600
 2092SOL    HW2 8687   1.441   4.633   5.554
 2092SOL    HW3 8688   1.395   4.672   5.693
 2092SOL    MW4 8689   1.386   4.676   5.607
 2093SOL     OW 8690   1.326   3.771   3.948
 2093SOL    HW2 8691   1.400   3.815   3.991
 2093SOL    HW3 8692   1.250   3.825   3.970
 2093SOL    MW4 8693   1.326   3.783   3.956
 2094SOL     OW 8694   1.386   4.546   4.226
 2094SOL    HW2 8695   1.301   4.516   4.196
 2094SOL    HW3 8696   1.378   4.553   4.321
 2094SOL    MW4 8697   1.374   4.544   4.235
 2095SOL     OW 8698   0.462   5.009   4.957
 2095SOL    HW2 8699   0.474   5.036   5.048
 2095SOL    HW3 8700   0.443   5.090   4.910
 2095SOL    MW4 8701   0.461   5.024   4.962
 2096SOL     OW 8702   0.746   3.989   4.780
 2096SOL    HW2 8703   0.719   3.991   4.871
 2096SOL    HW3 8704   0.676   3.941   4.735
 2096SOL    MW4 8705   0.734   3.985   4.787
 2097SOL     OW 8706   0.600   5.481   4.942
 2097SOL    HW2 8707   0.652   5.558   4.919
 2097SOL    HW3 8708   0.609   5.473   5.037
 2097SOL    MW4 8709   0.609   5.488   4.953
 2098SOL     OW 8710   1.502   5.066   5.174
 2098SOL    HW2 8711   1.487   4.995   5.237
 2098SOL    HW3 8712   1.548   5.024   5.102
 2098SOL    MW4 8713   1.508   5.050   5.174
 2099SOL     OW 8714   0.576   4.797   5.291
 2099SOL    HW2 8715   0.613   4.802   5.203
 2099SOL    HW3 8716   0.615   4.870   5.338
 2099SOL    MW4 8717   0.586   4.807   5.286
 2100SOL     OW 8718   0.756   4.840   5.103
 2100SOL    HW2 8719   0.815   4.786   5.156
 2100SOL    HW3 8720   0.771   4.812   5.013
 2100SOL    MW4 8721   0.766   4.829   5.099
 2101SOL     OW 8722   0.759   4.212   3.952
 2101SOL    HW2 8723   0.832   4.261   3.915
 2101SOL    HW3 8724   0.775   4.121   3.926
 2101SOL    MW4 8725   0.771   4.207   3.945
 2102SOL     OW 8726   1.567   5.329   5.275
 2102SOL    HW2 8727   1.609   5.314   5.360
 2102SOL    HW3 8728   1.558   5.242   5.237
 2102SOL    MW4 8729   1.571   5.317   5.282
 2103SOL     OW 8730   1.227   3.808   4.866
 2103SOL    HW2 8731   1.282   3.817   4.788
 2103SOL    HW3 8732   1.282   3.842   4.937
 2103SOL    MW4 8733   1.241   3.813   4.865
 2104SOL     OW 8734   0.234   4.721   4.050
 2104SOL    HW2 8735   0.171   4.737   3.979
 2104SOL    HW3 8736   0.181   4.684   4.121
 2104SOL    MW4 8737   0.219   4.718   4.050
 2105SOL     OW 8738   0.590   5.075   3.909
 2105SOL    HW2 8739   0.605   5.051   4.001
 2105SOL    HW3 8740   0.498   5.053   3.893
 2105SOL    MW4 8741   0.580   5.068   3.919
 2106SOL     OW 8742   1.129   5.306   4.061
 2106SOL    HW2 8743   1.137   5.224   4.012
 2106SOL    HW3 8744   1.048   5.345   4.028
 2106SOL    MW4 8745   1.119   5.301   4.051
 2107SOL     OW 8746   0.388   5.464   4.630
 2107SOL    HW2 8747   0.392   5.375   4.665
 2107SOL    HW3 8748   0.414   5.455   4.539
 2107SOL    MW4 8749   0.391   5.452   4.622
 2108SOL     OW 8750   1.005   4.942   4.873
 2108SOL    HW2 8751   0.937   4.876   4.889
 2108SOL    HW3 8752   1.023   4.936   4.780
 2108SOL    MW4 8753   0.998   4.933   4.864
 2109SOL     OW 8754   0.094   5.217   5.124
 2109SOL    HW2 8755   0.084   5.175   5.210
 2109SOL    HW3 8756   0.015   5.270   5.114
 2109SOL    MW4 8757   0.083   5.218   5.135
 2110SOL     OW 8758   0.649   4.517   5.314
 2110SOL    HW2 8759   0.642   4.612   5.302
 2110SOL    HW3 8760   0.658   4.506   5.409
 2110SOL    MW4 8761   0.650   4.529   5.324
 2111SOL     OW 8762   0.370   5.032   5.572
 2111SOL    HW2 8763   0.442   5.034   5.509
 2111SOL    HW3 8764   0.340   4.941   5.571
 2111SOL    MW4 8765   0.375   5.021   5.564
 2112SOL     OW 8766   1.454   3.795   5.039
 2112SOL    HW2 8767   1.525   3.741   5.003
 2112SOL    HW3 8768   1.453   3.774   5.132
 2112SOL    MW4 8769   1.463   3.786   5.047
 2113SOL     OW 8770   1.654   5.325   5.523
 2113SOL    HW2 8771   1.627   5.322   5.614
 2113SOL    HW3 8772   1.750   5.329   5.526
 2113SOL    MW4 8773   1.664   5.325   5.535
 2114SOL     OW 8774   0.465   4.187   4.507
 2114SOL    HW2 8775   0.536   4.135   4.470
 2114SOL    HW3 8776   0.451   4.152   4.594
 2114SOL    MW4 8777   0.473   4.176   4.514
 2115SOL     OW 8778   0.020   5.522   5.579
 2115SOL    HW2 8779   0.070   5.500   5.501
 2115SOL    HW3 8780   0.028   5.617   5.587
 2115SOL    MW4 8781   0.028   5.531   5.570
 2116SOL     OW 8782   0.781   5.280   4.583
 2116SOL    HW2 8783   0.709   5.217   4.596
 2116SOL    HW3 8784   0.742   5.365   4.601
 2116SOL    MW4 8785   0.765   5.283   4.586
 2117SOL     OW 8786   1.101   4.128   4.231
 2117SOL    HW2 8787   1.123   4.065   4.163
 2117SOL    HW3 8788   1.006   4.120   4.242
 2117SOL    MW4 8789   1.091   4.119   4.223
 2118SOL     OW 8790   0.186   3.818   4.163
 2118SOL    HW2 8791   0.257   3.839   4.102
 2118SOL    HW3 8792   0.140   3.746   4.121
 2118SOL    MW4 8793   0.190   3.812   4.149
 2119SOL     OW 8794   0.017   4.285   5.306
 2119SOL    HW2 8795   0.081   4.351   5.281
 2119SOL    HW3 8796  -0.064   4.312   5.263
 2119SOL    MW4 8797   0.015   4.297   5.298
 2120SOL     OW 8798   1.755   5.192   4.263
 2120SOL    HW2 8799   1.725   5.125   4.324
 2120SOL    HW3 8800   1.849   5.198   4.277
 2120SOL    MW4 8801   1.763   5.184   4.273
 2121SOL     OW 8802   1.311   4.869   4.193
 2121SOL    HW2 8803   1.283   4.955   4.226
 2121SOL    HW3 8804   1.339   4.885   4.103
 2121SOL    MW4 8805   1.311   4.883   4.185
 2122SOL     OW 8806   0.973   3.789   4.246
 2122SOL    HW2 8807   1.010   3.848   4.311
 2122SOL    HW3 8808   0.950   3.845   4.172
 2122SOL    MW4 8809   0.974   3.804   4.245
 2123SOL     OW 8810   1.826   4.671   4.668
 2123SOL    HW2 8811   1.817   4.703   4.579
 2123SOL    HW3 8812   1.779   4.587   4.668
 2123SOL    MW4 8813   1.819   4.664   4.658
 2124SOL     OW 8814   0.202   4.511   5.247
 2124SOL    HW2 8815   0.223   4.580   5.185
 2124SOL    HW3 8816   0.282   4.458   5.252
 2124SOL    MW4 8817   0.215   4.512   5.241
 2125SOL     OW 8818   1.738   4.602   4.369
 2125SOL    HW2 8819   1.832   4.591   4.357
 2125SOL    HW3 8820   1.714   4.674   4.310
 2125SOL    MW4 8821   1.748   4.610   4.360
 2126SOL     OW 8822   0.187   4.526   5.514
 2126SOL    HW2 8823   0.113   4.470   5.540
 2126SOL    HW3 8824   0.182   4.529   5.419
 2126SOL    MW4 8825   0.176   4.519   5.504
 2127SOL     OW 8826   0.353   3.813   4.964
 2127SOL    HW2 8827   0.396   3.897   4.984
 2127SOL    HW3 8828   0.426   3.751   4.957
 2127SOL    MW4 8829   0.368   3.816   4.965
 2128SOL     OW 8830   0.394   4.480   4.142
 2128SOL    HW2 8831   0.394   4.575   4.127
 2128SOL    HW3 8832   0.471   4.464   4.196
 2128SOL    MW4 8833   0.404   4.491   4.147
 2129SOL     OW 8834   1.170   4.339   5.206
 2129SOL    HW2 8835   1.206   4.312   5.122
 2129SOL    HW3 8836   1.083   4.373   5.185
 2129SOL    MW4 8837   1.164   4.340   5.193
 2130SOL     OW 8838   0.153   4.211   4.431
 2130SOL    HW2 8839   0.215   4.218   4.504
 2130SOL    HW3 8840   0.153   4.118   4.408
 2130SOL    MW4 8841   0.161   4.200   4.438
 2131SOL     OW 8842   1.700   5.551   3.963
 2131SOL    HW2 8843   1.767   5.584   3.903
 2131SOL    HW3 8844   1.657   5.630   3.997
 2131SOL    MW4 8845   1.702   5.566   3.959
 2132SOL     OW 8846   0.835   4.472   4.915
 2132SOL    HW2 8847   0.793   4.390   4.891
 2132SOL    HW3 8848   0.836   4.471   5.011
 2132SOL    MW4 8849   0.828   4.461   4.924
 2133SOL     OW 8850   1.506   5.605   5.314
 2133SOL    HW2 8851   1.509   5.511   5.297
 2133SOL    HW3 8852   1.529   5.613   5.406
 2133SOL    MW4 8853   1.509   5.593   5.324
 2134SOL     OW 8854   0.639   3.942   5.020
 2134SOL    HW2 8855   0.570   4.005   5.041
 2134SOL    HW3 8856   0.666   3.906   5.105
 2134SOL    MW4 8857   0.633   3.945   5.033
 2135SOL     OW 8858   0.022   4.783   3.889
 2135SOL    HW2 8859  -0.009   4.848   3.952
 2135SOL    HW3 8860  -0.029   4.705   3.908
 2135SOL    MW4 8861   0.012   4.780   3.899
 2136SOL     OW 8862   1.434   3.795   4.637
 2136SOL    HW2 8863   1.522   3.804   4.674
 2136SOL    HW3 8864   1.444   3.736   4.563
 2136SOL    MW4 8865   1.448   3.789   4.631
 2137SOL     OW 8866   1.466   4.534   4.481
 2137SOL    HW2 8867   1.546   4.549   4.430
 2137SOL    HW3 8868   1.459   4.439   4.487
 2137SOL    MW4 8869   1.475   4.523   4.476
 2138SOL     OW 8870   0.606   5.583   3.831
 2138SOL    HW2 8871   0.511   5.583   3.823
 2138SOL    HW3 8872   0.622   5.529   3.909
 2138SOL    MW4 8873   0.596   5.577   3.840
 2139SOL     OW 8874   0.916   4.460   5.178
 2139SOL    HW2 8875   0.985   4.527   5.175
 2139SOL    HW3 8876   0.849   4.498   5.234
 2139SOL    MW4 8877   0.917   4.473   5.185
 2140SOL     OW 8878   0.334   4.760   5.426
 2140SOL    HW2 8879   0.288   4.676   5.428
 2140SOL    HW3 8880   0.391   4.754   5.350
 2140SOL    MW4 8881   0.336   4.748   5.418
 2141SOL     OW 8882   1.451   4.403   3.747
 2141SOL    HW2 8883   1.379   4.379   3.689
 2141SOL    HW3 8884   1.517   4.440   3.689
 2141SOL    MW4 8885   1.450   4.405   3.732
 2142SOL     OW 8886   0.585   5.135   4.427
 2142SOL    HW2 8887   0.650   5.068   4.448
 2142SOL    HW3 8888   0.637   5.212   4.404
 2142SOL    MW4 8889   0.600   5.137   4.426
 2143SOL     OW 8890   0.846   4.300   4.557
 2143SOL    HW2 8891   0.786   4.318   4.629
 2143SOL    HW3 8892   0.880   4.212   4.576
 2143SOL    MW4 8893   0.842   4.290   4.570
 2144SOL     OW 8894   1.787   3.799   5.226
 2144SOL    HW2 8895   1.708   3.845   5.254
 2144SOL    HW3 8896   1.822   3.853   5.155
 2144SOL    MW4 8897   1.781   3.812   5.220
 2145SOL     OW 8898   1.071   4.883   4.576
 2145SOL    HW2 8899   1.163   4.864   4.594
 2145SOL    HW3 8900   1.044   4.813   4.516
 2145SOL    MW4 8901   1.079   4.871   4.570
 2146SOL     OW 8902   0.864   4.703   3.931
 2146SOL    HW2 8903   0.850   4.615   3.896
 2146SOL    HW3 8904   0.815   4.760   3.872
 2146SOL    MW4 8905   0.856   4.698   3.919
 2147SOL     OW 8906   1.345   5.121   4.672
 2147SOL    HW2 8907   1.318   5.205   4.637
 2147SOL    HW3 8908   1.305   5.116   4.759
 2147SOL    MW4 8909   1.338   5.130   4.678
 2148SOL     OW 8910   1.264   5.069   4.940
 2148SOL    HW2 8911   1.275   5.036   5.029
 2148SOL    HW3 8912   1.183   5.028   4.909
 2148SOL    MW4 8913   1.254   5.061   4.946
 2149SOL     OW 8914   0.277   4.427   4.710
 2149SOL    HW2 8915   0.227   4.426   4.791
 2149SOL    HW3 8916   0.297   4.519   4.694
 2149SOL    MW4 8917   0.273   4.439   4.718
 2150SOL     OW 8918   1.344   5.191   5.472
 2150SOL    HW2 8919   1.344   5.285   5.488
 2150SOL    HW3 8920   1.389   5.181   5.388
 2150SOL    MW4 8921   1.350   5.201   5.463
 2151SOL     OW 8922   1.583   3.909   4.033
 2151SOL    HW2 8923   1.576   3.913   4.128
 2151SOL    HW3 8924   1.595   4.000   4.006
 2151SOL    MW4 8925   1.584   3.922   4.041
 2152SOL     OW 8926   0.872   4.472   4.147
 2152SOL    HW2 8927   0.852   4.458   4.054
 2152SOL    HW3 8928   0.965   4.451   4.154
 2152SOL    MW4 8929   0.882   4.467   4.136
 2153SOL     OW 8930   0.199   4.095   5.451
 2153SOL    HW2 8931   0.156   4.154   5.388
 2153SOL    HW3 8932   0.267   4.150   5.491
 2153SOL    MW4 8933   0.203   4.110   5.448
 2154SOL     OW 8934   1.311   4.715   4.996
 2154SOL    HW2 8935   1.374   4.712   5.069
 2154SOL    HW3 8936   1.227   4.733   5.038
 2154SOL    MW4 8937   1.307   4.717   5.011
 2155SOL     OW 8938   0.855   5.430   4.185
 2155SOL    HW2 8939   0.913   5.501   4.212
 2155SOL    HW3 8940   0.878   5.358   4.243
 2155SOL    MW4 8941   0.866   5.430   4.196
 2156SOL     OW 8942   1.650   3.892   4.775
 2156SOL    HW2 8943   1.695   3.810   4.794
 2156SOL    HW3 8944   1.670   3.948   4.851
 2156SOL    MW4 8945   1.660   3.888   4.787
 2157SOL     OW 8946   0.098   3.735   4.874
 2157SOL    HW2 8947   0.089   3.736   4.779
 2157SOL    HW3 8948   0.192   3.747   4.889
 2157SOL    MW4 8949   0.110   3.738   4.865
 2158SOL     OW 8950   1.735   4.928   4.494
 2158SOL    HW2 8951   1.714   4.874   4.417
 2158SOL    HW3 8952   1.831   4.926   4.498
 2158SOL    MW4 8953   1.744   4.921   4.483
 2159SOL     OW 8954   0.427   5.073   5.237
 2159SOL    HW2 8955   0.348   5.023   5.260
 2159SOL    HW3 8956   0.497   5.032   5.287
 2159SOL    MW4 8957   0.425   5.061   5.247
 2160SOL     OW 8958   0.311   3.862   3.920
 2160SOL    HW2 8959   0.240   3.917   3.888
 2160SOL    HW3 8960   0.353   3.828   3.841
 2160SOL    MW4 8961   0.307   3.864   3.906
 2161SOL     OW 8962   1.435   4.359   4.756
 2161SOL    HW2 8963   1.358   4.405   4.722
 2161SOL    HW3 8964   1.492   4.428   4.790
 2161SOL    MW4 8965   1.432   4.374   4.756
 2162SOL     OW 8966   0.067   3.961   3.769
 2162SOL    HW2 8967   0.034   4.040   3.813
 2162SOL    HW3 8968   0.122   3.994   3.698
 2162SOL    MW4 8969   0.070   3.975   3.766
 2163SOL     OW 8970   0.101   5.218   3.958
 2163SOL    HW2 8971   0.118   5.302   4.000
 2163SOL    HW3 8972   0.136   5.227   3.870
 2163SOL    MW4 8973   0.106   5.231   3.952
 2164SOL     OW 8974   1.373   5.307   4.175
 2164SOL    HW2 8975   1.436   5.297   4.104
 2164SOL    HW3 8976   1.290   5.327   4.130
 2164SOL    MW4 8977   1.370   5.308   4.160
 2165SOL     OW 8978   1.736   4.575   5.862
 2165SOL    HW2 8979   1.777   4.517   5.927
 2165SOL    HW3 8980   1.643   4.567   5.879
 2165SOL    MW4 8981   1.730   4.567   5.872
 2166SOL     OW 8982   0.530   4.758   6.091
 2166SOL    HW2 8983   0.620   4.733   6.075
 2166SOL    HW3 8984   0.526   4.851   6.068
 2166SOL    MW4 8985   0.542   4.767   6.086
 2167SOL     OW 8986   1.646   5.461   6.233
 2167SOL    HW2 8987   1.658   5.407   6.311
 2167SOL    HW3 8988   1.683   5.409   6.162
 2167SOL    MW4 8989   1.652   5.446   6.234
 2168SOL     OW 8990   0.814   4.214   6.104
 2168SOL    HW2 8991   0.789   4.302   6.132
 2168SOL    HW3 8992   0.811   4.217   6.008
 2168SOL    MW4 8993   0.810   4.226   6.096
 2169SOL     OW 8994   0.256   4.242   6.032
 2169SOL    HW2 8995   0.288   4.330   6.014
 2169SOL    HW3 8996   0.244   4.240   6.127
 2169SOL    MW4 8997   0.259   4.254   6.044
 2170SOL     OW 8998   0.655   3.997   6.119
 2170SOL    HW2 8999   0.713   4.073   6.121
 2170SOL    HW3 9000   0.590   4.018   6.052
 2170SOL    MW4 9001   0.654   4.009   6.110
 2171SOL     OW 9002   0.742   4.924   6.294
 2171SOL    HW2 9003   0.822   4.927   6.346
 2171SOL    HW3 9004   0.770   4.891   6.208
 2171SOL    MW4 9005   0.756   4.920   6.289
 2172SOL     OW 9006   0.519   4.428   6.285
 2172SOL    HW2 9007   0.504   4.348   6.336
 2172SOL    HW3 9008   0.601   4.463   6.319
 2172SOL    MW4 9009   0.527   4.420   6.297
 2173SOL     OW 9010   0.104   5.514   6.441
 2173SOL    HW2 9011   0.193   5.506   6.476
 2173SOL    HW3 9012   0.068   5.426   6.446
 2173SOL    MW4 9013   0.111   5.501   6.446
 2174SOL     OW 9014   1.369   4.906   5.810
 2174SOL    HW2 9015   1.287   4.942   5.776
 2174SOL    HW3 9016   1.437   4.949   5.759
 2174SOL    MW4 9017   1.367   4.916   5.798
 2175SOL     OW 9018   0.368   5.041   6.476
 2175SOL    HW2 9019   0.344   5.094   6.552
 2175SOL    HW3 9020   0.424   5.099   6.424
 2175SOL    MW4 9021   0.372   5.056   6.479
 2176SOL     OW 9022   0.930   4.685   6.286
 2176SOL    HW2 9023   0.844   4.672   6.326
 2176SOL    HW3 9024   0.983   4.612   6.318
 2176SOL    MW4 9025   0.926   4.674   6.295
 2177SOL     OW 9026   0.921   5.047   6.003
 2177SOL    HW2 9027   0.898   5.109   6.071
 2177SOL    HW3 9028   0.878   4.965   6.029
 2177SOL    MW4 9029   0.913   5.043   6.014
 2178SOL     OW 9030   1.794   4.048   6.459
 2178SOL    HW2 9031   1.731   4.028   6.528
 2178SOL    HW3 9032   1.784   3.977   6.396
 2178SOL    MW4 9033   1.784   4.035   6.460
 2179SOL     OW 9034   0.418   4.020   5.971
 2179SOL    HW2 9035   0.392   3.982   5.887
 2179SOL    HW3 9036   0.355   4.090   5.987
 2179SOL    MW4 9037   0.407   4.023   5.962
 2180SOL     OW 9038   0.253   4.981   6.008
 2180SOL    HW2 9039   0.201   5.049   5.964
 2180SOL    HW3 9040   0.250   4.907   5.948
 2180SOL    MW4 9041   0.245   4.980   5.995
 2181SOL     OW 9042   0.915   5.444   5.786
 2181SOL    HW2 9043   0.870   5.460   5.869
 2181SOL    HW3 9044   0.846   5.409   5.728
 2181SOL    MW4 9045   0.901   5.441   5.788
 2182SOL     OW 9046   1.850   4.217   5.761
 2182SOL    HW2 9047   1.759   4.219   5.789
 2182SOL    HW3 9048   1.895   4.279   5.819
 2182SOL    MW4 9049   1.843   4.225   5.771
 2183SOL     OW 9050   1.595   4.820   6.111
 2183SOL    HW2 9051   1.505   4.820   6.146
 2183SOL    HW3 9052   1.588   4.866   6.028
 2183SOL    MW4 9053   1.582   4.826   6.105
 2184SOL     OW 9054   1.502   4.798   6.503
 2184SOL    HW2 9055   1.505   4.732   6.434
 2184SOL    HW3 9056   1.587   4.841   6.499
 2184SOL    MW4 9057   1.514   4.794   6.494
 2185SOL     OW 9058   1.122   4.401   6.072
 2185SOL    HW2 9059   1.148   4.425   5.983
 2185SOL    HW3 9060   1.104   4.308   6.068
 2185SOL    MW4 9061   1.124   4.393   6.059
 2186SOL     OW 9062   1.787   5.021   5.923
 2186SOL    HW2 9063   1.743   5.062   5.998
 2186SOL    HW3 9064   1.844   5.089   5.888
 2186SOL    MW4 9065   1.789   5.035   5.928
 2187SOL     OW 9066   0.443   5.437   6.241
 2187SOL    HW2 9067   0.475   5.525   6.219
 2187SOL    HW3 9068   0.396   5.409   6.163
 2187SOL    MW4 9069   0.442   5.445   6.228
 2188SOL     OW 9070   1.827   3.799   6.290
 2188SOL    HW2 9071   1.881   3.750   6.352
 2188SOL    HW3 9072   1.770   3.733   6.251
 2188SOL    MW4 9073   1.827   3.783   6.292
 2189SOL     OW 9074   0.159   5.497   5.818
 2189SOL    HW2 9075   0.188   5.587   5.810
 2189SOL    HW3 9076   0.109   5.480   5.739
 2189SOL    MW4 9077   0.157   5.505   5.807
 2190SOL     OW 9078   1.563   5.305   5.789
 2190SOL    HW2 9079   1.611   5.374   5.835
 2190SOL    HW3 9080   1.484   5.349   5.758
 2190SOL    MW4 9081   1.558   5.319   5.792
 2191SOL     OW 9082   0.961   4.430   5.733
 2191SOL    HW2 9083   0.963   4.377   5.654
 2191SOL    HW3 9084   1.049   4.467   5.739
 2191SOL    MW4 9085   0.973   4.429   5.722
 2192SOL     OW 9086   1.575   4.356   6.069
 2192SOL    HW2 9087   1.614   4.356   6.156
 2192SOL    HW3 9088   1.516   4.432   6.069
 2192SOL    MW4 9089   1.572   4.367   6.080
 2193SOL     OW 9090   1.762   4.242   6.235
 2193SOL    HW2 9091   1.851   4.211   6.252
 2193SOL    HW3 9092   1.705   4.182   6.283
 2193SOL    MW4 9093   1.765   4.230   6.244
 2194SOL     OW 9094   0.188   3.956   6.264
 2194SOL    HW2 9095   0.179   3.896   6.190
 2194SOL    HW3 9096   0.121   3.927   6.327
 2194SOL    MW4 9097   0.178   3.943   6.262
 2195SOL     OW 9098   1.131   5.049   5.825
 2195SOL    HW2 9099   1.081   5.051   5.907
 2195SOL    HW3 9100   1.065   5.067   5.757
 2195SOL    MW4 9101   1.117   5.051   5.827
 2196SOL     OW 9102   0.594   5.467   5.933
 2196SOL    HW2 9103   0.515   5.425   5.966
 2196SOL    HW3 9104   0.660   5.450   6.000
 2196SOL    MW4 9105   0.593   5.459   5.946
 2197SOL     OW 9106   0.730   4.882   5.640
 2197SOL    HW2 9107   0.652   4.828   5.627
 2197SOL    HW3 9108   0.701   4.955   5.693
 2197SOL    MW4 9109   0.716   4.884   5.645
 2198SOL     OW 9110   1.311   5.398   5.708
 2198SOL    HW2 9111   1.237   5.361   5.758
 2198SOL    HW3 9112   1.319   5.488   5.741
 2198SOL    MW4 9113   1.302   5.405   5.720
 2199SOL     OW 9114   1.535   5.072   5.650
 2199SOL    HW2 9115   1.482   5.121   5.586
 2199SOL    HW3 9116   1.566   5.138   5.711
 2199SOL    MW4 9117   1.533   5.086   5.648
 2200SOL     OW 9118   0.760   3.961   5.705
 2200SOL    HW2 9119   0.708   3.881   5.693
 2200SOL    HW3 9120   0.847   3.938   5.673
 2200SOL    MW4 9121   0.763   3.947   5.699
 2201SOL     OW 9122   0.121   4.601   6.162
 2201SOL    HW2 9123   0.212   4.616   6.189
 2201SOL    HW3 9124   0.124   4.522   6.108
 2201SOL    MW4 9125   0.133   4.593   6.160
 2202SOL     OW 9126   0.748   5.533   6.536
 2202SOL    HW2 9127   0.837   5.548   6.566
 2202SOL    HW3 9128   0.743   5.580   6.452
 2202SOL    MW4 9129   0.758   5.541   6.529
 2203SOL     OW 9130   0.129   5.213   6.201
 2203SOL    HW2 9131   0.101   5.252   6.283
 2203SOL    HW3 9132   0.149   5.122   6.223
 2203SOL    MW4 9133   0.127   5.205   6.214
 2204SOL     OW 9134   0.962   5.256   6.236
 2204SOL    HW2 9135   1.045   5.210   6.220
 2204SOL    HW3 9136   0.952   5.255   6.332
 2204SOL    MW4 9137   0.972   5.249   6.246
 2205SOL     OW 9138   0.695   5.313   5.641
 2205SOL    HW2 9139   0.635   5.382   5.611
 2205SOL    HW3 9140   0.640   5.255   5.694
 2205SOL    MW4 9141   0.679   5.315   5.643
 2206SOL     OW 9142   1.133   3.958   5.864
 2206SOL    HW2 9143   1.066   3.934   5.801
 2206SOL    HW3 9144   1.198   4.007   5.813
 2206SOL    MW4 9145   1.133   3.960   5.849
 2207SOL     OW 9146   0.652   4.675   6.376
 2207SOL    HW2 9147   0.563   4.666   6.409
 2207SOL    HW3 9148   0.656   4.765   6.344
 2207SOL    MW4 9149   0.641   4.686   6.376
 2208SOL     OW 9150   1.451   4.258   6.371
 2208SOL    HW2 9151   1.396   4.179   6.370
 2208SOL    HW3 9152   1.433   4.299   6.455
 2208SOL    MW4 9153   1.441   4.253   6.380
 2209SOL     OW 9154   1.070   4.462   6.328
 2209SOL    HW2 9155   1.007   4.394   6.352
 2209SOL    HW3 9156   1.090   4.443   6.236
 2209SOL    MW4 9157   1.064   4.449   6.320
 2210SOL     OW 9158   0.326   5.357   6.030
 2210SOL    HW2 9159   0.287   5.404   5.956
 2210SOL    HW3 9160   0.260   5.292   6.055
 2210SOL    MW4 9161   0.313   5.355   6.024
 2211SOL     OW 9162   0.818   4.766   6.054
 2211SOL    HW2 9163   0.820   4.740   5.961
 2211SOL    HW3 9164   0.876   4.703   6.097
 2211SOL    MW4 9165   0.826   4.755   6.048
 2212SOL     OW 9166   1.375   5.534   6.256
 2212SOL    HW2 9167   1.318   5.487   6.195
 2212SOL    HW3 9168   1.461   5.495   6.243
 2212SOL    MW4 9169   1.378   5.525   6.246
 2213SOL     OW 9170   1.328   4.010   6.387
 2213SOL    HW2 9171   1.356   3.942   6.448
 2213SOL    HW3 9172   1.242   3.981   6.357
 2213SOL    MW4 9173   1.321   3.997   6.391
 2214SOL     OW 9174   0.133   4.944   6.321
 2214SOL    HW2 9175   0.197   4.976   6.384
 2214SOL    HW3 9176   0.182   4.880   6.269
 2214SOL    MW4 9177   0.148   4.940   6.322
 2215SOL     OW 9178   1.308   4.114   5.722
 2215SOL    HW2 9179   1.281   4.180   5.658
 2215SOL    HW3 9180   1.378   4.157   5.772
 2215SOL    MW4 9181   1.313   4.127   5.719
 2216SOL     OW 9182   0.976   3.819   5.659
 2216SOL    HW2 9183   1.032   3.811   5.581
 2216SOL    HW3 9184   0.953   3.729   5.681
 2216SOL    MW4 9185   0.981   3.806   5.652
 2217SOL     OW 9186   1.481   4.670   5.864
 2217SOL    HW2 9187   1.448   4.759   5.854
 2217SOL    HW3 9188   1.446   4.641   5.949
 2217SOL    MW4 9189   1.471   4.679   5.875
 2218SOL     OW 9190   0.475   4.708   5.656
 2218SOL    HW2 9191   0.398   4.721   5.712
 2218SOL    HW3 9192   0.439   4.672   5.575
 2218SOL    MW4 9193   0.461   4.704   5.653
 2219SOL     OW 9194   1.128   4.681   5.899
 2219SOL    HW2 9195   1.038   4.702   5.874
 2219SOL    HW3 9196   1.155   4.754   5.955
 2219SOL    MW4 9197   1.120   4.693   5.902
 2220SOL     OW 9198   0.757   3.797   6.306
 2220SOL    HW2 9199   0.686   3.858   6.288
 2220SOL    HW3 9200   0.808   3.794   6.225
 2220SOL    MW4 9201   0.753   3.803   6.293
 2221SOL     OW 9202   0.515   5.037   6.055
 2221SOL    HW2 9203   0.508   5.069   6.145
 2221SOL    HW3 9204   0.425   5.021   6.027
 2221SOL    MW4 9205   0.503   5.039   6.062
 2222SOL     OW 9206   1.224   5.395   6.454
 2222SOL    HW2 9207   1.271   5.468   6.413
 2222SOL    HW3 9208   1.145   5.434   6.490
 2222SOL    MW4 9209   1.219   5.410   6.453
 2223SOL     OW 9210   0.518   4.321   5.769
 2223SOL    HW2 9211   0.484   4.377   5.839
 2223SOL    HW3 9212   0.589   4.271   5.809
 2223SOL    MW4 9213   0.524   4.322   5.783
 2224SOL     OW 9214   1.574   4.207   5.833
 2224SOL    HW2 9215   1.566   4.278   5.770
 2224SOL    HW3 9216   1.592   4.251   5.916
 2224SOL    MW4 9217   1.575   4.221   5.835
 2225SOL     OW 9218   0.434   3.862   6.262
 2225SOL    HW2 9219   0.484   3.905   6.193
 2225SOL    HW3 9220   0.349   3.906   6.262
 2225SOL    MW4 9221   0.431   3.875   6.253
 2226SOL     OW 9222   1.243   4.469   5.808
 2226SOL    HW2 9223   1.290   4.487   5.727
 2226SOL    HW3 9224   1.209   4.553   5.836
 2226SOL    MW4 9225   1.245   4.483   5.801
 2227SOL     OW 9226   0.356   4.647   6.302
 2227SOL    HW2 9227   0.414   4.703   6.250
 2227SOL    HW3 9228   0.400   4.562   6.304
 2227SOL    MW4 9229   0.369   4.644   6.295
 2228SOL     OW 9230   1.496   3.999   6.139
 2228SOL    HW2 9231   1.418   3.949   6.164
 2228SOL    HW3 9232   1.467   4.090   6.139
 2228SOL    MW4 9233   1.482   4.003   6.142
 2229SOL     OW 9234   1.082   3.961   6.298
 2229SOL    HW2 9235   1.102   4.036   6.242
 2229SOL    HW3 9236   1.062   4.000   6.383
 2229SOL    MW4 9237   1.083   3.977   6.302
 2230SOL     OW 9238   0.978   5.211   5.630
 2230SOL    HW2 9239   1.005   5.289   5.582
 2230SOL    HW3 9240   0.885   5.226   5.649
 2230SOL    MW4 9241   0.969   5.224   5.626
 2231SOL     OW 9242   0.018   4.373   6.021
 2231SOL    HW2 9243  -0.042   4.345   6.091
 2231SOL    HW3 9244   0.092   4.313   6.027
 2231SOL    MW4 9245   0.020   4.362   6.030
 2232SOL     OW 9246   1.186   5.104   6.181
 2232SOL    HW2 9247   1.209   5.055   6.259
 2232SOL    HW3 9248   1.267   5.146   6.153
 2232SOL    MW4 9249   1.199   5.104   6.188
 2233SOL     OW 9250   0.541   3.857   6.537
 2233SOL    HW2 9251   0.551   3.766   6.563
 2233SOL    HW3 9252   0.497   3.853   6.452
 2233SOL    MW4 9253   0.537   3.845   6.529
 2234SOL     OW 9254   1.326   3.771   5.817
 2234SOL    HW2 9255   1.400   3.815   5.860
 2234SOL    HW3 9256   1.250   3.825   5.839
 2234SOL    MW4 9257   1.326   3.783   5.825
 2235SOL     OW 9258   1.386   4.546   6.095
 2235SOL    HW2 9259   1.301   4.516   6.065
 2235SOL    HW3 9260   1.378   4.553   6.190
 2235SOL    MW4 9261   1.374   4.544   6.104
 2236SOL     OW 9262   0.759   4.212   5.821
 2236SOL    HW2 9263   0.832   4.261   5.784
 2236SOL    HW3 9264   0.775   4.121   5.795
 2236SOL    MW4 9265   0.771   4.207   5.814
 2237SOL     OW 9266   0.234   4.721   5.919
 2237SOL    HW2 9267   0.171   4.737   5.848
 2237SOL    HW3 9268   0.181   4.684   5.990
 2237SOL    MW4 9269   0.219   4.718   5.919
 2238SOL     OW 9270   0.590   5.075   5.778
 2238SOL    HW2 9271   0.605   5.051   5.870
 2238SOL    HW3 9272   0.498   5.053   5.762
 2238SOL    MW4 9273   0.580   5.068   5.788
 2239SOL     OW 9274   1.129   5.306   5.930
 2239SOL    HW2 9275   1.137   5.224   5.881
 2239SOL    HW3 9276   1.048   5.345   5.897
 2239SOL    MW4 9277   1.119   5.301   5.920
 2240SOL     OW 9278   0.388   5.464   6.499
 2240SOL    HW2 9279   0.392   5.375   6.534
 2240SOL    HW3 9280   0.414   5.455   6.408
 2240SOL    MW4 9281   0.391   5.452   6.491
 2241SOL     OW 9282   0.465   4.187   6.376
 2241SOL    HW2 9283   0.536   4.135   6.339
 2241SOL    HW3 9284   0.451   4.152   6.463
 2241SOL    MW4 9285   0.473   4.176   6.383
 2242SOL     OW 9286   0.781   5.280   6.452
 2242SOL    HW2 9287   0.709   5.217   6.465
 2242SOL    HW3 9288   0.742   5.365   6.470
 2242SOL    MW4 9289   0.765   5.283   6.455
 2243SOL     OW 9290   1.101   4.128   6.100
 2243SOL    HW2 9291   1.123   4.065   6.032
 2243SOL    HW3 9292   1.006   4.120   6.111
 2243SOL    MW4 9293   1.091   4.119   6.092
 2244SOL     OW 9294   0.186   3.818   6.032
 2244SOL    HW2 9295   0.257   3.839   5.971
 2244SOL    HW3 9296   0.140   3.746   5.990
 2244SOL    MW4 9297   0.190   3.812   6.018
 2245SOL     OW 9298   1.755   5.192   6.132
 2245SOL    HW2 9299   1.725   5.125   6.193
 2245SOL    HW3 9300   1.849   5.198   6.146
 2245SOL    MW4 9301   1.763   5.184   6.142
 2246SOL     OW 9302   1.311   4.869   6.062
 2246SOL    HW2 9303   1.283   4.955   6.095
 2246SOL    HW3 9304   1.339   4.885   5.972
 2246SOL    MW4 9305   1.311   4.883   6.054
 2247SOL     OW 9306   0.973   3.789   6.115
 2247SOL    HW2 9307   1.010   3.848   6.180
 2247SOL    HW3 9308   0.950   3.845   6.041
 2247SOL    MW4 9309   0.974   3.804   6.114
 2248SOL     OW 9310   1.826   4.671   6.537
 2248SOL    HW2 9311   1.817   4.703   6.448
 2248SOL    HW3 9312   1.779   4.587   6.537
 2248SOL    MW4 9313   1.819   4.664   6.527
 2249SOL     OW 9314   1.738   4.602   6.238
 2249SOL    HW2 9315   1.832   4.591   6.226
 2249SOL    HW3 9316   1.714   4.674   6.179
 2249SOL    MW4 9317   1.748   4.610   6.229
 2250SOL     OW 9318   0.394   4.480   6.011
 2250SOL    HW2 9319   0.394   4.575   5.996
 2250SOL    HW3 9320   0.471   4.464   6.065
 2250SOL    MW4 9321   0.404   4.491   6.016
 2251SOL     OW 9322   0.153   4.211   6.300
 2251SOL    HW2 9323   0.215   4.218   6.373
 2251SOL    HW3 9324   0.153   4.118   6.277
 2251SOL    MW4 9325   0.161   4.200   6.307
 2252SOL     OW 9326   1.700   5.551   5.832
 2252SOL    HW2 9327   1.767   5.584   5.772
 2252SOL    HW3 9328   1.657   5.630   5.866
 2252SOL    MW4 9329   1.702   5.566   5.828
 2253SOL     OW 9330   0.022   4.783   5.758
 2253SOL    HW2 9331  -0.009   4.848   5.821
 2253SOL    HW3 9332  -0.029   4.705   5.777
 2253SOL    MW4 9333   0.012   4.780   5.768
 2254SOL     OW 9334   1.434   3.795   6.506
 2254SOL    HW2 9335   1.522   3.804   6.543
 2254SOL    HW3 9336   1.444   3.736   6.432
 2254SOL    MW4 9337   1.448   3.789   6.500
 2255SOL     OW 9338   1.466   4.534   6.350
 2255SOL    HW2 9339   1.546   4.549   6.299
 2255SOL    HW3 9340   1.459   4.439   6.356
 2255SOL    MW4 9341   1.475   4.523   6.345
 2256SOL     OW 9342   0.606   5.583   5.700
 2256SOL    HW2 9343   0.511   5.583   5.692
 2256SOL    HW3 9344   0.622   5.529   5.778
 2256SOL    MW4 9345   0.596   5.577   5.709
 2257SOL     OW 9346   1.451   4.403   5.615
 2257SOL    HW2 9347   1.379   4.379   5.557
 2257SOL    HW3 9348   1.517   4.440   5.557
 2257SOL    MW4 9349   1.450   4.405   5.600
 2258SOL     OW 9350   0.585   5.135   6.296
 2258SOL    HW2 9351   0.650   5.068   6.317
 2258SOL    HW3 9352   0.637   5.212   6.273
 2258SOL    MW4 9353   0.600   5.137   6.295
 2259SOL     OW 9354   0.846   4.300   6.426
 2259SOL    HW2 9355   0.786   4.318   6.498
 2259SOL    HW3 9356   0.880   4.212   6.445
 2259SOL    MW4 9357   0.842   4.290   6.439
 2260SOL     OW 9358   1.071   4.883   6.445
 2260SOL    HW2 9359   1.163   4.864   6.463
 2260SOL    HW3 9360   1.044   4.813   6.385
 2260SOL    MW4 9361   1.079   4.871   6.439
 2261SOL     OW 9362   0.864   4.703   5.800
 2261SOL    HW2 9363   0.850   4.615   5.765
 2261SOL    HW3 9364   0.815   4.760   5.741
 2261SOL    MW4 9365   0.856   4.698   5.788
 2262SOL     OW 9366   1.583   3.909   5.902
 2262SOL    HW2 9367   1.576   3.913   5.997
 2262SOL    HW3 9368   1.595   4.000   5.875
 2262SOL    MW4 9369   1.584   3.922   5.910
 2263SOL     OW 9370   0.872   4.472   6.016
 2263SOL    HW2 9371   0.852   4.458   5.923
 2263SOL    HW3 9372   0.965   4.451   6.023
 2263SOL    MW4 9373   0.882   4.467   6.005
 2264SOL     OW 9374   0.855   5.430   6.054
 2264SOL    HW2 9375   0.913   5.501   6.081
 2264SOL    HW3 9376   0.878   5.358   6.112
 2264SOL    MW4 9377   0.866   5.430   6.065
 2265SOL     OW 9378   1.735   4.928   6.363
 2265SOL    HW2 9379   1.714   4.874   6.286
 2265SOL    HW3 9380   1.831   4.926   6.367
 2265SOL    MW4 9381   1.744   4.921   6.352
 2266SOL     OW 9382   0.311   3.862   5.789
 2266SOL    HW2 9383   0.240   3.917   5.757
 2266SOL    HW3 9384   0.353   3.828   5.710
 2266SOL    MW4 9385   0.307   3.864   5.775
 2267SOL     OW 9386   0.067   3.961   5.638
 2267SOL    HW2 9387   0.034   4.040   5.682
 2267SOL    HW3 9388   0.122   3.994   5.567
 2267SOL    MW4 9389   0.070   3.975   5.635
 2268SOL     OW 9390   0.101   5.218   5.827
 2268SOL    HW2 9391   0.118   5.302   5.869
 2268SOL    HW3 9392   0.136   5.227   5.739
 2268SOL    MW4 9393   0.106   5.231   5.821
 2269SOL     OW 9394   1.373   5.307   6.044
 2269SOL    HW2 9395   1.436   5.297   5.973
 2269SOL    HW3 9396   1.290   5.327   5.999
 2269SOL    MW4 9397   1.370   5.308   6.029
 2270SOL     OW 9398   1.736   6.444   0.257
 2270SOL    HW2 9399   1.777   6.386   0.322
 2270SOL    HW3 9400   1.643   6.436   0.274
 2270SOL    MW4 9401   1.730   6.436   0.267
 2271SOL     OW 9402   1.602   6.376   1.252
 2271SOL    HW2 9403   1.557   6.443   1.303
 2271SOL    HW3 9404   1.690   6.412   1.238
 2271SOL    MW4 9405   1.608   6.389   1.256
 2272SOL     OW 9406   0.530   6.627   0.486
 2272SOL    HW2 9407   0.620   6.602   0.470
 2272SOL    HW3 9408   0.526   6.720   0.463
 2272SOL    MW4 9409   0.542   6.636   0.481
 2273SOL     OW 9410   1.646   7.330   0.628
 2273SOL    HW2 9411   1.658   7.276   0.706
 2273SOL    HW3 9412   1.683   7.278   0.557
 2273SOL    MW4 9413   1.652   7.315   0.629
 2274SOL     OW 9414   1.025   7.215   1.629
 2274SOL    HW2 9415   1.066   7.251   1.550
 2274SOL    HW3 9416   1.060   7.126   1.636
 2274SOL    MW4 9417   1.036   7.208   1.620
 2275SOL     OW 9418   1.582   6.770   1.233
 2275SOL    HW2 9419   1.503   6.735   1.191
 2275SOL    HW3 9420   1.609   6.842   1.177
 2275SOL    MW4 9421   1.575   6.775   1.220
 2276SOL     OW 9422   0.814   6.083   0.499
 2276SOL    HW2 9423   0.789   6.171   0.527
 2276SOL    HW3 9424   0.811   6.086   0.403
 2276SOL    MW4 9425   0.810   6.095   0.491
 2277SOL     OW 9426   0.256   6.111   0.427
 2277SOL    HW2 9427   0.288   6.199   0.409
 2277SOL    HW3 9428   0.244   6.109   0.522
 2277SOL    MW4 9429   0.259   6.123   0.439
 2278SOL     OW 9430   0.334   6.524   1.328
 2278SOL    HW2 9431   0.397   6.471   1.279
 2278SOL    HW3 9432   0.315   6.598   1.271
 2278SOL    MW4 9433   0.340   6.526   1.315
 2279SOL     OW 9434   0.655   5.866   0.514
 2279SOL    HW2 9435   0.713   5.942   0.516
 2279SOL    HW3 9436   0.590   5.887   0.447
 2279SOL    MW4 9437   0.654   5.878   0.505
 2280SOL     OW 9438   0.742   6.793   0.689
 2280SOL    HW2 9439   0.822   6.796   0.741
 2280SOL    HW3 9440   0.770   6.760   0.603
 2280SOL    MW4 9441   0.756   6.789   0.684
 2281SOL     OW 9442   0.767   7.134   1.592
 2281SOL    HW2 9443   0.851   7.160   1.631
 2281SOL    HW3 9444   0.791   7.078   1.518
 2281SOL    MW4 9445   0.781   7.130   1.587
 2282SOL     OW 9446   0.519   6.297   0.680
 2282SOL    HW2 9447   0.504   6.217   0.731
 2282SOL    HW3 9448   0.601   6.332   0.714
 2282SOL    MW4 9449   0.527   6.289   0.692
 2283SOL     OW 9450   0.856   6.983   1.365
 2283SOL    HW2 9451   0.820   7.049   1.305
 2283SOL    HW3 9452   0.784   6.921   1.378
 2283SOL    MW4 9453   0.842   6.983   1.359
 2284SOL     OW 9454   0.661   6.123   1.057
 2284SOL    HW2 9455   0.567   6.119   1.075
 2284SOL    HW3 9456   0.691   6.032   1.066
 2284SOL    MW4 9457   0.652   6.111   1.060
 2285SOL     OW 9458   0.407   6.537   0.961
 2285SOL    HW2 9459   0.362   6.544   0.877
 2285SOL    HW3 9460   0.387   6.620   1.005
 2285SOL    MW4 9461   0.399   6.549   0.955
 2286SOL     OW 9462   0.104   7.383   0.836
 2286SOL    HW2 9463   0.193   7.375   0.871
 2286SOL    HW3 9464   0.068   7.295   0.841
 2286SOL    MW4 9465   0.111   7.370   0.841
 2287SOL     OW 9466   1.369   6.775   0.205
 2287SOL    HW2 9467   1.287   6.811   0.171
 2287SOL    HW3 9468   1.437   6.818   0.154
 2287SOL    MW4 9469   1.367   6.785   0.193
 2288SOL     OW 9470   0.368   6.910   0.871
 2288SOL    HW2 9471   0.344   6.963   0.947
 2288SOL    HW3 9472   0.424   6.968   0.819
 2288SOL    MW4 9473   0.372   6.925   0.874
 2289SOL     OW 9474   0.930   6.554   0.681
 2289SOL    HW2 9475   0.844   6.541   0.721
 2289SOL    HW3 9476   0.983   6.481   0.713
 2289SOL    MW4 9477   0.926   6.543   0.690
 2290SOL     OW 9478   0.338   7.206   1.466
 2290SOL    HW2 9479   0.246   7.182   1.451
 2290SOL    HW3 9480   0.382   7.123   1.483
 2290SOL    MW4 9481   0.332   7.191   1.465
 2291SOL     OW 9482   1.794   5.917   0.854
 2291SOL    HW2 9483   1.731   5.897   0.923
 2291SOL    HW3 9484   1.784   5.846   0.791
 2291SOL    MW4 9485   1.784   5.904   0.855
 2292SOL     OW 9486   0.418   5.889   0.366
 2292SOL    HW2 9487   0.392   5.851   0.282
 2292SOL    HW3 9488   0.355   5.959   0.382
 2292SOL    MW4 9489   0.407   5.892   0.357
 2293SOL     OW 9490   0.253   6.850   0.403
 2293SOL    HW2 9491   0.201   6.918   0.359
 2293SOL    HW3 9492   0.250   6.776   0.343
 2293SOL    MW4 9493   0.245   6.849   0.390
 2294SOL     OW 9494   0.915   7.313   0.181
 2294SOL    HW2 9495   0.870   7.329   0.264
 2294SOL    HW3 9496   0.846   7.278   0.123
 2294SOL    MW4 9497   0.901   7.310   0.183
 2295SOL     OW 9498   1.850   6.086   0.156
 2295SOL    HW2 9499   1.759   6.088   0.184
 2295SOL    HW3 9500   1.895   6.148   0.214
 2295SOL    MW4 9501   1.843   6.094   0.166
 2296SOL     OW 9502   1.595   6.689   0.506
 2296SOL    HW2 9503   1.505   6.689   0.541
 2296SOL    HW3 9504   1.588   6.735   0.423
 2296SOL    MW4 9505   1.582   6.695   0.500
 2297SOL     OW 9506   1.395   6.324   1.578
 2297SOL    HW2 9507   1.464   6.262   1.555
 2297SOL    HW3 9508   1.320   6.298   1.525
 2297SOL    MW4 9509   1.395   6.311   1.569
 2298SOL     OW 9510   0.136   7.204   1.130
 2298SOL    HW2 9511   0.119   7.150   1.207
 2298SOL    HW3 9512   0.124   7.294   1.160
 2298SOL    MW4 9513   0.133   7.208   1.144
 2299SOL     OW 9514   1.131   6.711   1.570
 2299SOL    HW2 9515   1.116   6.804   1.555
 2299SOL    HW3 9516   1.226   6.701   1.570
 2299SOL    MW4 9517   1.140   6.721   1.567
 2300SOL     OW 9518   0.927   6.135   1.771
 2300SOL    HW2 9519   1.017   6.136   1.738
 2300SOL    HW3 9520   0.886   6.060   1.729
 2300SOL    MW4 9521   0.933   6.125   1.762
 2301SOL     OW 9522   1.502   6.667   0.898
 2301SOL    HW2 9523   1.505   6.601   0.829
 2301SOL    HW3 9524   1.587   6.710   0.894
 2301SOL    MW4 9525   1.514   6.663   0.889
 2302SOL     OW 9526   1.122   6.270   0.467
 2302SOL    HW2 9527   1.148   6.294   0.378
 2302SOL    HW3 9528   1.104   6.177   0.463
 2302SOL    MW4 9529   1.124   6.262   0.454
 2303SOL     OW 9530   1.787   6.890   0.318
 2303SOL    HW2 9531   1.743   6.931   0.393
 2303SOL    HW3 9532   1.844   6.958   0.283
 2303SOL    MW4 9533   1.789   6.904   0.323
 2304SOL     OW 9534   0.707   5.939   1.721
 2304SOL    HW2 9535   0.717   5.865   1.661
 2304SOL    HW3 9536   0.743   5.908   1.804
 2304SOL    MW4 9537   0.713   5.925   1.723
 2305SOL     OW 9538   0.443   7.306   0.636
 2305SOL    HW2 9539   0.475   7.394   0.614
 2305SOL    HW3 9540   0.396   7.278   0.558
 2305SOL    MW4 9541   0.442   7.314   0.623
 2306SOL     OW 9542   1.827   5.668   0.685
 2306SOL    HW2 9543   1.881   5.619   0.747
 2306SOL    HW3 9544   1.770   5.602   0.646
 2306SOL    MW4 9545   1.827   5.652   0.687
 2307SOL     OW 9546   0.159   7.366   0.213
 2307SOL    HW2 9547   0.188   7.456   0.205
 2307SOL    HW3 9548   0.109   7.349   0.134
 2307SOL    MW4 9549   0.157   7.374   0.202
 2308SOL     OW 9550   0.946   5.621   1.098
 2308SOL    HW2 9551   0.905   5.699   1.060
 2308SOL    HW3 9552   1.040   5.639   1.093
 2308SOL    MW4 9553   0.952   5.633   1.093
 2309SOL     OW 9554   1.563   7.174   0.184
 2309SOL    HW2 9555   1.611   7.243   0.230
 2309SOL    HW3 9556   1.484   7.218   0.153
 2309SOL    MW4 9557   1.558   7.188   0.187
 2310SOL     OW 9558   0.961   6.299   0.128
 2310SOL    HW2 9559   0.963   6.246   0.049
 2310SOL    HW3 9560   1.049   6.336   0.134
 2310SOL    MW4 9561   0.973   6.298   0.117
 2311SOL     OW 9562   1.575   6.225   0.464
 2311SOL    HW2 9563   1.614   6.225   0.551
 2311SOL    HW3 9564   1.516   6.301   0.464
 2311SOL    MW4 9565   1.572   6.236   0.475
 2312SOL     OW 9566   0.892   6.592   1.593
 2312SOL    HW2 9567   0.869   6.572   1.683
 2312SOL    HW3 9568   0.977   6.636   1.598
 2312SOL    MW4 9569   0.899   6.595   1.605
 2313SOL     OW 9570   0.972   5.729   1.353
 2313SOL    HW2 9571   0.978   5.691   1.266
 2313SOL    HW3 9572   0.961   5.823   1.338
 2313SOL    MW4 9573   0.973   5.737   1.341
 2314SOL     OW 9574   1.061   6.218   1.187
 2314SOL    HW2 9575   1.136   6.247   1.134
 2314SOL    HW3 9576   0.993   6.283   1.171
 2314SOL    MW4 9577   1.062   6.230   1.177
 2315SOL     OW 9578   1.611   6.186   1.464
 2315SOL    HW2 9579   1.592   6.095   1.443
 2315SOL    HW3 9580   1.589   6.235   1.385
 2315SOL    MW4 9581   1.606   6.179   1.451
 2316SOL     OW 9582   1.753   7.280   1.368
 2316SOL    HW2 9583   1.681   7.242   1.419
 2316SOL    HW3 9584   1.770   7.365   1.409
 2316SOL    MW4 9585   1.747   7.285   1.380
 2317SOL     OW 9586   1.058   5.924   1.570
 2317SOL    HW2 9587   1.024   5.963   1.489
 2317SOL    HW3 9588   1.036   5.832   1.563
 2317SOL    MW4 9589   1.051   5.917   1.560
 2318SOL     OW 9590   1.467   6.738   1.646
 2318SOL    HW2 9591   1.549   6.779   1.676
 2318SOL    HW3 9592   1.430   6.700   1.726
 2318SOL    MW4 9593   1.473   6.739   1.661
 2319SOL     OW 9594   1.762   6.111   0.630
 2319SOL    HW2 9595   1.851   6.080   0.647
 2319SOL    HW3 9596   1.705   6.051   0.678
 2319SOL    MW4 9597   1.765   6.099   0.639
 2320SOL     OW 9598   0.188   5.825   0.659
 2320SOL    HW2 9599   0.179   5.765   0.585
 2320SOL    HW3 9600   0.121   5.796   0.722
 2320SOL    MW4 9601   0.178   5.812   0.657
 2321SOL     OW 9602   1.131   6.918   0.220
 2321SOL    HW2 9603   1.081   6.920   0.302
 2321SOL    HW3 9604   1.065   6.936   0.152
 2321SOL    MW4 9605   1.117   6.920   0.222
 2322SOL     OW 9606   0.135   5.998   1.022
 2322SOL    HW2 9607   0.107   6.089   1.031
 2322SOL    HW3 9608   0.072   5.959   0.961
 2322SOL    MW4 9609   0.122   6.004   1.016
 2323SOL     OW 9610   0.594   7.336   0.328
 2323SOL    HW2 9611   0.515   7.294   0.361
 2323SOL    HW3 9612   0.660   7.319   0.395
 2323SOL    MW4 9613   0.593   7.328   0.341
 2324SOL     OW 9614   1.722   6.856   1.725
 2324SOL    HW2 9615   1.772   6.782   1.757
 2324SOL    HW3 9616   1.668   6.883   1.800
 2324SOL    MW4 9617   1.722   6.850   1.738
 2325SOL     OW 9618   0.730   6.751   0.035
 2325SOL    HW2 9619   0.652   6.697   0.022
 2325SOL    HW3 9620   0.701   6.824   0.088
 2325SOL    MW4 9621   0.716   6.753   0.040
 2326SOL     OW 9622   1.856   6.491   1.227
 2326SOL    HW2 9623   1.872   6.529   1.140
 2326SOL    HW3 9624   1.890   6.557   1.288
 2326SOL    MW4 9625   1.863   6.504   1.223
 2327SOL     OW 9626   1.648   7.200   0.896
 2327SOL    HW2 9627   1.677   7.267   0.957
 2327SOL    HW3 9628   1.629   7.124   0.951
 2327SOL    MW4 9629   1.650   7.200   0.911
 2328SOL     OW 9630   1.311   7.267   0.103
 2328SOL    HW2 9631   1.237   7.230   0.153
 2328SOL    HW3 9632   1.319   7.357   0.136
 2328SOL    MW4 9633   1.302   7.274   0.115
 2329SOL     OW 9634   0.119   6.273   1.192
 2329SOL    HW2 9635   0.181   6.303   1.258
 2329SOL    HW3 9636   0.053   6.342   1.186
 2329SOL    MW4 9637   0.118   6.286   1.199
 2330SOL     OW 9638   1.535   6.941   0.045
 2330SOL    HW2 9639   1.482   6.990  -0.019
 2330SOL    HW3 9640   1.566   7.007   0.106
 2330SOL    MW4 9641   1.533   6.955   0.043
 2331SOL     OW 9642   0.760   5.830   0.100
 2331SOL    HW2 9643   0.708   5.750   0.088
 2331SOL    HW3 9644   0.847   5.807   0.068
 2331SOL    MW4 9645   0.763   5.816   0.094
 2332SOL     OW 9646   0.214   7.382   1.644
 2332SOL    HW2 9647   0.188   7.450   1.582
 2332SOL    HW3 9648   0.262   7.319   1.592
 2332SOL    MW4 9649   0.216   7.382   1.630
 2333SOL     OW 9650   0.266   6.701   1.151
 2333SOL    HW2 9651   0.319   6.776   1.176
 2333SOL    HW3 9652   0.185   6.739   1.117
 2333SOL    MW4 9653   0.262   6.716   1.151
 2334SOL     OW 9654   0.806   6.605   1.139
 2334SOL    HW2 9655   0.834   6.514   1.151
 2334SOL    HW3 9656   0.735   6.599   1.075
 2334SOL    MW4 9657   0.799   6.593   1.134
 2335SOL     OW 9658   0.121   6.470   0.557
 2335SOL    HW2 9659   0.212   6.485   0.584
 2335SOL    HW3 9660   0.124   6.391   0.503
 2335SOL    MW4 9661   0.133   6.462   0.555
 2336SOL     OW 9662   0.357   6.178   1.811
 2336SOL    HW2 9663   0.304   6.258   1.818
 2336SOL    HW3 9664   0.427   6.190   1.876
 2336SOL    MW4 9665   0.359   6.191   1.819
 2337SOL     OW 9666   0.743   5.728   1.518
 2337SOL    HW2 9667   0.720   5.636   1.520
 2337SOL    HW3 9668   0.829   5.730   1.475
 2337SOL    MW4 9669   0.750   5.718   1.514
 2338SOL     OW 9670   0.427   6.252   1.557
 2338SOL    HW2 9671   0.507   6.302   1.543
 2338SOL    HW3 9672   0.418   6.246   1.652
 2338SOL    MW4 9673   0.436   6.258   1.567
 2339SOL     OW 9674   0.748   7.402   0.931
 2339SOL    HW2 9675   0.837   7.417   0.961
 2339SOL    HW3 9676   0.743   7.449   0.847
 2339SOL    MW4 9677   0.758   7.410   0.924
 2340SOL     OW 9678   1.404   5.777   1.828
 2340SOL    HW2 9679   1.460   5.704   1.854
 2340SOL    HW3 9680   1.374   5.815   1.910
 2340SOL    MW4 9681   1.408   5.772   1.841
 2341SOL     OW 9682   0.129   7.082   0.596
 2341SOL    HW2 9683   0.101   7.121   0.678
 2341SOL    HW3 9684   0.149   6.991   0.618
 2341SOL    MW4 9685   0.127   7.074   0.609
 2342SOL     OW 9686   0.962   7.125   0.631
 2342SOL    HW2 9687   1.045   7.079   0.615
 2342SOL    HW3 9688   0.952   7.124   0.727
 2342SOL    MW4 9689   0.972   7.118   0.641
 2343SOL     OW 9690   1.794   6.270   0.945
 2343SOL    HW2 9691   1.883   6.300   0.927
 2343SOL    HW3 9692   1.774   6.210   0.874
 2343SOL    MW4 9693   1.803   6.267   0.934
 2344SOL     OW 9694   1.645   6.449   1.825
 2344SOL    HW2 9695   1.700   6.373   1.806
 2344SOL    HW3 9696   1.647   6.457   1.920
 2344SOL    MW4 9697   1.653   6.440   1.833
 2345SOL     OW 9698   0.695   7.182   0.036
 2345SOL    HW2 9699   0.635   7.251   0.006
 2345SOL    HW3 9700   0.640   7.124   0.089
 2345SOL    MW4 9701   0.679   7.184   0.038
 2346SOL     OW 9702   1.133   5.827   0.259
 2346SOL    HW2 9703   1.066   5.803   0.196
 2346SOL    HW3 9704   1.198   5.876   0.208
 2346SOL    MW4 9705   1.133   5.829   0.244
 2347SOL     OW 9706   0.940   6.011   1.344
 2347SOL    HW2 9707   0.859   6.052   1.372
 2347SOL    HW3 9708   0.987   6.079   1.296
 2347SOL    MW4 9709   0.935   6.026   1.342
 2348SOL     OW 9710   1.200   6.349   0.967
 2348SOL    HW2 9711   1.213   6.443   0.977
 2348SOL    HW3 9712   1.161   6.339   0.881
 2348SOL    MW4 9713   1.196   6.360   0.957
 2349SOL     OW 9714   0.652   6.544   0.771
 2349SOL    HW2 9715   0.563   6.535   0.804
 2349SOL    HW3 9716   0.656   6.634   0.739
 2349SOL    MW4 9717   0.641   6.555   0.771
 2350SOL     OW 9718   1.451   6.127   0.766
 2350SOL    HW2 9719   1.396   6.048   0.765
 2350SOL    HW3 9720   1.433   6.168   0.850
 2350SOL    MW4 9721   1.441   6.122   0.775
 2351SOL     OW 9722   0.422   5.814   1.583
 2351SOL    HW2 9723   0.343   5.832   1.635
 2351SOL    HW3 9724   0.417   5.876   1.510
 2351SOL    MW4 9725   0.412   5.824   1.580
 2352SOL     OW 9726   1.070   6.331   0.723
 2352SOL    HW2 9727   1.007   6.263   0.747
 2352SOL    HW3 9728   1.090   6.312   0.631
 2352SOL    MW4 9729   1.064   6.318   0.715
 2353SOL     OW 9730   0.326   7.226   0.425
 2353SOL    HW2 9731   0.287   7.273   0.351
 2353SOL    HW3 9732   0.260   7.161   0.450
 2353SOL    MW4 9733   0.313   7.224   0.419
 2354SOL     OW 9734   0.818   6.635   0.449
 2354SOL    HW2 9735   0.820   6.609   0.356
 2354SOL    HW3 9736   0.876   6.572   0.492
 2354SOL    MW4 9737   0.826   6.624   0.443
 2355SOL     OW 9738   1.371   7.195   1.221
 2355SOL    HW2 9739   1.296   7.241   1.259
 2355SOL    HW3 9740   1.353   7.102   1.238
 2355SOL    MW4 9741   1.360   7.189   1.229
 2356SOL     OW 9742   1.375   7.403   0.651
 2356SOL    HW2 9743   1.318   7.356   0.590
 2356SOL    HW3 9744   1.461   7.364   0.638
 2356SOL    MW4 9745   1.378   7.394   0.641
 2357SOL     OW 9746   1.328   5.879   0.782
 2357SOL    HW2 9747   1.356   5.811   0.843
 2357SOL    HW3 9748   1.242   5.850   0.752
 2357SOL    MW4 9749   1.321   5.866   0.786
 2358SOL     OW 9750   0.133   6.813   0.716
 2358SOL    HW2 9751   0.197   6.845   0.779
 2358SOL    HW3 9752   0.182   6.749   0.664
 2358SOL    MW4 9753   0.148   6.809   0.717
 2359SOL     OW 9754   0.633   6.889   1.698
 2359SOL    HW2 9755   0.681   6.972   1.685
 2359SOL    HW3 9756   0.690   6.837   1.754
 2359SOL    MW4 9757   0.647   6.893   1.704
 2360SOL     OW 9758   0.209   7.131   1.838
 2360SOL    HW2 9759   0.265   7.055   1.853
 2360SOL    HW3 9760   0.158   7.109   1.760
 2360SOL    MW4 9761   0.209   7.118   1.829
 2361SOL     OW 9762   1.308   5.983   0.117
 2361SOL    HW2 9763   1.281   6.049   0.053
 2361SOL    HW3 9764   1.378   6.026   0.167
 2361SOL    MW4 9765   1.313   5.996   0.114
 2362SOL     OW 9766   0.976   5.688   0.054
 2362SOL    HW2 9767   1.032   5.680  -0.024
 2362SOL    HW3 9768   0.953   5.598   0.076
 2362SOL    MW4 9769   0.981   5.675   0.047
 2363SOL     OW 9770   1.481   6.539   0.259
 2363SOL    HW2 9771   1.448   6.628   0.249
 2363SOL    HW3 9772   1.446   6.510   0.344
 2363SOL    MW4 9773   1.471   6.548   0.270
 2364SOL     OW 9774   1.094   6.968   1.447
 2364SOL    HW2 9775   1.005   6.974   1.415
 2364SOL    HW3 9776   1.138   7.047   1.415
 2364SOL    MW4 9777   1.089   6.978   1.439
 2365SOL     OW 9778   0.387   5.636   1.789
 2365SOL    HW2 9779   0.315   5.601   1.737
 2365SOL    HW3 9780   0.445   5.677   1.724
 2365SOL    MW4 9781   0.385   5.637   1.774
 2366SOL     OW 9782   0.411   7.126   1.088
 2366SOL    HW2 9783   0.456   7.188   1.145
 2366SOL    HW3 9784   0.318   7.145   1.101
 2366SOL    MW4 9785   0.404   7.136   1.095
 2367SOL     OW 9786   1.851   6.655   1.442
 2367SOL    HW2 9787   1.766   6.668   1.401
 2367SOL    HW3 9788   1.831   6.619   1.529
 2367SOL    MW4 9789   1.838   6.651   1.447
 2368SOL     OW 9790   0.833   7.194   1.196
 2368SOL    HW2 9791   0.857   7.183   1.105
 2368SOL    HW3 9792   0.756   7.251   1.194
 2368SOL    MW4 9793   0.825   7.199   1.185
 2369SOL     OW 9794   0.475   6.577   0.051
 2369SOL    HW2 9795   0.398   6.590   0.107
 2369SOL    HW3 9796   0.439   6.541  -0.030
 2369SOL    MW4 9797   0.461   6.573   0.048
 2370SOL     OW 9798   1.128   6.550   0.294
 2370SOL    HW2 9799   1.038   6.571   0.269
 2370SOL    HW3 9800   1.155   6.623   0.350
 2370SOL    MW4 9801   1.120   6.562   0.297
 2371SOL     OW 9802   0.628   6.899   0.986
 2371SOL    HW2 9803   0.621   6.878   1.080
 2371SOL    HW3 9804   0.546   6.867   0.949
 2371SOL    MW4 9805   0.616   6.893   0.993
 2372SOL     OW 9806   1.492   5.909   1.388
 2372SOL    HW2 9807   1.439   5.911   1.468
 2372SOL    HW3 9808   1.477   5.822   1.351
 2372SOL    MW4 9809   1.484   5.899   1.393
 2373SOL     OW 9810   1.828   5.833   1.261
 2373SOL    HW2 9811   1.809   5.900   1.196
 2373SOL    HW3 9812   1.885   5.771   1.216
 2373SOL    MW4 9813   1.832   5.834   1.247
 2374SOL     OW 9814   0.074   6.991   1.649
 2374SOL    HW2 9815   0.118   6.924   1.595
 2374SOL    HW3 9816  -0.011   6.953   1.669
 2374SOL    MW4 9817   0.069   6.977   1.645
 2375SOL     OW 9818   0.757   5.666   0.701
 2375SOL    HW2 9819   0.686   5.727   0.683
 2375SOL    HW3 9820   0.808   5.663   0.620
 2375SOL    MW4 9821   0.753   5.672   0.688
 2376SOL     OW 9822   0.515   6.906   0.450
 2376SOL    HW2 9823   0.508   6.938   0.540
 2376SOL    HW3 9824   0.425   6.890   0.422
 2376SOL    MW4 9825   0.503   6.908   0.457
 2377SOL     OW 9826   1.110   7.299   1.359
 2377SOL    HW2 9827   1.030   7.284   1.309
 2377SOL    HW3 9828   1.117   7.394   1.366
 2377SOL    MW4 9829   1.101   7.310   1.353
 2378SOL     OW 9830   1.224   7.264   0.849
 2378SOL    HW2 9831   1.271   7.337   0.808
 2378SOL    HW3 9832   1.145   7.303   0.885
 2378SOL    MW4 9833   1.219   7.279   0.848
 2379SOL     OW 9834   1.632   7.359   1.124
 2379SOL    HW2 9835   1.675   7.329   1.204
 2379SOL    HW3 9836   1.551   7.307   1.121
 2379SOL    MW4 9837   1.627   7.348   1.134
 2380SOL     OW 9838   0.717   6.323   1.831
 2380SOL    HW2 9839   0.787   6.265   1.803
 2380SOL    HW3 9840   0.660   6.268   1.886
 2380SOL    MW4 9841   0.719   6.310   1.835
 2381SOL     OW 9842   1.504   6.535   1.464
 2381SOL    HW2 9843   1.509   6.588   1.544
 2381SOL    HW3 9844   1.466   6.452   1.492
 2381SOL    MW4 9845   1.500   6.530   1.479
 2382SOL     OW 9846   1.144   5.670   1.710
 2382SOL    HW2 9847   1.139   5.577   1.691
 2382SOL    HW3 9848   1.227   5.681   1.756
 2382SOL    MW4 9849   1.152   5.659   1.714
 2383SOL     OW 9850   0.518   6.190   0.164
 2383SOL    HW2 9851   0.484   6.246   0.234
 2383SOL    HW3 9852   0.589   6.140   0.204
 2383SOL    MW4 9853   0.524   6.191   0.178
 2384SOL     OW 9854   1.614   6.941   0.986
 2384SOL    HW2 9855   1.649   6.923   0.899
 2384SOL    HW3 9856   1.519   6.942   0.973
 2384SOL    MW4 9857   1.606   6.938   0.973
 2385SOL     OW 9858   1.043   6.589   1.355
 2385SOL    HW2 9859   1.086   6.624   1.433
 2385SOL    HW3 9860   1.026   6.666   1.301
 2385SOL    MW4 9861   1.046   6.604   1.358
 2386SOL     OW 9862   1.574   6.076   0.228
 2386SOL    HW2 9863   1.566   6.147   0.165
 2386SOL    HW3 9864   1.592   6.120   0.311
 2386SOL    MW4 9865   1.575   6.090   0.230
 2387SOL     OW 9866   0.434   5.731   0.657
 2387SOL    HW2 9867   0.484   5.774   0.588
 2387SOL    HW3 9868   0.349   5.775   0.657
 2387SOL    MW4 9869   0.431   5.744   0.648
 2388SOL     OW 9870   0.193   6.793   1.517
 2388SOL    HW2 9871   0.221   6.746   1.595
 2388SOL    HW3 9872   0.114   6.748   1.488
 2388SOL    MW4 9873   0.186   6.782   1.523
 2389SOL     OW 9874   0.701   6.120   1.484
 2389SOL    HW2 9875   0.673   6.208   1.508
 2389SOL    HW3 9876   0.670   6.064   1.555
 2389SOL    MW4 9877   0.693   6.123   1.496
 2390SOL     OW 9878   1.243   6.338   0.203
 2390SOL    HW2 9879   1.290   6.356   0.122
 2390SOL    HW3 9880   1.209   6.422   0.231
 2390SOL    MW4 9881   1.245   6.352   0.196
 2391SOL     OW 9882   0.356   6.516   0.697
 2391SOL    HW2 9883   0.414   6.572   0.645
 2391SOL    HW3 9884   0.400   6.431   0.699
 2391SOL    MW4 9885   0.369   6.513   0.690
 2392SOL     OW 9886   1.496   5.868   0.534
 2392SOL    HW2 9887   1.418   5.818   0.559
 2392SOL    HW3 9888   1.467   5.959   0.534
 2392SOL    MW4 9889   1.482   5.872   0.537
 2393SOL     OW 9890   1.082   5.830   0.693
 2393SOL    HW2 9891   1.102   5.905   0.637
 2393SOL    HW3 9892   1.062   5.869   0.778
 2393SOL    MW4 9893   1.083   5.846   0.697
 2394SOL     OW 9894   0.978   7.080   0.025
 2394SOL    HW2 9895   1.005   7.158  -0.023
 2394SOL    HW3 9896   0.885   7.095   0.044
 2394SOL    MW4 9897   0.969   7.093   0.021
 2395SOL     OW 9898   1.842   6.603   1.712
 2395SOL    HW2 9899   1.755   6.583   1.748
 2395SOL    HW3 9900   1.896   6.529   1.737
 2395SOL    MW4 9901   1.837   6.592   1.720
 2396SOL     OW 9902   0.063   7.116   0.869
 2396SOL    HW2 9903   0.095   7.120   0.960
 2396SOL    HW3 9904  -0.032   7.124   0.877
 2396SOL    MW4 9905   0.055   7.119   0.882
 2397SOL     OW 9906   0.018   6.242   0.416
 2397SOL    HW2 9907  -0.042   6.214   0.486
 2397SOL    HW3 9908   0.092   6.182   0.422
 2397SOL    MW4 9909   0.020   6.231   0.425
 2398SOL     OW 9910   1.586   7.454   1.850
 2398SOL    HW2 9911   1.631   7.378   1.815
 2398SOL    HW3 9912   1.624   7.467   1.937
 2398SOL    MW4 9913   1.596   7.447   1.856
 2399SOL     OW 9914   1.186   6.973   0.576
 2399SOL    HW2 9915   1.209   6.924   0.654
 2399SOL    HW3 9916   1.267   7.015   0.548
 2399SOL    MW4 9917   1.199   6.973   0.583
 2400SOL     OW 9918   0.444   5.981   1.305
 2400SOL    HW2 9919   0.477   6.062   1.345
 2400SOL    HW3 9920   0.417   6.007   1.217
 2400SOL    MW4 9921   0.443   5.995   1.299
 2401SOL     OW 9922   0.398   5.948   1.041
 2401SOL    HW2 9923   0.428   5.862   1.012
 2401SOL    HW3 9924   0.303   5.941   1.044
 2401SOL    MW4 9925   0.390   5.937   1.039
 2402SOL     OW 9926   1.227   6.157   1.732
 2402SOL    HW2 9927   1.279   6.092   1.685
 2402SOL    HW3 9928   1.185   6.208   1.662
 2402SOL    MW4 9929   1.228   6.154   1.715
 2403SOL     OW 9930   1.326   5.952   1.593
 2403SOL    HW2 9931   1.233   5.936   1.580
 2403SOL    HW3 9932   1.352   5.890   1.661
 2403SOL    MW4 9933   1.316   5.942   1.600
 2404SOL     OW 9934   0.541   5.726   0.932
 2404SOL    HW2 9935   0.551   5.635   0.958
 2404SOL    HW3 9936   0.497   5.722   0.847
 2404SOL    MW4 9937   0.537   5.714   0.924
 2405SOL     OW 9938   0.635   7.341   1.478
 2405SOL    HW2 9939   0.552   7.326   1.523
 2405SOL    HW3 9940   0.694   7.274   1.513
 2405SOL    MW4 9941   0.633   7.331   1.488
 2406SOL     OW 9942   1.692   6.048   1.103
 2406SOL    HW2 9943   1.625   6.081   1.163
 2406SOL    HW3 9944   1.735   6.126   1.069
 2406SOL    MW4 9945   1.690   6.063   1.107
 2407SOL     OW 9946   1.870   6.768   1.073
 2407SOL    HW2 9947   1.863   6.708   0.998
 2407SOL    HW3 9948   1.796   6.828   1.062
 2407SOL    MW4 9949   1.860   6.768   1.062
 2408SOL     OW 9950   1.252   6.630   0.991
 2408SOL    HW2 9951   1.266   6.602   1.082
 2408SOL    HW3 9952   1.338   6.661   0.963
 2408SOL    MW4 9953   1.265   6.631   1.000
 2409SOL     OW 9954   1.335   6.125   1.270
 2409SOL    HW2 9955   1.356   6.126   1.177
 2409SOL    HW3 9956   1.380   6.047   1.303
 2409SOL    MW4 9957   1.342   6.115   1.262
 2410SOL     OW 9958   1.828   6.256   1.812
 2410SOL    HW2 9959   1.865   6.201   1.881
 2410SOL    HW3 9960   1.853   6.213   1.730
 2410SOL    MW4 9961   1.835   6.244   1.811
 2411SOL     OW 9962   1.375   6.554   1.863
 2411SOL    HW2 9963   1.441   6.502   1.817
 2411SOL    HW3 9964   1.395   6.541   1.956
 2411SOL    MW4 9965   1.386   6.545   1.870
 2412SOL     OW 9966   1.326   5.640   0.212
 2412SOL    HW2 9967   1.400   5.684   0.255
 2412SOL    HW3 9968   1.250   5.694   0.234
 2412SOL    MW4 9969   1.326   5.652   0.220
 2413SOL     OW 9970   1.386   6.415   0.490
 2413SOL    HW2 9971   1.301   6.385   0.460
 2413SOL    HW3 9972   1.378   6.422   0.585
 2413SOL    MW4 9973   1.374   6.413   0.499
 2414SOL     OW 9974   0.462   6.878   1.221
 2414SOL    HW2 9975   0.474   6.905   1.312
 2414SOL    HW3 9976   0.443   6.959   1.174
 2414SOL    MW4 9977   0.461   6.893   1.226
 2415SOL     OW 9978   0.746   5.858   1.044
 2415SOL    HW2 9979   0.719   5.860   1.135
 2415SOL    HW3 9980   0.676   5.810   0.999
 2415SOL    MW4 9981   0.734   5.854   1.051
 2416SOL     OW 9982   0.600   7.350   1.206
 2416SOL    HW2 9983   0.652   7.427   1.183
 2416SOL    HW3 9984   0.609   7.342   1.301
 2416SOL    MW4 9985   0.609   7.357   1.217
 2417SOL     OW 9986   1.502   6.935   1.438
 2417SOL    HW2 9987   1.487   6.864   1.501
 2417SOL    HW3 9988   1.548   6.893   1.366
 2417SOL    MW4 9989   1.508   6.919   1.438
 2418SOL     OW 9990   0.576   6.666   1.555
 2418SOL    HW2 9991   0.613   6.671   1.467
 2418SOL    HW3 9992   0.615   6.739   1.602
 2418SOL    MW4 9993   0.586   6.676   1.550
 2419SOL     OW 9994   0.756   6.709   1.367
 2419SOL    HW2 9995   0.815   6.655   1.420
 2419SOL    HW3 9996   0.771   6.681   1.277
 2419SOL    MW4 9997   0.766   6.698   1.363
 2420SOL     OW 9998   0.759   6.081   0.216
 2420SOL    HW2 9999   0.832   6.130   0.179
 2420SOL    HW310000   0.775   5.990   0.190
 2420SOL    MW410001   0.771   6.076   0.209
 2421SOL     OW10002   1.567   7.198   1.539
 2421SOL    HW210003   1.609   7.183   1.624
 2421SOL    HW310004   1.558   7.111   1.501
 2421SOL    MW410005   1.571   7.186   1.546
 2422SOL     OW10006   1.227   5.677   1.130
 2422SOL    HW210007   1.282   5.686   1.052
 2422SOL    HW310008   1.282   5.711   1.201
 2422SOL    MW410009   1.241   5.682   1.129
 2423SOL     OW10010   0.234   6.590   0.314
 2423SOL    HW210011   0.171   6.606   0.243
 2423SOL    HW310012   0.181   6.553   0.385
 2423SOL    MW410013   0.219   6.587   0.314
 2424SOL     OW10014   0.590   6.944   0.173
 2424SOL    HW210015   0.605   6.920   0.265
 2424SOL    HW310016   0.498   6.922   0.157
 2424SOL    MW410017   0.580   6.937   0.183
 2425SOL     OW10018   1.129   7.175   0.325
 2425SOL    HW210019   1.137   7.093   0.276
 2425SOL    HW310020   1.048   7.214   0.292
 2425SOL    MW410021   1.119   7.170   0.315
 2426SOL     OW10022   0.388   7.333   0.894
 2426SOL    HW210023   0.392   7.244   0.929
 2426SOL    HW310024   0.414   7.324   0.803
 2426SOL    MW410025   0.391   7.321   0.886
 2427SOL     OW10026   1.005   6.811   1.137
 2427SOL    HW210027   0.937   6.745   1.153
 2427SOL    HW310028   1.023   6.805   1.044
 2427SOL    MW410029   0.998   6.802   1.128
 2428SOL     OW10030   0.094   7.086   1.388
 2428SOL    HW210031   0.084   7.044   1.474
 2428SOL    HW310032   0.015   7.139   1.378
 2428SOL    MW410033   0.083   7.087   1.399
 2429SOL     OW10034   0.998   5.950   0.958
 2429SOL    HW210035   0.928   5.902   1.003
 2429SOL    HW310036   1.030   6.013   1.022
 2429SOL    MW410037   0.993   5.952   0.972
 2430SOL     OW10038   0.649   6.386   1.578
 2430SOL    HW210039   0.642   6.481   1.566
 2430SOL    HW310040   0.658   6.375   1.673
 2430SOL    MW410041   0.650   6.398   1.588
 2431SOL     OW10042   0.370   6.901   1.836
 2431SOL    HW210043   0.442   6.903   1.773
 2431SOL    HW310044   0.340   6.810   1.835
 2431SOL    MW410045   0.375   6.890   1.828
 2432SOL     OW10046   1.454   5.664   1.303
 2432SOL    HW210047   1.525   5.610   1.267
 2432SOL    HW310048   1.453   5.643   1.396
 2432SOL    MW410049   1.463   5.655   1.311
 2433SOL     OW10050   1.654   7.194   1.787
 2433SOL    HW210051   1.627   7.191   1.878
 2433SOL    HW310052   1.750   7.198   1.790
 2433SOL    MW410053   1.664   7.194   1.799
 2434SOL     OW10054   0.465   6.056   0.771
 2434SOL    HW210055   0.536   6.004   0.734
 2434SOL    HW310056   0.451   6.021   0.858
 2434SOL    MW410057   0.473   6.045   0.778
 2435SOL     OW10058   0.020   7.391   1.843
 2435SOL    HW210059   0.070   7.369   1.765
 2435SOL    HW310060   0.028   7.486   1.851
 2435SOL    MW410061   0.028   7.400   1.834
 2436SOL     OW10062   0.781   7.149   0.847
 2436SOL    HW210063   0.709   7.086   0.860
 2436SOL    HW310064   0.742   7.234   0.865
 2436SOL    MW410065   0.765   7.152   0.850
 2437SOL     OW10066   1.101   5.997   0.495
 2437SOL    HW210067   1.123   5.934   0.427
 2437SOL    HW310068   1.006   5.989   0.506
 2437SOL    MW410069   1.091   5.988   0.487
 2438SOL     OW10070   0.186   5.687   0.427
 2438SOL    HW210071   0.257   5.708   0.366
 2438SOL    HW310072   0.140   5.615   0.385
 2438SOL    MW410073   0.190   5.681   0.413
 2439SOL     OW10074   0.017   6.154   1.570
 2439SOL    HW210075   0.081   6.220   1.545
 2439SOL    HW310076  -0.064   6.181   1.527
 2439SOL    MW410077   0.015   6.166   1.562
 2440SOL     OW10078   1.755   7.061   0.527
 2440SOL    HW210079   1.725   6.994   0.588
 2440SOL    HW310080   1.849   7.067   0.541
 2440SOL    MW410081   1.763   7.053   0.537
 2441SOL     OW10082   1.311   6.738   0.457
 2441SOL    HW210083   1.283   6.824   0.490
 2441SOL    HW310084   1.339   6.754   0.367
 2441SOL    MW410085   1.311   6.752   0.449
 2442SOL     OW10086   0.973   5.658   0.510
 2442SOL    HW210087   1.010   5.717   0.575
 2442SOL    HW310088   0.950   5.714   0.436
 2442SOL    MW410089   0.974   5.673   0.509
 2443SOL     OW10090   1.826   6.540   0.932
 2443SOL    HW210091   1.817   6.572   0.843
 2443SOL    HW310092   1.779   6.456   0.932
 2443SOL    MW410093   1.819   6.533   0.922
 2444SOL     OW10094   0.202   6.380   1.511
 2444SOL    HW210095   0.223   6.449   1.449
 2444SOL    HW310096   0.282   6.327   1.516
 2444SOL    MW410097   0.215   6.381   1.505
 2445SOL     OW10098   1.738   6.471   0.633
 2445SOL    HW210099   1.832   6.460   0.621
 2445SOL    HW310100   1.714   6.543   0.574
 2445SOL    MW410101   1.748   6.479   0.624
 2446SOL     OW10102   0.187   6.395   1.778
 2446SOL    HW210103   0.113   6.339   1.804
 2446SOL    HW310104   0.182   6.398   1.683
 2446SOL    MW410105   0.176   6.388   1.768
 2447SOL     OW10106   0.353   5.682   1.228
 2447SOL    HW210107   0.396   5.766   1.248
 2447SOL    HW310108   0.426   5.620   1.221
 2447SOL    MW410109   0.368   5.685   1.229
 2448SOL     OW10110   0.394   6.349   0.406
 2448SOL    HW210111   0.394   6.444   0.391
 2448SOL    HW310112   0.471   6.333   0.460
 2448SOL    MW410113   0.404   6.360   0.411
 2449SOL     OW10114   1.170   6.208   1.470
 2449SOL    HW210115   1.206   6.181   1.386
 2449SOL    HW310116   1.083   6.242   1.449
 2449SOL    MW410117   1.164   6.209   1.457
 2450SOL     OW10118   0.153   6.080   0.695
 2450SOL    HW210119   0.215   6.087   0.768
 2450SOL    HW310120   0.153   5.987   0.672
 2450SOL    MW410121   0.161   6.069   0.702
 2451SOL     OW10122   1.700   7.420   0.227
 2451SOL    HW210123   1.767   7.453   0.167
 2451SOL    HW310124   1.657   7.499   0.261
 2451SOL    MW410125   1.702   7.435   0.223
 2452SOL     OW10126   0.835   6.341   1.179
 2452SOL    HW210127   0.793   6.259   1.155
 2452SOL    HW310128   0.836   6.340   1.275
 2452SOL    MW410129   0.828   6.330   1.188
 2453SOL     OW10130   1.506   7.474   1.578
 2453SOL    HW210131   1.509   7.380   1.561
 2453SOL    HW310132   1.529   7.482   1.670
 2453SOL    MW410133   1.509   7.462   1.588
 2454SOL     OW10134   0.639   5.811   1.284
 2454SOL    HW210135   0.570   5.874   1.305
 2454SOL    HW310136   0.666   5.775   1.369
 2454SOL    MW410137   0.633   5.814   1.297
 2455SOL     OW10138   0.022   6.652   0.153
 2455SOL    HW210139  -0.009   6.717   0.216
 2455SOL    HW310140  -0.029   6.574   0.172
 2455SOL    MW410141   0.012   6.649   0.163
 2456SOL     OW10142   1.434   5.664   0.901
 2456SOL    HW210143   1.522   5.673   0.938
 2456SOL    HW310144   1.444   5.605   0.827
 2456SOL    MW410145   1.448   5.658   0.895
 2457SOL     OW10146   1.466   6.403   0.745
 2457SOL    HW210147   1.546   6.418   0.694
 2457SOL    HW310148   1.459   6.308   0.751
 2457SOL    MW410149   1.475   6.392   0.740
 2458SOL     OW10150   0.606   7.452   0.095
 2458SOL    HW210151   0.511   7.452   0.087
 2458SOL    HW310152   0.622   7.398   0.173
 2458SOL    MW410153   0.596   7.446   0.104
 2459SOL     OW10154   0.916   6.329   1.442
 2459SOL    HW210155   0.985   6.396   1.439
 2459SOL    HW310156   0.849   6.367   1.498
 2459SOL    MW410157   0.917   6.342   1.449
 2460SOL     OW10158   0.334   6.629   1.690
 2460SOL    HW210159   0.288   6.545   1.692
 2460SOL    HW310160   0.391   6.623   1.614
 2460SOL    MW410161   0.336   6.617   1.682
 2461SOL     OW10162   1.451   6.272   0.011
 2461SOL    HW210163   1.379   6.248  -0.047
 2461SOL    HW310164   1.517   6.309  -0.047
 2461SOL    MW410165   1.450   6.274  -0.004
 2462SOL     OW10166   0.585   7.004   0.691
 2462SOL    HW210167   0.650   6.937   0.712
 2462SOL    HW310168   0.637   7.081   0.668
 2462SOL    MW410169   0.600   7.006   0.690
 2463SOL     OW10170   0.846   6.169   0.821
 2463SOL    HW210171   0.786   6.187   0.893
 2463SOL    HW310172   0.880   6.081   0.840
 2463SOL    MW410173   0.842   6.159   0.834
 2464SOL     OW10174   1.787   5.668   1.490
 2464SOL    HW210175   1.708   5.714   1.518
 2464SOL    HW310176   1.822   5.722   1.419
 2464SOL    MW410177   1.781   5.681   1.484
 2465SOL     OW10178   1.071   6.752   0.840
 2465SOL    HW210179   1.163   6.733   0.858
 2465SOL    HW310180   1.044   6.682   0.780
 2465SOL    MW410181   1.079   6.740   0.834
 2466SOL     OW10182   0.864   6.572   0.195
 2466SOL    HW210183   0.850   6.484   0.160
 2466SOL    HW310184   0.815   6.629   0.136
 2466SOL    MW410185   0.856   6.567   0.183
 2467SOL     OW10186   1.345   6.990   0.936
 2467SOL    HW210187   1.318   7.074   0.901
 2467SOL    HW310188   1.305   6.985   1.023
 2467SOL    MW410189   1.338   6.999   0.942
 2468SOL     OW10190   1.264   6.938   1.204
 2468SOL    HW210191   1.275   6.905   1.293
 2468SOL    HW310192   1.183   6.897   1.173
 2468SOL    MW410193   1.254   6.930   1.210
 2469SOL     OW10194   0.277   6.296   0.974
 2469SOL    HW210195   0.227   6.295   1.055
 2469SOL    HW310196   0.297   6.388   0.958
 2469SOL    MW410197   0.273   6.308   0.982
 2470SOL     OW10198   1.344   7.060   1.736
 2470SOL    HW210199   1.344   7.154   1.752
 2470SOL    HW310200   1.389   7.050   1.652
 2470SOL    MW410201   1.350   7.070   1.727
 2471SOL     OW10202   1.583   5.778   0.297
 2471SOL    HW210203   1.576   5.782   0.392
 2471SOL    HW310204   1.595   5.869   0.270
 2471SOL    MW410205   1.584   5.791   0.305
 2472SOL     OW10206   0.872   6.341   0.411
 2472SOL    HW210207   0.852   6.327   0.318
 2472SOL    HW310208   0.965   6.320   0.418
 2472SOL    MW410209   0.882   6.336   0.400
 2473SOL     OW10210   0.199   5.964   1.715
 2473SOL    HW210211   0.156   6.023   1.652
 2473SOL    HW310212   0.267   6.019   1.755
 2473SOL    MW410213   0.203   5.979   1.712
 2474SOL     OW10214   1.311   6.584   1.260
 2474SOL    HW210215   1.374   6.581   1.333
 2474SOL    HW310216   1.227   6.602   1.302
 2474SOL    MW410217   1.307   6.586   1.275
 2475SOL     OW10218   0.855   7.299   0.449
 2475SOL    HW210219   0.913   7.370   0.476
 2475SOL    HW310220   0.878   7.227   0.507
 2475SOL    MW410221   0.866   7.299   0.460
 2476SOL     OW10222   1.650   5.761   1.039
 2476SOL    HW210223   1.695   5.679   1.058
 2476SOL    HW310224   1.670   5.817   1.115
 2476SOL    MW410225   1.660   5.757   1.051
 2477SOL     OW10226   0.098   5.604   1.138
 2477SOL    HW210227   0.089   5.605   1.043
 2477SOL    HW310228   0.192   5.616   1.153
 2477SOL    MW410229   0.110   5.607   1.129
 2478SOL     OW10230   1.735   6.797   0.758
 2478SOL    HW210231   1.714   6.743   0.681
 2478SOL    HW310232   1.831   6.795   0.762
 2478SOL    MW410233   1.744   6.790   0.747
 2479SOL     OW10234   0.427   6.942   1.501
 2479SOL    HW210235   0.348   6.892   1.524
 2479SOL    HW310236   0.497   6.901   1.551
 2479SOL    MW410237   0.425   6.930   1.511
 2480SOL     OW10238   0.311   5.731   0.184
 2480SOL    HW210239   0.240   5.786   0.152
 2480SOL    HW310240   0.353   5.697   0.105
 2480SOL    MW410241   0.307   5.733   0.170
 2481SOL     OW10242   1.435   6.228   1.020
 2481SOL    HW210243   1.358   6.274   0.986
 2481SOL    HW310244   1.492   6.297   1.054
 2481SOL    MW410245   1.432   6.243   1.020
 2482SOL     OW10246   0.067   5.830   0.033
 2482SOL    HW210247   0.034   5.909   0.077
 2482SOL    HW310248   0.122   5.863  -0.038
 2482SOL    MW410249   0.070   5.844   0.030
 2483SOL     OW10250   0.101   7.087   0.222
 2483SOL    HW210251   0.118   7.171   0.264
 2483SOL    HW310252   0.136   7.096   0.134
 2483SOL    MW410253   0.106   7.100   0.216
 2484SOL     OW10254   1.373   7.176   0.439
 2484SOL    HW210255   1.436   7.166   0.368
 2484SOL    HW310256   1.290   7.196   0.394
 2484SOL    MW410257   1.370   7.177   0.424
 2485SOL     OW10258   1.736   6.444   2.125
 2485SOL    HW210259   1.777   6.386   2.190
 2485SOL    HW310260   1.643   6.436   2.142
 2485SOL    MW410261   1.730   6.436   2.135
 2486SOL     OW10262   1.602   6.376   3.120
 2486SOL    HW210263   1.557   6.443   3.171
 2486SOL    HW310264   1.690   6.412   3.106
 2486SOL    MW410265   1.608   6.389   3.124
 2487SOL     OW10266   0.530   6.627   2.354
 2487SOL    HW210267   0.620   6.602   2.338
 2487SOL    HW310268   0.526   6.720   2.331
 2487SOL    MW410269   0.542   6.636   2.349
 2488SOL     OW10270   1.646   7.330   2.496
 2488SOL    HW210271   1.658   7.276   2.574
 2488SOL    HW310272   1.683   7.278   2.425
 2488SOL    MW410273   1.652   7.315   2.497
 2489SOL     OW10274   1.025   7.215   3.497
 2489SOL    HW210275   1.066   7.251   3.418
 2489SOL    HW310276   1.060   7.126   3.504
 2489SOL    MW410277   1.036   7.208   3.488
 2490SOL     OW10278   1.582   6.770   3.101
 2490SOL    HW210279   1.503   6.735   3.059
 2490SOL    HW310280   1.609   6.842   3.045
 2490SOL    MW410281   1.575   6.775   3.088
 2491SOL     OW10282   0.814   6.083   2.367
 2491SOL    HW210283   0.789   6.171   2.395
 2491SOL    HW310284   0.811   6.086   2.271
 2491SOL    MW410285   0.810   6.095   2.359
 2492SOL     OW10286   0.256   6.111   2.295
 2492SOL    HW210287   0.288   6.199   2.277
 2492SOL    HW310288   0.244   6.109   2.390
 2492SOL    MW410289   0.259   6.123   2.307
 2493SOL     OW10290   0.334   6.524   3.196
 2493SOL    HW210291   0.397   6.471   3.147
 2493SOL    HW310292   0.315   6.598   3.139
 2493SOL    MW410293   0.340   6.526   3.183
 2494SOL     OW10294   0.655   5.866   2.382
 2494SOL    HW210295   0.713   5.942   2.384
 2494SOL    HW310296   0.590   5.887   2.315
 2494SOL    MW410297   0.654   5.878   2.373
 2495SOL     OW10298   0.742   6.793   2.557
 2495SOL    HW210299   0.822   6.796   2.609
 2495SOL    HW310300   0.770   6.760   2.471
 2495SOL    MW410301   0.756   6.789   2.552
 2496SOL     OW10302   0.767   7.134   3.460
 2496SOL    HW210303   0.851   7.160   3.499
 2496SOL    HW310304   0.791   7.078   3.386
 2496SOL    MW410305   0.781   7.130   3.455
 2497SOL     OW10306   0.519   6.297   2.548
 2497SOL    HW210307   0.504   6.217   2.599
 2497SOL    HW310308   0.601   6.332   2.582
 2497SOL    MW410309   0.527   6.289   2.560
 2498SOL     OW10310   0.856   6.983   3.233
 2498SOL    HW210311   0.820   7.049   3.173
 2498SOL    HW310312   0.784   6.921   3.246
 2498SOL    MW410313   0.842   6.983   3.227
 2499SOL     OW10314   0.661   6.123   2.925
 2499SOL    HW210315   0.567   6.119   2.943
 2499SOL    HW310316   0.691   6.032   2.934
 2499SOL    MW410317   0.652   6.111   2.928
 2500SOL     OW10318   0.407   6.537   2.829
 2500SOL    HW210319   0.362   6.544   2.745
 2500SOL    HW310320   0.387   6.620   2.873
 2500SOL    MW410321   0.399   6.549   2.823
 2501SOL     OW10322   0.104   7.383   2.704
 2501SOL    HW210323   0.193   7.375   2.739
 2501SOL    HW310324   0.068   7.295   2.709
 2501SOL    MW410325   0.111   7.370   2.709
 2502SOL     OW10326   1.369   6.775   2.073
 2502SOL    HW210327   1.287   6.811   2.039
 2502SOL    HW310328   1.437   6.818   2.022
 2502SOL    MW410329   1.367   6.785   2.061
 2503SOL     OW10330   0.368   6.910   2.739
 2503SOL    HW210331   0.344   6.963   2.815
 2503SOL    HW310332   0.424   6.968   2.687
 2503SOL    MW410333   0.372   6.925   2.742
 2504SOL     OW10334   0.930   6.554   2.549
 2504SOL    HW210335   0.844   6.541   2.589
 2504SOL    HW310336   0.983   6.481   2.581
 2504SOL    MW410337   0.926   6.543   2.558
 2505SOL     OW10338   0.338   7.206   3.334
 2505SOL    HW210339   0.246   7.182   3.319
 2505SOL    HW310340   0.382   7.123   3.351
 2505SOL    MW410341   0.332   7.191   3.333
 2506SOL     OW10342   0.921   6.916   2.266
 2506SOL    HW210343   0.898   6.978   2.334
 2506SOL    HW310344   0.878   6.834   2.292
 2506SOL    MW410345   0.913   6.912   2.277
 2507SOL     OW10346   1.794   5.917   2.722
 2507SOL    HW210347   1.731   5.897   2.791
 2507SOL    HW310348   1.784   5.846   2.659
 2507SOL    MW410349   1.784   5.904   2.723
 2508SOL     OW10350   0.418   5.889   2.234
 2508SOL    HW210351   0.392   5.851   2.150
 2508SOL    HW310352   0.355   5.959   2.250
 2508SOL    MW410353   0.407   5.892   2.225
 2509SOL     OW10354   0.253   6.850   2.271
 2509SOL    HW210355   0.201   6.918   2.227
 2509SOL    HW310356   0.250   6.776   2.211
 2509SOL    MW410357   0.245   6.849   2.258
 2510SOL     OW10358   0.915   7.313   2.049
 2510SOL    HW210359   0.870   7.329   2.132
 2510SOL    HW310360   0.846   7.278   1.991
 2510SOL    MW410361   0.901   7.310   2.051
 2511SOL     OW10362   1.850   6.086   2.024
 2511SOL    HW210363   1.759   6.088   2.052
 2511SOL    HW310364   1.895   6.148   2.082
 2511SOL    MW410365   1.843   6.094   2.034
 2512SOL     OW10366   1.595   6.689   2.374
 2512SOL    HW210367   1.505   6.689   2.409
 2512SOL    HW310368   1.588   6.735   2.291
 2512SOL    MW410369   1.582   6.695   2.368
 2513SOL     OW10370   1.395   6.324   3.446
 2513SOL    HW210371   1.464   6.262   3.423
 2513SOL    HW310372   1.320   6.298   3.393
 2513SOL    MW410373   1.395   6.311   3.437
 2514SOL     OW10374   0.136   7.204   2.998
 2514SOL    HW210375   0.119   7.150   3.075
 2514SOL    HW310376   0.124   7.294   3.028
 2514SOL    MW410377   0.133   7.208   3.012
 2515SOL     OW10378   1.131   6.711   3.438
 2515SOL    HW210379   1.116   6.804   3.423
 2515SOL    HW310380   1.226   6.701   3.438
 2515SOL    MW410381   1.140   6.721   3.435
 2516SOL     OW10382   0.927   6.135   3.639
 2516SOL    HW210383   1.017   6.136   3.606
 2516SOL    HW310384   0.886   6.060   3.597
 2516SOL    MW410385   0.933   6.125   3.630
 2517SOL     OW10386   1.502   6.667   2.766
 2517SOL    HW210387   1.505   6.601   2.697
 2517SOL    HW310388   1.587   6.710   2.762
 2517SOL    MW410389   1.514   6.663   2.757
 2518SOL     OW10390   1.122   6.270   2.335
 2518SOL    HW210391   1.148   6.294   2.246
 2518SOL    HW310392   1.104   6.177   2.331
 2518SOL    MW410393   1.124   6.262   2.322
 2519SOL     OW10394   1.787   6.890   2.186
 2519SOL    HW210395   1.743   6.931   2.261
 2519SOL    HW310396   1.844   6.958   2.151
 2519SOL    MW410397   1.789   6.904   2.191
 2520SOL     OW10398   0.707   5.939   3.589
 2520SOL    HW210399   0.717   5.865   3.529
 2520SOL    HW310400   0.743   5.908   3.672
 2520SOL    MW410401   0.713   5.925   3.591
 2521SOL     OW10402   0.443   7.306   2.504
 2521SOL    HW210403   0.475   7.394   2.482
 2521SOL    HW310404   0.396   7.278   2.426
 2521SOL    MW410405   0.442   7.314   2.491
 2522SOL     OW10406   1.827   5.668   2.553
 2522SOL    HW210407   1.881   5.619   2.615
 2522SOL    HW310408   1.770   5.602   2.514
 2522SOL    MW410409   1.827   5.652   2.555
 2523SOL     OW10410   0.159   7.366   2.081
 2523SOL    HW210411   0.188   7.456   2.073
 2523SOL    HW310412   0.109   7.349   2.002
 2523SOL    MW410413   0.157   7.374   2.070
 2524SOL     OW10414   0.946   5.621   2.966
 2524SOL    HW210415   0.905   5.699   2.928
 2524SOL    HW310416   1.040   5.639   2.961
 2524SOL    MW410417   0.952   5.633   2.961
 2525SOL     OW10418   1.563   7.174   2.052
 2525SOL    HW210419   1.611   7.243   2.098
 2525SOL    HW310420   1.484   7.218   2.021
 2525SOL    MW410421   1.558   7.188   2.055
 2526SOL     OW10422   0.961   6.299   1.996
 2526SOL    HW210423   0.963   6.246   1.917
 2526SOL    HW310424   1.049   6.336   2.002
 2526SOL    MW410425   0.973   6.298   1.985
 2527SOL     OW10426   1.575   6.225   2.332
 2527SOL    HW210427   1.614   6.225   2.419
 2527SOL    HW310428   1.516   6.301   2.332
 2527SOL    MW410429   1.572   6.236   2.343
 2528SOL     OW10430   0.892   6.592   3.461
 2528SOL    HW210431   0.869   6.572   3.551
 2528SOL    HW310432   0.977   6.636   3.466
 2528SOL    MW410433   0.899   6.595   3.473
 2529SOL     OW10434   0.972   5.729   3.221
 2529SOL    HW210435   0.978   5.691   3.134
 2529SOL    HW310436   0.961   5.823   3.206
 2529SOL    MW410437   0.973   5.737   3.209
 2530SOL     OW10438   1.611   6.186   3.332
 2530SOL    HW210439   1.592   6.095   3.311
 2530SOL    HW310440   1.589   6.235   3.253
 2530SOL    MW410441   1.606   6.179   3.319
 2531SOL     OW10442   1.753   7.280   3.236
 2531SOL    HW210443   1.681   7.242   3.287
 2531SOL    HW310444   1.770   7.365   3.277
 2531SOL    MW410445   1.747   7.285   3.248
 2532SOL     OW10446   1.058   5.924   3.438
 2532SOL    HW210447   1.024   5.963   3.357
 2532SOL    HW310448   1.036   5.832   3.431
 2532SOL    MW410449   1.051   5.917   3.428
 2533SOL     OW10450   1.467   6.738   3.514
 2533SOL    HW210451   1.549   6.779   3.544
 2533SOL    HW310452   1.430   6.700   3.594
 2533SOL    MW410453   1.473   6.739   3.529
 2534SOL     OW10454   1.762   6.111   2.498
 2534SOL    HW210455   1.851   6.080   2.515
 2534SOL    HW310456   1.705   6.051   2.546
 2534SOL    MW410457   1.765   6.099   2.507
 2535SOL     OW10458   0.188   5.825   2.527
 2535SOL    HW210459   0.179   5.765   2.453
 2535SOL    HW310460   0.121   5.796   2.590
 2535SOL    MW410461   0.178   5.812   2.525
 2536SOL     OW10462   1.131   6.918   2.088
 2536SOL    HW210463   1.081   6.920   2.170
 2536SOL    HW310464   1.065   6.936   2.020
 2536SOL    MW410465   1.117   6.920   2.090
 2537SOL     OW10466   0.135   5.998   2.890
 2537SOL    HW210467   0.107   6.089   2.899
 2537SOL    HW310468   0.072   5.959   2.829
 2537SOL    MW410469   0.122   6.004   2.884
 2538SOL     OW10470   0.594   7.336   2.196
 2538SOL    HW210471   0.515   7.294   2.229
 2538SOL    HW310472   0.660   7.319   2.263
 2538SOL    MW410473   0.593   7.328   2.209
 2539SOL     OW10474   1.722   6.856   3.593
 2539SOL    HW210475   1.772   6.782   3.625
 2539SOL    HW310476   1.668   6.883   3.668
 2539SOL    MW410477   1.722   6.850   3.606
 2540SOL     OW10478   0.730   6.751   1.903
 2540SOL    HW210479   0.652   6.697   1.890
 2540SOL    HW310480   0.701   6.824   1.956
 2540SOL    MW410481   0.716   6.753   1.908
 2541SOL     OW10482   1.856   6.491   3.095
 2541SOL    HW210483   1.872   6.529   3.008
 2541SOL    HW310484   1.890   6.557   3.156
 2541SOL    MW410485   1.863   6.504   3.091
 2542SOL     OW10486   1.648   7.200   2.764
 2542SOL    HW210487   1.677   7.267   2.825
 2542SOL    HW310488   1.629   7.124   2.819
 2542SOL    MW410489   1.650   7.200   2.779
 2543SOL     OW10490   1.311   7.267   1.971
 2543SOL    HW210491   1.237   7.230   2.021
 2543SOL    HW310492   1.319   7.357   2.004
 2543SOL    MW410493   1.302   7.274   1.983
 2544SOL     OW10494   0.119   6.273   3.060
 2544SOL    HW210495   0.181   6.303   3.126
 2544SOL    HW310496   0.053   6.342   3.054
 2544SOL    MW410497   0.118   6.286   3.067
 2545SOL     OW10498   1.535   6.941   1.913
 2545SOL    HW210499   1.482   6.990   1.849
 2545SOL    HW310500   1.566   7.007   1.974
 2545SOL    MW410501   1.533   6.955   1.911
 2546SOL     OW10502   0.760   5.830   1.968
 2546SOL    HW210503   0.708   5.750   1.956
 2546SOL    HW310504   0.847   5.807   1.936
 2546SOL    MW410505   0.763   5.816   1.962
 2547SOL     OW10506   0.214   7.382   3.512
 2547SOL    HW210507   0.188   7.450   3.450
 2547SOL    HW310508   0.262   7.319   3.460
 2547SOL    MW410509   0.216   7.382   3.498
 2548SOL     OW10510   0.266   6.701   3.019
 2548SOL    HW210511   0.319   6.776   3.044
 2548SOL    HW310512   0.185   6.739   2.985
 2548SOL    MW410513   0.262   6.716   3.019
 2549SOL     OW10514   0.806   6.605   3.007
 2549SOL    HW210515   0.834   6.514   3.019
 2549SOL    HW310516   0.735   6.599   2.943
 2549SOL    MW410517   0.799   6.593   3.002
 2550SOL     OW10518   0.121   6.470   2.425
 2550SOL    HW210519   0.212   6.485   2.452
 2550SOL    HW310520   0.124   6.391   2.371
 2550SOL    MW410521   0.133   6.462   2.423
 2551SOL     OW10522   0.357   6.178   3.679
 2551SOL    HW210523   0.304   6.258   3.686
 2551SOL    HW310524   0.427   6.190   3.744
 2551SOL    MW410525   0.359   6.191   3.687
 2552SOL     OW10526   0.743   5.728   3.386
 2552SOL    HW210527   0.720   5.636   3.388
 2552SOL    HW310528   0.829   5.730   3.343
 2552SOL    MW410529   0.750   5.718   3.382
 2553SOL     OW10530   0.427   6.252   3.425
 2553SOL    HW210531   0.507   6.302   3.411
 2553SOL    HW310532   0.418   6.246   3.520
 2553SOL    MW410533   0.436   6.258   3.435
 2554SOL     OW10534   0.748   7.402   2.799
 2554SOL    HW210535   0.837   7.417   2.829
 2554SOL    HW310536   0.743   7.449   2.715
 2554SOL    MW410537   0.758   7.410   2.792
 2555SOL     OW10538   1.404   5.777   3.696
 2555SOL    HW210539   1.460   5.704   3.722
 2555SOL    HW310540   1.374   5.815   3.778
 2555SOL    MW410541   1.408   5.772   3.709
 2556SOL     OW10542   0.129   7.082   2.464
 2556SOL    HW210543   0.101   7.121   2.546
 2556SOL    HW310544   0.149   6.991   2.486
 2556SOL    MW410545   0.127   7.074   2.477
 2557SOL     OW10546   0.962   7.125   2.499
 2557SOL    HW210547   1.045   7.079   2.483
 2557SOL    HW310548   0.952   7.124   2.595
 2557SOL    MW410549   0.972   7.118   2.509
 2558SOL     OW10550   1.794   6.270   2.813
 2558SOL    HW210551   1.883   6.300   2.795
 2558SOL    HW310552   1.774   6.210   2.742
 2558SOL    MW410553   1.803   6.267   2.802
 2559SOL     OW10554   1.645   6.449   3.693
 2559SOL    HW210555   1.700   6.373   3.674
 2559SOL    HW310556   1.647   6.457   3.788
 2559SOL    MW410557   1.653   6.440   3.701
 2560SOL     OW10558   0.695   7.182   1.904
 2560SOL    HW210559   0.635   7.251   1.874
 2560SOL    HW310560   0.640   7.124   1.957
 2560SOL    MW410561   0.679   7.184   1.906
 2561SOL     OW10562   1.133   5.827   2.127
 2561SOL    HW210563   1.066   5.803   2.064
 2561SOL    HW310564   1.198   5.876   2.076
 2561SOL    MW410565   1.133   5.829   2.112
 2562SOL     OW10566   0.940   6.011   3.212
 2562SOL    HW210567   0.859   6.052   3.240
 2562SOL    HW310568   0.987   6.079   3.164
 2562SOL    MW410569   0.935   6.026   3.210
 2563SOL     OW10570   1.200   6.349   2.835
 2563SOL    HW210571   1.213   6.443   2.845
 2563SOL    HW310572   1.161   6.339   2.749
 2563SOL    MW410573   1.196   6.360   2.825
 2564SOL     OW10574   0.652   6.544   2.639
 2564SOL    HW210575   0.563   6.535   2.672
 2564SOL    HW310576   0.656   6.634   2.607
 2564SOL    MW410577   0.641   6.555   2.639
 2565SOL     OW10578   1.451   6.127   2.634
 2565SOL    HW210579   1.396   6.048   2.633
 2565SOL    HW310580   1.433   6.168   2.718
 2565SOL    MW410581   1.441   6.122   2.643
 2566SOL     OW10582   0.422   5.814   3.451
 2566SOL    HW210583   0.343   5.832   3.503
 2566SOL    HW310584   0.417   5.876   3.378
 2566SOL    MW410585   0.412   5.824   3.448
 2567SOL     OW10586   1.070   6.331   2.591
 2567SOL    HW210587   1.007   6.263   2.615
 2567SOL    HW310588   1.090   6.312   2.499
 2567SOL    MW410589   1.064   6.318   2.583
 2568SOL     OW10590   0.326   7.226   2.293
 2568SOL    HW210591   0.287   7.273   2.219
 2568SOL    HW310592   0.260   7.161   2.318
 2568SOL    MW410593   0.313   7.224   2.287
 2569SOL     OW10594   0.818   6.635   2.317
 2569SOL    HW210595   0.820   6.609   2.224
 2569SOL    HW310596   0.876   6.572   2.360
 2569SOL    MW410597   0.826   6.624   2.311
 2570SOL     OW10598   1.371   7.195   3.089
 2570SOL    HW210599   1.296   7.241   3.127
 2570SOL    HW310600   1.353   7.102   3.106
 2570SOL    MW410601   1.360   7.189   3.097
 2571SOL     OW10602   1.375   7.403   2.519
 2571SOL    HW210603   1.318   7.356   2.458
 2571SOL    HW310604   1.461   7.364   2.506
 2571SOL    MW410605   1.378   7.394   2.509
 2572SOL     OW10606   1.328   5.879   2.650
 2572SOL    HW210607   1.356   5.811   2.711
 2572SOL    HW310608   1.242   5.850   2.620
 2572SOL    MW410609   1.321   5.866   2.654
 2573SOL     OW10610   0.133   6.813   2.584
 2573SOL    HW210611   0.197   6.845   2.647
 2573SOL    HW310612   0.182   6.749   2.532
 2573SOL    MW410613   0.148   6.809   2.585
 2574SOL     OW10614   0.633   6.889   3.566
 2574SOL    HW210615   0.681   6.972   3.553
 2574SOL    HW310616   0.690   6.837   3.622
 2574SOL    MW410617   0.647   6.893   3.572
 2575SOL     OW10618   0.209   7.131   3.706
 2575SOL    HW210619   0.265   7.055   3.721
 2575SOL    HW310620   0.158   7.109   3.628
 2575SOL    MW410621   0.209   7.118   3.697
 2576SOL     OW10622   1.308   5.983   1.985
 2576SOL    HW210623   1.281   6.049   1.921
 2576SOL    HW310624   1.378   6.026   2.035
 2576SOL    MW410625   1.313   5.996   1.982
 2577SOL     OW10626   1.481   6.539   2.127
 2577SOL    HW210627   1.448   6.628   2.117
 2577SOL    HW310628   1.446   6.510   2.212
 2577SOL    MW410629   1.471   6.548   2.138
 2578SOL     OW10630   1.094   6.968   3.315
 2578SOL    HW210631   1.005   6.974   3.283
 2578SOL    HW310632   1.138   7.047   3.283
 2578SOL    MW410633   1.089   6.978   3.307
 2579SOL     OW10634   0.387   5.636   3.657
 2579SOL    HW210635   0.315   5.601   3.605
 2579SOL    HW310636   0.445   5.677   3.592
 2579SOL    MW410637   0.385   5.637   3.642
 2580SOL     OW10638   0.411   7.126   2.956
 2580SOL    HW210639   0.456   7.188   3.013
 2580SOL    HW310640   0.318   7.145   2.969
 2580SOL    MW410641   0.404   7.136   2.963
 2581SOL     OW10642   1.851   6.655   3.310
 2581SOL    HW210643   1.766   6.668   3.269
 2581SOL    HW310644   1.831   6.619   3.397
 2581SOL    MW410645   1.838   6.651   3.315
 2582SOL     OW10646   0.833   7.194   3.064
 2582SOL    HW210647   0.857   7.183   2.973
 2582SOL    HW310648   0.756   7.251   3.062
 2582SOL    MW410649   0.825   7.199   3.053
 2583SOL     OW10650   0.475   6.577   1.919
 2583SOL    HW210651   0.398   6.590   1.975
 2583SOL    HW310652   0.439   6.541   1.838
 2583SOL    MW410653   0.461   6.573   1.916
 2584SOL     OW10654   1.128   6.550   2.162
 2584SOL    HW210655   1.038   6.571   2.137
 2584SOL    HW310656   1.155   6.623   2.218
 2584SOL    MW410657   1.120   6.562   2.165
 2585SOL     OW10658   0.628   6.899   2.854
 2585SOL    HW210659   0.621   6.878   2.948
 2585SOL    HW310660   0.546   6.867   2.817
 2585SOL    MW410661   0.616   6.893   2.861
 2586SOL     OW10662   1.492   5.909   3.256
 2586SOL    HW210663   1.439   5.911   3.336
 2586SOL    HW310664   1.477   5.822   3.219
 2586SOL    MW410665   1.484   5.899   3.261
 2587SOL     OW10666   1.828   5.833   3.129
 2587SOL    HW210667   1.809   5.900   3.064
 2587SOL    HW310668   1.885   5.771   3.084
 2587SOL    MW410669   1.832   5.834   3.115
 2588SOL     OW10670   0.074   6.991   3.517
 2588SOL    HW210671   0.118   6.924   3.463
 2588SOL    HW310672  -0.011   6.953   3.537
 2588SOL    MW410673   0.069   6.977   3.513
 2589SOL     OW10674   0.757   5.666   2.569
 2589SOL    HW210675   0.686   5.727   2.551
 2589SOL    HW310676   0.808   5.663   2.488
 2589SOL    MW410677   0.753   5.672   2.556
 2590SOL     OW10678   0.515   6.906   2.318
 2590SOL    HW210679   0.508   6.938   2.408
 2590SOL    HW310680   0.425   6.890   2.290
 2590SOL    MW410681   0.503   6.908   2.325
 2591SOL     OW10682   1.110   7.299   3.227
 2591SOL    HW210683   1.030   7.284   3.177
 2591SOL    HW310684   1.117   7.394   3.234
 2591SOL    MW410685   1.101   7.310   3.221
 2592SOL     OW10686   1.224   7.264   2.717
 2592SOL    HW210687   1.271   7.337   2.676
 2592SOL    HW310688   1.145   7.303   2.753
 2592SOL    MW410689   1.219   7.279   2.716
 2593SOL     OW10690   1.632   7.359   2.992
 2593SOL    HW210691   1.675   7.329   3.072
 2593SOL    HW310692   1.551   7.307   2.989
 2593SOL    MW410693   1.627   7.348   3.002
 2594SOL     OW10694   0.717   6.323   3.699
 2594SOL    HW210695   0.787   6.265   3.671
 2594SOL    HW310696   0.660   6.268   3.754
 2594SOL    MW410697   0.719   6.310   3.703
 2595SOL     OW10698   1.504   6.535   3.332
 2595SOL    HW210699   1.509   6.588   3.412
 2595SOL    HW310700   1.466   6.452   3.360
 2595SOL    MW410701   1.500   6.530   3.347
 2596SOL     OW10702   1.144   5.670   3.578
 2596SOL    HW210703   1.139   5.577   3.559
 2596SOL    HW310704   1.227   5.681   3.624
 2596SOL    MW410705   1.152   5.659   3.582
 2597SOL     OW10706   0.518   6.190   2.032
 2597SOL    HW210707   0.484   6.246   2.102
 2597SOL    HW310708   0.589   6.140   2.072
 2597SOL    MW410709   0.524   6.191   2.046
 2598SOL     OW10710   1.614   6.941   2.854
 2598SOL    HW210711   1.649   6.923   2.767
 2598SOL    HW310712   1.519   6.942   2.841
 2598SOL    MW410713   1.606   6.938   2.841
 2599SOL     OW10714   1.043   6.589   3.223
 2599SOL    HW210715   1.086   6.624   3.301
 2599SOL    HW310716   1.026   6.666   3.169
 2599SOL    MW410717   1.046   6.604   3.226
 2600SOL     OW10718   1.574   6.076   2.096
 2600SOL    HW210719   1.566   6.147   2.033
 2600SOL    HW310720   1.592   6.120   2.179
 2600SOL    MW410721   1.575   6.090   2.098
 2601SOL     OW10722   0.434   5.731   2.525
 2601SOL    HW210723   0.484   5.774   2.456
 2601SOL    HW310724   0.349   5.775   2.525
 2601SOL    MW410725   0.431   5.744   2.516
 2602SOL     OW10726   0.193   6.793   3.385
 2602SOL    HW210727   0.221   6.746   3.463
 2602SOL    HW310728   0.114   6.748   3.356
 2602SOL    MW410729   0.186   6.782   3.391
 2603SOL     OW10730   0.701   6.120   3.352
 2603SOL    HW210731   0.673   6.208   3.376
 2603SOL    HW310732   0.670   6.064   3.423
 2603SOL    MW410733   0.693   6.123   3.364
 2604SOL     OW10734   1.243   6.338   2.071
 2604SOL    HW210735   1.290   6.356   1.990
 2604SOL    HW310736   1.209   6.422   2.099
 2604SOL    MW410737   1.245   6.352   2.064
 2605SOL     OW10738   0.356   6.516   2.565
 2605SOL    HW210739   0.414   6.572   2.513
 2605SOL    HW310740   0.400   6.431   2.567
 2605SOL    MW410741   0.369   6.513   2.558
 2606SOL     OW10742   1.496   5.868   2.402
 2606SOL    HW210743   1.418   5.818   2.427
 2606SOL    HW310744   1.467   5.959   2.402
 2606SOL    MW410745   1.482   5.872   2.405
 2607SOL     OW10746   1.082   5.830   2.561
 2607SOL    HW210747   1.102   5.905   2.505
 2607SOL    HW310748   1.062   5.869   2.646
 2607SOL    MW410749   1.083   5.846   2.565
 2608SOL     OW10750   0.978   7.080   1.893
 2608SOL    HW210751   1.005   7.158   1.845
 2608SOL    HW310752   0.885   7.095   1.912
 2608SOL    MW410753   0.969   7.093   1.889
 2609SOL     OW10754   1.842   6.603   3.580
 2609SOL    HW210755   1.755   6.583   3.616
 2609SOL    HW310756   1.896   6.529   3.605
 2609SOL    MW410757   1.837   6.592   3.588
 2610SOL     OW10758   0.063   7.116   2.737
 2610SOL    HW210759   0.095   7.120   2.828
 2610SOL    HW310760  -0.032   7.124   2.745
 2610SOL    MW410761   0.055   7.119   2.750
 2611SOL     OW10762   0.018   6.242   2.284
 2611SOL    HW210763  -0.042   6.214   2.354
 2611SOL    HW310764   0.092   6.182   2.290
 2611SOL    MW410765   0.020   6.231   2.293
 2612SOL     OW10766   1.586   7.454   3.718
 2612SOL    HW210767   1.631   7.378   3.683
 2612SOL    HW310768   1.624   7.467   3.805
 2612SOL    MW410769   1.596   7.447   3.724
 2613SOL     OW10770   1.186   6.973   2.444
 2613SOL    HW210771   1.209   6.924   2.522
 2613SOL    HW310772   1.267   7.015   2.416
 2613SOL    MW410773   1.199   6.973   2.451
 2614SOL     OW10774   0.444   5.981   3.173
 2614SOL    HW210775   0.477   6.062   3.213
 2614SOL    HW310776   0.417   6.007   3.085
 2614SOL    MW410777   0.443   5.995   3.167
 2615SOL     OW10778   0.398   5.948   2.909
 2615SOL    HW210779   0.428   5.862   2.880
 2615SOL    HW310780   0.303   5.941   2.912
 2615SOL    MW410781   0.390   5.937   2.907
 2616SOL     OW10782   1.227   6.157   3.600
 2616SOL    HW210783   1.279   6.092   3.553
 2616SOL    HW310784   1.185   6.208   3.530
 2616SOL    MW410785   1.228   6.154   3.583
 2617SOL     OW10786   1.326   5.952   3.461
 2617SOL    HW210787   1.233   5.936   3.448
 2617SOL    HW310788   1.352   5.890   3.529
 2617SOL    MW410789   1.316   5.942   3.468
 2618SOL     OW10790   0.541   5.726   2.800
 2618SOL    HW210791   0.551   5.635   2.826
 2618SOL    HW310792   0.497   5.722   2.715
 2618SOL    MW410793   0.537   5.714   2.792
 2619SOL     OW10794   0.635   7.341   3.346
 2619SOL    HW210795   0.552   7.326   3.391
 2619SOL    HW310796   0.694   7.274   3.381
 2619SOL    MW410797   0.633   7.331   3.356
 2620SOL     OW10798   1.692   6.048   2.971
 2620SOL    HW210799   1.625   6.081   3.031
 2620SOL    HW310800   1.735   6.126   2.937
 2620SOL    MW410801   1.690   6.063   2.975
 2621SOL     OW10802   1.870   6.768   2.941
 2621SOL    HW210803   1.863   6.708   2.866
 2621SOL    HW310804   1.796   6.828   2.930
 2621SOL    MW410805   1.860   6.768   2.930
 2622SOL     OW10806   1.252   6.630   2.859
 2622SOL    HW210807   1.266   6.602   2.950
 2622SOL    HW310808   1.338   6.661   2.831
 2622SOL    MW410809   1.265   6.631   2.868
 2623SOL     OW10810   1.335   6.125   3.138
 2623SOL    HW210811   1.356   6.126   3.045
 2623SOL    HW310812   1.380   6.047   3.171
 2623SOL    MW410813   1.342   6.115   3.130
 2624SOL     OW10814   1.828   6.256   3.680
 2624SOL    HW210815   1.865   6.201   3.749
 2624SOL    HW310816   1.853   6.213   3.598
 2624SOL    MW410817   1.835   6.244   3.679
 2625SOL     OW10818   1.375   6.554   3.731
 2625SOL    HW210819   1.441   6.502   3.685
 2625SOL    HW310820   1.395   6.541   3.824
 2625SOL    MW410821   1.386   6.545   3.738
 2626SOL     OW10822   1.326   5.640   2.080
 2626SOL    HW210823   1.400   5.684   2.123
 2626SOL    HW310824   1.250   5.694   2.102
 2626SOL    MW410825   1.326   5.652   2.088
 2627SOL     OW10826   1.386   6.415   2.358
 2627SOL    HW210827   1.301   6.385   2.328
 2627SOL    HW310828   1.378   6.422   2.453
 2627SOL    MW410829   1.374   6.413   2.367
 2628SOL     OW10830   0.462   6.878   3.089
 2628SOL    HW210831   0.474   6.905   3.180
 2628SOL    HW310832   0.443   6.959   3.042
 2628SOL    MW410833   0.461   6.893   3.094
 2629SOL     OW10834   0.746   5.858   2.912
 2629SOL    HW210835   0.719   5.860   3.003
 2629SOL    HW310836   0.676   5.810   2.867
 2629SOL    MW410837   0.734   5.854   2.919
 2630SOL     OW10838   0.600   7.350   3.074
 2630SOL    HW210839   0.652   7.427   3.051
 2630SOL    HW310840   0.609   7.342   3.169
 2630SOL    MW410841   0.609   7.357   3.085
 2631SOL     OW10842   1.502   6.935   3.306
 2631SOL    HW210843   1.487   6.864   3.369
 2631SOL    HW310844   1.548   6.893   3.234
 2631SOL    MW410845   1.508   6.919   3.306
 2632SOL     OW10846   0.576   6.666   3.423
 2632SOL    HW210847   0.613   6.671   3.335
 2632SOL    HW310848   0.615   6.739   3.470
 2632SOL    MW410849   0.586   6.676   3.418
 2633SOL     OW10850   0.756   6.709   3.235
 2633SOL    HW210851   0.815   6.655   3.288
 2633SOL    HW310852   0.771   6.681   3.145
 2633SOL    MW410853   0.766   6.698   3.231
 2634SOL     OW10854   0.759   6.081   2.084
 2634SOL    HW210855   0.832   6.130   2.047
 2634SOL    HW310856   0.775   5.990   2.058
 2634SOL    MW410857   0.771   6.076   2.077
 2635SOL     OW10858   1.567   7.198   3.407
 2635SOL    HW210859   1.609   7.183   3.492
 2635SOL    HW310860   1.558   7.111   3.369
 2635SOL    MW410861   1.571   7.186   3.414
 2636SOL     OW10862   1.227   5.677   2.998
 2636SOL    HW210863   1.282   5.686   2.920
 2636SOL    HW310864   1.282   5.711   3.069
 2636SOL    MW410865   1.241   5.682   2.997
 2637SOL     OW10866   0.234   6.590   2.182
 2637SOL    HW210867   0.171   6.606   2.111
 2637SOL    HW310868   0.181   6.553   2.253
 2637SOL    MW410869   0.219   6.587   2.182
 2638SOL     OW10870   0.590   6.944   2.041
 2638SOL    HW210871   0.605   6.920   2.133
 2638SOL    HW310872   0.498   6.922   2.025
 2638SOL    MW410873   0.580   6.937   2.051
 2639SOL     OW10874   1.129   7.175   2.193
 2639SOL    HW210875   1.137   7.093   2.144
 2639SOL    HW310876   1.048   7.214   2.160
 2639SOL    MW410877   1.119   7.170   2.183
 2640SOL     OW10878   0.388   7.333   2.762
 2640SOL    HW210879   0.392   7.244   2.797
 2640SOL    HW310880   0.414   7.324   2.671
 2640SOL    MW410881   0.391   7.321   2.754
 2641SOL     OW10882   1.005   6.811   3.005
 2641SOL    HW210883   0.937   6.745   3.021
 2641SOL    HW310884   1.023   6.805   2.912
 2641SOL    MW410885   0.998   6.802   2.996
 2642SOL     OW10886   0.094   7.086   3.256
 2642SOL    HW210887   0.084   7.044   3.342
 2642SOL    HW310888   0.015   7.139   3.246
 2642SOL    MW410889   0.083   7.087   3.267
 2643SOL     OW10890   0.998   5.950   2.826
 2643SOL    HW210891   0.928   5.902   2.871
 2643SOL    HW310892   1.030   6.013   2.890
 2643SOL    MW410893   0.993   5.952   2.840
 2644SOL     OW10894   0.649   6.386   3.446
 2644SOL    HW210895   0.642   6.481   3.434
 2644SOL    HW310896   0.658   6.375   3.541
 2644SOL    MW410897   0.650   6.398   3.456
 2645SOL     OW10898   0.370   6.901   3.704
 2645SOL    HW210899   0.442   6.903   3.641
 2645SOL    HW310900   0.340   6.810   3.703
 2645SOL    MW410901   0.375   6.890   3.696
 2646SOL     OW10902   1.454   5.664   3.171
 2646SOL    HW210903   1.525   5.610   3.135
 2646SOL    HW310904   1.453   5.643   3.264
 2646SOL    MW410905   1.463   5.655   3.179
 2647SOL     OW10906   1.654   7.194   3.655
 2647SOL    HW210907   1.627   7.191   3.746
 2647SOL    HW310908   1.750   7.198   3.658
 2647SOL    MW410909   1.664   7.194   3.667
 2648SOL     OW10910   0.465   6.056   2.639
 2648SOL    HW210911   0.536   6.004   2.602
 2648SOL    HW310912   0.451   6.021   2.726
 2648SOL    MW410913   0.473   6.045   2.646
 2649SOL     OW10914   0.020   7.391   3.711
 2649SOL    HW210915   0.070   7.369   3.633
 2649SOL    HW310916   0.028   7.486   3.719
 2649SOL    MW410917   0.028   7.400   3.702
 2650SOL     OW10918   0.781   7.149   2.715
 2650SOL    HW210919   0.709   7.086   2.728
 2650SOL    HW310920   0.742   7.234   2.733
 2650SOL    MW410921   0.765   7.152   2.718
 2651SOL     OW10922   1.101   5.997   2.363
 2651SOL    HW210923   1.123   5.934   2.295
 2651SOL    HW310924   1.006   5.989   2.374
 2651SOL    MW410925   1.091   5.988   2.355
 2652SOL     OW10926   0.186   5.687   2.295
 2652SOL    HW210927   0.257   5.708   2.234
 2652SOL    HW310928   0.140   5.615   2.253
 2652SOL    MW410929   0.190   5.681   2.281
 2653SOL     OW10930   0.017   6.154   3.438
 2653SOL    HW210931   0.081   6.220   3.413
 2653SOL    HW310932  -0.064   6.181   3.395
 2653SOL    MW410933   0.015   6.166   3.430
 2654SOL     OW10934   1.755   7.061   2.395
 2654SOL    HW210935   1.725   6.994   2.456
 2654SOL    HW310936   1.849   7.067   2.409
 2654SOL    MW410937   1.763   7.053   2.405
 2655SOL     OW10938   1.311   6.738   2.325
 2655SOL    HW210939   1.283   6.824   2.358
 2655SOL    HW310940   1.339   6.754   2.235
 2655SOL    MW410941   1.311   6.752   2.317
 2656SOL     OW10942   0.973   5.658   2.378
 2656SOL    HW210943   1.010   5.717   2.443
 2656SOL    HW310944   0.950   5.714   2.304
 2656SOL    MW410945   0.974   5.673   2.377
 2657SOL     OW10946   1.826   6.540   2.800
 2657SOL    HW210947   1.817   6.572   2.711
 2657SOL    HW310948   1.779   6.456   2.800
 2657SOL    MW410949   1.819   6.533   2.790
 2658SOL     OW10950   0.202   6.380   3.379
 2658SOL    HW210951   0.223   6.449   3.317
 2658SOL    HW310952   0.282   6.327   3.384
 2658SOL    MW410953   0.215   6.381   3.373
 2659SOL     OW10954   1.738   6.471   2.501
 2659SOL    HW210955   1.832   6.460   2.489
 2659SOL    HW310956   1.714   6.543   2.442
 2659SOL    MW410957   1.748   6.479   2.492
 2660SOL     OW10958   0.187   6.395   3.646
 2660SOL    HW210959   0.113   6.339   3.672
 2660SOL    HW310960   0.182   6.398   3.551
 2660SOL    MW410961   0.176   6.388   3.636
 2661SOL     OW10962   0.353   5.682   3.096
 2661SOL    HW210963   0.396   5.766   3.116
 2661SOL    HW310964   0.426   5.620   3.089
 2661SOL    MW410965   0.368   5.685   3.097
 2662SOL     OW10966   0.394   6.349   2.274
 2662SOL    HW210967   0.394   6.444   2.259
 2662SOL    HW310968   0.471   6.333   2.328
 2662SOL    MW410969   0.404   6.360   2.279
 2663SOL     OW10970   1.170   6.208   3.338
 2663SOL    HW210971   1.206   6.181   3.254
 2663SOL    HW310972   1.083   6.242   3.317
 2663SOL    MW410973   1.164   6.209   3.325
 2664SOL     OW10974   0.153   6.080   2.563
 2664SOL    HW210975   0.215   6.087   2.636
 2664SOL    HW310976   0.153   5.987   2.540
 2664SOL    MW410977   0.161   6.069   2.570
 2665SOL     OW10978   1.700   7.420   2.095
 2665SOL    HW210979   1.767   7.453   2.035
 2665SOL    HW310980   1.657   7.499   2.129
 2665SOL    MW410981   1.702   7.435   2.091
 2666SOL     OW10982   0.835   6.341   3.047
 2666SOL    HW210983   0.793   6.259   3.023
 2666SOL    HW310984   0.836   6.340   3.143
 2666SOL    MW410985   0.828   6.330   3.056
 2667SOL     OW10986   1.506   7.474   3.446
 2667SOL    HW210987   1.509   7.380   3.429
 2667SOL    HW310988   1.529   7.482   3.538
 2667SOL    MW410989   1.509   7.462   3.456
 2668SOL     OW10990   0.639   5.811   3.152
 2668SOL    HW210991   0.570   5.874   3.173
 2668SOL    HW310992   0.666   5.775   3.237
 2668SOL    MW410993   0.633   5.814   3.165
 2669SOL     OW10994   0.022   6.652   2.021
 2669SOL    HW210995  -0.009   6.717   2.084
 2669SOL    HW310996  -0.029   6.574   2.040
 2669SOL    MW410997   0.012   6.649   2.031
 2670SOL     OW10998   1.434   5.664   2.769
 2670SOL    HW210999   1.522   5.673   2.806
 2670SOL    HW311000   1.444   5.605   2.695
 2670SOL    MW411001   1.448   5.658   2.763
 2671SOL     OW11002   1.466   6.403   2.613
 2671SOL    HW211003   1.546   6.418   2.562
 2671SOL    HW311004   1.459   6.308   2.619
 2671SOL    MW411005   1.475   6.392   2.608
 2672SOL     OW11006   0.606   7.452   1.963
 2672SOL    HW211007   0.511   7.452   1.955
 2672SOL    HW311008   0.622   7.398   2.041
 2672SOL    MW411009   0.596   7.446   1.972
 2673SOL     OW11010   0.916   6.329   3.310
 2673SOL    HW211011   0.985   6.396   3.307
 2673SOL    HW311012   0.849   6.367   3.366
 2673SOL    MW411013   0.917   6.342   3.317
 2674SOL     OW11014   0.334   6.629   3.558
 2674SOL    HW211015   0.288   6.545   3.560
 2674SOL    HW311016   0.391   6.623   3.482
 2674SOL    MW411017   0.336   6.617   3.550
 2675SOL     OW11018   1.451   6.272   1.879
 2675SOL    HW211019   1.379   6.248   1.821
 2675SOL    HW311020   1.517   6.309   1.821
 2675SOL    MW411021   1.450   6.274   1.864
 2676SOL     OW11022   0.585   7.004   2.559
 2676SOL    HW211023   0.650   6.937   2.580
 2676SOL    HW311024   0.637   7.081   2.536
 2676SOL    MW411025   0.600   7.006   2.558
 2677SOL     OW11026   0.846   6.169   2.689
 2677SOL    HW211027   0.786   6.187   2.761
 2677SOL    HW311028   0.880   6.081   2.708
 2677SOL    MW411029   0.842   6.159   2.702
 2678SOL     OW11030   1.787   5.668   3.358
 2678SOL    HW211031   1.708   5.714   3.386
 2678SOL    HW311032   1.822   5.722   3.287
 2678SOL    MW411033   1.781   5.681   3.352
 2679SOL     OW11034   1.071   6.752   2.708
 2679SOL    HW211035   1.163   6.733   2.726
 2679SOL    HW311036   1.044   6.682   2.648
 2679SOL    MW411037   1.079   6.740   2.702
 2680SOL     OW11038   0.864   6.572   2.063
 2680SOL    HW211039   0.850   6.484   2.028
 2680SOL    HW311040   0.815   6.629   2.004
 2680SOL    MW411041   0.856   6.567   2.051
 2681SOL     OW11042   1.345   6.990   2.804
 2681SOL    HW211043   1.318   7.074   2.769
 2681SOL    HW311044   1.305   6.985   2.891
 2681SOL    MW411045   1.338   6.999   2.810
 2682SOL     OW11046   1.264   6.938   3.072
 2682SOL    HW211047   1.275   6.905   3.161
 2682SOL    HW311048   1.183   6.897   3.041
 2682SOL    MW411049   1.254   6.930   3.078
 2683SOL     OW11050   0.277   6.296   2.842
 2683SOL    HW211051   0.227   6.295   2.923
 2683SOL    HW311052   0.297   6.388   2.826
 2683SOL    MW411053   0.273   6.308   2.850
 2684SOL     OW11054   1.344   7.060   3.604
 2684SOL    HW211055   1.344   7.154   3.620
 2684SOL    HW311056   1.389   7.050   3.520
 2684SOL    MW411057   1.350   7.070   3.595
 2685SOL     OW11058   1.583   5.778   2.165
 2685SOL    HW211059   1.576   5.782   2.260
 2685SOL    HW311060   1.595   5.869   2.138
 2685SOL    MW411061   1.584   5.791   2.173
 2686SOL     OW11062   0.872   6.341   2.279
 2686SOL    HW211063   0.852   6.327   2.186
 2686SOL    HW311064   0.965   6.320   2.286
 2686SOL    MW411065   0.882   6.336   2.268
 2687SOL     OW11066   0.199   5.964   3.583
 2687SOL    HW211067   0.156   6.023   3.520
 2687SOL    HW311068   0.267   6.019   3.623
 2687SOL    MW411069   0.203   5.979   3.580
 2688SOL     OW11070   1.311   6.584   3.128
 2688SOL    HW211071   1.374   6.581   3.201
 2688SOL    HW311072   1.227   6.602   3.170
 2688SOL    MW411073   1.307   6.586   3.143
 2689SOL     OW11074   0.855   7.299   2.317
 2689SOL    HW211075   0.913   7.370   2.344
 2689SOL    HW311076   0.878   7.227   2.375
 2689SOL    MW411077   0.866   7.299   2.328
 2690SOL     OW11078   1.650   5.761   2.907
 2690SOL    HW211079   1.695   5.679   2.926
 2690SOL    HW311080   1.670   5.817   2.983
 2690SOL    MW411081   1.660   5.757   2.919
 2691SOL     OW11082   0.098   5.604   3.006
 2691SOL    HW211083   0.089   5.605   2.911
 2691SOL    HW311084   0.192   5.616   3.021
 2691SOL    MW411085   0.110   5.607   2.997
 2692SOL     OW11086   1.735   6.797   2.626
 2692SOL    HW211087   1.714   6.743   2.549
 2692SOL    HW311088   1.831   6.795   2.630
 2692SOL    MW411089   1.744   6.790   2.615
 2693SOL     OW11090   0.427   6.942   3.369
 2693SOL    HW211091   0.348   6.892   3.392
 2693SOL    HW311092   0.497   6.901   3.419
 2693SOL    MW411093   0.425   6.930   3.379
 2694SOL     OW11094   0.311   5.731   2.052
 2694SOL    HW211095   0.240   5.786   2.020
 2694SOL    HW311096   0.353   5.697   1.973
 2694SOL    MW411097   0.307   5.733   2.038
 2695SOL     OW11098   1.435   6.228   2.888
 2695SOL    HW211099   1.358   6.274   2.854
 2695SOL    HW311100   1.492   6.297   2.922
 2695SOL    MW411101   1.432   6.243   2.888
 2696SOL     OW11102   0.067   5.830   1.901
 2696SOL    HW211103   0.034   5.909   1.945
 2696SOL    HW311104   0.122   5.863   1.830
 2696SOL    MW411105   0.070   5.844   1.898
 2697SOL     OW11106   0.101   7.087   2.090
 2697SOL    HW211107   0.118   7.171   2.132
 2697SOL    HW311108   0.136   7.096   2.002
 2697SOL    MW411109   0.106   7.100   2.084
 2698SOL     OW11110   1.373   7.176   2.307
 2698SOL    HW211111   1.436   7.166   2.236
 2698SOL    HW311112   1.290   7.196   2.262
 2698SOL    MW411113   1.370   7.177   2.292
 2699SOL     OW11114   1.736   6.444   3.993
 2699SOL    HW211115   1.777   6.386   4.058
 2699SOL    HW311116   1.643   6.436   4.010
 2699SOL    MW411117   1.730   6.436   4.003
 2700SOL     OW11118   1.602   6.376   4.988
 2700SOL    HW211119   1.557   6.443   5.039
 2700SOL    HW311120   1.690   6.412   4.974
 2700SOL    MW411121   1.608   6.389   4.992
 2701SOL     OW11122   0.530   6.627   4.222
 2701SOL    HW211123   0.620   6.602   4.206
 2701SOL    HW311124   0.526   6.720   4.199
 2701SOL    MW411125   0.542   6.636   4.217
 2702SOL     OW11126   1.646   7.330   4.364
 2702SOL    HW211127   1.658   7.276   4.442
 2702SOL    HW311128   1.683   7.278   4.293
 2702SOL    MW411129   1.652   7.315   4.365
 2703SOL     OW11130   1.025   7.215   5.365
 2703SOL    HW211131   1.066   7.251   5.286
 2703SOL    HW311132   1.060   7.126   5.372
 2703SOL    MW411133   1.036   7.208   5.356
 2704SOL     OW11134   1.582   6.770   4.969
 2704SOL    HW211135   1.503   6.735   4.927
 2704SOL    HW311136   1.609   6.842   4.913
 2704SOL    MW411137   1.575   6.775   4.956
 2705SOL     OW11138   0.814   6.083   4.235
 2705SOL    HW211139   0.789   6.171   4.263
 2705SOL    HW311140   0.811   6.086   4.139
 2705SOL    MW411141   0.810   6.095   4.227
 2706SOL     OW11142   0.256   6.111   4.163
 2706SOL    HW211143   0.288   6.199   4.145
 2706SOL    HW311144   0.244   6.109   4.258
 2706SOL    MW411145   0.259   6.123   4.175
 2707SOL     OW11146   0.334   6.524   5.064
 2707SOL    HW211147   0.397   6.471   5.015
 2707SOL    HW311148   0.315   6.598   5.007
 2707SOL    MW411149   0.340   6.526   5.051
 2708SOL     OW11150   0.655   5.866   4.250
 2708SOL    HW211151   0.713   5.942   4.252
 2708SOL    HW311152   0.590   5.887   4.183
 2708SOL    MW411153   0.654   5.878   4.241
 2709SOL     OW11154   0.742   6.793   4.425
 2709SOL    HW211155   0.822   6.796   4.477
 2709SOL    HW311156   0.770   6.760   4.339
 2709SOL    MW411157   0.756   6.789   4.420
 2710SOL     OW11158   0.767   7.134   5.328
 2710SOL    HW211159   0.851   7.160   5.367
 2710SOL    HW311160   0.791   7.078   5.254
 2710SOL    MW411161   0.781   7.130   5.323
 2711SOL     OW11162   0.519   6.297   4.416
 2711SOL    HW211163   0.504   6.217   4.467
 2711SOL    HW311164   0.601   6.332   4.450
 2711SOL    MW411165   0.527   6.289   4.428
 2712SOL     OW11166   0.856   6.983   5.101
 2712SOL    HW211167   0.820   7.049   5.041
 2712SOL    HW311168   0.784   6.921   5.114
 2712SOL    MW411169   0.842   6.983   5.095
 2713SOL     OW11170   0.661   6.123   4.793
 2713SOL    HW211171   0.567   6.119   4.811
 2713SOL    HW311172   0.691   6.032   4.802
 2713SOL    MW411173   0.652   6.111   4.796
 2714SOL     OW11174   0.407   6.537   4.697
 2714SOL    HW211175   0.362   6.544   4.613
 2714SOL    HW311176   0.387   6.620   4.741
 2714SOL    MW411177   0.399   6.549   4.691
 2715SOL     OW11178   0.104   7.383   4.572
 2715SOL    HW211179   0.193   7.375   4.607
 2715SOL    HW311180   0.068   7.295   4.577
 2715SOL    MW411181   0.111   7.370   4.577
 2716SOL     OW11182   1.369   6.775   3.941
 2716SOL    HW211183   1.287   6.811   3.907
 2716SOL    HW311184   1.437   6.818   3.890
 2716SOL    MW411185   1.367   6.785   3.929
 2717SOL     OW11186   0.368   6.910   4.607
 2717SOL    HW211187   0.344   6.963   4.683
 2717SOL    HW311188   0.424   6.968   4.555
 2717SOL    MW411189   0.372   6.925   4.610
 2718SOL     OW11190   0.930   6.554   4.417
 2718SOL    HW211191   0.844   6.541   4.457
 2718SOL    HW311192   0.983   6.481   4.449
 2718SOL    MW411193   0.926   6.543   4.426
 2719SOL     OW11194   0.338   7.206   5.202
 2719SOL    HW211195   0.246   7.182   5.187
 2719SOL    HW311196   0.382   7.123   5.219
 2719SOL    MW411197   0.332   7.191   5.201
 2720SOL     OW11198   0.921   6.916   4.134
 2720SOL    HW211199   0.898   6.978   4.202
 2720SOL    HW311200   0.878   6.834   4.160
 2720SOL    MW411201   0.913   6.912   4.145
 2721SOL     OW11202   1.794   5.917   4.590
 2721SOL    HW211203   1.731   5.897   4.659
 2721SOL    HW311204   1.784   5.846   4.527
 2721SOL    MW411205   1.784   5.904   4.591
 2722SOL     OW11206   0.418   5.889   4.102
 2722SOL    HW211207   0.392   5.851   4.018
 2722SOL    HW311208   0.355   5.959   4.118
 2722SOL    MW411209   0.407   5.892   4.093
 2723SOL     OW11210   0.253   6.850   4.139
 2723SOL    HW211211   0.201   6.918   4.095
 2723SOL    HW311212   0.250   6.776   4.079
 2723SOL    MW411213   0.245   6.849   4.126
 2724SOL     OW11214   0.915   7.313   3.917
 2724SOL    HW211215   0.870   7.329   4.000
 2724SOL    HW311216   0.846   7.278   3.859
 2724SOL    MW411217   0.901   7.310   3.919
 2725SOL     OW11218   1.850   6.086   3.892
 2725SOL    HW211219   1.759   6.088   3.920
 2725SOL    HW311220   1.895   6.148   3.950
 2725SOL    MW411221   1.843   6.094   3.902
 2726SOL     OW11222   1.595   6.689   4.242
 2726SOL    HW211223   1.505   6.689   4.277
 2726SOL    HW311224   1.588   6.735   4.159
 2726SOL    MW411225   1.582   6.695   4.236
 2727SOL     OW11226   1.395   6.324   5.314
 2727SOL    HW211227   1.464   6.262   5.291
 2727SOL    HW311228   1.320   6.298   5.261
 2727SOL    MW411229   1.395   6.311   5.305
 2728SOL     OW11230   0.136   7.204   4.866
 2728SOL    HW211231   0.119   7.150   4.943
 2728SOL    HW311232   0.124   7.294   4.896
 2728SOL    MW411233   0.133   7.208   4.880
 2729SOL     OW11234   1.131   6.711   5.306
 2729SOL    HW211235   1.116   6.804   5.291
 2729SOL    HW311236   1.226   6.701   5.306
 2729SOL    MW411237   1.140   6.721   5.303
 2730SOL     OW11238   0.927   6.135   5.507
 2730SOL    HW211239   1.017   6.136   5.474
 2730SOL    HW311240   0.886   6.060   5.465
 2730SOL    MW411241   0.933   6.125   5.498
 2731SOL     OW11242   1.502   6.667   4.634
 2731SOL    HW211243   1.505   6.601   4.565
 2731SOL    HW311244   1.587   6.710   4.630
 2731SOL    MW411245   1.514   6.663   4.625
 2732SOL     OW11246   1.122   6.270   4.203
 2732SOL    HW211247   1.148   6.294   4.114
 2732SOL    HW311248   1.104   6.177   4.199
 2732SOL    MW411249   1.124   6.262   4.190
 2733SOL     OW11250   1.787   6.890   4.054
 2733SOL    HW211251   1.743   6.931   4.129
 2733SOL    HW311252   1.844   6.958   4.019
 2733SOL    MW411253   1.789   6.904   4.059
 2734SOL     OW11254   0.707   5.939   5.457
 2734SOL    HW211255   0.717   5.865   5.397
 2734SOL    HW311256   0.743   5.908   5.540
 2734SOL    MW411257   0.713   5.925   5.459
 2735SOL     OW11258   0.443   7.306   4.372
 2735SOL    HW211259   0.475   7.394   4.350
 2735SOL    HW311260   0.396   7.278   4.294
 2735SOL    MW411261   0.442   7.314   4.359
 2736SOL     OW11262   1.827   5.668   4.421
 2736SOL    HW211263   1.881   5.619   4.483
 2736SOL    HW311264   1.770   5.602   4.382
 2736SOL    MW411265   1.827   5.652   4.423
 2737SOL     OW11266   0.159   7.366   3.949
 2737SOL    HW211267   0.188   7.456   3.941
 2737SOL    HW311268   0.109   7.349   3.870
 2737SOL    MW411269   0.157   7.374   3.938
 2738SOL     OW11270   0.946   5.621   4.834
 2738SOL    HW211271   0.905   5.699   4.796
 2738SOL    HW311272   1.040   5.639   4.829
 2738SOL    MW411273   0.952   5.633   4.829
 2739SOL     OW11274   1.563   7.174   3.920
 2739SOL    HW211275   1.611   7.243   3.966
 2739SOL    HW311276   1.484   7.218   3.889
 2739SOL    MW411277   1.558   7.188   3.923
 2740SOL     OW11278   0.961   6.299   3.864
 2740SOL    HW211279   0.963   6.246   3.785
 2740SOL    HW311280   1.049   6.336   3.870
 2740SOL    MW411281   0.973   6.298   3.853
 2741SOL     OW11282   1.575   6.225   4.200
 2741SOL    HW211283   1.614   6.225   4.287
 2741SOL    HW311284   1.516   6.301   4.200
 2741SOL    MW411285   1.572   6.236   4.211
 2742SOL     OW11286   0.892   6.592   5.329
 2742SOL    HW211287   0.869   6.572   5.419
 2742SOL    HW311288   0.977   6.636   5.334
 2742SOL    MW411289   0.899   6.595   5.341
 2743SOL     OW11290   0.972   5.729   5.089
 2743SOL    HW211291   0.978   5.691   5.002
 2743SOL    HW311292   0.961   5.823   5.074
 2743SOL    MW411293   0.973   5.737   5.077
 2744SOL     OW11294   1.061   6.218   4.923
 2744SOL    HW211295   1.136   6.247   4.870
 2744SOL    HW311296   0.993   6.283   4.907
 2744SOL    MW411297   1.062   6.230   4.913
 2745SOL     OW11298   1.611   6.186   5.200
 2745SOL    HW211299   1.592   6.095   5.179
 2745SOL    HW311300   1.589   6.235   5.121
 2745SOL    MW411301   1.606   6.179   5.187
 2746SOL     OW11302   1.753   7.280   5.104
 2746SOL    HW211303   1.681   7.242   5.155
 2746SOL    HW311304   1.770   7.365   5.145
 2746SOL    MW411305   1.747   7.285   5.116
 2747SOL     OW11306   1.058   5.924   5.306
 2747SOL    HW211307   1.024   5.963   5.225
 2747SOL    HW311308   1.036   5.832   5.299
 2747SOL    MW411309   1.051   5.917   5.296
 2748SOL     OW11310   1.467   6.738   5.382
 2748SOL    HW211311   1.549   6.779   5.412
 2748SOL    HW311312   1.430   6.700   5.462
 2748SOL    MW411313   1.473   6.739   5.397
 2749SOL     OW11314   1.762   6.111   4.366
 2749SOL    HW211315   1.851   6.080   4.383
 2749SOL    HW311316   1.705   6.051   4.414
 2749SOL    MW411317   1.765   6.099   4.375
 2750SOL     OW11318   0.188   5.825   4.395
 2750SOL    HW211319   0.179   5.765   4.321
 2750SOL    HW311320   0.121   5.796   4.458
 2750SOL    MW411321   0.178   5.812   4.393
 2751SOL     OW11322   1.131   6.918   3.956
 2751SOL    HW211323   1.081   6.920   4.038
 2751SOL    HW311324   1.065   6.936   3.888
 2751SOL    MW411325   1.117   6.920   3.958
 2752SOL     OW11326   0.135   5.998   4.758
 2752SOL    HW211327   0.107   6.089   4.767
 2752SOL    HW311328   0.072   5.959   4.697
 2752SOL    MW411329   0.122   6.004   4.752
 2753SOL     OW11330   0.594   7.336   4.064
 2753SOL    HW211331   0.515   7.294   4.097
 2753SOL    HW311332   0.660   7.319   4.131
 2753SOL    MW411333   0.593   7.328   4.077
 2754SOL     OW11334   1.722   6.856   5.461
 2754SOL    HW211335   1.772   6.782   5.493
 2754SOL    HW311336   1.668   6.883   5.536
 2754SOL    MW411337   1.722   6.850   5.474
 2755SOL     OW11338   0.730   6.751   3.771
 2755SOL    HW211339   0.652   6.697   3.758
 2755SOL    HW311340   0.701   6.824   3.824
 2755SOL    MW411341   0.716   6.753   3.776
 2756SOL     OW11342   1.856   6.491   4.963
 2756SOL    HW211343   1.872   6.529   4.876
 2756SOL    HW311344   1.890   6.557   5.024
 2756SOL    MW411345   1.863   6.504   4.959
 2757SOL     OW11346   1.648   7.200   4.632
 2757SOL    HW211347   1.677   7.267   4.693
 2757SOL    HW311348   1.629   7.124   4.687
 2757SOL    MW411349   1.650   7.200   4.647
 2758SOL     OW11350   1.311   7.267   3.839
 2758SOL    HW211351   1.237   7.230   3.889
 2758SOL    HW311352   1.319   7.357   3.872
 2758SOL    MW411353   1.302   7.274   3.851
 2759SOL     OW11354   0.119   6.273   4.928
 2759SOL    HW211355   0.181   6.303   4.994
 2759SOL    HW311356   0.053   6.342   4.922
 2759SOL    MW411357   0.118   6.286   4.935
 2760SOL     OW11358   1.535   6.941   3.781
 2760SOL    HW211359   1.482   6.990   3.717
 2760SOL    HW311360   1.566   7.007   3.842
 2760SOL    MW411361   1.533   6.955   3.779
 2761SOL     OW11362   0.760   5.830   3.836
 2761SOL    HW211363   0.708   5.750   3.824
 2761SOL    HW311364   0.847   5.807   3.804
 2761SOL    MW411365   0.763   5.816   3.830
 2762SOL     OW11366   0.214   7.382   5.380
 2762SOL    HW211367   0.188   7.450   5.318
 2762SOL    HW311368   0.262   7.319   5.328
 2762SOL    MW411369   0.216   7.382   5.366
 2763SOL     OW11370   0.266   6.701   4.887
 2763SOL    HW211371   0.319   6.776   4.912
 2763SOL    HW311372   0.185   6.739   4.853
 2763SOL    MW411373   0.262   6.716   4.887
 2764SOL     OW11374   0.806   6.605   4.875
 2764SOL    HW211375   0.834   6.514   4.887
 2764SOL    HW311376   0.735   6.599   4.811
 2764SOL    MW411377   0.799   6.593   4.870
 2765SOL     OW11378   0.121   6.470   4.293
 2765SOL    HW211379   0.212   6.485   4.320
 2765SOL    HW311380   0.124   6.391   4.239
 2765SOL    MW411381   0.133   6.462   4.291
 2766SOL     OW11382   0.357   6.178   5.547
 2766SOL    HW211383   0.304   6.258   5.554
 2766SOL    HW311384   0.427   6.190   5.612
 2766SOL    MW411385   0.359   6.191   5.555
 2767SOL     OW11386   0.743   5.728   5.254
 2767SOL    HW211387   0.720   5.636   5.256
 2767SOL    HW311388   0.829   5.730   5.211
 2767SOL    MW411389   0.750   5.718   5.250
 2768SOL     OW11390   0.427   6.252   5.293
 2768SOL    HW211391   0.507   6.302   5.279
 2768SOL    HW311392   0.418   6.246   5.388
 2768SOL    MW411393   0.436   6.258   5.303
 2769SOL     OW11394   0.748   7.402   4.667
 2769SOL    HW211395   0.837   7.417   4.697
 2769SOL    HW311396   0.743   7.449   4.583
 2769SOL    MW411397   0.758   7.410   4.660
 2770SOL     OW11398   1.404   5.777   5.564
 2770SOL    HW211399   1.460   5.704   5.590
 2770SOL    HW311400   1.374   5.815   5.646
 2770SOL    MW411401   1.408   5.772   5.577
 2771SOL     OW11402   0.129   7.082   4.332
 2771SOL    HW211403   0.101   7.121   4.414
 2771SOL    HW311404   0.149   6.991   4.354
 2771SOL    MW411405   0.127   7.074   4.345
 2772SOL     OW11406   0.962   7.125   4.367
 2772SOL    HW211407   1.045   7.079   4.351
 2772SOL    HW311408   0.952   7.124   4.463
 2772SOL    MW411409   0.972   7.118   4.377
 2773SOL     OW11410   1.794   6.270   4.681
 2773SOL    HW211411   1.883   6.300   4.663
 2773SOL    HW311412   1.774   6.210   4.610
 2773SOL    MW411413   1.803   6.267   4.670
 2774SOL     OW11414   1.645   6.449   5.561
 2774SOL    HW211415   1.700   6.373   5.542
 2774SOL    HW311416   1.647   6.457   5.656
 2774SOL    MW411417   1.653   6.440   5.569
 2775SOL     OW11418   0.695   7.182   3.772
 2775SOL    HW211419   0.635   7.251   3.742
 2775SOL    HW311420   0.640   7.124   3.825
 2775SOL    MW411421   0.679   7.184   3.774
 2776SOL     OW11422   1.133   5.827   3.995
 2776SOL    HW211423   1.066   5.803   3.932
 2776SOL    HW311424   1.198   5.876   3.944
 2776SOL    MW411425   1.133   5.829   3.980
 2777SOL     OW11426   0.940   6.011   5.080
 2777SOL    HW211427   0.859   6.052   5.108
 2777SOL    HW311428   0.987   6.079   5.032
 2777SOL    MW411429   0.935   6.026   5.078
 2778SOL     OW11430   1.200   6.349   4.703
 2778SOL    HW211431   1.213   6.443   4.713
 2778SOL    HW311432   1.161   6.339   4.617
 2778SOL    MW411433   1.196   6.360   4.693
 2779SOL     OW11434   0.652   6.544   4.507
 2779SOL    HW211435   0.563   6.535   4.540
 2779SOL    HW311436   0.656   6.634   4.475
 2779SOL    MW411437   0.641   6.555   4.507
 2780SOL     OW11438   1.451   6.127   4.502
 2780SOL    HW211439   1.396   6.048   4.501
 2780SOL    HW311440   1.433   6.168   4.586
 2780SOL    MW411441   1.441   6.122   4.511
 2781SOL     OW11442   0.422   5.814   5.319
 2781SOL    HW211443   0.343   5.832   5.371
 2781SOL    HW311444   0.417   5.876   5.246
 2781SOL    MW411445   0.412   5.824   5.316
 2782SOL     OW11446   1.070   6.331   4.459
 2782SOL    HW211447   1.007   6.263   4.483
 2782SOL    HW311448   1.090   6.312   4.367
 2782SOL    MW411449   1.064   6.318   4.451
 2783SOL     OW11450   0.326   7.226   4.161
 2783SOL    HW211451   0.287   7.273   4.087
 2783SOL    HW311452   0.260   7.161   4.186
 2783SOL    MW411453   0.313   7.224   4.155
 2784SOL     OW11454   0.818   6.635   4.185
 2784SOL    HW211455   0.820   6.609   4.092
 2784SOL    HW311456   0.876   6.572   4.228
 2784SOL    MW411457   0.826   6.624   4.179
 2785SOL     OW11458   1.371   7.195   4.957
 2785SOL    HW211459   1.296   7.241   4.995
 2785SOL    HW311460   1.353   7.102   4.974
 2785SOL    MW411461   1.360   7.189   4.965
 2786SOL     OW11462   1.375   7.403   4.387
 2786SOL    HW211463   1.318   7.356   4.326
 2786SOL    HW311464   1.461   7.364   4.374
 2786SOL    MW411465   1.378   7.394   4.377
 2787SOL     OW11466   1.328   5.879   4.518
 2787SOL    HW211467   1.356   5.811   4.579
 2787SOL    HW311468   1.242   5.850   4.488
 2787SOL    MW411469   1.321   5.866   4.522
 2788SOL     OW11470   0.133   6.813   4.452
 2788SOL    HW211471   0.197   6.845   4.515
 2788SOL    HW311472   0.182   6.749   4.400
 2788SOL    MW411473   0.148   6.809   4.453
 2789SOL     OW11474   0.633   6.889   5.434
 2789SOL    HW211475   0.681   6.972   5.421
 2789SOL    HW311476   0.690   6.837   5.490
 2789SOL    MW411477   0.647   6.893   5.440
 2790SOL     OW11478   0.209   7.131   5.574
 2790SOL    HW211479   0.265   7.055   5.589
 2790SOL    HW311480   0.158   7.109   5.496
 2790SOL    MW411481   0.209   7.118   5.565
 2791SOL     OW11482   1.308   5.983   3.853
 2791SOL    HW211483   1.281   6.049   3.789
 2791SOL    HW311484   1.378   6.026   3.903
 2791SOL    MW411485   1.313   5.996   3.850
 2792SOL     OW11486   0.976   5.688   3.790
 2792SOL    HW211487   1.032   5.680   3.712
 2792SOL    HW311488   0.953   5.598   3.812
 2792SOL    MW411489   0.981   5.675   3.783
 2793SOL     OW11490   1.481   6.539   3.995
 2793SOL    HW211491   1.448   6.628   3.985
 2793SOL    HW311492   1.446   6.510   4.080
 2793SOL    MW411493   1.471   6.548   4.006
 2794SOL     OW11494   1.094   6.968   5.183
 2794SOL    HW211495   1.005   6.974   5.151
 2794SOL    HW311496   1.138   7.047   5.151
 2794SOL    MW411497   1.089   6.978   5.175
 2795SOL     OW11498   0.387   5.636   5.525
 2795SOL    HW211499   0.315   5.601   5.473
 2795SOL    HW311500   0.445   5.677   5.460
 2795SOL    MW411501   0.385   5.637   5.510
 2796SOL     OW11502   0.411   7.126   4.824
 2796SOL    HW211503   0.456   7.188   4.881
 2796SOL    HW311504   0.318   7.145   4.837
 2796SOL    MW411505   0.404   7.136   4.831
 2797SOL     OW11506   1.851   6.655   5.178
 2797SOL    HW211507   1.766   6.668   5.137
 2797SOL    HW311508   1.831   6.619   5.265
 2797SOL    MW411509   1.838   6.651   5.183
 2798SOL     OW11510   0.833   7.194   4.932
 2798SOL    HW211511   0.857   7.183   4.841
 2798SOL    HW311512   0.756   7.251   4.930
 2798SOL    MW411513   0.825   7.199   4.921
 2799SOL     OW11514   0.475   6.577   3.787
 2799SOL    HW211515   0.398   6.590   3.843
 2799SOL    HW311516   0.439   6.541   3.706
 2799SOL    MW411517   0.461   6.573   3.784
 2800SOL     OW11518   1.128   6.550   4.030
 2800SOL    HW211519   1.038   6.571   4.005
 2800SOL    HW311520   1.155   6.623   4.086
 2800SOL    MW411521   1.120   6.562   4.033
 2801SOL     OW11522   0.628   6.899   4.722
 2801SOL    HW211523   0.621   6.878   4.816
 2801SOL    HW311524   0.546   6.867   4.685
 2801SOL    MW411525   0.616   6.893   4.729
 2802SOL     OW11526   1.492   5.909   5.124
 2802SOL    HW211527   1.439   5.911   5.204
 2802SOL    HW311528   1.477   5.822   5.087
 2802SOL    MW411529   1.484   5.899   5.129
 2803SOL     OW11530   1.828   5.833   4.997
 2803SOL    HW211531   1.809   5.900   4.932
 2803SOL    HW311532   1.885   5.771   4.952
 2803SOL    MW411533   1.832   5.834   4.983
 2804SOL     OW11534   0.074   6.991   5.385
 2804SOL    HW211535   0.118   6.924   5.331
 2804SOL    HW311536  -0.011   6.953   5.405
 2804SOL    MW411537   0.069   6.977   5.381
 2805SOL     OW11538   0.757   5.666   4.437
 2805SOL    HW211539   0.686   5.727   4.419
 2805SOL    HW311540   0.808   5.663   4.356
 2805SOL    MW411541   0.753   5.672   4.424
 2806SOL     OW11542   0.515   6.906   4.186
 2806SOL    HW211543   0.508   6.938   4.276
 2806SOL    HW311544   0.425   6.890   4.158
 2806SOL    MW411545   0.503   6.908   4.193
 2807SOL     OW11546   1.110   7.299   5.095
 2807SOL    HW211547   1.030   7.284   5.045
 2807SOL    HW311548   1.117   7.394   5.102
 2807SOL    MW411549   1.101   7.310   5.089
 2808SOL     OW11550   1.224   7.264   4.585
 2808SOL    HW211551   1.271   7.337   4.544
 2808SOL    HW311552   1.145   7.303   4.621
 2808SOL    MW411553   1.219   7.279   4.584
 2809SOL     OW11554   1.632   7.359   4.860
 2809SOL    HW211555   1.675   7.329   4.940
 2809SOL    HW311556   1.551   7.307   4.857
 2809SOL    MW411557   1.627   7.348   4.870
 2810SOL     OW11558   0.717   6.323   5.567
 2810SOL    HW211559   0.787   6.265   5.539
 2810SOL    HW311560   0.660   6.268   5.622
 2810SOL    MW411561   0.719   6.310   5.571
 2811SOL     OW11562   1.504   6.535   5.200
 2811SOL    HW211563   1.509   6.588   5.280
 2811SOL    HW311564   1.466   6.452   5.228
 2811SOL    MW411565   1.500   6.530   5.215
 2812SOL     OW11566   1.144   5.670   5.446
 2812SOL    HW211567   1.139   5.577   5.427
 2812SOL    HW311568   1.227   5.681   5.492
 2812SOL    MW411569   1.152   5.659   5.450
 2813SOL     OW11570   0.518   6.190   3.900
 2813SOL    HW211571   0.484   6.246   3.970
 2813SOL    HW311572   0.589   6.140   3.940
 2813SOL    MW411573   0.524   6.191   3.914
 2814SOL     OW11574   1.614   6.941   4.722
 2814SOL    HW211575   1.649   6.923   4.635
 2814SOL    HW311576   1.519   6.942   4.709
 2814SOL    MW411577   1.606   6.938   4.709
 2815SOL     OW11578   1.043   6.589   5.091
 2815SOL    HW211579   1.086   6.624   5.169
 2815SOL    HW311580   1.026   6.666   5.037
 2815SOL    MW411581   1.046   6.604   5.094
 2816SOL     OW11582   1.574   6.076   3.964
 2816SOL    HW211583   1.566   6.147   3.901
 2816SOL    HW311584   1.592   6.120   4.047
 2816SOL    MW411585   1.575   6.090   3.966
 2817SOL     OW11586   0.434   5.731   4.393
 2817SOL    HW211587   0.484   5.774   4.324
 2817SOL    HW311588   0.349   5.775   4.393
 2817SOL    MW411589   0.431   5.744   4.384
 2818SOL     OW11590   0.193   6.793   5.253
 2818SOL    HW211591   0.221   6.746   5.331
 2818SOL    HW311592   0.114   6.748   5.224
 2818SOL    MW411593   0.186   6.782   5.259
 2819SOL     OW11594   0.701   6.120   5.220
 2819SOL    HW211595   0.673   6.208   5.244
 2819SOL    HW311596   0.670   6.064   5.291
 2819SOL    MW411597   0.693   6.123   5.232
 2820SOL     OW11598   1.243   6.338   3.939
 2820SOL    HW211599   1.290   6.356   3.858
 2820SOL    HW311600   1.209   6.422   3.967
 2820SOL    MW411601   1.245   6.352   3.932
 2821SOL     OW11602   0.356   6.516   4.433
 2821SOL    HW211603   0.414   6.572   4.381
 2821SOL    HW311604   0.400   6.431   4.435
 2821SOL    MW411605   0.369   6.513   4.426
 2822SOL     OW11606   1.496   5.868   4.270
 2822SOL    HW211607   1.418   5.818   4.295
 2822SOL    HW311608   1.467   5.959   4.270
 2822SOL    MW411609   1.482   5.872   4.273
 2823SOL     OW11610   1.082   5.830   4.429
 2823SOL    HW211611   1.102   5.905   4.373
 2823SOL    HW311612   1.062   5.869   4.514
 2823SOL    MW411613   1.083   5.846   4.433
 2824SOL     OW11614   0.978   7.080   3.761
 2824SOL    HW211615   1.005   7.158   3.713
 2824SOL    HW311616   0.885   7.095   3.780
 2824SOL    MW411617   0.969   7.093   3.757
 2825SOL     OW11618   1.842   6.603   5.448
 2825SOL    HW211619   1.755   6.583   5.484
 2825SOL    HW311620   1.896   6.529   5.473
 2825SOL    MW411621   1.837   6.592   5.456
 2826SOL     OW11622   0.063   7.116   4.605
 2826SOL    HW211623   0.095   7.120   4.696
 2826SOL    HW311624  -0.032   7.124   4.613
 2826SOL    MW411625   0.055   7.119   4.618
 2827SOL     OW11626   0.018   6.242   4.152
 2827SOL    HW211627  -0.042   6.214   4.222
 2827SOL    HW311628   0.092   6.182   4.158
 2827SOL    MW411629   0.020   6.231   4.161
 2828SOL     OW11630   1.586   7.454   5.586
 2828SOL    HW211631   1.631   7.378   5.551
 2828SOL    HW311632   1.624   7.467   5.673
 2828SOL    MW411633   1.596   7.447   5.592
 2829SOL     OW11634   1.186   6.973   4.312
 2829SOL    HW211635   1.209   6.924   4.390
 2829SOL    HW311636   1.267   7.015   4.284
 2829SOL    MW411637   1.199   6.973   4.319
 2830SOL     OW11638   0.444   5.981   5.041
 2830SOL    HW211639   0.477   6.062   5.081
 2830SOL    HW311640   0.417   6.007   4.953
 2830SOL    MW411641   0.443   5.995   5.035
 2831SOL     OW11642   0.398   5.948   4.777
 2831SOL    HW211643   0.428   5.862   4.748
 2831SOL    HW311644   0.303   5.941   4.780
 2831SOL    MW411645   0.390   5.937   4.775
 2832SOL     OW11646   1.227   6.157   5.468
 2832SOL    HW211647   1.279   6.092   5.421
 2832SOL    HW311648   1.185   6.208   5.398
 2832SOL    MW411649   1.228   6.154   5.451
 2833SOL     OW11650   1.326   5.952   5.329
 2833SOL    HW211651   1.233   5.936   5.316
 2833SOL    HW311652   1.352   5.890   5.397
 2833SOL    MW411653   1.316   5.942   5.336
 2834SOL     OW11654   0.541   5.726   4.668
 2834SOL    HW211655   0.551   5.635   4.694
 2834SOL    HW311656   0.497   5.722   4.583
 2834SOL    MW411657   0.537   5.714   4.660
 2835SOL     OW11658   0.635   7.341   5.214
 2835SOL    HW211659   0.552   7.326   5.259
 2835SOL    HW311660   0.694   7.274   5.249
 2835SOL    MW411661   0.633   7.331   5.224
 2836SOL     OW11662   1.692   6.048   4.839
 2836SOL    HW211663   1.625   6.081   4.899
 2836SOL    HW311664   1.735   6.126   4.805
 2836SOL    MW411665   1.690   6.063   4.843
 2837SOL     OW11666   1.870   6.768   4.809
 2837SOL    HW211667   1.863   6.708   4.734
 2837SOL    HW311668   1.796   6.828   4.798
 2837SOL    MW411669   1.860   6.768   4.798
 2838SOL     OW11670   1.252   6.630   4.727
 2838SOL    HW211671   1.266   6.602   4.818
 2838SOL    HW311672   1.338   6.661   4.699
 2838SOL    MW411673   1.265   6.631   4.736
 2839SOL     OW11674   1.335   6.125   5.006
 2839SOL    HW211675   1.356   6.126   4.913
 2839SOL    HW311676   1.380   6.047   5.039
 2839SOL    MW411677   1.342   6.115   4.998
 2840SOL     OW11678   1.828   6.256   5.548
 2840SOL    HW211679   1.865   6.201   5.617
 2840SOL    HW311680   1.853   6.213   5.466
 2840SOL    MW411681   1.835   6.244   5.547
 2841SOL     OW11682   1.375   6.554   5.600
 2841SOL    HW211683   1.441   6.502   5.554
 2841SOL    HW311684   1.395   6.541   5.693
 2841SOL    MW411685   1.386   6.545   5.607
 2842SOL     OW11686   1.326   5.640   3.948
 2842SOL    HW211687   1.400   5.684   3.991
 2842SOL    HW311688   1.250   5.694   3.970
 2842SOL    MW411689   1.326   5.652   3.956
 2843SOL     OW11690   1.386   6.415   4.226
 2843SOL    HW211691   1.301   6.385   4.196
 2843SOL    HW311692   1.378   6.422   4.321
 2843SOL    MW411693   1.374   6.413   4.235
 2844SOL     OW11694   0.462   6.878   4.957
 2844SOL    HW211695   0.474   6.905   5.048
 2844SOL    HW311696   0.443   6.959   4.910
 2844SOL    MW411697   0.461   6.893   4.962
 2845SOL     OW11698   0.746   5.858   4.780
 2845SOL    HW211699   0.719   5.860   4.871
 2845SOL    HW311700   0.676   5.810   4.735
 2845SOL    MW411701   0.734   5.854   4.787
 2846SOL     OW11702   0.600   7.350   4.942
 2846SOL    HW211703   0.652   7.427   4.919
 2846SOL    HW311704   0.609   7.342   5.037
 2846SOL    MW411705   0.609   7.357   4.953
 2847SOL     OW11706   1.502   6.935   5.174
 2847SOL    HW211707   1.487   6.864   5.237
 2847SOL    HW311708   1.548   6.893   5.102
 2847SOL    MW411709   1.508   6.919   5.174
 2848SOL     OW11710   0.576   6.666   5.291
 2848SOL    HW211711   0.613   6.671   5.203
 2848SOL    HW311712   0.615   6.739   5.338
 2848SOL    MW411713   0.586   6.676   5.286
 2849SOL     OW11714   0.756   6.709   5.103
 2849SOL    HW211715   0.815   6.655   5.156
 2849SOL    HW311716   0.771   6.681   5.013
 2849SOL    MW411717   0.766   6.698   5.099
 2850SOL     OW11718   0.759   6.081   3.952
 2850SOL    HW211719   0.832   6.130   3.915
 2850SOL    HW311720   0.775   5.990   3.926
 2850SOL    MW411721   0.771   6.076   3.945
 2851SOL     OW11722   1.567   7.198   5.275
 2851SOL    HW211723   1.609   7.183   5.360
 2851SOL    HW311724   1.558   7.111   5.237
 2851SOL    MW411725   1.571   7.186   5.282
 2852SOL     OW11726   1.227   5.677   4.866
 2852SOL    HW211727   1.282   5.686   4.788
 2852SOL    HW311728   1.282   5.711   4.937
 2852SOL    MW411729   1.241   5.682   4.865
 2853SOL     OW11730   0.234   6.590   4.050
 2853SOL    HW211731   0.171   6.606   3.979
 2853SOL    HW311732   0.181   6.553   4.121
 2853SOL    MW411733   0.219   6.587   4.050
 2854SOL     OW11734   0.590   6.944   3.909
 2854SOL    HW211735   0.605   6.920   4.001
 2854SOL    HW311736   0.498   6.922   3.893
 2854SOL    MW411737   0.580   6.937   3.919
 2855SOL     OW11738   1.129   7.175   4.061
 2855SOL    HW211739   1.137   7.093   4.012
 2855SOL    HW311740   1.048   7.214   4.028
 2855SOL    MW411741   1.119   7.170   4.051
 2856SOL     OW11742   0.388   7.333   4.630
 2856SOL    HW211743   0.392   7.244   4.665
 2856SOL    HW311744   0.414   7.324   4.539
 2856SOL    MW411745   0.391   7.321   4.622
 2857SOL     OW11746   1.005   6.811   4.873
 2857SOL    HW211747   0.937   6.745   4.889
 2857SOL    HW311748   1.023   6.805   4.780
 2857SOL    MW411749   0.998   6.802   4.864
 2858SOL     OW11750   0.094   7.086   5.124
 2858SOL    HW211751   0.084   7.044   5.210
 2858SOL    HW311752   0.015   7.139   5.114
 2858SOL    MW411753   0.083   7.087   5.135
 2859SOL     OW11754   0.998   5.950   4.694
 2859SOL    HW211755   0.928   5.902   4.739
 2859SOL    HW311756   1.030   6.013   4.758
 2859SOL    MW411757   0.993   5.952   4.708
 2860SOL     OW11758   0.649   6.386   5.314
 2860SOL    HW211759   0.642   6.481   5.302
 2860SOL    HW311760   0.658   6.375   5.409
 2860SOL    MW411761   0.650   6.398   5.324
 2861SOL     OW11762   0.370   6.901   5.572
 2861SOL    HW211763   0.442   6.903   5.509
 2861SOL    HW311764   0.340   6.810   5.571
 2861SOL    MW411765   0.375   6.890   5.564
 2862SOL     OW11766   1.454   5.664   5.039
 2862SOL    HW211767   1.525   5.610   5.003
 2862SOL    HW311768   1.453   5.643   5.132
 2862SOL    MW411769   1.463   5.655   5.047
 2863SOL     OW11770   1.654   7.194   5.523
 2863SOL    HW211771   1.627   7.191   5.614
 2863SOL    HW311772   1.750   7.198   5.526
 2863SOL    MW411773   1.664   7.194   5.535
 2864SOL     OW11774   0.465   6.056   4.507
 2864SOL    HW211775   0.536   6.004   4.470
 2864SOL    HW311776   0.451   6.021   4.594
 2864SOL    MW411777   0.473   6.045   4.514
 2865SOL     OW11778   0.020   7.391   5.579
 2865SOL    HW211779   0.070   7.369   5.501
 2865SOL    HW311780   0.028   7.486   5.587
 2865SOL    MW411781   0.028   7.400   5.570
 2866SOL     OW11782   0.781   7.149   4.583
 2866SOL    HW211783   0.709   7.086   4.596
 2866SOL    HW311784   0.742   7.234   4.601
 2866SOL    MW411785   0.765   7.152   4.586
 2867SOL     OW11786   1.101   5.997   4.231
 2867SOL    HW211787   1.123   5.934   4.163
 2867SOL    HW311788   1.006   5.989   4.242
 2867SOL    MW411789   1.091   5.988   4.223
 2868SOL     OW11790   0.186   5.687   4.163
 2868SOL    HW211791   0.257   5.708   4.102
 2868SOL    HW311792   0.140   5.615   4.121
 2868SOL    MW411793   0.190   5.681   4.149
 2869SOL     OW11794   0.017   6.154   5.306
 2869SOL    HW211795   0.081   6.220   5.281
 2869SOL    HW311796  -0.064   6.181   5.263
 2869SOL    MW411797   0.015   6.166   5.298
 2870SOL     OW11798   1.755   7.061   4.263
 2870SOL    HW211799   1.725   6.994   4.324
 2870SOL    HW311800   1.849   7.067   4.277
 2870SOL    MW411801   1.763   7.053   4.273
 2871SOL     OW11802   1.311   6.738   4.193
 2871SOL    HW211803   1.283   6.824   4.226
 2871SOL    HW311804   1.339   6.754   4.103
 2871SOL    MW411805   1.311   6.752   4.185
 2872SOL     OW11806   0.973   5.658   4.246
 2872SOL    HW211807   1.010   5.717   4.311
 2872SOL    HW311808   0.950   5.714   4.172
 2872SOL    MW411809   0.974   5.673   4.245
 2873SOL     OW11810   1.826   6.540   4.668
 2873SOL    HW211811   1.817   6.572   4.579
 2873SOL    HW311812   1.779   6.456   4.668
 2873SOL    MW411813   1.819   6.533   4.658
 2874SOL     OW11814   0.202   6.380   5.247
 2874SOL    HW211815   0.223   6.449   5.185
 2874SOL    HW311816   0.282   6.327   5.252
 2874SOL    MW411817   0.215   6.381   5.241
 2875SOL     OW11818   1.738   6.471   4.369
 2875SOL    HW211819   1.832   6.460   4.357
 2875SOL    HW311820   1.714   6.543   4.310
 2875SOL    MW411821   1.748   6.479   4.360
 2876SOL     OW11822   0.187   6.395   5.514
 2876SOL    HW211823   0.113   6.339   5.540
 2876SOL    HW311824   0.182   6.398   5.419
 2876SOL    MW411825   0.176   6.388   5.504
 2877SOL     OW11826   0.353   5.682   4.964
 2877SOL    HW211827   0.396   5.766   4.984
 2877SOL    HW311828   0.426   5.620   4.957
 2877SOL    MW411829   0.368   5.685   4.965
 2878SOL     OW11830   0.394   6.349   4.142
 2878SOL    HW211831   0.394   6.444   4.127
 2878SOL    HW311832   0.471   6.333   4.196
 2878SOL    MW411833   0.404   6.360   4.147
 2879SOL     OW11834   1.170   6.208   5.206
 2879SOL    HW211835   1.206   6.181   5.122
 2879SOL    HW311836   1.083   6.242   5.185
 2879SOL    MW411837   1.164   6.209   5.193
 2880SOL     OW11838   0.153   6.080   4.431
 2880SOL    HW211839   0.215   6.087   4.504
 2880SOL    HW311840   0.153   5.987   4.408
 2880SOL    MW411841   0.161   6.069   4.438
 2881SOL     OW11842   1.700   7.420   3.963
 2881SOL    HW211843   1.767   7.453   3.903
 2881SOL    HW311844   1.657   7.499   3.997
 2881SOL    MW411845   1.702   7.435   3.959
 2882SOL     OW11846   0.835   6.341   4.915
 2882SOL    HW211847   0.793   6.259   4.891
 2882SOL    HW311848   0.836   6.340   5.011
 2882SOL    MW411849   0.828   6.330   4.924
 2883SOL     OW11850   1.506   7.474   5.314
 2883SOL    HW211851   1.509   7.380   5.297
 2883SOL    HW311852   1.529   7.482   5.406
 2883SOL    MW411853   1.509   7.462   5.324
 2884SOL     OW11854   0.639   5.811   5.020
 2884SOL    HW211855   0.570   5.874   5.041
 2884SOL    HW311856   0.666   5.775   5.105
 2884SOL    MW411857   0.633   5.814   5.033
 2885SOL     OW11858   0.022   6.652   3.889
 2885SOL    HW211859  -0.009   6.717   3.952
 2885SOL    HW311860  -0.029   6.574   3.908
 2885SOL    MW411861   0.012   6.649   3.899
 2886SOL     OW11862   1.434   5.664   4.637
 2886SOL    HW211863   1.522   5.673   4.674
 2886SOL    HW311864   1.444   5.605   4.563
 2886SOL    MW411865   1.448   5.658   4.631
 2887SOL     OW11866   1.466   6.403   4.481
 2887SOL    HW211867   1.546   6.418   4.430
 2887SOL    HW311868   1.459   6.308   4.487
 2887SOL    MW411869   1.475   6.392   4.476
 2888SOL     OW11870   0.606   7.452   3.831
 2888SOL    HW211871   0.511   7.452   3.823
 2888SOL    HW311872   0.622   7.398   3.909
 2888SOL    MW411873   0.596   7.446   3.840
 2889SOL     OW11874   0.916   6.329   5.178
 2889SOL    HW211875   0.985   6.396   5.175
 2889SOL    HW311876   0.849   6.367   5.234
 2889SOL    MW411877   0.917   6.342   5.185
 2890SOL     OW11878   0.334   6.629   5.426
 2890SOL    HW211879   0.288   6.545   5.428
 2890SOL    HW311880   0.391   6.623   5.350
 2890SOL    MW411881   0.336   6.617   5.418
 2891SOL     OW11882   1.451   6.272   3.747
 2891SOL    HW211883   1.379   6.248   3.689
 2891SOL    HW311884   1.517   6.309   3.689
 2891SOL    MW411885   1.450   6.274   3.732
 2892SOL     OW11886   0.585   7.004   4.427
 2892SOL    HW211887   0.650   6.937   4.448
 2892SOL    HW311888   0.637   7.081   4.404
 2892SOL    MW411889   0.600   7.006   4.426
 2893SOL     OW11890   0.846   6.169   4.557
 2893SOL    HW211891   0.786   6.187   4.629
 2893SOL    HW311892   0.880   6.081   4.576
 2893SOL    MW411893   0.842   6.159   4.570
 2894SOL     OW11894   1.787   5.668   5.226
 2894SOL    HW211895   1.708   5.714   5.254
 2894SOL    HW311896   1.822   5.722   5.155
 2894SOL    MW411897   1.781   5.681   5.220
 2895SOL     OW11898   1.071   6.752   4.576
 2895SOL    HW211899   1.163   6.733   4.594
 2895SOL    HW311900   1.044   6.682   4.516
 2895SOL    MW411901   1.079   6.740   4.570
 2896SOL     OW11902   0.864   6.572   3.931
 2896SOL    HW211903   0.850   6.484   3.896
 2896SOL    HW311904   0.815   6.629   3.872
 2896SOL    MW411905   0.856   6.567   3.919
 2897SOL     OW11906   1.345   6.990   4.672
 2897SOL    HW211907   1.318   7.074   4.637
 2897SOL    HW311908   1.305   6.985   4.759
 2897SOL    MW411909   1.338   6.999   4.678
 2898SOL     OW11910   1.264   6.938   4.940
 2898SOL    HW211911   1.275   6.905   5.029
 2898SOL    HW311912   1.183   6.897   4.909
 2898SOL    MW411913   1.254   6.930   4.946
 2899SOL     OW11914   0.277   6.296   4.710
 2899SOL    HW211915   0.227   6.295   4.791
 2899SOL    HW311916   0.297   6.388   4.694
 2899SOL    MW411917   0.273   6.308   4.718
 2900SOL     OW11918   1.344   7.060   5.472
 2900SOL    HW211919   1.344   7.154   5.488
 2900SOL    HW311920   1.389   7.050   5.388
 2900SOL    MW411921   1.350   7.070   5.463
 2901SOL     OW11922   1.583   5.778   4.033
 2901SOL    HW211923   1.576   5.782   4.128
 2901SOL    HW311924   1.595   5.869   4.006
 2901SOL    MW411925   1.584   5.791   4.041
 2902SOL     OW11926   0.872   6.341   4.147
 2902SOL    HW211927   0.852   6.327   4.054
 2902SOL    HW311928   0.965   6.320   4.154
 2902SOL    MW411929   0.882   6.336   4.136
 2903SOL     OW11930   0.199   5.964   5.451
 2903SOL    HW211931   0.156   6.023   5.388
 2903SOL    HW311932   0.267   6.019   5.491
 2903SOL    MW411933   0.203   5.979   5.448
 2904SOL     OW11934   1.311   6.584   4.996
 2904SOL    HW211935   1.374   6.581   5.069
 2904SOL    HW311936   1.227   6.602   5.038
 2904SOL    MW411937   1.307   6.586   5.011
 2905SOL     OW11938   0.855   7.299   4.185
 2905SOL    HW211939   0.913   7.370   4.212
 2905SOL    HW311940   0.878   7.227   4.243
 2905SOL    MW411941   0.866   7.299   4.196
 2906SOL     OW11942   1.650   5.761   4.775
 2906SOL    HW211943   1.695   5.679   4.794
 2906SOL    HW311944   1.670   5.817   4.851
 2906SOL    MW411945   1.660   5.757   4.787
 2907SOL     OW11946   0.098   5.604   4.874
 2907SOL    HW211947   0.089   5.605   4.779
 2907SOL    HW311948   0.192   5.616   4.889
 2907SOL    MW411949   0.110   5.607   4.865
 2908SOL     OW11950   1.735   6.797   4.494
 2908SOL    HW211951   1.714   6.743   4.417
 2908SOL    HW311952   1.831   6.795   4.498
 2908SOL    MW411953   1.744   6.790   4.483
 2909SOL     OW11954   0.427   6.942   5.237
 2909SOL    HW211955   0.348   6.892   5.260
 2909SOL    HW311956   0.497   6.901   5.287
 2909SOL    MW411957   0.425   6.930   5.247
 2910SOL     OW11958   0.311   5.731   3.920
 2910SOL    HW211959   0.240   5.786   3.888
 2910SOL    HW311960   0.353   5.697   3.841
 2910SOL    MW411961   0.307   5.733   3.906
 2911SOL     OW11962   1.435   6.228   4.756
 2911SOL    HW211963   1.358   6.274   4.722
 2911SOL    HW311964   1.492   6.297   4.790
 2911SOL    MW411965   1.432   6.243   4.756
 2912SOL     OW11966   0.067   5.830   3.769
 2912SOL    HW211967   0.034   5.909   3.813
 2912SOL    HW311968   0.122   5.863   3.698
 2912SOL    MW411969   0.070   5.844   3.766
 2913SOL     OW11970   0.101   7.087   3.958
 2913SOL    HW211971   0.118   7.171   4.000
 2913SOL    HW311972   0.136   7.096   3.870
 2913SOL    MW411973   0.106   7.100   3.952
 2914SOL     OW11974   1.373   7.176   4.175
 2914SOL    HW211975   1.436   7.166   4.104
 2914SOL    HW311976   1.290   7.196   4.130
 2914SOL    MW411977   1.370   7.177   4.160
 2915SOL     OW11978   1.736   6.444   5.862
 2915SOL    HW211979   1.777   6.386   5.927
 2915SOL    HW311980   1.643   6.436   5.879
 2915SOL    MW411981   1.730   6.436   5.872
 2916SOL     OW11982   0.530   6.627   6.091
 2916SOL    HW211983   0.620   6.602   6.075
 2916SOL    HW311984   0.526   6.720   6.068
 2916SOL    MW411985   0.542   6.636   6.086
 2917SOL     OW11986   1.646   7.330   6.233
 2917SOL    HW211987   1.658   7.276   6.311
 2917SOL    HW311988   1.683   7.278   6.162
 2917SOL    MW411989   1.652   7.315   6.234
 2918SOL     OW11990   0.814   6.083   6.104
 2918SOL    HW211991   0.789   6.171   6.132
 2918SOL    HW311992   0.811   6.086   6.008
 2918SOL    MW411993   0.810   6.095   6.096
 2919SOL     OW11994   0.256   6.111   6.032
 2919SOL    HW211995   0.288   6.199   6.014
 2919SOL    HW311996   0.244   6.109   6.127
 2919SOL    MW411997   0.259   6.123   6.044
 2920SOL     OW11998   0.655   5.866   6.119
 2920SOL    HW211999   0.713   5.942   6.121
 2920SOL    HW312000   0.590   5.887   6.052
 2920SOL    MW412001   0.654   5.878   6.110
 2921SOL     OW12002   0.742   6.793   6.294
 2921SOL    HW212003   0.822   6.796   6.346
 2921SOL    HW312004   0.770   6.760   6.208
 2921SOL    MW412005   0.756   6.789   6.289
 2922SOL     OW12006   0.519   6.297   6.285
 2922SOL    HW212007   0.504   6.217   6.336
 2922SOL    HW312008   0.601   6.332   6.319
 2922SOL    MW412009   0.527   6.289   6.297
 2923SOL     OW12010   0.104   7.383   6.441
 2923SOL    HW212011   0.193   7.375   6.476
 2923SOL    HW312012   0.068   7.295   6.446
 2923SOL    MW412013   0.111   7.370   6.446
 2924SOL     OW12014   1.369   6.775   5.810
 2924SOL    HW212015   1.287   6.811   5.776
 2924SOL    HW312016   1.437   6.818   5.759
 2924SOL    MW412017   1.367   6.785   5.798
 2925SOL     OW12018   0.368   6.910   6.476
 2925SOL    HW212019   0.344   6.963   6.552
 2925SOL    HW312020   0.424   6.968   6.424
 2925SOL    MW412021   0.372   6.925   6.479
 2926SOL     OW12022   0.921   6.916   6.003
 2926SOL    HW212023   0.898   6.978   6.071
 2926SOL    HW312024   0.878   6.834   6.029
 2926SOL    MW412025   0.913   6.912   6.014
 2927SOL     OW12026   1.794   5.917   6.459
 2927SOL    HW212027   1.731   5.897   6.528
 2927SOL    HW312028   1.784   5.846   6.396
 2927SOL    MW412029   1.784   5.904   6.460
 2928SOL     OW12030   0.418   5.889   5.971
 2928SOL    HW212031   0.392   5.851   5.887
 2928SOL    HW312032   0.355   5.959   5.987
 2928SOL    MW412033   0.407   5.892   5.962
 2929SOL     OW12034   0.253   6.850   6.008
 2929SOL    HW212035   0.201   6.918   5.964
 2929SOL    HW312036   0.250   6.776   5.948
 2929SOL    MW412037   0.245   6.849   5.995
 2930SOL     OW12038   0.915   7.313   5.786
 2930SOL    HW212039   0.870   7.329   5.869
 2930SOL    HW312040   0.846   7.278   5.728
 2930SOL    MW412041   0.901   7.310   5.788
 2931SOL     OW12042   1.850   6.086   5.761
 2931SOL    HW212043   1.759   6.088   5.789
 2931SOL    HW312044   1.895   6.148   5.819
 2931SOL    MW412045   1.843   6.094   5.771
 2932SOL     OW12046   1.595   6.689   6.111
 2932SOL    HW212047   1.505   6.689   6.146
 2932SOL    HW312048   1.588   6.735   6.028
 2932SOL    MW412049   1.582   6.695   6.105
 2933SOL     OW12050   1.502   6.667   6.503
 2933SOL    HW212051   1.505   6.601   6.434
 2933SOL    HW312052   1.587   6.710   6.499
 2933SOL    MW412053   1.514   6.663   6.494
 2934SOL     OW12054   1.122   6.270   6.072
 2934SOL    HW212055   1.148   6.294   5.983
 2934SOL    HW312056   1.104   6.177   6.068
 2934SOL    MW412057   1.124   6.262   6.059
 2935SOL     OW12058   1.787   6.890   5.923
 2935SOL    HW212059   1.743   6.931   5.998
 2935SOL    HW312060   1.844   6.958   5.888
 2935SOL    MW412061   1.789   6.904   5.928
 2936SOL     OW12062   0.443   7.306   6.241
 2936SOL    HW212063   0.475   7.394   6.219
 2936SOL    HW312064   0.396   7.278   6.163
 2936SOL    MW412065   0.442   7.314   6.228
 2937SOL     OW12066   1.827   5.668   6.290
 2937SOL    HW212067   1.881   5.619   6.352
 2937SOL    HW312068   1.770   5.602   6.251
 2937SOL    MW412069   1.827   5.652   6.292
 2938SOL     OW12070   0.159   7.366   5.818
 2938SOL    HW212071   0.188   7.456   5.810
 2938SOL    HW312072   0.109   7.349   5.739
 2938SOL    MW412073   0.157   7.374   5.807
 2939SOL     OW12074   1.563   7.174   5.789
 2939SOL    HW212075   1.611   7.243   5.835
 2939SOL    HW312076   1.484   7.218   5.758
 2939SOL    MW412077   1.558   7.188   5.792
 2940SOL     OW12078   0.961   6.299   5.733
 2940SOL    HW212079   0.963   6.246   5.654
 2940SOL    HW312080   1.049   6.336   5.739
 2940SOL    MW412081   0.973   6.298   5.722
 2941SOL     OW12082   1.575   6.225   6.069
 2941SOL    HW212083   1.614   6.225   6.156
 2941SOL    HW312084   1.516   6.301   6.069
 2941SOL    MW412085   1.572   6.236   6.080
 2942SOL     OW12086   1.762   6.111   6.235
 2942SOL    HW212087   1.851   6.080   6.252
 2942SOL    HW312088   1.705   6.051   6.283
 2942SOL    MW412089   1.765   6.099   6.244
 2943SOL     OW12090   0.188   5.825   6.264
 2943SOL    HW212091   0.179   5.765   6.190
 2943SOL    HW312092   0.121   5.796   6.327
 2943SOL    MW412093   0.178   5.812   6.262
 2944SOL     OW12094   1.131   6.918   5.825
 2944SOL    HW212095   1.081   6.920   5.907
 2944SOL    HW312096   1.065   6.936   5.757
 2944SOL    MW412097   1.117   6.920   5.827
 2945SOL     OW12098   0.594   7.336   5.933
 2945SOL    HW212099   0.515   7.294   5.966
 2945SOL    HW312100   0.660   7.319   6.000
 2945SOL    MW412101   0.593   7.328   5.946
 2946SOL     OW12102   0.730   6.751   5.640
 2946SOL    HW212103   0.652   6.697   5.627
 2946SOL    HW312104   0.701   6.824   5.693
 2946SOL    MW412105   0.716   6.753   5.645
 2947SOL     OW12106   1.311   7.267   5.708
 2947SOL    HW212107   1.237   7.230   5.758
 2947SOL    HW312108   1.319   7.357   5.741
 2947SOL    MW412109   1.302   7.274   5.720
 2948SOL     OW12110   1.535   6.941   5.650
 2948SOL    HW212111   1.482   6.990   5.586
 2948SOL    HW312112   1.566   7.007   5.711
 2948SOL    MW412113   1.533   6.955   5.648
 2949SOL     OW12114   0.760   5.830   5.705
 2949SOL    HW212115   0.708   5.750   5.693
 2949SOL    HW312116   0.847   5.807   5.673
 2949SOL    MW412117   0.763   5.816   5.699
 2950SOL     OW12118   0.121   6.470   6.162
 2950SOL    HW212119   0.212   6.485   6.189
 2950SOL    HW312120   0.124   6.391   6.108
 2950SOL    MW412121   0.133   6.462   6.160
 2951SOL     OW12122   0.129   7.082   6.201
 2951SOL    HW212123   0.101   7.121   6.283
 2951SOL    HW312124   0.149   6.991   6.223
 2951SOL    MW412125   0.127   7.074   6.214
 2952SOL     OW12126   0.962   7.125   6.236
 2952SOL    HW212127   1.045   7.079   6.220
 2952SOL    HW312128   0.952   7.124   6.332
 2952SOL    MW412129   0.972   7.118   6.246
 2953SOL     OW12130   0.695   7.182   5.641
 2953SOL    HW212131   0.635   7.251   5.611
 2953SOL    HW312132   0.640   7.124   5.694
 2953SOL    MW412133   0.679   7.184   5.643
 2954SOL     OW12134   1.133   5.827   5.864
 2954SOL    HW212135   1.066   5.803   5.801
 2954SOL    HW312136   1.198   5.876   5.813
 2954SOL    MW412137   1.133   5.829   5.849
 2955SOL     OW12138   0.652   6.544   6.376
 2955SOL    HW212139   0.563   6.535   6.409
 2955SOL    HW312140   0.656   6.634   6.344
 2955SOL    MW412141   0.641   6.555   6.376
 2956SOL     OW12142   1.451   6.127   6.371
 2956SOL    HW212143   1.396   6.048   6.370
 2956SOL    HW312144   1.433   6.168   6.455
 2956SOL    MW412145   1.441   6.122   6.380
 2957SOL     OW12146   1.070   6.331   6.328
 2957SOL    HW212147   1.007   6.263   6.352
 2957SOL    HW312148   1.090   6.312   6.236
 2957SOL    MW412149   1.064   6.318   6.320
 2958SOL     OW12150   0.326   7.226   6.030
 2958SOL    HW212151   0.287   7.273   5.956
 2958SOL    HW312152   0.260   7.161   6.055
 2958SOL    MW412153   0.313   7.224   6.024
 2959SOL     OW12154   0.818   6.635   6.054
 2959SOL    HW212155   0.820   6.609   5.961
 2959SOL    HW312156   0.876   6.572   6.097
 2959SOL    MW412157   0.826   6.624   6.048
 2960SOL     OW12158   1.375   7.403   6.256
 2960SOL    HW212159   1.318   7.356   6.195
 2960SOL    HW312160   1.461   7.364   6.243
 2960SOL    MW412161   1.378   7.394   6.246
 2961SOL     OW12162   1.328   5.879   6.387
 2961SOL    HW212163   1.356   5.811   6.448
 2961SOL    HW312164   1.242   5.850   6.357
 2961SOL    MW412165   1.321   5.866   6.391
 2962SOL     OW12166   0.133   6.813   6.321
 2962SOL    HW212167   0.197   6.845   6.384
 2962SOL    HW312168   0.182   6.749   6.269
 2962SOL    MW412169   0.148   6.809   6.322
 2963SOL     OW12170   1.308   5.983   5.722
 2963SOL    HW212171   1.281   6.049   5.658
 2963SOL    HW312172   1.378   6.026   5.772
 2963SOL    MW412173   1.313   5.996   5.719
 2964SOL     OW12174   0.976   5.688   5.659
 2964SOL    HW212175   1.032   5.680   5.581
 2964SOL    HW312176   0.953   5.598   5.681
 2964SOL    MW412177   0.981   5.675   5.652
 2965SOL     OW12178   1.481   6.539   5.864
 2965SOL    HW212179   1.448   6.628   5.854
 2965SOL    HW312180   1.446   6.510   5.949
 2965SOL    MW412181   1.471   6.548   5.875
 2966SOL     OW12182   0.475   6.577   5.656
 2966SOL    HW212183   0.398   6.590   5.712
 2966SOL    HW312184   0.439   6.541   5.575
 2966SOL    MW412185   0.461   6.573   5.653
 2967SOL     OW12186   1.128   6.550   5.899
 2967SOL    HW212187   1.038   6.571   5.874
 2967SOL    HW312188   1.155   6.623   5.955
 2967SOL    MW412189   1.120   6.562   5.902
 2968SOL     OW12190   0.757   5.666   6.306
 2968SOL    HW212191   0.686   5.727   6.288
 2968SOL    HW312192   0.808   5.663   6.225
 2968SOL    MW412193   0.753   5.672   6.293
 2969SOL     OW12194   0.515   6.906   6.055
 2969SOL    HW212195   0.508   6.938   6.145
 2969SOL    HW312196   0.425   6.890   6.027
 2969SOL    MW412197   0.503   6.908   6.062
 2970SOL     OW12198   1.224   7.264   6.454
 2970SOL    HW212199   1.271   7.337   6.413
 2970SOL    HW312200   1.145   7.303   6.490
 2970SOL    MW412201   1.219   7.279   6.453
 2971SOL     OW12202   0.518   6.190   5.769
 2971SOL    HW212203   0.484   6.246   5.839
 2971SOL    HW312204   0.589   6.140   5.809
 2971SOL    MW412205   0.524   6.191   5.783
 2972SOL     OW12206   1.574   6.076   5.833
 2972SOL    HW212207   1.566   6.147   5.770
 2972SOL    HW312208   1.592   6.120   5.916
 2972SOL    MW412209   1.575   6.090   5.835
 2973SOL     OW12210   0.434   5.731   6.262
 2973SOL    HW212211   0.484   5.774   6.193
 2973SOL    HW312212   0.349   5.775   6.262
 2973SOL    MW412213   0.431   5.744   6.253
 2974SOL     OW12214   1.243   6.338   5.808
 2974SOL    HW212215   1.290   6.356   5.727
 2974SOL    HW312216   1.209   6.422   5.836
 2974SOL    MW412217   1.245   6.352   5.801
 2975SOL     OW12218   0.356   6.516   6.302
 2975SOL    HW212219   0.414   6.572   6.250
 2975SOL    HW312220   0.400   6.431   6.304
 2975SOL    MW412221   0.369   6.513   6.295
 2976SOL     OW12222   1.496   5.868   6.139
 2976SOL    HW212223   1.418   5.818   6.164
 2976SOL    HW312224   1.467   5.959   6.139
 2976SOL    MW412225   1.482   5.872   6.142
 2977SOL     OW12226   1.082   5.830   6.298
 2977SOL    HW212227   1.102   5.905   6.242
 2977SOL    HW312228   1.062   5.869   6.383
 2977SOL    MW412229   1.083   5.846   6.302
 2978SOL     OW12230   0.978   7.080   5.630
 2978SOL    HW212231   1.005   7.158   5.582
 2978SOL    HW312232   0.885   7.095   5.649
 2978SOL    MW412233   0.969   7.093   5.626
 2979SOL     OW12234   0.018   6.242   6.021
 2979SOL    HW212235  -0.042   6.214   6.091
 2979SOL    HW312236   0.092   6.182   6.027
 2979SOL    MW412237   0.020   6.231   6.030
 2980SOL     OW12238   1.186   6.973   6.181
 2980SOL    HW212239   1.209   6.924   6.259
 2980SOL    HW312240   1.267   7.015   6.153
 2980SOL    MW412241   1.199   6.973   6.188
 2981SOL     OW12242   0.541   5.726   6.537
 2981SOL    HW212243   0.551   5.635   6.563
 2981SOL    HW312244   0.497   5.722   6.452
 2981SOL    MW412245   0.537   5.714   6.529
 2982SOL     OW12246   1.326   5.640   5.817
 2982SOL    HW212247   1.400   5.684   5.860
 2982SOL    HW312248   1.250   5.694   5.839
 2982SOL    MW412249   1.326   5.652   5.825
 2983SOL     OW12250   1.386   6.415   6.095
 2983SOL    HW212251   1.301   6.385   6.065
 2983SOL    HW312252   1.378   6.422   6.190
 2983SOL    MW412253   1.374   6.413   6.104
 2984SOL     OW12254   0.759   6.081   5.821
 2984SOL    HW212255   0.832   6.130   5.784
 2984SOL    HW312256   0.775   5.990   5.795
 2984SOL    MW412257   0.771   6.076   5.814
 2985SOL     OW12258   0.234   6.590   5.919
 2985SOL    HW212259   0.171   6.606   5.848
 2985SOL    HW312260   0.181   6.553   5.990
 2985SOL    MW412261   0.219   6.587   5.919
 2986SOL     OW12262   0.590   6.944   5.778
 2986SOL    HW212263   0.605   6.920   5.870
 2986SOL    HW312264   0.498   6.922   5.762
 2986SOL    MW412265   0.580   6.937   5.788
 2987SOL     OW12266   1.129   7.175   5.930
 2987SOL    HW212267   1.137   7.093   5.881
 2987SOL    HW312268   1.048   7.214   5.897
 2987SOL    MW412269   1.119   7.170   5.920
 2988SOL     OW12270   0.388   7.333   6.499
 2988SOL    HW212271   0.392   7.244   6.534
 2988SOL    HW312272   0.414   7.324   6.408
 2988SOL    MW412273   0.391   7.321   6.491
 2989SOL     OW12274   0.465   6.056   6.376
 2989SOL    HW212275   0.536   6.004   6.339
 2989SOL    HW312276   0.451   6.021   6.463
 2989SOL    MW412277   0.473   6.045   6.383
 2990SOL     OW12278   0.781   7.149   6.452
 2990SOL    HW212279   0.709   7.086   6.465
 2990SOL    HW312280   0.742   7.234   6.470
 2990SOL    MW412281   0.765   7.152   6.455
 2991SOL     OW12282   1.101   5.997   6.100
 2991SOL    HW212283   1.123   5.934   6.032
 2991SOL    HW312284   1.006   5.989   6.111
 2991SOL    MW412285   1.091   5.988   6.092
 2992SOL     OW12286   0.186   5.687   6.032
 2992SOL    HW212287   0.257   5.708   5.971
 2992SOL    HW312288   0.140   5.615   5.990
 2992SOL    MW412289   0.190   5.681   6.018
 2993SOL     OW12290   1.755   7.061   6.132
 2993SOL    HW212291   1.725   6.994   6.193
 2993SOL    HW312292   1.849   7.067   6.146
 2993SOL    MW412293   1.763   7.053   6.142
 2994SOL     OW12294   1.311   6.738   6.062
 2994SOL    HW212295   1.283   6.824   6.095
 2994SOL    HW312296   1.339   6.754   5.972
 2994SOL    MW412297   1.311   6.752   6.054
 2995SOL     OW12298   0.973   5.658   6.115
 2995SOL    HW212299   1.010   5.717   6.180
 2995SOL    HW312300   0.950   5.714   6.041
 2995SOL    MW412301   0.974   5.673   6.114
 2996SOL     OW12302   1.826   6.540   6.537
 2996SOL    HW212303   1.817   6.572   6.448
 2996SOL    HW312304   1.779   6.456   6.537
 2996SOL    MW412305   1.819   6.533   6.527
 2997SOL     OW12306   1.738   6.471   6.238
 2997SOL    HW212307   1.832   6.460   6.226
 2997SOL    HW312308   1.714   6.543   6.179
 2997SOL    MW412309   1.748   6.479   6.229
 2998SOL     OW12310   0.394   6.349   6.011
 2998SOL    HW212311   0.394   6.444   5.996
 2998SOL    HW312312   0.471   6.333   6.065
 2998SOL    MW412313   0.404   6.360   6.016
 2999SOL     OW12314   0.153   6.080   6.300
 2999SOL    HW212315   0.215   6.087   6.373
 2999SOL    HW312316   0.153   5.987   6.277
 2999SOL    MW412317   0.161   6.069   6.307
 3000SOL     OW12318   1.700   7.420   5.832
 3000SOL    HW212319   1.767   7.453   5.772
 3000SOL    HW312320   1.657   7.499   5.866
 3000SOL    MW412321   1.702   7.435   5.828
 3001SOL     OW12322   0.022   6.652   5.758
 3001SOL    HW212323  -0.009   6.717   5.821
 3001SOL    HW312324  -0.029   6.574   5.777
 3001SOL    MW412325   0.012   6.649   5.768
 3002SOL     OW12326   1.434   5.664   6.506
 3002SOL    HW212327   1.522   5.673   6.543
 3002SOL    HW312328   1.444   5.605   6.432
 3002SOL    MW412329   1.448   5.658   6.500
 3003SOL     OW12330   1.466   6.403   6.350
 3003SOL    HW212331   1.546   6.418   6.299
 3003SOL    HW312332   1.459   6.308   6.356
 3003SOL    MW412333   1.475   6.392   6.345
 3004SOL     OW12334   0.606   7.452   5.700
 3004SOL    HW212335   0.511   7.452   5.692
 3004SOL    HW312336   0.622   7.398   5.778
 3004SOL    MW412337   0.596   7.446   5.709
 3005SOL     OW12338   1.451   6.272   5.615
 3005SOL    HW212339   1.379   6.248   5.557
 3005SOL    HW312340   1.517   6.309   5.557
 3005SOL    MW412341   1.450   6.274   5.600
 3006SOL     OW12342   0.585   7.004   6.296
 3006SOL    HW212343   0.650   6.937   6.317
 3006SOL    HW312344   0.637   7.081   6.273
 3006SOL    MW412345   0.600   7.006   6.295
 3007SOL     OW12346   0.846   6.169   6.426
 3007SOL    HW212347   0.786   6.187   6.498
 3007SOL    HW312348   0.880   6.081   6.445
 3007SOL    MW412349   0.842   6.159   6.439
 3008SOL     OW12350   1.071   6.752   6.445
 3008SOL    HW212351   1.163   6.733   6.463
 3008SOL    HW312352   1.044   6.682   6.385
 3008SOL    MW412353   1.079   6.740   6.439
 3009SOL     OW12354   0.864   6.572   5.800
 3009SOL    HW212355   0.850   6.484   5.765
 3009SOL    HW312356   0.815   6.629   5.741
 3009SOL    MW412357   0.856   6.567   5.788
 3010SOL     OW12358   1.583   5.778   5.902
 3010SOL    HW212359   1.576   5.782   5.997
 3010SOL    HW312360   1.595   5.869   5.875
 3010SOL    MW412361   1.584   5.791   5.910
 3011SOL     OW12362   0.872   6.341   6.016
 3011SOL    HW212363   0.852   6.327   5.923
 3011SOL    HW312364   0.965   6.320   6.023
 3011SOL    MW412365   0.882   6.336   6.005
 3012SOL     OW12366   0.855   7.299   6.054
 3012SOL    HW212367   0.913   7.370   6.081
 3012SOL    HW312368   0.878   7.227   6.112
 3012SOL    MW412369   0.866   7.299   6.065
 3013SOL     OW12370   1.735   6.797   6.363
 3013SOL    HW212371   1.714   6.743   6.286
 3013SOL    HW312372   1.831   6.795   6.367
 3013SOL    MW412373   1.744   6.790   6.352
 3014SOL     OW12374   0.311   5.731   5.789
 3014SOL    HW212375   0.240   5.786   5.757
 3014SOL    HW312376   0.353   5.697   5.710
 3014SOL    MW412377   0.307   5.733   5.775
 3015SOL     OW12378   0.067   5.830   5.638
 3015SOL    HW212379   0.034   5.909   5.682
 3015SOL    HW312380   0.122   5.863   5.567
 3015SOL    MW412381   0.070   5.844   5.635
 3016SOL     OW12382   0.101   7.087   5.827
 3016SOL    HW212383   0.118   7.171   5.869
 3016SOL    HW312384   0.136   7.096   5.739
 3016SOL    MW412385   0.106   7.100   5.821
 3017SOL     OW12386   1.373   7.176   6.044
 3017SOL    HW212387   1.436   7.166   5.973
 3017SOL    HW312388   1.290   7.196   5.999
 3017SOL    MW412389   1.370   7.177   6.029
 3018SOL     OW12390   3.470   0.771   1.252
 3018SOL    HW212391   3.425   0.838   1.303
 3018SOL    HW312392   3.558   0.807   1.238
 3018SOL    MW412393   3.476   0.784   1.256
 3019SOL     OW12394   2.398   1.022   0.486
 3019SOL    HW212395   2.488   0.997   0.470
 3019SOL    HW312396   2.394   1.115   0.463
 3019SOL    MW412397   2.410   1.031   0.481
 3020SOL     OW12398   3.514   1.725   0.628
 3020SOL    HW212399   3.526   1.671   0.706
 3020SOL    HW312400   3.551   1.673   0.557
 3020SOL    MW412401   3.520   1.710   0.629
 3021SOL     OW12402   2.893   1.610   1.629
 3021SOL    HW212403   2.934   1.646   1.550
 3021SOL    HW312404   2.928   1.521   1.636
 3021SOL    MW412405   2.904   1.603   1.620
 3022SOL     OW12406   3.450   1.165   1.233
 3022SOL    HW212407   3.371   1.130   1.191
 3022SOL    HW312408   3.477   1.237   1.177
 3022SOL    MW412409   3.443   1.170   1.220
 3023SOL     OW12410   2.682   0.478   0.499
 3023SOL    HW212411   2.657   0.566   0.527
 3023SOL    HW312412   2.679   0.481   0.403
 3023SOL    MW412413   2.678   0.490   0.491
 3024SOL     OW12414   2.124   0.506   0.427
 3024SOL    HW212415   2.156   0.594   0.409
 3024SOL    HW312416   2.112   0.504   0.522
 3024SOL    MW412417   2.127   0.518   0.439
 3025SOL     OW12418   2.202   0.919   1.328
 3025SOL    HW212419   2.265   0.866   1.279
 3025SOL    HW312420   2.183   0.993   1.271
 3025SOL    MW412421   2.208   0.921   1.315
 3026SOL     OW12422   2.523   0.261   0.514
 3026SOL    HW212423   2.581   0.337   0.516
 3026SOL    HW312424   2.458   0.282   0.447
 3026SOL    MW412425   2.522   0.273   0.505
 3027SOL     OW12426   2.610   1.188   0.689
 3027SOL    HW212427   2.690   1.191   0.741
 3027SOL    HW312428   2.638   1.155   0.603
 3027SOL    MW412429   2.624   1.184   0.684
 3028SOL     OW12430   2.635   1.529   1.592
 3028SOL    HW212431   2.719   1.555   1.631
 3028SOL    HW312432   2.659   1.473   1.518
 3028SOL    MW412433   2.649   1.525   1.587
 3029SOL     OW12434   2.387   0.692   0.680
 3029SOL    HW212435   2.372   0.612   0.731
 3029SOL    HW312436   2.469   0.727   0.714
 3029SOL    MW412437   2.395   0.684   0.692
 3030SOL     OW12438   2.724   1.378   1.365
 3030SOL    HW212439   2.688   1.444   1.305
 3030SOL    HW312440   2.652   1.316   1.378
 3030SOL    MW412441   2.710   1.378   1.359
 3031SOL     OW12442   2.529   0.518   1.057
 3031SOL    HW212443   2.435   0.514   1.075
 3031SOL    HW312444   2.559   0.427   1.066
 3031SOL    MW412445   2.520   0.506   1.060
 3032SOL     OW12446   2.275   0.932   0.961
 3032SOL    HW212447   2.230   0.939   0.877
 3032SOL    HW312448   2.255   1.015   1.005
 3032SOL    MW412449   2.267   0.944   0.955
 3033SOL     OW12450   1.972   1.778   0.836
 3033SOL    HW212451   2.061   1.770   0.871
 3033SOL    HW312452   1.936   1.690   0.841
 3033SOL    MW412453   1.979   1.765   0.841
 3034SOL     OW12454   2.236   1.305   0.871
 3034SOL    HW212455   2.212   1.358   0.947
 3034SOL    HW312456   2.292   1.363   0.819
 3034SOL    MW412457   2.240   1.320   0.874
 3035SOL     OW12458   2.798   0.949   0.681
 3035SOL    HW212459   2.712   0.936   0.721
 3035SOL    HW312460   2.851   0.876   0.713
 3035SOL    MW412461   2.794   0.938   0.690
 3036SOL     OW12462   2.206   1.601   1.466
 3036SOL    HW212463   2.114   1.577   1.451
 3036SOL    HW312464   2.250   1.518   1.483
 3036SOL    MW412465   2.200   1.586   1.465
 3037SOL     OW12466   2.789   1.311   0.398
 3037SOL    HW212467   2.766   1.373   0.466
 3037SOL    HW312468   2.746   1.229   0.424
 3037SOL    MW412469   2.781   1.307   0.409
 3038SOL     OW12470   3.662   0.312   0.854
 3038SOL    HW212471   3.599   0.292   0.923
 3038SOL    HW312472   3.652   0.241   0.791
 3038SOL    MW412473   3.652   0.299   0.855
 3039SOL     OW12474   2.286   0.284   0.366
 3039SOL    HW212475   2.260   0.246   0.282
 3039SOL    HW312476   2.223   0.354   0.382
 3039SOL    MW412477   2.275   0.287   0.357
 3040SOL     OW12478   2.121   1.245   0.403
 3040SOL    HW212479   2.069   1.313   0.359
 3040SOL    HW312480   2.118   1.171   0.343
 3040SOL    MW412481   2.113   1.244   0.390
 3041SOL     OW12482   3.463   1.084   0.506
 3041SOL    HW212483   3.373   1.084   0.541
 3041SOL    HW312484   3.456   1.130   0.423
 3041SOL    MW412485   3.450   1.090   0.500
 3042SOL     OW12486   3.263   0.719   1.578
 3042SOL    HW212487   3.332   0.657   1.555
 3042SOL    HW312488   3.188   0.693   1.525
 3042SOL    MW412489   3.263   0.706   1.569
 3043SOL     OW12490   2.004   1.599   1.130
 3043SOL    HW212491   1.987   1.545   1.207
 3043SOL    HW312492   1.992   1.689   1.160
 3043SOL    MW412493   2.001   1.603   1.144
 3044SOL     OW12494   2.999   1.106   1.570
 3044SOL    HW212495   2.984   1.199   1.555
 3044SOL    HW312496   3.094   1.096   1.570
 3044SOL    MW412497   3.008   1.116   1.567
 3045SOL     OW12498   2.795   0.530   1.771
 3045SOL    HW212499   2.885   0.531   1.738
 3045SOL    HW312500   2.754   0.455   1.729
 3045SOL    MW412501   2.801   0.520   1.762
 3046SOL     OW12502   3.370   1.062   0.898
 3046SOL    HW212503   3.373   0.996   0.829
 3046SOL    HW312504   3.455   1.105   0.894
 3046SOL    MW412505   3.382   1.058   0.889
 3047SOL     OW12506   2.990   0.665   0.467
 3047SOL    HW212507   3.016   0.689   0.378
 3047SOL    HW312508   2.972   0.572   0.463
 3047SOL    MW412509   2.992   0.657   0.454
 3048SOL     OW12510   2.575   0.334   1.721
 3048SOL    HW212511   2.585   0.260   1.661
 3048SOL    HW312512   2.611   0.303   1.804
 3048SOL    MW412513   2.581   0.320   1.723
 3049SOL     OW12514   2.311   1.701   0.636
 3049SOL    HW212515   2.343   1.789   0.614
 3049SOL    HW312516   2.264   1.673   0.558
 3049SOL    MW412517   2.310   1.709   0.623
 3050SOL     OW12518   3.695   0.063   0.685
 3050SOL    HW212519   3.749   0.014   0.747
 3050SOL    HW312520   3.638  -0.003   0.646
 3050SOL    MW412521   3.695   0.047   0.687
 3051SOL     OW12522   2.027   1.761   0.213
 3051SOL    HW212523   2.056   1.851   0.205
 3051SOL    HW312524   1.977   1.744   0.134
 3051SOL    MW412525   2.025   1.769   0.202
 3052SOL     OW12526   2.814   0.016   1.098
 3052SOL    HW212527   2.773   0.094   1.060
 3052SOL    HW312528   2.908   0.034   1.093
 3052SOL    MW412529   2.820   0.028   1.093
 3053SOL     OW12530   3.443   0.620   0.464
 3053SOL    HW212531   3.482   0.620   0.551
 3053SOL    HW312532   3.384   0.696   0.464
 3053SOL    MW412533   3.440   0.631   0.475
 3054SOL     OW12534   2.760   0.987   1.593
 3054SOL    HW212535   2.737   0.967   1.683
 3054SOL    HW312536   2.845   1.031   1.598
 3054SOL    MW412537   2.767   0.990   1.605
 3055SOL     OW12538   2.840   0.124   1.353
 3055SOL    HW212539   2.846   0.086   1.266
 3055SOL    HW312540   2.829   0.218   1.338
 3055SOL    MW412541   2.841   0.132   1.341
 3056SOL     OW12542   2.929   0.613   1.187
 3056SOL    HW212543   3.004   0.642   1.134
 3056SOL    HW312544   2.861   0.678   1.171
 3056SOL    MW412545   2.930   0.625   1.177
 3057SOL     OW12546   3.479   0.581   1.464
 3057SOL    HW212547   3.460   0.490   1.443
 3057SOL    HW312548   3.457   0.630   1.385
 3057SOL    MW412549   3.474   0.574   1.451
 3058SOL     OW12550   3.621   1.675   1.368
 3058SOL    HW212551   3.549   1.637   1.419
 3058SOL    HW312552   3.638   1.760   1.409
 3058SOL    MW412553   3.615   1.680   1.380
 3059SOL     OW12554   2.926   0.319   1.570
 3059SOL    HW212555   2.892   0.358   1.489
 3059SOL    HW312556   2.904   0.227   1.563
 3059SOL    MW412557   2.919   0.312   1.560
 3060SOL     OW12558   3.335   1.133   1.646
 3060SOL    HW212559   3.417   1.174   1.676
 3060SOL    HW312560   3.298   1.095   1.726
 3060SOL    MW412561   3.341   1.134   1.661
 3061SOL     OW12562   3.630   0.506   0.630
 3061SOL    HW212563   3.719   0.475   0.647
 3061SOL    HW312564   3.573   0.446   0.678
 3061SOL    MW412565   3.633   0.494   0.639
 3062SOL     OW12566   2.056   0.220   0.659
 3062SOL    HW212567   2.047   0.160   0.585
 3062SOL    HW312568   1.989   0.191   0.722
 3062SOL    MW412569   2.046   0.207   0.657
 3063SOL     OW12570   2.003   0.393   1.022
 3063SOL    HW212571   1.975   0.484   1.031
 3063SOL    HW312572   1.940   0.354   0.961
 3063SOL    MW412573   1.990   0.399   1.016
 3064SOL     OW12574   2.462   1.731   0.328
 3064SOL    HW212575   2.383   1.689   0.361
 3064SOL    HW312576   2.528   1.714   0.395
 3064SOL    MW412577   2.461   1.723   0.341
 3065SOL     OW12578   3.590   1.251   1.725
 3065SOL    HW212579   3.640   1.177   1.757
 3065SOL    HW312580   3.536   1.278   1.800
 3065SOL    MW412581   3.590   1.245   1.738
 3066SOL     OW12582   3.724   0.886   1.227
 3066SOL    HW212583   3.740   0.924   1.140
 3066SOL    HW312584   3.758   0.952   1.288
 3066SOL    MW412585   3.731   0.899   1.223
 3067SOL     OW12586   3.516   1.595   0.896
 3067SOL    HW212587   3.545   1.662   0.957
 3067SOL    HW312588   3.497   1.519   0.951
 3067SOL    MW412589   3.518   1.595   0.911
 3068SOL     OW12590   1.987   0.668   1.192
 3068SOL    HW212591   2.049   0.698   1.258
 3068SOL    HW312592   1.921   0.737   1.186
 3068SOL    MW412593   1.986   0.681   1.199
 3069SOL     OW12594   2.082   1.777   1.644
 3069SOL    HW212595   2.056   1.845   1.582
 3069SOL    HW312596   2.130   1.714   1.592
 3069SOL    MW412597   2.084   1.777   1.630
 3070SOL     OW12598   2.134   1.096   1.151
 3070SOL    HW212599   2.187   1.171   1.176
 3070SOL    HW312600   2.053   1.134   1.117
 3070SOL    MW412601   2.130   1.111   1.151
 3071SOL     OW12602   2.674   1.000   1.139
 3071SOL    HW212603   2.702   0.909   1.151
 3071SOL    HW312604   2.603   0.994   1.075
 3071SOL    MW412605   2.667   0.988   1.134
 3072SOL     OW12606   1.989   0.865   0.557
 3072SOL    HW212607   2.080   0.880   0.584
 3072SOL    HW312608   1.992   0.786   0.503
 3072SOL    MW412609   2.001   0.857   0.555
 3073SOL     OW12610   2.225   0.573   1.811
 3073SOL    HW212611   2.172   0.653   1.818
 3073SOL    HW312612   2.295   0.585   1.876
 3073SOL    MW412613   2.227   0.586   1.819
 3074SOL     OW12614   2.611   0.123   1.518
 3074SOL    HW212615   2.588   0.031   1.520
 3074SOL    HW312616   2.697   0.125   1.475
 3074SOL    MW412617   2.618   0.113   1.514
 3075SOL     OW12618   2.295   0.647   1.557
 3075SOL    HW212619   2.375   0.697   1.543
 3075SOL    HW312620   2.286   0.641   1.652
 3075SOL    MW412621   2.304   0.653   1.567
 3076SOL     OW12622   2.616   1.797   0.931
 3076SOL    HW212623   2.705   1.812   0.961
 3076SOL    HW312624   2.611   1.844   0.847
 3076SOL    MW412625   2.626   1.805   0.924
 3077SOL     OW12626   3.272   0.172   1.828
 3077SOL    HW212627   3.328   0.099   1.854
 3077SOL    HW312628   3.242   0.210   1.910
 3077SOL    MW412629   3.276   0.167   1.841
 3078SOL     OW12630   1.997   1.477   0.596
 3078SOL    HW212631   1.969   1.516   0.678
 3078SOL    HW312632   2.017   1.386   0.618
 3078SOL    MW412633   1.995   1.469   0.609
 3079SOL     OW12634   2.830   1.520   0.631
 3079SOL    HW212635   2.913   1.474   0.615
 3079SOL    HW312636   2.820   1.519   0.727
 3079SOL    MW412637   2.840   1.513   0.641
 3080SOL     OW12638   3.662   0.665   0.945
 3080SOL    HW212639   3.751   0.695   0.927
 3080SOL    HW312640   3.642   0.605   0.874
 3080SOL    MW412641   3.671   0.662   0.934
 3081SOL     OW12642   3.513   0.844   1.825
 3081SOL    HW212643   3.568   0.768   1.806
 3081SOL    HW312644   3.515   0.852   1.920
 3081SOL    MW412645   3.521   0.835   1.833
 3082SOL     OW12646   2.808   0.406   1.344
 3082SOL    HW212647   2.727   0.447   1.372
 3082SOL    HW312648   2.855   0.474   1.296
 3082SOL    MW412649   2.803   0.421   1.342
 3083SOL     OW12650   3.068   0.744   0.967
 3083SOL    HW212651   3.081   0.838   0.977
 3083SOL    HW312652   3.029   0.734   0.881
 3083SOL    MW412653   3.064   0.755   0.957
 3084SOL     OW12654   2.520   0.939   0.771
 3084SOL    HW212655   2.431   0.930   0.804
 3084SOL    HW312656   2.524   1.029   0.739
 3084SOL    MW412657   2.509   0.950   0.771
 3085SOL     OW12658   3.319   0.522   0.766
 3085SOL    HW212659   3.264   0.443   0.765
 3085SOL    HW312660   3.301   0.563   0.850
 3085SOL    MW412661   3.309   0.517   0.775
 3086SOL     OW12662   2.290   0.209   1.583
 3086SOL    HW212663   2.211   0.227   1.635
 3086SOL    HW312664   2.285   0.271   1.510
 3086SOL    MW412665   2.280   0.219   1.580
 3087SOL     OW12666   2.938   0.726   0.723
 3087SOL    HW212667   2.875   0.658   0.747
 3087SOL    HW312668   2.958   0.707   0.631
 3087SOL    MW412669   2.932   0.713   0.715
 3088SOL     OW12670   2.194   1.621   0.425
 3088SOL    HW212671   2.155   1.668   0.351
 3088SOL    HW312672   2.128   1.556   0.450
 3088SOL    MW412673   2.181   1.619   0.419
 3089SOL     OW12674   2.686   1.030   0.449
 3089SOL    HW212675   2.688   1.004   0.356
 3089SOL    HW312676   2.744   0.967   0.492
 3089SOL    MW412677   2.694   1.019   0.443
 3090SOL     OW12678   3.239   1.590   1.221
 3090SOL    HW212679   3.164   1.636   1.259
 3090SOL    HW312680   3.221   1.497   1.238
 3090SOL    MW412681   3.228   1.584   1.229
 3091SOL     OW12682   3.243   1.798   0.651
 3091SOL    HW212683   3.186   1.751   0.590
 3091SOL    HW312684   3.329   1.759   0.638
 3091SOL    MW412685   3.246   1.789   0.641
 3092SOL     OW12686   3.196   0.274   0.782
 3092SOL    HW212687   3.224   0.206   0.843
 3092SOL    HW312688   3.110   0.245   0.752
 3092SOL    MW412689   3.189   0.261   0.786
 3093SOL     OW12690   2.001   1.208   0.716
 3093SOL    HW212691   2.065   1.240   0.779
 3093SOL    HW312692   2.050   1.144   0.664
 3093SOL    MW412693   2.016   1.204   0.717
 3094SOL     OW12694   2.501   1.284   1.698
 3094SOL    HW212695   2.549   1.367   1.685
 3094SOL    HW312696   2.558   1.232   1.754
 3094SOL    MW412697   2.515   1.288   1.704
 3095SOL     OW12698   2.077   1.526   1.838
 3095SOL    HW212699   2.133   1.450   1.853
 3095SOL    HW312700   2.026   1.504   1.760
 3095SOL    MW412701   2.077   1.513   1.829
 3096SOL     OW12702   3.349   0.934   0.259
 3096SOL    HW212703   3.316   1.023   0.249
 3096SOL    HW312704   3.314   0.905   0.344
 3096SOL    MW412705   3.339   0.943   0.270
 3097SOL     OW12706   2.962   1.363   1.447
 3097SOL    HW212707   2.873   1.369   1.415
 3097SOL    HW312708   3.006   1.442   1.415
 3097SOL    MW412709   2.957   1.373   1.439
 3098SOL     OW12710   2.255   0.031   1.789
 3098SOL    HW212711   2.183  -0.004   1.737
 3098SOL    HW312712   2.313   0.072   1.724
 3098SOL    MW412713   2.253   0.032   1.774
 3099SOL     OW12714   2.279   1.521   1.088
 3099SOL    HW212715   2.324   1.583   1.145
 3099SOL    HW312716   2.186   1.540   1.101
 3099SOL    MW412717   2.272   1.531   1.095
 3100SOL     OW12718   3.719   1.050   1.442
 3100SOL    HW212719   3.634   1.063   1.401
 3100SOL    HW312720   3.699   1.014   1.529
 3100SOL    MW412721   3.706   1.046   1.447
 3101SOL     OW12722   2.701   1.589   1.196
 3101SOL    HW212723   2.725   1.578   1.105
 3101SOL    HW312724   2.624   1.646   1.194
 3101SOL    MW412725   2.693   1.594   1.185
 3102SOL     OW12726   2.343   0.972   0.051
 3102SOL    HW212727   2.266   0.985   0.107
 3102SOL    HW312728   2.307   0.936  -0.030
 3102SOL    MW412729   2.329   0.968   0.048
 3103SOL     OW12730   2.996   0.945   0.294
 3103SOL    HW212731   2.906   0.966   0.269
 3103SOL    HW312732   3.023   1.018   0.350
 3103SOL    MW412733   2.988   0.957   0.297
 3104SOL     OW12734   2.496   1.294   0.986
 3104SOL    HW212735   2.489   1.273   1.080
 3104SOL    HW312736   2.414   1.262   0.949
 3104SOL    MW412737   2.484   1.288   0.993
 3105SOL     OW12738   3.360   0.304   1.388
 3105SOL    HW212739   3.307   0.306   1.468
 3105SOL    HW312740   3.345   0.217   1.351
 3105SOL    MW412741   3.352   0.294   1.393
 3106SOL     OW12742   3.696   0.228   1.261
 3106SOL    HW212743   3.677   0.295   1.196
 3106SOL    HW312744   3.753   0.166   1.216
 3106SOL    MW412745   3.700   0.229   1.247
 3107SOL     OW12746   1.942   1.386   1.649
 3107SOL    HW212747   1.986   1.319   1.595
 3107SOL    HW312748   1.857   1.348   1.669
 3107SOL    MW412749   1.937   1.372   1.645
 3108SOL     OW12750   2.625   0.061   0.701
 3108SOL    HW212751   2.554   0.122   0.683
 3108SOL    HW312752   2.676   0.058   0.620
 3108SOL    MW412753   2.621   0.067   0.688
 3109SOL     OW12754   2.383   1.301   0.450
 3109SOL    HW212755   2.376   1.333   0.540
 3109SOL    HW312756   2.293   1.285   0.422
 3109SOL    MW412757   2.371   1.303   0.457
 3110SOL     OW12758   2.978   1.694   1.359
 3110SOL    HW212759   2.898   1.679   1.309
 3110SOL    HW312760   2.985   1.789   1.366
 3110SOL    MW412761   2.969   1.705   1.353
 3111SOL     OW12762   3.092   1.659   0.849
 3111SOL    HW212763   3.139   1.732   0.808
 3111SOL    HW312764   3.013   1.698   0.885
 3111SOL    MW412765   3.087   1.674   0.848
 3112SOL     OW12766   3.500   1.754   1.124
 3112SOL    HW212767   3.543   1.724   1.204
 3112SOL    HW312768   3.419   1.702   1.121
 3112SOL    MW412769   3.495   1.743   1.134
 3113SOL     OW12770   2.585   0.718   1.831
 3113SOL    HW212771   2.655   0.660   1.803
 3113SOL    HW312772   2.528   0.663   1.886
 3113SOL    MW412773   2.587   0.705   1.835
 3114SOL     OW12774   3.372   0.930   1.464
 3114SOL    HW212775   3.377   0.983   1.544
 3114SOL    HW312776   3.334   0.847   1.492
 3114SOL    MW412777   3.368   0.925   1.479
 3115SOL     OW12778   3.012   0.065   1.710
 3115SOL    HW212779   3.007  -0.028   1.691
 3115SOL    HW312780   3.095   0.076   1.756
 3115SOL    MW412781   3.020   0.054   1.714
 3116SOL     OW12782   2.386   0.585   0.164
 3116SOL    HW212783   2.352   0.641   0.234
 3116SOL    HW312784   2.457   0.535   0.204
 3116SOL    MW412785   2.392   0.586   0.178
 3117SOL     OW12786   3.482   1.336   0.986
 3117SOL    HW212787   3.517   1.318   0.899
 3117SOL    HW312788   3.387   1.337   0.973
 3117SOL    MW412789   3.474   1.333   0.973
 3118SOL     OW12790   2.911   0.984   1.355
 3118SOL    HW212791   2.954   1.019   1.433
 3118SOL    HW312792   2.894   1.061   1.301
 3118SOL    MW412793   2.914   0.999   1.358
 3119SOL     OW12794   2.302   0.126   0.657
 3119SOL    HW212795   2.352   0.169   0.588
 3119SOL    HW312796   2.217   0.170   0.657
 3119SOL    MW412797   2.299   0.139   0.648
 3120SOL     OW12798   2.061   1.188   1.517
 3120SOL    HW212799   2.089   1.141   1.595
 3120SOL    HW312800   1.982   1.143   1.488
 3120SOL    MW412801   2.054   1.177   1.523
 3121SOL     OW12802   2.569   0.515   1.484
 3121SOL    HW212803   2.541   0.603   1.508
 3121SOL    HW312804   2.538   0.459   1.555
 3121SOL    MW412805   2.561   0.518   1.496
 3122SOL     OW12806   2.224   0.911   0.697
 3122SOL    HW212807   2.282   0.967   0.645
 3122SOL    HW312808   2.268   0.826   0.699
 3122SOL    MW412809   2.237   0.908   0.690
 3123SOL     OW12810   3.364   0.263   0.534
 3123SOL    HW212811   3.286   0.213   0.559
 3123SOL    HW312812   3.335   0.354   0.534
 3123SOL    MW412813   3.350   0.267   0.537
 3124SOL     OW12814   2.950   0.225   0.693
 3124SOL    HW212815   2.970   0.300   0.637
 3124SOL    HW312816   2.930   0.264   0.778
 3124SOL    MW412817   2.951   0.241   0.697
 3125SOL     OW12818   3.710   0.998   1.712
 3125SOL    HW212819   3.623   0.978   1.748
 3125SOL    HW312820   3.764   0.924   1.737
 3125SOL    MW412821   3.705   0.987   1.720
 3126SOL     OW12822   1.931   1.511   0.869
 3126SOL    HW212823   1.963   1.515   0.960
 3126SOL    HW312824   1.836   1.519   0.877
 3126SOL    MW412825   1.923   1.514   0.882
 3127SOL     OW12826   1.886   0.637   0.416
 3127SOL    HW212827   1.826   0.609   0.486
 3127SOL    HW312828   1.960   0.577   0.422
 3127SOL    MW412829   1.888   0.626   0.425
 3128SOL     OW12830   3.454   1.849   1.850
 3128SOL    HW212831   3.499   1.773   1.815
 3128SOL    HW312832   3.492   1.862   1.937
 3128SOL    MW412833   3.464   1.842   1.856
 3129SOL     OW12834   3.054   1.368   0.576
 3129SOL    HW212835   3.077   1.319   0.654
 3129SOL    HW312836   3.135   1.410   0.548
 3129SOL    MW412837   3.067   1.368   0.583
 3130SOL     OW12838   2.312   0.376   1.305
 3130SOL    HW212839   2.345   0.457   1.345
 3130SOL    HW312840   2.285   0.402   1.217
 3130SOL    MW412841   2.311   0.390   1.299
 3131SOL     OW12842   2.266   0.343   1.041
 3131SOL    HW212843   2.296   0.257   1.012
 3131SOL    HW312844   2.171   0.336   1.044
 3131SOL    MW412845   2.258   0.332   1.039
 3132SOL     OW12846   3.095   0.552   1.732
 3132SOL    HW212847   3.147   0.487   1.685
 3132SOL    HW312848   3.053   0.603   1.662
 3132SOL    MW412849   3.096   0.549   1.715
 3133SOL     OW12850   3.194   0.347   1.593
 3133SOL    HW212851   3.101   0.331   1.580
 3133SOL    HW312852   3.220   0.285   1.661
 3133SOL    MW412853   3.184   0.337   1.600
 3134SOL     OW12854   2.409   0.121   0.932
 3134SOL    HW212855   2.419   0.030   0.958
 3134SOL    HW312856   2.365   0.117   0.847
 3134SOL    MW412857   2.405   0.109   0.924
 3135SOL     OW12858   2.503   1.736   1.478
 3135SOL    HW212859   2.420   1.721   1.523
 3135SOL    HW312860   2.562   1.669   1.513
 3135SOL    MW412861   2.501   1.726   1.488
 3136SOL     OW12862   3.560   0.443   1.103
 3136SOL    HW212863   3.493   0.476   1.163
 3136SOL    HW312864   3.603   0.521   1.069
 3136SOL    MW412865   3.558   0.458   1.107
 3137SOL     OW12866   3.738   1.163   1.073
 3137SOL    HW212867   3.731   1.103   0.998
 3137SOL    HW312868   3.664   1.223   1.062
 3137SOL    MW412869   3.728   1.163   1.062
 3138SOL     OW12870   3.120   1.025   0.991
 3138SOL    HW212871   3.134   0.997   1.082
 3138SOL    HW312872   3.206   1.056   0.963
 3138SOL    MW412873   3.133   1.026   1.000
 3139SOL     OW12874   3.203   0.520   1.270
 3139SOL    HW212875   3.224   0.521   1.177
 3139SOL    HW312876   3.248   0.442   1.303
 3139SOL    MW412877   3.210   0.510   1.262
 3140SOL     OW12878   3.696   0.651   1.812
 3140SOL    HW212879   3.733   0.596   1.881
 3140SOL    HW312880   3.721   0.608   1.730
 3140SOL    MW412881   3.703   0.639   1.811
 3141SOL     OW12882   3.243   0.949   1.863
 3141SOL    HW212883   3.309   0.897   1.817
 3141SOL    HW312884   3.263   0.936   1.956
 3141SOL    MW412885   3.254   0.940   1.870
 3142SOL     OW12886   3.254   0.810   0.490
 3142SOL    HW212887   3.169   0.780   0.460
 3142SOL    HW312888   3.246   0.817   0.585
 3142SOL    MW412889   3.242   0.808   0.499
 3143SOL     OW12890   2.330   1.273   1.221
 3143SOL    HW212891   2.342   1.300   1.312
 3143SOL    HW312892   2.311   1.354   1.174
 3143SOL    MW412893   2.329   1.288   1.226
 3144SOL     OW12894   2.614   0.253   1.044
 3144SOL    HW212895   2.587   0.255   1.135
 3144SOL    HW312896   2.544   0.205   0.999
 3144SOL    MW412897   2.602   0.249   1.051
 3145SOL     OW12898   2.468   1.745   1.206
 3145SOL    HW212899   2.520   1.822   1.183
 3145SOL    HW312900   2.477   1.737   1.301
 3145SOL    MW412901   2.477   1.752   1.217
 3146SOL     OW12902   3.370   1.330   1.438
 3146SOL    HW212903   3.355   1.259   1.501
 3146SOL    HW312904   3.416   1.288   1.366
 3146SOL    MW412905   3.376   1.314   1.438
 3147SOL     OW12906   2.444   1.061   1.555
 3147SOL    HW212907   2.481   1.066   1.467
 3147SOL    HW312908   2.483   1.134   1.602
 3147SOL    MW412909   2.454   1.071   1.550
 3148SOL     OW12910   2.624   1.104   1.367
 3148SOL    HW212911   2.683   1.050   1.420
 3148SOL    HW312912   2.639   1.076   1.277
 3148SOL    MW412913   2.634   1.093   1.363
 3149SOL     OW12914   3.435   1.593   1.539
 3149SOL    HW212915   3.477   1.578   1.624
 3149SOL    HW312916   3.426   1.506   1.501
 3149SOL    MW412917   3.439   1.581   1.546
 3150SOL     OW12918   3.095   0.072   1.130
 3150SOL    HW212919   3.150   0.081   1.052
 3150SOL    HW312920   3.150   0.106   1.201
 3150SOL    MW412921   3.109   0.077   1.129
 3151SOL     OW12922   2.102   0.985   0.314
 3151SOL    HW212923   2.039   1.001   0.243
 3151SOL    HW312924   2.049   0.948   0.385
 3151SOL    MW412925   2.087   0.982   0.314
 3152SOL     OW12926   2.458   1.339   0.173
 3152SOL    HW212927   2.473   1.315   0.265
 3152SOL    HW312928   2.366   1.317   0.157
 3152SOL    MW412929   2.448   1.332   0.183
 3153SOL     OW12930   2.256   1.728   0.894
 3153SOL    HW212931   2.260   1.639   0.929
 3153SOL    HW312932   2.282   1.719   0.803
 3153SOL    MW412933   2.259   1.716   0.886
 3154SOL     OW12934   2.873   1.206   1.137
 3154SOL    HW212935   2.805   1.140   1.153
 3154SOL    HW312936   2.891   1.200   1.044
 3154SOL    MW412937   2.866   1.197   1.128
 3155SOL     OW12938   1.962   1.481   1.388
 3155SOL    HW212939   1.952   1.439   1.474
 3155SOL    HW312940   1.883   1.534   1.378
 3155SOL    MW412941   1.951   1.482   1.399
 3156SOL     OW12942   2.866   0.345   0.958
 3156SOL    HW212943   2.796   0.297   1.003
 3156SOL    HW312944   2.898   0.408   1.022
 3156SOL    MW412945   2.861   0.347   0.972
 3157SOL     OW12946   2.517   0.781   1.578
 3157SOL    HW212947   2.510   0.876   1.566
 3157SOL    HW312948   2.526   0.770   1.673
 3157SOL    MW412949   2.518   0.793   1.588
 3158SOL     OW12950   2.238   1.296   1.836
 3158SOL    HW212951   2.310   1.298   1.773
 3158SOL    HW312952   2.208   1.205   1.835
 3158SOL    MW412953   2.243   1.285   1.828
 3159SOL     OW12954   3.322   0.059   1.303
 3159SOL    HW212955   3.393   0.005   1.267
 3159SOL    HW312956   3.321   0.038   1.396
 3159SOL    MW412957   3.331   0.050   1.311
 3160SOL     OW12958   3.522   1.589   1.787
 3160SOL    HW212959   3.495   1.586   1.878
 3160SOL    HW312960   3.618   1.593   1.790
 3160SOL    MW412961   3.532   1.589   1.799
 3161SOL     OW12962   2.333   0.451   0.771
 3161SOL    HW212963   2.404   0.399   0.734
 3161SOL    HW312964   2.319   0.416   0.858
 3161SOL    MW412965   2.341   0.440   0.778
 3162SOL     OW12966   1.888   1.786   1.843
 3162SOL    HW212967   1.938   1.764   1.765
 3162SOL    HW312968   1.896   1.881   1.851
 3162SOL    MW412969   1.896   1.795   1.834
 3163SOL     OW12970   2.649   1.544   0.847
 3163SOL    HW212971   2.577   1.481   0.860
 3163SOL    HW312972   2.610   1.629   0.865
 3163SOL    MW412973   2.633   1.547   0.850
 3164SOL     OW12974   2.054   0.082   0.427
 3164SOL    HW212975   2.125   0.103   0.366
 3164SOL    HW312976   2.008   0.010   0.385
 3164SOL    MW412977   2.058   0.076   0.413
 3165SOL     OW12978   1.885   0.549   1.570
 3165SOL    HW212979   1.949   0.615   1.545
 3165SOL    HW312980   1.804   0.576   1.527
 3165SOL    MW412981   1.883   0.561   1.562
 3166SOL     OW12982   3.623   1.456   0.527
 3166SOL    HW212983   3.593   1.389   0.588
 3166SOL    HW312984   3.717   1.462   0.541
 3166SOL    MW412985   3.631   1.448   0.537
 3167SOL     OW12986   3.179   1.133   0.457
 3167SOL    HW212987   3.151   1.219   0.490
 3167SOL    HW312988   3.207   1.149   0.367
 3167SOL    MW412989   3.179   1.147   0.449
 3168SOL     OW12990   2.841   0.053   0.510
 3168SOL    HW212991   2.878   0.112   0.575
 3168SOL    HW312992   2.818   0.109   0.436
 3168SOL    MW412993   2.842   0.068   0.509
 3169SOL     OW12994   3.694   0.935   0.932
 3169SOL    HW212995   3.685   0.967   0.843
 3169SOL    HW312996   3.647   0.851   0.932
 3169SOL    MW412997   3.687   0.928   0.922
 3170SOL     OW12998   2.070   0.775   1.511
 3170SOL    HW212999   2.091   0.844   1.449
 3170SOL    HW313000   2.150   0.722   1.516
 3170SOL    MW413001   2.083   0.776   1.505
 3171SOL     OW13002   3.606   0.866   0.633
 3171SOL    HW213003   3.700   0.855   0.621
 3171SOL    HW313004   3.582   0.938   0.574
 3171SOL    MW413005   3.616   0.874   0.624
 3172SOL     OW13006   2.055   0.790   1.778
 3172SOL    HW213007   1.981   0.734   1.804
 3172SOL    HW313008   2.050   0.793   1.683
 3172SOL    MW413009   2.044   0.783   1.768
 3173SOL     OW13010   2.221   0.077   1.228
 3173SOL    HW213011   2.264   0.161   1.248
 3173SOL    HW313012   2.294   0.015   1.221
 3173SOL    MW413013   2.236   0.080   1.229
 3174SOL     OW13014   2.262   0.744   0.406
 3174SOL    HW213015   2.262   0.839   0.391
 3174SOL    HW313016   2.339   0.728   0.460
 3174SOL    MW413017   2.272   0.755   0.411
 3175SOL     OW13018   3.038   0.603   1.470
 3175SOL    HW213019   3.074   0.576   1.386
 3175SOL    HW313020   2.951   0.637   1.449
 3175SOL    MW413021   3.032   0.604   1.457
 3176SOL     OW13022   2.021   0.475   0.695
 3176SOL    HW213023   2.083   0.482   0.768
 3176SOL    HW313024   2.021   0.382   0.672
 3176SOL    MW413025   2.029   0.464   0.702
 3177SOL     OW13026   2.703   0.736   1.179
 3177SOL    HW213027   2.661   0.654   1.155
 3177SOL    HW313028   2.704   0.735   1.275
 3177SOL    MW413029   2.696   0.725   1.188
 3178SOL     OW13030   3.374   1.869   1.578
 3178SOL    HW213031   3.377   1.775   1.561
 3178SOL    HW313032   3.397   1.877   1.670
 3178SOL    MW413033   3.377   1.857   1.588
 3179SOL     OW13034   2.507   0.206   1.284
 3179SOL    HW213035   2.438   0.269   1.305
 3179SOL    HW313036   2.534   0.170   1.369
 3179SOL    MW413037   2.501   0.209   1.297
 3180SOL     OW13038   1.890   1.047   0.153
 3180SOL    HW213039   1.859   1.112   0.216
 3180SOL    HW313040   1.839   0.969   0.172
 3180SOL    MW413041   1.880   1.044   0.163
 3181SOL     OW13042   3.302   0.059   0.901
 3181SOL    HW213043   3.390   0.068   0.938
 3181SOL    HW313044   3.312   0.000   0.827
 3181SOL    MW413045   3.316   0.053   0.895
 3182SOL     OW13046   3.334   0.798   0.745
 3182SOL    HW213047   3.414   0.813   0.694
 3182SOL    HW313048   3.327   0.703   0.751
 3182SOL    MW413049   3.343   0.787   0.740
 3183SOL     OW13050   2.474   1.847   0.095
 3183SOL    HW213051   2.379   1.847   0.087
 3183SOL    HW313052   2.490   1.793   0.173
 3183SOL    MW413053   2.464   1.841   0.104
 3184SOL     OW13054   2.784   0.724   1.442
 3184SOL    HW213055   2.853   0.791   1.439
 3184SOL    HW313056   2.717   0.762   1.498
 3184SOL    MW413057   2.785   0.737   1.449
 3185SOL     OW13058   2.202   1.024   1.690
 3185SOL    HW213059   2.156   0.940   1.692
 3185SOL    HW313060   2.259   1.018   1.614
 3185SOL    MW413061   2.204   1.012   1.682
 3186SOL     OW13062   2.453   1.399   0.691
 3186SOL    HW213063   2.518   1.332   0.712
 3186SOL    HW313064   2.505   1.476   0.668
 3186SOL    MW413065   2.468   1.401   0.690
 3187SOL     OW13066   2.714   0.564   0.821
 3187SOL    HW213067   2.654   0.582   0.893
 3187SOL    HW313068   2.748   0.476   0.840
 3187SOL    MW413069   2.710   0.554   0.834
 3188SOL     OW13070   3.655   0.063   1.490
 3188SOL    HW213071   3.576   0.109   1.518
 3188SOL    HW313072   3.690   0.117   1.419
 3188SOL    MW413073   3.649   0.076   1.484
 3189SOL     OW13074   2.939   1.147   0.840
 3189SOL    HW213075   3.031   1.128   0.858
 3189SOL    HW313076   2.912   1.077   0.780
 3189SOL    MW413077   2.947   1.135   0.834
 3190SOL     OW13078   2.732   0.967   0.195
 3190SOL    HW213079   2.718   0.879   0.160
 3190SOL    HW313080   2.683   1.024   0.136
 3190SOL    MW413081   2.724   0.962   0.183
 3191SOL     OW13082   3.213   1.385   0.936
 3191SOL    HW213083   3.186   1.469   0.901
 3191SOL    HW313084   3.173   1.380   1.023
 3191SOL    MW413085   3.206   1.394   0.942
 3192SOL     OW13086   3.132   1.333   1.204
 3192SOL    HW213087   3.143   1.300   1.293
 3192SOL    HW313088   3.051   1.292   1.173
 3192SOL    MW413089   3.122   1.325   1.210
 3193SOL     OW13090   2.145   0.691   0.974
 3193SOL    HW213091   2.095   0.690   1.055
 3193SOL    HW313092   2.165   0.783   0.958
 3193SOL    MW413093   2.141   0.703   0.982
 3194SOL     OW13094   3.212   1.455   1.736
 3194SOL    HW213095   3.212   1.549   1.752
 3194SOL    HW313096   3.257   1.445   1.652
 3194SOL    MW413097   3.218   1.465   1.727
 3195SOL     OW13098   2.740   0.736   0.411
 3195SOL    HW213099   2.720   0.722   0.318
 3195SOL    HW313100   2.833   0.715   0.418
 3195SOL    MW413101   2.750   0.731   0.400
 3196SOL     OW13102   2.067   0.359   1.715
 3196SOL    HW213103   2.024   0.418   1.652
 3196SOL    HW313104   2.135   0.414   1.755
 3196SOL    MW413105   2.071   0.374   1.712
 3197SOL     OW13106   3.179   0.979   1.260
 3197SOL    HW213107   3.242   0.976   1.333
 3197SOL    HW313108   3.095   0.997   1.302
 3197SOL    MW413109   3.175   0.981   1.275
 3198SOL     OW13110   2.723   1.694   0.449
 3198SOL    HW213111   2.781   1.765   0.476
 3198SOL    HW313112   2.746   1.622   0.507
 3198SOL    MW413113   2.734   1.694   0.460
 3199SOL     OW13114   3.518   0.156   1.039
 3199SOL    HW213115   3.563   0.074   1.058
 3199SOL    HW313116   3.538   0.212   1.115
 3199SOL    MW413117   3.528   0.152   1.051
 3200SOL     OW13118   1.966  -0.001   1.138
 3200SOL    HW213119   1.957   0.000   1.043
 3200SOL    HW313120   2.060   0.011   1.153
 3200SOL    MW413121   1.978   0.002   1.129
 3201SOL     OW13122   3.603   1.192   0.758
 3201SOL    HW213123   3.582   1.138   0.681
 3201SOL    HW313124   3.699   1.190   0.762
 3201SOL    MW413125   3.612   1.185   0.747
 3202SOL     OW13126   2.295   1.337   1.501
 3202SOL    HW213127   2.216   1.287   1.524
 3202SOL    HW313128   2.365   1.296   1.551
 3202SOL    MW413129   2.293   1.325   1.511
 3203SOL     OW13130   2.179   0.126   0.184
 3203SOL    HW213131   2.108   0.181   0.152
 3203SOL    HW313132   2.221   0.092   0.105
 3203SOL    MW413133   2.175   0.128   0.170
 3204SOL     OW13134   3.303   0.623   1.020
 3204SOL    HW213135   3.226   0.669   0.986
 3204SOL    HW313136   3.360   0.692   1.054
 3204SOL    MW413137   3.300   0.638   1.020
 3205SOL     OW13138   1.935   0.225   0.033
 3205SOL    HW213139   1.902   0.304   0.077
 3205SOL    HW313140   1.990   0.258  -0.038
 3205SOL    MW413141   1.938   0.239   0.030
 3206SOL     OW13142   1.969   1.482   0.222
 3206SOL    HW213143   1.986   1.566   0.264
 3206SOL    HW313144   2.004   1.491   0.134
 3206SOL    MW413145   1.974   1.495   0.216
 3207SOL     OW13146   3.241   1.571   0.439
 3207SOL    HW213147   3.304   1.561   0.368
 3207SOL    HW313148   3.158   1.591   0.394
 3207SOL    MW413149   3.238   1.572   0.424
 3208SOL     OW13150   3.604   0.839   2.125
 3208SOL    HW213151   3.645   0.781   2.190
 3208SOL    HW313152   3.511   0.831   2.142
 3208SOL    MW413153   3.598   0.831   2.135
 3209SOL     OW13154   3.470   0.771   3.120
 3209SOL    HW213155   3.425   0.838   3.171
 3209SOL    HW313156   3.558   0.807   3.106
 3209SOL    MW413157   3.476   0.784   3.124
 3210SOL     OW13158   2.398   1.022   2.354
 3210SOL    HW213159   2.488   0.997   2.338
 3210SOL    HW313160   2.394   1.115   2.331
 3210SOL    MW413161   2.410   1.031   2.349
 3211SOL     OW13162   3.514   1.725   2.496
 3211SOL    HW213163   3.526   1.671   2.574
 3211SOL    HW313164   3.551   1.673   2.425
 3211SOL    MW413165   3.520   1.710   2.497
 3212SOL     OW13166   3.450   1.165   3.101
 3212SOL    HW213167   3.371   1.130   3.059
 3212SOL    HW313168   3.477   1.237   3.045
 3212SOL    MW413169   3.443   1.170   3.088
 3213SOL     OW13170   2.682   0.478   2.367
 3213SOL    HW213171   2.657   0.566   2.395
 3213SOL    HW313172   2.679   0.481   2.271
 3213SOL    MW413173   2.678   0.490   2.359
 3214SOL     OW13174   2.124   0.506   2.295
 3214SOL    HW213175   2.156   0.594   2.277
 3214SOL    HW313176   2.112   0.504   2.390
 3214SOL    MW413177   2.127   0.518   2.307
 3215SOL     OW13178   2.202   0.919   3.196
 3215SOL    HW213179   2.265   0.866   3.147
 3215SOL    HW313180   2.183   0.993   3.139
 3215SOL    MW413181   2.208   0.921   3.183
 3216SOL     OW13182   2.523   0.261   2.382
 3216SOL    HW213183   2.581   0.337   2.384
 3216SOL    HW313184   2.458   0.282   2.315
 3216SOL    MW413185   2.522   0.273   2.373
 3217SOL     OW13186   2.610   1.188   2.557
 3217SOL    HW213187   2.690   1.191   2.609
 3217SOL    HW313188   2.638   1.155   2.471
 3217SOL    MW413189   2.624   1.184   2.552
 3218SOL     OW13190   2.635   1.529   3.460
 3218SOL    HW213191   2.719   1.555   3.499
 3218SOL    HW313192   2.659   1.473   3.386
 3218SOL    MW413193   2.649   1.525   3.455
 3219SOL     OW13194   2.387   0.692   2.548
 3219SOL    HW213195   2.372   0.612   2.599
 3219SOL    HW313196   2.469   0.727   2.582
 3219SOL    MW413197   2.395   0.684   2.560
 3220SOL     OW13198   2.724   1.378   3.233
 3220SOL    HW213199   2.688   1.444   3.173
 3220SOL    HW313200   2.652   1.316   3.246
 3220SOL    MW413201   2.710   1.378   3.227
 3221SOL     OW13202   2.529   0.518   2.925
 3221SOL    HW213203   2.435   0.514   2.943
 3221SOL    HW313204   2.559   0.427   2.934
 3221SOL    MW413205   2.520   0.506   2.928
 3222SOL     OW13206   2.275   0.932   2.829
 3222SOL    HW213207   2.230   0.939   2.745
 3222SOL    HW313208   2.255   1.015   2.873
 3222SOL    MW413209   2.267   0.944   2.823
 3223SOL     OW13210   1.972   1.778   2.704
 3223SOL    HW213211   2.061   1.770   2.739
 3223SOL    HW313212   1.936   1.690   2.709
 3223SOL    MW413213   1.979   1.765   2.709
 3224SOL     OW13214   3.237   1.170   2.073
 3224SOL    HW213215   3.155   1.206   2.039
 3224SOL    HW313216   3.305   1.213   2.022
 3224SOL    MW413217   3.235   1.180   2.061
 3225SOL     OW13218   2.236   1.305   2.739
 3225SOL    HW213219   2.212   1.358   2.815
 3225SOL    HW313220   2.292   1.363   2.687
 3225SOL    MW413221   2.240   1.320   2.742
 3226SOL     OW13222   2.798   0.949   2.549
 3226SOL    HW213223   2.712   0.936   2.589
 3226SOL    HW313224   2.851   0.876   2.581
 3226SOL    MW413225   2.794   0.938   2.558
 3227SOL     OW13226   2.206   1.601   3.334
 3227SOL    HW213227   2.114   1.577   3.319
 3227SOL    HW313228   2.250   1.518   3.351
 3227SOL    MW413229   2.200   1.586   3.333
 3228SOL     OW13230   2.789   1.311   2.266
 3228SOL    HW213231   2.766   1.373   2.334
 3228SOL    HW313232   2.746   1.229   2.292
 3228SOL    MW413233   2.781   1.307   2.277
 3229SOL     OW13234   3.662   0.312   2.722
 3229SOL    HW213235   3.599   0.292   2.791
 3229SOL    HW313236   3.652   0.241   2.659
 3229SOL    MW413237   3.652   0.299   2.723
 3230SOL     OW13238   2.286   0.284   2.234
 3230SOL    HW213239   2.260   0.246   2.150
 3230SOL    HW313240   2.223   0.354   2.250
 3230SOL    MW413241   2.275   0.287   2.225
 3231SOL     OW13242   2.121   1.245   2.271
 3231SOL    HW213243   2.069   1.313   2.227
 3231SOL    HW313244   2.118   1.171   2.211
 3231SOL    MW413245   2.113   1.244   2.258
 3232SOL     OW13246   2.783   1.708   2.049
 3232SOL    HW213247   2.738   1.724   2.132
 3232SOL    HW313248   2.714   1.673   1.991
 3232SOL    MW413249   2.769   1.705   2.051
 3233SOL     OW13250   3.718   0.481   2.024
 3233SOL    HW213251   3.627   0.483   2.052
 3233SOL    HW313252   3.763   0.543   2.082
 3233SOL    MW413253   3.711   0.489   2.034
 3234SOL     OW13254   3.463   1.084   2.374
 3234SOL    HW213255   3.373   1.084   2.409
 3234SOL    HW313256   3.456   1.130   2.291
 3234SOL    MW413257   3.450   1.090   2.368
 3235SOL     OW13258   3.263   0.719   3.446
 3235SOL    HW213259   3.332   0.657   3.423
 3235SOL    HW313260   3.188   0.693   3.393
 3235SOL    MW413261   3.263   0.706   3.437
 3236SOL     OW13262   2.004   1.599   2.998
 3236SOL    HW213263   1.987   1.545   3.075
 3236SOL    HW313264   1.992   1.689   3.028
 3236SOL    MW413265   2.001   1.603   3.012
 3237SOL     OW13266   2.999   1.106   3.438
 3237SOL    HW213267   2.984   1.199   3.423
 3237SOL    HW313268   3.094   1.096   3.438
 3237SOL    MW413269   3.008   1.116   3.435
 3238SOL     OW13270   2.795   0.530   3.639
 3238SOL    HW213271   2.885   0.531   3.606
 3238SOL    HW313272   2.754   0.455   3.597
 3238SOL    MW413273   2.801   0.520   3.630
 3239SOL     OW13274   3.370   1.062   2.766
 3239SOL    HW213275   3.373   0.996   2.697
 3239SOL    HW313276   3.455   1.105   2.762
 3239SOL    MW413277   3.382   1.058   2.757
 3240SOL     OW13278   2.990   0.665   2.335
 3240SOL    HW213279   3.016   0.689   2.246
 3240SOL    HW313280   2.972   0.572   2.331
 3240SOL    MW413281   2.992   0.657   2.322
 3241SOL     OW13282   3.655   1.285   2.186
 3241SOL    HW213283   3.611   1.326   2.261
 3241SOL    HW313284   3.712   1.353   2.151
 3241SOL    MW413285   3.657   1.299   2.191
 3242SOL     OW13286   2.575   0.334   3.589
 3242SOL    HW213287   2.585   0.260   3.529
 3242SOL    HW313288   2.611   0.303   3.672
 3242SOL    MW413289   2.581   0.320   3.591
 3243SOL     OW13290   2.311   1.701   2.504
 3243SOL    HW213291   2.343   1.789   2.482
 3243SOL    HW313292   2.264   1.673   2.426
 3243SOL    MW413293   2.310   1.709   2.491
 3244SOL     OW13294   3.695   0.063   2.553
 3244SOL    HW213295   3.749   0.014   2.615
 3244SOL    HW313296   3.638  -0.003   2.514
 3244SOL    MW413297   3.695   0.047   2.555
 3245SOL     OW13298   2.027   1.761   2.081
 3245SOL    HW213299   2.056   1.851   2.073
 3245SOL    HW313300   1.977   1.744   2.002
 3245SOL    MW413301   2.025   1.769   2.070
 3246SOL     OW13302   2.814   0.016   2.966
 3246SOL    HW213303   2.773   0.094   2.928
 3246SOL    HW313304   2.908   0.034   2.961
 3246SOL    MW413305   2.820   0.028   2.961
 3247SOL     OW13306   3.431   1.569   2.052
 3247SOL    HW213307   3.479   1.638   2.098
 3247SOL    HW313308   3.352   1.613   2.021
 3247SOL    MW413309   3.426   1.583   2.055
 3248SOL     OW13310   2.829   0.694   1.996
 3248SOL    HW213311   2.831   0.641   1.917
 3248SOL    HW313312   2.917   0.731   2.002
 3248SOL    MW413313   2.841   0.693   1.985
 3249SOL     OW13314   3.443   0.620   2.332
 3249SOL    HW213315   3.482   0.620   2.419
 3249SOL    HW313316   3.384   0.696   2.332
 3249SOL    MW413317   3.440   0.631   2.343
 3250SOL     OW13318   2.760   0.987   3.461
 3250SOL    HW213319   2.737   0.967   3.551
 3250SOL    HW313320   2.845   1.031   3.466
 3250SOL    MW413321   2.767   0.990   3.473
 3251SOL     OW13322   2.840   0.124   3.221
 3251SOL    HW213323   2.846   0.086   3.134
 3251SOL    HW313324   2.829   0.218   3.206
 3251SOL    MW413325   2.841   0.132   3.209
 3252SOL     OW13326   2.929   0.613   3.055
 3252SOL    HW213327   3.004   0.642   3.002
 3252SOL    HW313328   2.861   0.678   3.039
 3252SOL    MW413329   2.930   0.625   3.045
 3253SOL     OW13330   3.479   0.581   3.332
 3253SOL    HW213331   3.460   0.490   3.311
 3253SOL    HW313332   3.457   0.630   3.253
 3253SOL    MW413333   3.474   0.574   3.319
 3254SOL     OW13334   3.621   1.675   3.236
 3254SOL    HW213335   3.549   1.637   3.287
 3254SOL    HW313336   3.638   1.760   3.277
 3254SOL    MW413337   3.615   1.680   3.248
 3255SOL     OW13338   2.926   0.319   3.438
 3255SOL    HW213339   2.892   0.358   3.357
 3255SOL    HW313340   2.904   0.227   3.431
 3255SOL    MW413341   2.919   0.312   3.428
 3256SOL     OW13342   3.335   1.133   3.514
 3256SOL    HW213343   3.417   1.174   3.544
 3256SOL    HW313344   3.298   1.095   3.594
 3256SOL    MW413345   3.341   1.134   3.529
 3257SOL     OW13346   3.630   0.506   2.498
 3257SOL    HW213347   3.719   0.475   2.515
 3257SOL    HW313348   3.573   0.446   2.546
 3257SOL    MW413349   3.633   0.494   2.507
 3258SOL     OW13350   2.056   0.220   2.527
 3258SOL    HW213351   2.047   0.160   2.453
 3258SOL    HW313352   1.989   0.191   2.590
 3258SOL    MW413353   2.046   0.207   2.525
 3259SOL     OW13354   2.999   1.313   2.088
 3259SOL    HW213355   2.949   1.315   2.170
 3259SOL    HW313356   2.933   1.331   2.020
 3259SOL    MW413357   2.985   1.315   2.090
 3260SOL     OW13358   2.003   0.393   2.890
 3260SOL    HW213359   1.975   0.484   2.899
 3260SOL    HW313360   1.940   0.354   2.829
 3260SOL    MW413361   1.990   0.399   2.884
 3261SOL     OW13362   2.462   1.731   2.196
 3261SOL    HW213363   2.383   1.689   2.229
 3261SOL    HW313364   2.528   1.714   2.263
 3261SOL    MW413365   2.461   1.723   2.209
 3262SOL     OW13366   3.590   1.251   3.593
 3262SOL    HW213367   3.640   1.177   3.625
 3262SOL    HW313368   3.536   1.278   3.668
 3262SOL    MW413369   3.590   1.245   3.606
 3263SOL     OW13370   2.598   1.146   1.903
 3263SOL    HW213371   2.520   1.092   1.890
 3263SOL    HW313372   2.569   1.219   1.956
 3263SOL    MW413373   2.584   1.148   1.908
 3264SOL     OW13374   3.724   0.886   3.095
 3264SOL    HW213375   3.740   0.924   3.008
 3264SOL    HW313376   3.758   0.952   3.156
 3264SOL    MW413377   3.731   0.899   3.091
 3265SOL     OW13378   3.516   1.595   2.764
 3265SOL    HW213379   3.545   1.662   2.825
 3265SOL    HW313380   3.497   1.519   2.819
 3265SOL    MW413381   3.518   1.595   2.779
 3266SOL     OW13382   3.179   1.662   1.971
 3266SOL    HW213383   3.105   1.625   2.021
 3266SOL    HW313384   3.187   1.752   2.004
 3266SOL    MW413385   3.170   1.669   1.983
 3267SOL     OW13386   1.987   0.668   3.060
 3267SOL    HW213387   2.049   0.698   3.126
 3267SOL    HW313388   1.921   0.737   3.054
 3267SOL    MW413389   1.986   0.681   3.067
 3268SOL     OW13390   3.403   1.336   1.913
 3268SOL    HW213391   3.350   1.385   1.849
 3268SOL    HW313392   3.434   1.402   1.974
 3268SOL    MW413393   3.401   1.350   1.911
 3269SOL     OW13394   2.628   0.225   1.968
 3269SOL    HW213395   2.576   0.145   1.956
 3269SOL    HW313396   2.715   0.202   1.936
 3269SOL    MW413397   2.631   0.211   1.962
 3270SOL     OW13398   2.082   1.777   3.512
 3270SOL    HW213399   2.056   1.845   3.450
 3270SOL    HW313400   2.130   1.714   3.460
 3270SOL    MW413401   2.084   1.777   3.498
 3271SOL     OW13402   2.134   1.096   3.019
 3271SOL    HW213403   2.187   1.171   3.044
 3271SOL    HW313404   2.053   1.134   2.985
 3271SOL    MW413405   2.130   1.111   3.019
 3272SOL     OW13406   2.674   1.000   3.007
 3272SOL    HW213407   2.702   0.909   3.019
 3272SOL    HW313408   2.603   0.994   2.943
 3272SOL    MW413409   2.667   0.988   3.002
 3273SOL     OW13410   1.989   0.865   2.425
 3273SOL    HW213411   2.080   0.880   2.452
 3273SOL    HW313412   1.992   0.786   2.371
 3273SOL    MW413413   2.001   0.857   2.423
 3274SOL     OW13414   2.225   0.573   3.679
 3274SOL    HW213415   2.172   0.653   3.686
 3274SOL    HW313416   2.295   0.585   3.744
 3274SOL    MW413417   2.227   0.586   3.687
 3275SOL     OW13418   2.611   0.123   3.386
 3275SOL    HW213419   2.588   0.031   3.388
 3275SOL    HW313420   2.697   0.125   3.343
 3275SOL    MW413421   2.618   0.113   3.382
 3276SOL     OW13422   2.295   0.647   3.425
 3276SOL    HW213423   2.375   0.697   3.411
 3276SOL    HW313424   2.286   0.641   3.520
 3276SOL    MW413425   2.304   0.653   3.435
 3277SOL     OW13426   2.616   1.797   2.799
 3277SOL    HW213427   2.705   1.812   2.829
 3277SOL    HW313428   2.611   1.844   2.715
 3277SOL    MW413429   2.626   1.805   2.792
 3278SOL     OW13430   3.272   0.172   3.696
 3278SOL    HW213431   3.328   0.099   3.722
 3278SOL    HW313432   3.242   0.210   3.778
 3278SOL    MW413433   3.276   0.167   3.709
 3279SOL     OW13434   1.997   1.477   2.464
 3279SOL    HW213435   1.969   1.516   2.546
 3279SOL    HW313436   2.017   1.386   2.486
 3279SOL    MW413437   1.995   1.469   2.477
 3280SOL     OW13438   2.830   1.520   2.499
 3280SOL    HW213439   2.913   1.474   2.483
 3280SOL    HW313440   2.820   1.519   2.595
 3280SOL    MW413441   2.840   1.513   2.509
 3281SOL     OW13442   3.662   0.665   2.813
 3281SOL    HW213443   3.751   0.695   2.795
 3281SOL    HW313444   3.642   0.605   2.742
 3281SOL    MW413445   3.671   0.662   2.802
 3282SOL     OW13446   3.513   0.844   3.693
 3282SOL    HW213447   3.568   0.768   3.674
 3282SOL    HW313448   3.515   0.852   3.788
 3282SOL    MW413449   3.521   0.835   3.701
 3283SOL     OW13450   2.563   1.577   1.904
 3283SOL    HW213451   2.503   1.646   1.874
 3283SOL    HW313452   2.508   1.519   1.957
 3283SOL    MW413453   2.547   1.579   1.906
 3284SOL     OW13454   3.001   0.222   2.127
 3284SOL    HW213455   2.934   0.198   2.064
 3284SOL    HW313456   3.066   0.271   2.076
 3284SOL    MW413457   3.001   0.224   2.112
 3285SOL     OW13458   2.808   0.406   3.212
 3285SOL    HW213459   2.727   0.447   3.240
 3285SOL    HW313460   2.855   0.474   3.164
 3285SOL    MW413461   2.803   0.421   3.210
 3286SOL     OW13462   3.068   0.744   2.835
 3286SOL    HW213463   3.081   0.838   2.845
 3286SOL    HW313464   3.029   0.734   2.749
 3286SOL    MW413465   3.064   0.755   2.825
 3287SOL     OW13466   2.520   0.939   2.639
 3287SOL    HW213467   2.431   0.930   2.672
 3287SOL    HW313468   2.524   1.029   2.607
 3287SOL    MW413469   2.509   0.950   2.639
 3288SOL     OW13470   3.319   0.522   2.634
 3288SOL    HW213471   3.264   0.443   2.633
 3288SOL    HW313472   3.301   0.563   2.718
 3288SOL    MW413473   3.309   0.517   2.643
 3289SOL     OW13474   2.290   0.209   3.451
 3289SOL    HW213475   2.211   0.227   3.503
 3289SOL    HW313476   2.285   0.271   3.378
 3289SOL    MW413477   2.280   0.219   3.448
 3290SOL     OW13478   2.938   0.726   2.591
 3290SOL    HW213479   2.875   0.658   2.615
 3290SOL    HW313480   2.958   0.707   2.499
 3290SOL    MW413481   2.932   0.713   2.583
 3291SOL     OW13482   2.194   1.621   2.293
 3291SOL    HW213483   2.155   1.668   2.219
 3291SOL    HW313484   2.128   1.556   2.318
 3291SOL    MW413485   2.181   1.619   2.287
 3292SOL     OW13486   2.686   1.030   2.317
 3292SOL    HW213487   2.688   1.004   2.224
 3292SOL    HW313488   2.744   0.967   2.360
 3292SOL    MW413489   2.694   1.019   2.311
 3293SOL     OW13490   3.239   1.590   3.089
 3293SOL    HW213491   3.164   1.636   3.127
 3293SOL    HW313492   3.221   1.497   3.106
 3293SOL    MW413493   3.228   1.584   3.097
 3294SOL     OW13494   3.243   1.798   2.519
 3294SOL    HW213495   3.186   1.751   2.458
 3294SOL    HW313496   3.329   1.759   2.506
 3294SOL    MW413497   3.246   1.789   2.509
 3295SOL     OW13498   3.196   0.274   2.650
 3295SOL    HW213499   3.224   0.206   2.711
 3295SOL    HW313500   3.110   0.245   2.620
 3295SOL    MW413501   3.189   0.261   2.654
 3296SOL     OW13502   2.001   1.208   2.584
 3296SOL    HW213503   2.065   1.240   2.647
 3296SOL    HW313504   2.050   1.144   2.532
 3296SOL    MW413505   2.016   1.204   2.585
 3297SOL     OW13506   2.501   1.284   3.566
 3297SOL    HW213507   2.549   1.367   3.553
 3297SOL    HW313508   2.558   1.232   3.622
 3297SOL    MW413509   2.515   1.288   3.572
 3298SOL     OW13510   2.077   1.526   3.706
 3298SOL    HW213511   2.133   1.450   3.721
 3298SOL    HW313512   2.026   1.504   3.628
 3298SOL    MW413513   2.077   1.513   3.697
 3299SOL     OW13514   3.176   0.378   1.985
 3299SOL    HW213515   3.149   0.444   1.921
 3299SOL    HW313516   3.246   0.421   2.035
 3299SOL    MW413517   3.181   0.391   1.982
 3300SOL     OW13518   2.844   0.083   1.922
 3300SOL    HW213519   2.900   0.075   1.844
 3300SOL    HW313520   2.821  -0.007   1.944
 3300SOL    MW413521   2.849   0.070   1.915
 3301SOL     OW13522   3.349   0.934   2.127
 3301SOL    HW213523   3.316   1.023   2.117
 3301SOL    HW313524   3.314   0.905   2.212
 3301SOL    MW413525   3.339   0.943   2.138
 3302SOL     OW13526   2.962   1.363   3.315
 3302SOL    HW213527   2.873   1.369   3.283
 3302SOL    HW313528   3.006   1.442   3.283
 3302SOL    MW413529   2.957   1.373   3.307
 3303SOL     OW13530   2.255   0.031   3.657
 3303SOL    HW213531   2.183  -0.004   3.605
 3303SOL    HW313532   2.313   0.072   3.592
 3303SOL    MW413533   2.253   0.032   3.642
 3304SOL     OW13534   2.279   1.521   2.956
 3304SOL    HW213535   2.324   1.583   3.013
 3304SOL    HW313536   2.186   1.540   2.969
 3304SOL    MW413537   2.272   1.531   2.963
 3305SOL     OW13538   3.719   1.050   3.310
 3305SOL    HW213539   3.634   1.063   3.269
 3305SOL    HW313540   3.699   1.014   3.397
 3305SOL    MW413541   3.706   1.046   3.315
 3306SOL     OW13542   2.701   1.589   3.064
 3306SOL    HW213543   2.725   1.578   2.973
 3306SOL    HW313544   2.624   1.646   3.062
 3306SOL    MW413545   2.693   1.594   3.053
 3307SOL     OW13546   2.343   0.972   1.919
 3307SOL    HW213547   2.266   0.985   1.975
 3307SOL    HW313548   2.307   0.936   1.838
 3307SOL    MW413549   2.329   0.968   1.916
 3308SOL     OW13550   2.996   0.945   2.162
 3308SOL    HW213551   2.906   0.966   2.137
 3308SOL    HW313552   3.023   1.018   2.218
 3308SOL    MW413553   2.988   0.957   2.165
 3309SOL     OW13554   2.496   1.294   2.854
 3309SOL    HW213555   2.489   1.273   2.948
 3309SOL    HW313556   2.414   1.262   2.817
 3309SOL    MW413557   2.484   1.288   2.861
 3310SOL     OW13558   3.360   0.304   3.256
 3310SOL    HW213559   3.307   0.306   3.336
 3310SOL    HW313560   3.345   0.217   3.219
 3310SOL    MW413561   3.352   0.294   3.261
 3311SOL     OW13562   3.696   0.228   3.129
 3311SOL    HW213563   3.677   0.295   3.064
 3311SOL    HW313564   3.753   0.166   3.084
 3311SOL    MW413565   3.700   0.229   3.115
 3312SOL     OW13566   1.942   1.386   3.517
 3312SOL    HW213567   1.986   1.319   3.463
 3312SOL    HW313568   1.857   1.348   3.537
 3312SOL    MW413569   1.937   1.372   3.513
 3313SOL     OW13570   2.625   0.061   2.569
 3313SOL    HW213571   2.554   0.122   2.551
 3313SOL    HW313572   2.676   0.058   2.488
 3313SOL    MW413573   2.621   0.067   2.556
 3314SOL     OW13574   2.383   1.301   2.318
 3314SOL    HW213575   2.376   1.333   2.408
 3314SOL    HW313576   2.293   1.285   2.290
 3314SOL    MW413577   2.371   1.303   2.325
 3315SOL     OW13578   2.978   1.694   3.227
 3315SOL    HW213579   2.898   1.679   3.177
 3315SOL    HW313580   2.985   1.789   3.234
 3315SOL    MW413581   2.969   1.705   3.221
 3316SOL     OW13582   3.092   1.659   2.717
 3316SOL    HW213583   3.139   1.732   2.676
 3316SOL    HW313584   3.013   1.698   2.753
 3316SOL    MW413585   3.087   1.674   2.716
 3317SOL     OW13586   3.500   1.754   2.992
 3317SOL    HW213587   3.543   1.724   3.072
 3317SOL    HW313588   3.419   1.702   2.989
 3317SOL    MW413589   3.495   1.743   3.002
 3318SOL     OW13590   2.585   0.718   3.699
 3318SOL    HW213591   2.655   0.660   3.671
 3318SOL    HW313592   2.528   0.663   3.754
 3318SOL    MW413593   2.587   0.705   3.703
 3319SOL     OW13594   3.372   0.930   3.332
 3319SOL    HW213595   3.377   0.983   3.412
 3319SOL    HW313596   3.334   0.847   3.360
 3319SOL    MW413597   3.368   0.925   3.347
 3320SOL     OW13598   3.012   0.065   3.578
 3320SOL    HW213599   3.007  -0.028   3.559
 3320SOL    HW313600   3.095   0.076   3.624
 3320SOL    MW413601   3.020   0.054   3.582
 3321SOL     OW13602   2.386   0.585   2.032
 3321SOL    HW213603   2.352   0.641   2.102
 3321SOL    HW313604   2.457   0.535   2.072
 3321SOL    MW413605   2.392   0.586   2.046
 3322SOL     OW13606   3.482   1.336   2.854
 3322SOL    HW213607   3.517   1.318   2.767
 3322SOL    HW313608   3.387   1.337   2.841
 3322SOL    MW413609   3.474   1.333   2.841
 3323SOL     OW13610   2.911   0.984   3.223
 3323SOL    HW213611   2.954   1.019   3.301
 3323SOL    HW313612   2.894   1.061   3.169
 3323SOL    MW413613   2.914   0.999   3.226
 3324SOL     OW13614   3.442   0.471   2.096
 3324SOL    HW213615   3.434   0.542   2.033
 3324SOL    HW313616   3.460   0.515   2.179
 3324SOL    MW413617   3.443   0.485   2.098
 3325SOL     OW13618   2.302   0.126   2.525
 3325SOL    HW213619   2.352   0.169   2.456
 3325SOL    HW313620   2.217   0.170   2.525
 3325SOL    MW413621   2.299   0.139   2.516
 3326SOL     OW13622   2.061   1.188   3.385
 3326SOL    HW213623   2.089   1.141   3.463
 3326SOL    HW313624   1.982   1.143   3.356
 3326SOL    MW413625   2.054   1.177   3.391
 3327SOL     OW13626   2.569   0.515   3.352
 3327SOL    HW213627   2.541   0.603   3.376
 3327SOL    HW313628   2.538   0.459   3.423
 3327SOL    MW413629   2.561   0.518   3.364
 3328SOL     OW13630   3.111   0.733   2.071
 3328SOL    HW213631   3.158   0.751   1.990
 3328SOL    HW313632   3.077   0.817   2.099
 3328SOL    MW413633   3.113   0.747   2.064
 3329SOL     OW13634   2.224   0.911   2.565
 3329SOL    HW213635   2.282   0.967   2.513
 3329SOL    HW313636   2.268   0.826   2.567
 3329SOL    MW413637   2.237   0.908   2.558
 3330SOL     OW13638   3.364   0.263   2.402
 3330SOL    HW213639   3.286   0.213   2.427
 3330SOL    HW313640   3.335   0.354   2.402
 3330SOL    MW413641   3.350   0.267   2.405
 3331SOL     OW13642   2.950   0.225   2.561
 3331SOL    HW213643   2.970   0.300   2.505
 3331SOL    HW313644   2.930   0.264   2.646
 3331SOL    MW413645   2.951   0.241   2.565
 3332SOL     OW13646   2.846   1.475   1.893
 3332SOL    HW213647   2.873   1.553   1.845
 3332SOL    HW313648   2.753   1.490   1.912
 3332SOL    MW413649   2.837   1.488   1.889
 3333SOL     OW13650   3.710   0.998   3.580
 3333SOL    HW213651   3.623   0.978   3.616
 3333SOL    HW313652   3.764   0.924   3.605
 3333SOL    MW413653   3.705   0.987   3.588
 3334SOL     OW13654   1.931   1.511   2.737
 3334SOL    HW213655   1.963   1.515   2.828
 3334SOL    HW313656   1.836   1.519   2.745
 3334SOL    MW413657   1.923   1.514   2.750
 3335SOL     OW13658   1.886   0.637   2.284
 3335SOL    HW213659   1.826   0.609   2.354
 3335SOL    HW313660   1.960   0.577   2.290
 3335SOL    MW413661   1.888   0.626   2.293
 3336SOL     OW13662   3.454   1.849   3.718
 3336SOL    HW213663   3.499   1.773   3.683
 3336SOL    HW313664   3.492   1.862   3.805
 3336SOL    MW413665   3.464   1.842   3.724
 3337SOL     OW13666   3.054   1.368   2.444
 3337SOL    HW213667   3.077   1.319   2.522
 3337SOL    HW313668   3.135   1.410   2.416
 3337SOL    MW413669   3.067   1.368   2.451
 3338SOL     OW13670   2.312   0.376   3.173
 3338SOL    HW213671   2.345   0.457   3.213
 3338SOL    HW313672   2.285   0.402   3.085
 3338SOL    MW413673   2.311   0.390   3.167
 3339SOL     OW13674   2.266   0.343   2.909
 3339SOL    HW213675   2.296   0.257   2.880
 3339SOL    HW313676   2.171   0.336   2.912
 3339SOL    MW413677   2.258   0.332   2.907
 3340SOL     OW13678   3.095   0.552   3.600
 3340SOL    HW213679   3.147   0.487   3.553
 3340SOL    HW313680   3.053   0.603   3.530
 3340SOL    MW413681   3.096   0.549   3.583
 3341SOL     OW13682   3.194   0.347   3.461
 3341SOL    HW213683   3.101   0.331   3.448
 3341SOL    HW313684   3.220   0.285   3.529
 3341SOL    MW413685   3.184   0.337   3.468
 3342SOL     OW13686   2.409   0.121   2.800
 3342SOL    HW213687   2.419   0.030   2.826
 3342SOL    HW313688   2.365   0.117   2.715
 3342SOL    MW413689   2.405   0.109   2.792
 3343SOL     OW13690   2.503   1.736   3.346
 3343SOL    HW213691   2.420   1.721   3.391
 3343SOL    HW313692   2.562   1.669   3.381
 3343SOL    MW413693   2.501   1.726   3.356
 3344SOL     OW13694   3.560   0.443   2.971
 3344SOL    HW213695   3.493   0.476   3.031
 3344SOL    HW313696   3.603   0.521   2.937
 3344SOL    MW413697   3.558   0.458   2.975
 3345SOL     OW13698   3.738   1.163   2.941
 3345SOL    HW213699   3.731   1.103   2.866
 3345SOL    HW313700   3.664   1.223   2.930
 3345SOL    MW413701   3.728   1.163   2.930
 3346SOL     OW13702   3.120   1.025   2.859
 3346SOL    HW213703   3.134   0.997   2.950
 3346SOL    HW313704   3.206   1.056   2.831
 3346SOL    MW413705   3.133   1.026   2.868
 3347SOL     OW13706   3.203   0.520   3.138
 3347SOL    HW213707   3.224   0.521   3.045
 3347SOL    HW313708   3.248   0.442   3.171
 3347SOL    MW413709   3.210   0.510   3.130
 3348SOL     OW13710   3.696   0.651   3.680
 3348SOL    HW213711   3.733   0.596   3.749
 3348SOL    HW313712   3.721   0.608   3.598
 3348SOL    MW413713   3.703   0.639   3.679
 3349SOL     OW13714   3.243   0.949   3.731
 3349SOL    HW213715   3.309   0.897   3.685
 3349SOL    HW313716   3.263   0.936   3.824
 3349SOL    MW413717   3.254   0.940   3.738
 3350SOL     OW13718   3.194   0.035   2.080
 3350SOL    HW213719   3.268   0.079   2.123
 3350SOL    HW313720   3.118   0.089   2.102
 3350SOL    MW413721   3.194   0.047   2.088
 3351SOL     OW13722   3.254   0.810   2.358
 3351SOL    HW213723   3.169   0.780   2.328
 3351SOL    HW313724   3.246   0.817   2.453
 3351SOL    MW413725   3.242   0.808   2.367
 3352SOL     OW13726   2.330   1.273   3.089
 3352SOL    HW213727   2.342   1.300   3.180
 3352SOL    HW313728   2.311   1.354   3.042
 3352SOL    MW413729   2.329   1.288   3.094
 3353SOL     OW13730   2.614   0.253   2.912
 3353SOL    HW213731   2.587   0.255   3.003
 3353SOL    HW313732   2.544   0.205   2.867
 3353SOL    MW413733   2.602   0.249   2.919
 3354SOL     OW13734   2.468   1.745   3.074
 3354SOL    HW213735   2.520   1.822   3.051
 3354SOL    HW313736   2.477   1.737   3.169
 3354SOL    MW413737   2.477   1.752   3.085
 3355SOL     OW13738   3.370   1.330   3.306
 3355SOL    HW213739   3.355   1.259   3.369
 3355SOL    HW313740   3.416   1.288   3.234
 3355SOL    MW413741   3.376   1.314   3.306
 3356SOL     OW13742   2.444   1.061   3.423
 3356SOL    HW213743   2.481   1.066   3.335
 3356SOL    HW313744   2.483   1.134   3.470
 3356SOL    MW413745   2.454   1.071   3.418
 3357SOL     OW13746   2.624   1.104   3.235
 3357SOL    HW213747   2.683   1.050   3.288
 3357SOL    HW313748   2.639   1.076   3.145
 3357SOL    MW413749   2.634   1.093   3.231
 3358SOL     OW13750   2.627   0.476   2.084
 3358SOL    HW213751   2.700   0.525   2.047
 3358SOL    HW313752   2.643   0.385   2.058
 3358SOL    MW413753   2.639   0.471   2.077
 3359SOL     OW13754   3.435   1.593   3.407
 3359SOL    HW213755   3.477   1.578   3.492
 3359SOL    HW313756   3.426   1.506   3.369
 3359SOL    MW413757   3.439   1.581   3.414
 3360SOL     OW13758   3.095   0.072   2.998
 3360SOL    HW213759   3.150   0.081   2.920
 3360SOL    HW313760   3.150   0.106   3.069
 3360SOL    MW413761   3.109   0.077   2.997
 3361SOL     OW13762   2.102   0.985   2.182
 3361SOL    HW213763   2.039   1.001   2.111
 3361SOL    HW313764   2.049   0.948   2.253
 3361SOL    MW413765   2.087   0.982   2.182
 3362SOL     OW13766   2.458   1.339   2.041
 3362SOL    HW213767   2.473   1.315   2.133
 3362SOL    HW313768   2.366   1.317   2.025
 3362SOL    MW413769   2.448   1.332   2.051
 3363SOL     OW13770   2.997   1.570   2.193
 3363SOL    HW213771   3.005   1.488   2.144
 3363SOL    HW313772   2.916   1.609   2.160
 3363SOL    MW413773   2.987   1.565   2.183
 3364SOL     OW13774   2.256   1.728   2.762
 3364SOL    HW213775   2.260   1.639   2.797
 3364SOL    HW313776   2.282   1.719   2.671
 3364SOL    MW413777   2.259   1.716   2.754
 3365SOL     OW13778   2.873   1.206   3.005
 3365SOL    HW213779   2.805   1.140   3.021
 3365SOL    HW313780   2.891   1.200   2.912
 3365SOL    MW413781   2.866   1.197   2.996
 3366SOL     OW13782   1.962   1.481   3.256
 3366SOL    HW213783   1.952   1.439   3.342
 3366SOL    HW313784   1.883   1.534   3.246
 3366SOL    MW413785   1.951   1.482   3.267
 3367SOL     OW13786   2.866   0.345   2.826
 3367SOL    HW213787   2.796   0.297   2.871
 3367SOL    HW313788   2.898   0.408   2.890
 3367SOL    MW413789   2.861   0.347   2.840
 3368SOL     OW13790   2.517   0.781   3.446
 3368SOL    HW213791   2.510   0.876   3.434
 3368SOL    HW313792   2.526   0.770   3.541
 3368SOL    MW413793   2.518   0.793   3.456
 3369SOL     OW13794   2.238   1.296   3.704
 3369SOL    HW213795   2.310   1.298   3.641
 3369SOL    HW313796   2.208   1.205   3.703
 3369SOL    MW413797   2.243   1.285   3.696
 3370SOL     OW13798   3.322   0.059   3.171
 3370SOL    HW213799   3.393   0.005   3.135
 3370SOL    HW313800   3.321   0.038   3.264
 3370SOL    MW413801   3.331   0.050   3.179
 3371SOL     OW13802   3.522   1.589   3.655
 3371SOL    HW213803   3.495   1.586   3.746
 3371SOL    HW313804   3.618   1.593   3.658
 3371SOL    MW413805   3.532   1.589   3.667
 3372SOL     OW13806   2.333   0.451   2.639
 3372SOL    HW213807   2.404   0.399   2.602
 3372SOL    HW313808   2.319   0.416   2.726
 3372SOL    MW413809   2.341   0.440   2.646
 3373SOL     OW13810   1.888   1.786   3.711
 3373SOL    HW213811   1.938   1.764   3.633
 3373SOL    HW313812   1.896   1.881   3.719
 3373SOL    MW413813   1.896   1.795   3.702
 3374SOL     OW13814   2.649   1.544   2.715
 3374SOL    HW213815   2.577   1.481   2.728
 3374SOL    HW313816   2.610   1.629   2.733
 3374SOL    MW413817   2.633   1.547   2.718
 3375SOL     OW13818   2.969   0.392   2.363
 3375SOL    HW213819   2.991   0.329   2.295
 3375SOL    HW313820   2.874   0.384   2.374
 3375SOL    MW413821   2.959   0.383   2.355
 3376SOL     OW13822   2.054   0.082   2.295
 3376SOL    HW213823   2.125   0.103   2.234
 3376SOL    HW313824   2.008   0.010   2.253
 3376SOL    MW413825   2.058   0.076   2.281
 3377SOL     OW13826   1.885   0.549   3.438
 3377SOL    HW213827   1.949   0.615   3.413
 3377SOL    HW313828   1.804   0.576   3.395
 3377SOL    MW413829   1.883   0.561   3.430
 3378SOL     OW13830   3.623   1.456   2.395
 3378SOL    HW213831   3.593   1.389   2.456
 3378SOL    HW313832   3.717   1.462   2.409
 3378SOL    MW413833   3.631   1.448   2.405
 3379SOL     OW13834   3.179   1.133   2.325
 3379SOL    HW213835   3.151   1.219   2.358
 3379SOL    HW313836   3.207   1.149   2.235
 3379SOL    MW413837   3.179   1.147   2.317
 3380SOL     OW13838   2.841   0.053   2.378
 3380SOL    HW213839   2.878   0.112   2.443
 3380SOL    HW313840   2.818   0.109   2.304
 3380SOL    MW413841   2.842   0.068   2.377
 3381SOL     OW13842   2.070   0.775   3.379
 3381SOL    HW213843   2.091   0.844   3.317
 3381SOL    HW313844   2.150   0.722   3.384
 3381SOL    MW413845   2.083   0.776   3.373
 3382SOL     OW13846   3.606   0.866   2.501
 3382SOL    HW213847   3.700   0.855   2.489
 3382SOL    HW313848   3.582   0.938   2.442
 3382SOL    MW413849   3.616   0.874   2.492
 3383SOL     OW13850   2.055   0.790   3.646
 3383SOL    HW213851   1.981   0.734   3.672
 3383SOL    HW313852   2.050   0.793   3.551
 3383SOL    MW413853   2.044   0.783   3.636
 3384SOL     OW13854   2.221   0.077   3.096
 3384SOL    HW213855   2.264   0.161   3.116
 3384SOL    HW313856   2.294   0.015   3.089
 3384SOL    MW413857   2.236   0.080   3.097
 3385SOL     OW13858   2.262   0.744   2.274
 3385SOL    HW213859   2.262   0.839   2.259
 3385SOL    HW313860   2.339   0.728   2.328
 3385SOL    MW413861   2.272   0.755   2.279
 3386SOL     OW13862   3.038   0.603   3.338
 3386SOL    HW213863   3.074   0.576   3.254
 3386SOL    HW313864   2.951   0.637   3.317
 3386SOL    MW413865   3.032   0.604   3.325
 3387SOL     OW13866   2.021   0.475   2.563
 3387SOL    HW213867   2.083   0.482   2.636
 3387SOL    HW313868   2.021   0.382   2.540
 3387SOL    MW413869   2.029   0.464   2.570
 3388SOL     OW13870   3.568   1.815   2.095
 3388SOL    HW213871   3.635   1.848   2.035
 3388SOL    HW313872   3.525   1.894   2.129
 3388SOL    MW413873   3.570   1.830   2.091
 3389SOL     OW13874   2.703   0.736   3.047
 3389SOL    HW213875   2.661   0.654   3.023
 3389SOL    HW313876   2.704   0.735   3.143
 3389SOL    MW413877   2.696   0.725   3.056
 3390SOL     OW13878   3.374   1.869   3.446
 3390SOL    HW213879   3.377   1.775   3.429
 3390SOL    HW313880   3.397   1.877   3.538
 3390SOL    MW413881   3.377   1.857   3.456
 3391SOL     OW13882   2.507   0.206   3.152
 3391SOL    HW213883   2.438   0.269   3.173
 3391SOL    HW313884   2.534   0.170   3.237
 3391SOL    MW413885   2.501   0.209   3.165
 3392SOL     OW13886   1.890   1.047   2.021
 3392SOL    HW213887   1.859   1.112   2.084
 3392SOL    HW313888   1.839   0.969   2.040
 3392SOL    MW413889   1.880   1.044   2.031
 3393SOL     OW13890   3.302   0.059   2.769
 3393SOL    HW213891   3.390   0.068   2.806
 3393SOL    HW313892   3.312   0.000   2.695
 3393SOL    MW413893   3.316   0.053   2.763
 3394SOL     OW13894   3.334   0.798   2.613
 3394SOL    HW213895   3.414   0.813   2.562
 3394SOL    HW313896   3.327   0.703   2.619
 3394SOL    MW413897   3.343   0.787   2.608
 3395SOL     OW13898   2.474   1.847   1.963
 3395SOL    HW213899   2.379   1.847   1.955
 3395SOL    HW313900   2.490   1.793   2.041
 3395SOL    MW413901   2.464   1.841   1.972
 3396SOL     OW13902   2.784   0.724   3.310
 3396SOL    HW213903   2.853   0.791   3.307
 3396SOL    HW313904   2.717   0.762   3.366
 3396SOL    MW413905   2.785   0.737   3.317
 3397SOL     OW13906   2.202   1.024   3.558
 3397SOL    HW213907   2.156   0.940   3.560
 3397SOL    HW313908   2.259   1.018   3.482
 3397SOL    MW413909   2.204   1.012   3.550
 3398SOL     OW13910   3.319   0.667   1.879
 3398SOL    HW213911   3.247   0.643   1.821
 3398SOL    HW313912   3.385   0.704   1.821
 3398SOL    MW413913   3.318   0.669   1.864
 3399SOL     OW13914   2.453   1.399   2.559
 3399SOL    HW213915   2.518   1.332   2.580
 3399SOL    HW313916   2.505   1.476   2.536
 3399SOL    MW413917   2.468   1.401   2.558
 3400SOL     OW13918   2.714   0.564   2.689
 3400SOL    HW213919   2.654   0.582   2.761
 3400SOL    HW313920   2.748   0.476   2.708
 3400SOL    MW413921   2.710   0.554   2.702
 3401SOL     OW13922   3.655   0.063   3.358
 3401SOL    HW213923   3.576   0.109   3.386
 3401SOL    HW313924   3.690   0.117   3.287
 3401SOL    MW413925   3.649   0.076   3.352
 3402SOL     OW13926   2.939   1.147   2.708
 3402SOL    HW213927   3.031   1.128   2.726
 3402SOL    HW313928   2.912   1.077   2.648
 3402SOL    MW413929   2.947   1.135   2.702
 3403SOL     OW13930   2.732   0.967   2.063
 3403SOL    HW213931   2.718   0.879   2.028
 3403SOL    HW313932   2.683   1.024   2.004
 3403SOL    MW413933   2.724   0.962   2.051
 3404SOL     OW13934   3.213   1.385   2.804
 3404SOL    HW213935   3.186   1.469   2.769
 3404SOL    HW313936   3.173   1.380   2.891
 3404SOL    MW413937   3.206   1.394   2.810
 3405SOL     OW13938   3.132   1.333   3.072
 3405SOL    HW213939   3.143   1.300   3.161
 3405SOL    HW313940   3.051   1.292   3.041
 3405SOL    MW413941   3.122   1.325   3.078
 3406SOL     OW13942   2.145   0.691   2.842
 3406SOL    HW213943   2.095   0.690   2.923
 3406SOL    HW313944   2.165   0.783   2.826
 3406SOL    MW413945   2.141   0.703   2.850
 3407SOL     OW13946   3.212   1.455   3.604
 3407SOL    HW213947   3.212   1.549   3.620
 3407SOL    HW313948   3.257   1.445   3.520
 3407SOL    MW413949   3.218   1.465   3.595
 3408SOL     OW13950   3.451   0.173   2.165
 3408SOL    HW213951   3.444   0.177   2.260
 3408SOL    HW313952   3.463   0.264   2.138
 3408SOL    MW413953   3.452   0.186   2.173
 3409SOL     OW13954   2.067   0.359   3.583
 3409SOL    HW213955   2.024   0.418   3.520
 3409SOL    HW313956   2.135   0.414   3.623
 3409SOL    MW413957   2.071   0.374   3.580
 3410SOL     OW13958   3.179   0.979   3.128
 3410SOL    HW213959   3.242   0.976   3.201
 3410SOL    HW313960   3.095   0.997   3.170
 3410SOL    MW413961   3.175   0.981   3.143
 3411SOL     OW13962   2.723   1.694   2.317
 3411SOL    HW213963   2.781   1.765   2.344
 3411SOL    HW313964   2.746   1.622   2.375
 3411SOL    MW413965   2.734   1.694   2.328
 3412SOL     OW13966   3.518   0.156   2.907
 3412SOL    HW213967   3.563   0.074   2.926
 3412SOL    HW313968   3.538   0.212   2.983
 3412SOL    MW413969   3.528   0.152   2.919
 3413SOL     OW13970   1.966  -0.001   3.006
 3413SOL    HW213971   1.957   0.000   2.911
 3413SOL    HW313972   2.060   0.011   3.021
 3413SOL    MW413973   1.978   0.002   2.997
 3414SOL     OW13974   3.603   1.192   2.626
 3414SOL    HW213975   3.582   1.138   2.549
 3414SOL    HW313976   3.699   1.190   2.630
 3414SOL    MW413977   3.612   1.185   2.615
 3415SOL     OW13978   2.295   1.337   3.369
 3415SOL    HW213979   2.216   1.287   3.392
 3415SOL    HW313980   2.365   1.296   3.419
 3415SOL    MW413981   2.293   1.325   3.379
 3416SOL     OW13982   2.179   0.126   2.052
 3416SOL    HW213983   2.108   0.181   2.020
 3416SOL    HW313984   2.221   0.092   1.973
 3416SOL    MW413985   2.175   0.128   2.038
 3417SOL     OW13986   3.303   0.623   2.888
 3417SOL    HW213987   3.226   0.669   2.854
 3417SOL    HW313988   3.360   0.692   2.922
 3417SOL    MW413989   3.300   0.638   2.888
 3418SOL     OW13990   1.935   0.225   1.901
 3418SOL    HW213991   1.902   0.304   1.945
 3418SOL    HW313992   1.990   0.258   1.830
 3418SOL    MW413993   1.938   0.239   1.898
 3419SOL     OW13994   1.969   1.482   2.090
 3419SOL    HW213995   1.986   1.566   2.132
 3419SOL    HW313996   2.004   1.491   2.002
 3419SOL    MW413997   1.974   1.495   2.084
 3420SOL     OW13998   3.241   1.571   2.307
 3420SOL    HW213999   3.304   1.561   2.236
 3420SOL    HW314000   3.158   1.591   2.262
 3420SOL    MW414001   3.238   1.572   2.292
 3421SOL     OW14002   3.604   0.839   3.993
 3421SOL    HW214003   3.645   0.781   4.058
 3421SOL    HW314004   3.511   0.831   4.010
 3421SOL    MW414005   3.598   0.831   4.003
 3422SOL     OW14006   3.470   0.771   4.988
 3422SOL    HW214007   3.425   0.838   5.039
 3422SOL    HW314008   3.558   0.807   4.974
 3422SOL    MW414009   3.476   0.784   4.992
 3423SOL     OW14010   2.398   1.022   4.222
 3423SOL    HW214011   2.488   0.997   4.206
 3423SOL    HW314012   2.394   1.115   4.199
 3423SOL    MW414013   2.410   1.031   4.217
 3424SOL     OW14014   3.514   1.725   4.364
 3424SOL    HW214015   3.526   1.671   4.442
 3424SOL    HW314016   3.551   1.673   4.293
 3424SOL    MW414017   3.520   1.710   4.365
 3425SOL     OW14018   2.893   1.610   5.365
 3425SOL    HW214019   2.934   1.646   5.286
 3425SOL    HW314020   2.928   1.521   5.372
 3425SOL    MW414021   2.904   1.603   5.356
 3426SOL     OW14022   3.450   1.165   4.969
 3426SOL    HW214023   3.371   1.130   4.927
 3426SOL    HW314024   3.477   1.237   4.913
 3426SOL    MW414025   3.443   1.170   4.956
 3427SOL     OW14026   2.682   0.478   4.235
 3427SOL    HW214027   2.657   0.566   4.263
 3427SOL    HW314028   2.679   0.481   4.139
 3427SOL    MW414029   2.678   0.490   4.227
 3428SOL     OW14030   2.124   0.506   4.163
 3428SOL    HW214031   2.156   0.594   4.145
 3428SOL    HW314032   2.112   0.504   4.258
 3428SOL    MW414033   2.127   0.518   4.175
 3429SOL     OW14034   2.202   0.919   5.064
 3429SOL    HW214035   2.265   0.866   5.015
 3429SOL    HW314036   2.183   0.993   5.007
 3429SOL    MW414037   2.208   0.921   5.051
 3430SOL     OW14038   2.523   0.261   4.250
 3430SOL    HW214039   2.581   0.337   4.252
 3430SOL    HW314040   2.458   0.282   4.183
 3430SOL    MW414041   2.522   0.273   4.241
 3431SOL     OW14042   2.610   1.188   4.425
 3431SOL    HW214043   2.690   1.191   4.477
 3431SOL    HW314044   2.638   1.155   4.339
 3431SOL    MW414045   2.624   1.184   4.420
 3432SOL     OW14046   2.635   1.529   5.328
 3432SOL    HW214047   2.719   1.555   5.367
 3432SOL    HW314048   2.659   1.473   5.254
 3432SOL    MW414049   2.649   1.525   5.323
 3433SOL     OW14050   2.387   0.692   4.416
 3433SOL    HW214051   2.372   0.612   4.467
 3433SOL    HW314052   2.469   0.727   4.450
 3433SOL    MW414053   2.395   0.684   4.428
 3434SOL     OW14054   2.724   1.378   5.101
 3434SOL    HW214055   2.688   1.444   5.041
 3434SOL    HW314056   2.652   1.316   5.114
 3434SOL    MW414057   2.710   1.378   5.095
 3435SOL     OW14058   2.529   0.518   4.793
 3435SOL    HW214059   2.435   0.514   4.811
 3435SOL    HW314060   2.559   0.427   4.802
 3435SOL    MW414061   2.520   0.506   4.796
 3436SOL     OW14062   2.275   0.932   4.697
 3436SOL    HW214063   2.230   0.939   4.613
 3436SOL    HW314064   2.255   1.015   4.741
 3436SOL    MW414065   2.267   0.944   4.691
 3437SOL     OW14066   1.972   1.778   4.572
 3437SOL    HW214067   2.061   1.770   4.607
 3437SOL    HW314068   1.936   1.690   4.577
 3437SOL    MW414069   1.979   1.765   4.577
 3438SOL     OW14070   2.236   1.305   4.607
 3438SOL    HW214071   2.212   1.358   4.683
 3438SOL    HW314072   2.292   1.363   4.555
 3438SOL    MW414073   2.240   1.320   4.610
 3439SOL     OW14074   2.798   0.949   4.417
 3439SOL    HW214075   2.712   0.936   4.457
 3439SOL    HW314076   2.851   0.876   4.449
 3439SOL    MW414077   2.794   0.938   4.426
 3440SOL     OW14078   2.206   1.601   5.202
 3440SOL    HW214079   2.114   1.577   5.187
 3440SOL    HW314080   2.250   1.518   5.219
 3440SOL    MW414081   2.200   1.586   5.201
 3441SOL     OW14082   2.789   1.311   4.134
 3441SOL    HW214083   2.766   1.373   4.202
 3441SOL    HW314084   2.746   1.229   4.160
 3441SOL    MW414085   2.781   1.307   4.145
 3442SOL     OW14086   3.662   0.312   4.590
 3442SOL    HW214087   3.599   0.292   4.659
 3442SOL    HW314088   3.652   0.241   4.527
 3442SOL    MW414089   3.652   0.299   4.591
 3443SOL     OW14090   2.286   0.284   4.102
 3443SOL    HW214091   2.260   0.246   4.018
 3443SOL    HW314092   2.223   0.354   4.118
 3443SOL    MW414093   2.275   0.287   4.093
 3444SOL     OW14094   2.121   1.245   4.139
 3444SOL    HW214095   2.069   1.313   4.095
 3444SOL    HW314096   2.118   1.171   4.079
 3444SOL    MW414097   2.113   1.244   4.126
 3445SOL     OW14098   2.783   1.708   3.917
 3445SOL    HW214099   2.738   1.724   4.000
 3445SOL    HW314100   2.714   1.673   3.859
 3445SOL    MW414101   2.769   1.705   3.919
 3446SOL     OW14102   3.718   0.481   3.892
 3446SOL    HW214103   3.627   0.483   3.920
 3446SOL    HW314104   3.763   0.543   3.950
 3446SOL    MW414105   3.711   0.489   3.902
 3447SOL     OW14106   3.463   1.084   4.242
 3447SOL    HW214107   3.373   1.084   4.277
 3447SOL    HW314108   3.456   1.130   4.159
 3447SOL    MW414109   3.450   1.090   4.236
 3448SOL     OW14110   3.263   0.719   5.314
 3448SOL    HW214111   3.332   0.657   5.291
 3448SOL    HW314112   3.188   0.693   5.261
 3448SOL    MW414113   3.263   0.706   5.305
 3449SOL     OW14114   2.004   1.599   4.866
 3449SOL    HW214115   1.987   1.545   4.943
 3449SOL    HW314116   1.992   1.689   4.896
 3449SOL    MW414117   2.001   1.603   4.880
 3450SOL     OW14118   2.999   1.106   5.306
 3450SOL    HW214119   2.984   1.199   5.291
 3450SOL    HW314120   3.094   1.096   5.306
 3450SOL    MW414121   3.008   1.116   5.303
 3451SOL     OW14122   2.795   0.530   5.507
 3451SOL    HW214123   2.885   0.531   5.474
 3451SOL    HW314124   2.754   0.455   5.465
 3451SOL    MW414125   2.801   0.520   5.498
 3452SOL     OW14126   3.370   1.062   4.634
 3452SOL    HW214127   3.373   0.996   4.565
 3452SOL    HW314128   3.455   1.105   4.630
 3452SOL    MW414129   3.382   1.058   4.625
 3453SOL     OW14130   2.990   0.665   4.203
 3453SOL    HW214131   3.016   0.689   4.114
 3453SOL    HW314132   2.972   0.572   4.199
 3453SOL    MW414133   2.992   0.657   4.190
 3454SOL     OW14134   3.655   1.285   4.054
 3454SOL    HW214135   3.611   1.326   4.129
 3454SOL    HW314136   3.712   1.353   4.019
 3454SOL    MW414137   3.657   1.299   4.059
 3455SOL     OW14138   2.575   0.334   5.457
 3455SOL    HW214139   2.585   0.260   5.397
 3455SOL    HW314140   2.611   0.303   5.540
 3455SOL    MW414141   2.581   0.320   5.459
 3456SOL     OW14142   2.311   1.701   4.372
 3456SOL    HW214143   2.343   1.789   4.350
 3456SOL    HW314144   2.264   1.673   4.294
 3456SOL    MW414145   2.310   1.709   4.359
 3457SOL     OW14146   3.695   0.063   4.421
 3457SOL    HW214147   3.749   0.014   4.483
 3457SOL    HW314148   3.638  -0.003   4.382
 3457SOL    MW414149   3.695   0.047   4.423
 3458SOL     OW14150   2.027   1.761   3.949
 3458SOL    HW214151   2.056   1.851   3.941
 3458SOL    HW314152   1.977   1.744   3.870
 3458SOL    MW414153   2.025   1.769   3.938
 3459SOL     OW14154   2.814   0.016   4.834
 3459SOL    HW214155   2.773   0.094   4.796
 3459SOL    HW314156   2.908   0.034   4.829
 3459SOL    MW414157   2.820   0.028   4.829
 3460SOL     OW14158   3.431   1.569   3.920
 3460SOL    HW214159   3.479   1.638   3.966
 3460SOL    HW314160   3.352   1.613   3.889
 3460SOL    MW414161   3.426   1.583   3.923
 3461SOL     OW14162   2.829   0.694   3.864
 3461SOL    HW214163   2.831   0.641   3.785
 3461SOL    HW314164   2.917   0.731   3.870
 3461SOL    MW414165   2.841   0.693   3.853
 3462SOL     OW14166   3.443   0.620   4.200
 3462SOL    HW214167   3.482   0.620   4.287
 3462SOL    HW314168   3.384   0.696   4.200
 3462SOL    MW414169   3.440   0.631   4.211
 3463SOL     OW14170   2.760   0.987   5.329
 3463SOL    HW214171   2.737   0.967   5.419
 3463SOL    HW314172   2.845   1.031   5.334
 3463SOL    MW414173   2.767   0.990   5.341
 3464SOL     OW14174   2.840   0.124   5.089
 3464SOL    HW214175   2.846   0.086   5.002
 3464SOL    HW314176   2.829   0.218   5.074
 3464SOL    MW414177   2.841   0.132   5.077
 3465SOL     OW14178   2.929   0.613   4.923
 3465SOL    HW214179   3.004   0.642   4.870
 3465SOL    HW314180   2.861   0.678   4.907
 3465SOL    MW414181   2.930   0.625   4.913
 3466SOL     OW14182   3.479   0.581   5.200
 3466SOL    HW214183   3.460   0.490   5.179
 3466SOL    HW314184   3.457   0.630   5.121
 3466SOL    MW414185   3.474   0.574   5.187
 3467SOL     OW14186   3.621   1.675   5.104
 3467SOL    HW214187   3.549   1.637   5.155
 3467SOL    HW314188   3.638   1.760   5.145
 3467SOL    MW414189   3.615   1.680   5.116
 3468SOL     OW14190   2.926   0.319   5.306
 3468SOL    HW214191   2.892   0.358   5.225
 3468SOL    HW314192   2.904   0.227   5.299
 3468SOL    MW414193   2.919   0.312   5.296
 3469SOL     OW14194   3.335   1.133   5.382
 3469SOL    HW214195   3.417   1.174   5.412
 3469SOL    HW314196   3.298   1.095   5.462
 3469SOL    MW414197   3.341   1.134   5.397
 3470SOL     OW14198   3.630   0.506   4.366
 3470SOL    HW214199   3.719   0.475   4.383
 3470SOL    HW314200   3.573   0.446   4.414
 3470SOL    MW414201   3.633   0.494   4.375
 3471SOL     OW14202   2.056   0.220   4.395
 3471SOL    HW214203   2.047   0.160   4.321
 3471SOL    HW314204   1.989   0.191   4.458
 3471SOL    MW414205   2.046   0.207   4.393
 3472SOL     OW14206   2.999   1.313   3.956
 3472SOL    HW214207   2.949   1.315   4.038
 3472SOL    HW314208   2.933   1.331   3.888
 3472SOL    MW414209   2.985   1.315   3.958
 3473SOL     OW14210   2.003   0.393   4.758
 3473SOL    HW214211   1.975   0.484   4.767
 3473SOL    HW314212   1.940   0.354   4.697
 3473SOL    MW414213   1.990   0.399   4.752
 3474SOL     OW14214   2.462   1.731   4.064
 3474SOL    HW214215   2.383   1.689   4.097
 3474SOL    HW314216   2.528   1.714   4.131
 3474SOL    MW414217   2.461   1.723   4.077
 3475SOL     OW14218   3.590   1.251   5.461
 3475SOL    HW214219   3.640   1.177   5.493
 3475SOL    HW314220   3.536   1.278   5.536
 3475SOL    MW414221   3.590   1.245   5.474
 3476SOL     OW14222   2.598   1.146   3.771
 3476SOL    HW214223   2.520   1.092   3.758
 3476SOL    HW314224   2.569   1.219   3.824
 3476SOL    MW414225   2.584   1.148   3.776
 3477SOL     OW14226   3.724   0.886   4.963
 3477SOL    HW214227   3.740   0.924   4.876
 3477SOL    HW314228   3.758   0.952   5.024
 3477SOL    MW414229   3.731   0.899   4.959
 3478SOL     OW14230   3.516   1.595   4.632
 3478SOL    HW214231   3.545   1.662   4.693
 3478SOL    HW314232   3.497   1.519   4.687
 3478SOL    MW414233   3.518   1.595   4.647
 3479SOL     OW14234   3.179   1.662   3.839
 3479SOL    HW214235   3.105   1.625   3.889
 3479SOL    HW314236   3.187   1.752   3.872
 3479SOL    MW414237   3.170   1.669   3.851
 3480SOL     OW14238   1.987   0.668   4.928
 3480SOL    HW214239   2.049   0.698   4.994
 3480SOL    HW314240   1.921   0.737   4.922
 3480SOL    MW414241   1.986   0.681   4.935
 3481SOL     OW14242   3.403   1.336   3.781
 3481SOL    HW214243   3.350   1.385   3.717
 3481SOL    HW314244   3.434   1.402   3.842
 3481SOL    MW414245   3.401   1.350   3.779
 3482SOL     OW14246   2.628   0.225   3.836
 3482SOL    HW214247   2.576   0.145   3.824
 3482SOL    HW314248   2.715   0.202   3.804
 3482SOL    MW414249   2.631   0.211   3.830
 3483SOL     OW14250   2.082   1.777   5.380
 3483SOL    HW214251   2.056   1.845   5.318
 3483SOL    HW314252   2.130   1.714   5.328
 3483SOL    MW414253   2.084   1.777   5.366
 3484SOL     OW14254   2.134   1.096   4.887
 3484SOL    HW214255   2.187   1.171   4.912
 3484SOL    HW314256   2.053   1.134   4.853
 3484SOL    MW414257   2.130   1.111   4.887
 3485SOL     OW14258   2.674   1.000   4.875
 3485SOL    HW214259   2.702   0.909   4.887
 3485SOL    HW314260   2.603   0.994   4.811
 3485SOL    MW414261   2.667   0.988   4.870
 3486SOL     OW14262   1.989   0.865   4.293
 3486SOL    HW214263   2.080   0.880   4.320
 3486SOL    HW314264   1.992   0.786   4.239
 3486SOL    MW414265   2.001   0.857   4.291
 3487SOL     OW14266   2.225   0.573   5.547
 3487SOL    HW214267   2.172   0.653   5.554
 3487SOL    HW314268   2.295   0.585   5.612
 3487SOL    MW414269   2.227   0.586   5.555
 3488SOL     OW14270   2.611   0.123   5.254
 3488SOL    HW214271   2.588   0.031   5.256
 3488SOL    HW314272   2.697   0.125   5.211
 3488SOL    MW414273   2.618   0.113   5.250
 3489SOL     OW14274   2.295   0.647   5.293
 3489SOL    HW214275   2.375   0.697   5.279
 3489SOL    HW314276   2.286   0.641   5.388
 3489SOL    MW414277   2.304   0.653   5.303
 3490SOL     OW14278   2.616   1.797   4.667
 3490SOL    HW214279   2.705   1.812   4.697
 3490SOL    HW314280   2.611   1.844   4.583
 3490SOL    MW414281   2.626   1.805   4.660
 3491SOL     OW14282   3.272   0.172   5.564
 3491SOL    HW214283   3.328   0.099   5.590
 3491SOL    HW314284   3.242   0.210   5.646
 3491SOL    MW414285   3.276   0.167   5.577
 3492SOL     OW14286   1.997   1.477   4.332
 3492SOL    HW214287   1.969   1.516   4.414
 3492SOL    HW314288   2.017   1.386   4.354
 3492SOL    MW414289   1.995   1.469   4.345
 3493SOL     OW14290   2.830   1.520   4.367
 3493SOL    HW214291   2.913   1.474   4.351
 3493SOL    HW314292   2.820   1.519   4.463
 3493SOL    MW414293   2.840   1.513   4.377
 3494SOL     OW14294   3.662   0.665   4.681
 3494SOL    HW214295   3.751   0.695   4.663
 3494SOL    HW314296   3.642   0.605   4.610
 3494SOL    MW414297   3.671   0.662   4.670
 3495SOL     OW14298   3.513   0.844   5.561
 3495SOL    HW214299   3.568   0.768   5.542
 3495SOL    HW314300   3.515   0.852   5.656
 3495SOL    MW414301   3.521   0.835   5.569
 3496SOL     OW14302   2.563   1.577   3.772
 3496SOL    HW214303   2.503   1.646   3.742
 3496SOL    HW314304   2.508   1.519   3.825
 3496SOL    MW414305   2.547   1.579   3.774
 3497SOL     OW14306   3.001   0.222   3.995
 3497SOL    HW214307   2.934   0.198   3.932
 3497SOL    HW314308   3.066   0.271   3.944
 3497SOL    MW414309   3.001   0.224   3.980
 3498SOL     OW14310   2.808   0.406   5.080
 3498SOL    HW214311   2.727   0.447   5.108
 3498SOL    HW314312   2.855   0.474   5.032
 3498SOL    MW414313   2.803   0.421   5.078
 3499SOL     OW14314   3.068   0.744   4.703
 3499SOL    HW214315   3.081   0.838   4.713
 3499SOL    HW314316   3.029   0.734   4.617
 3499SOL    MW414317   3.064   0.755   4.693
 3500SOL     OW14318   2.520   0.939   4.507
 3500SOL    HW214319   2.431   0.930   4.540
 3500SOL    HW314320   2.524   1.029   4.475
 3500SOL    MW414321   2.509   0.950   4.507
 3501SOL     OW14322   3.319   0.522   4.502
 3501SOL    HW214323   3.264   0.443   4.501
 3501SOL    HW314324   3.301   0.563   4.586
 3501SOL    MW414325   3.309   0.517   4.511
 3502SOL     OW14326   2.290   0.209   5.319
 3502SOL    HW214327   2.211   0.227   5.371
 3502SOL    HW314328   2.285   0.271   5.246
 3502SOL    MW414329   2.280   0.219   5.316
 3503SOL     OW14330   2.938   0.726   4.459
 3503SOL    HW214331   2.875   0.658   4.483
 3503SOL    HW314332   2.958   0.707   4.367
 3503SOL    MW414333   2.932   0.713   4.451
 3504SOL     OW14334   2.194   1.621   4.161
 3504SOL    HW214335   2.155   1.668   4.087
 3504SOL    HW314336   2.128   1.556   4.186
 3504SOL    MW414337   2.181   1.619   4.155
 3505SOL     OW14338   2.686   1.030   4.185
 3505SOL    HW214339   2.688   1.004   4.092
 3505SOL    HW314340   2.744   0.967   4.228
 3505SOL    MW414341   2.694   1.019   4.179
 3506SOL     OW14342   3.239   1.590   4.957
 3506SOL    HW214343   3.164   1.636   4.995
 3506SOL    HW314344   3.221   1.497   4.974
 3506SOL    MW414345   3.228   1.584   4.965
 3507SOL     OW14346   3.243   1.798   4.387
 3507SOL    HW214347   3.186   1.751   4.326
 3507SOL    HW314348   3.329   1.759   4.374
 3507SOL    MW414349   3.246   1.789   4.377
 3508SOL     OW14350   3.196   0.274   4.518
 3508SOL    HW214351   3.224   0.206   4.579
 3508SOL    HW314352   3.110   0.245   4.488
 3508SOL    MW414353   3.189   0.261   4.522
 3509SOL     OW14354   2.001   1.208   4.452
 3509SOL    HW214355   2.065   1.240   4.515
 3509SOL    HW314356   2.050   1.144   4.400
 3509SOL    MW414357   2.016   1.204   4.453
 3510SOL     OW14358   2.501   1.284   5.434
 3510SOL    HW214359   2.549   1.367   5.421
 3510SOL    HW314360   2.558   1.232   5.490
 3510SOL    MW414361   2.515   1.288   5.440
 3511SOL     OW14362   2.077   1.526   5.574
 3511SOL    HW214363   2.133   1.450   5.589
 3511SOL    HW314364   2.026   1.504   5.496
 3511SOL    MW414365   2.077   1.513   5.565
 3512SOL     OW14366   3.176   0.378   3.853
 3512SOL    HW214367   3.149   0.444   3.789
 3512SOL    HW314368   3.246   0.421   3.903
 3512SOL    MW414369   3.181   0.391   3.850
 3513SOL     OW14370   2.844   0.083   3.790
 3513SOL    HW214371   2.900   0.075   3.712
 3513SOL    HW314372   2.821  -0.007   3.812
 3513SOL    MW414373   2.849   0.070   3.783
 3514SOL     OW14374   3.349   0.934   3.995
 3514SOL    HW214375   3.316   1.023   3.985
 3514SOL    HW314376   3.314   0.905   4.080
 3514SOL    MW414377   3.339   0.943   4.006
 3515SOL     OW14378   2.962   1.363   5.183
 3515SOL    HW214379   2.873   1.369   5.151
 3515SOL    HW314380   3.006   1.442   5.151
 3515SOL    MW414381   2.957   1.373   5.175
 3516SOL     OW14382   2.255   0.031   5.525
 3516SOL    HW214383   2.183  -0.004   5.473
 3516SOL    HW314384   2.313   0.072   5.460
 3516SOL    MW414385   2.253   0.032   5.510
 3517SOL     OW14386   2.279   1.521   4.824
 3517SOL    HW214387   2.324   1.583   4.881
 3517SOL    HW314388   2.186   1.540   4.837
 3517SOL    MW414389   2.272   1.531   4.831
 3518SOL     OW14390   3.719   1.050   5.178
 3518SOL    HW214391   3.634   1.063   5.137
 3518SOL    HW314392   3.699   1.014   5.265
 3518SOL    MW414393   3.706   1.046   5.183
 3519SOL     OW14394   2.701   1.589   4.932
 3519SOL    HW214395   2.725   1.578   4.841
 3519SOL    HW314396   2.624   1.646   4.930
 3519SOL    MW414397   2.693   1.594   4.921
 3520SOL     OW14398   2.343   0.972   3.787
 3520SOL    HW214399   2.266   0.985   3.843
 3520SOL    HW314400   2.307   0.936   3.706
 3520SOL    MW414401   2.329   0.968   3.784
 3521SOL     OW14402   2.996   0.945   4.030
 3521SOL    HW214403   2.906   0.966   4.005
 3521SOL    HW314404   3.023   1.018   4.086
 3521SOL    MW414405   2.988   0.957   4.033
 3522SOL     OW14406   2.496   1.294   4.722
 3522SOL    HW214407   2.489   1.273   4.816
 3522SOL    HW314408   2.414   1.262   4.685
 3522SOL    MW414409   2.484   1.288   4.729
 3523SOL     OW14410   3.360   0.304   5.124
 3523SOL    HW214411   3.307   0.306   5.204
 3523SOL    HW314412   3.345   0.217   5.087
 3523SOL    MW414413   3.352   0.294   5.129
 3524SOL     OW14414   3.696   0.228   4.997
 3524SOL    HW214415   3.677   0.295   4.932
 3524SOL    HW314416   3.753   0.166   4.952
 3524SOL    MW414417   3.700   0.229   4.983
 3525SOL     OW14418   1.942   1.386   5.385
 3525SOL    HW214419   1.986   1.319   5.331
 3525SOL    HW314420   1.857   1.348   5.405
 3525SOL    MW414421   1.937   1.372   5.381
 3526SOL     OW14422   2.625   0.061   4.437
 3526SOL    HW214423   2.554   0.122   4.419
 3526SOL    HW314424   2.676   0.058   4.356
 3526SOL    MW414425   2.621   0.067   4.424
 3527SOL     OW14426   2.383   1.301   4.186
 3527SOL    HW214427   2.376   1.333   4.276
 3527SOL    HW314428   2.293   1.285   4.158
 3527SOL    MW414429   2.371   1.303   4.193
 3528SOL     OW14430   2.978   1.694   5.095
 3528SOL    HW214431   2.898   1.679   5.045
 3528SOL    HW314432   2.985   1.789   5.102
 3528SOL    MW414433   2.969   1.705   5.089
 3529SOL     OW14434   3.092   1.659   4.585
 3529SOL    HW214435   3.139   1.732   4.544
 3529SOL    HW314436   3.013   1.698   4.621
 3529SOL    MW414437   3.087   1.674   4.584
 3530SOL     OW14438   3.500   1.754   4.860
 3530SOL    HW214439   3.543   1.724   4.940
 3530SOL    HW314440   3.419   1.702   4.857
 3530SOL    MW414441   3.495   1.743   4.870
 3531SOL     OW14442   2.585   0.718   5.567
 3531SOL    HW214443   2.655   0.660   5.539
 3531SOL    HW314444   2.528   0.663   5.622
 3531SOL    MW414445   2.587   0.705   5.571
 3532SOL     OW14446   3.372   0.930   5.200
 3532SOL    HW214447   3.377   0.983   5.280
 3532SOL    HW314448   3.334   0.847   5.228
 3532SOL    MW414449   3.368   0.925   5.215
 3533SOL     OW14450   3.012   0.065   5.446
 3533SOL    HW214451   3.007  -0.028   5.427
 3533SOL    HW314452   3.095   0.076   5.492
 3533SOL    MW414453   3.020   0.054   5.450
 3534SOL     OW14454   2.386   0.585   3.900
 3534SOL    HW214455   2.352   0.641   3.970
 3534SOL    HW314456   2.457   0.535   3.940
 3534SOL    MW414457   2.392   0.586   3.914
 3535SOL     OW14458   3.482   1.336   4.722
 3535SOL    HW214459   3.517   1.318   4.635
 3535SOL    HW314460   3.387   1.337   4.709
 3535SOL    MW414461   3.474   1.333   4.709
 3536SOL     OW14462   2.911   0.984   5.091
 3536SOL    HW214463   2.954   1.019   5.169
 3536SOL    HW314464   2.894   1.061   5.037
 3536SOL    MW414465   2.914   0.999   5.094
 3537SOL     OW14466   3.442   0.471   3.964
 3537SOL    HW214467   3.434   0.542   3.901
 3537SOL    HW314468   3.460   0.515   4.047
 3537SOL    MW414469   3.443   0.485   3.966
 3538SOL     OW14470   2.302   0.126   4.393
 3538SOL    HW214471   2.352   0.169   4.324
 3538SOL    HW314472   2.217   0.170   4.393
 3538SOL    MW414473   2.299   0.139   4.384
 3539SOL     OW14474   2.061   1.188   5.253
 3539SOL    HW214475   2.089   1.141   5.331
 3539SOL    HW314476   1.982   1.143   5.224
 3539SOL    MW414477   2.054   1.177   5.259
 3540SOL     OW14478   2.569   0.515   5.220
 3540SOL    HW214479   2.541   0.603   5.244
 3540SOL    HW314480   2.538   0.459   5.291
 3540SOL    MW414481   2.561   0.518   5.232
 3541SOL     OW14482   3.111   0.733   3.939
 3541SOL    HW214483   3.158   0.751   3.858
 3541SOL    HW314484   3.077   0.817   3.967
 3541SOL    MW414485   3.113   0.747   3.932
 3542SOL     OW14486   2.224   0.911   4.433
 3542SOL    HW214487   2.282   0.967   4.381
 3542SOL    HW314488   2.268   0.826   4.435
 3542SOL    MW414489   2.237   0.908   4.426
 3543SOL     OW14490   3.364   0.263   4.270
 3543SOL    HW214491   3.286   0.213   4.295
 3543SOL    HW314492   3.335   0.354   4.270
 3543SOL    MW414493   3.350   0.267   4.273
 3544SOL     OW14494   2.950   0.225   4.429
 3544SOL    HW214495   2.970   0.300   4.373
 3544SOL    HW314496   2.930   0.264   4.514
 3544SOL    MW414497   2.951   0.241   4.433
 3545SOL     OW14498   2.846   1.475   3.761
 3545SOL    HW214499   2.873   1.553   3.713
 3545SOL    HW314500   2.753   1.490   3.780
 3545SOL    MW414501   2.837   1.488   3.757
 3546SOL     OW14502   3.710   0.998   5.448
 3546SOL    HW214503   3.623   0.978   5.484
 3546SOL    HW314504   3.764   0.924   5.473
 3546SOL    MW414505   3.705   0.987   5.456
 3547SOL     OW14506   1.931   1.511   4.605
 3547SOL    HW214507   1.963   1.515   4.696
 3547SOL    HW314508   1.836   1.519   4.613
 3547SOL    MW414509   1.923   1.514   4.618
 3548SOL     OW14510   1.886   0.637   4.152
 3548SOL    HW214511   1.826   0.609   4.222
 3548SOL    HW314512   1.960   0.577   4.158
 3548SOL    MW414513   1.888   0.626   4.161
 3549SOL     OW14514   3.454   1.849   5.586
 3549SOL    HW214515   3.499   1.773   5.551
 3549SOL    HW314516   3.492   1.862   5.673
 3549SOL    MW414517   3.464   1.842   5.592
 3550SOL     OW14518   3.054   1.368   4.312
 3550SOL    HW214519   3.077   1.319   4.390
 3550SOL    HW314520   3.135   1.410   4.284
 3550SOL    MW414521   3.067   1.368   4.319
 3551SOL     OW14522   2.312   0.376   5.041
 3551SOL    HW214523   2.345   0.457   5.081
 3551SOL    HW314524   2.285   0.402   4.953
 3551SOL    MW414525   2.311   0.390   5.035
 3552SOL     OW14526   2.266   0.343   4.777
 3552SOL    HW214527   2.296   0.257   4.748
 3552SOL    HW314528   2.171   0.336   4.780
 3552SOL    MW414529   2.258   0.332   4.775
 3553SOL     OW14530   3.095   0.552   5.468
 3553SOL    HW214531   3.147   0.487   5.421
 3553SOL    HW314532   3.053   0.603   5.398
 3553SOL    MW414533   3.096   0.549   5.451
 3554SOL     OW14534   3.194   0.347   5.329
 3554SOL    HW214535   3.101   0.331   5.316
 3554SOL    HW314536   3.220   0.285   5.397
 3554SOL    MW414537   3.184   0.337   5.336
 3555SOL     OW14538   2.409   0.121   4.668
 3555SOL    HW214539   2.419   0.030   4.694
 3555SOL    HW314540   2.365   0.117   4.583
 3555SOL    MW414541   2.405   0.109   4.660
 3556SOL     OW14542   2.503   1.736   5.214
 3556SOL    HW214543   2.420   1.721   5.259
 3556SOL    HW314544   2.562   1.669   5.249
 3556SOL    MW414545   2.501   1.726   5.224
 3557SOL     OW14546   3.560   0.443   4.839
 3557SOL    HW214547   3.493   0.476   4.899
 3557SOL    HW314548   3.603   0.521   4.805
 3557SOL    MW414549   3.558   0.458   4.843
 3558SOL     OW14550   3.738   1.163   4.809
 3558SOL    HW214551   3.731   1.103   4.734
 3558SOL    HW314552   3.664   1.223   4.798
 3558SOL    MW414553   3.728   1.163   4.798
 3559SOL     OW14554   3.120   1.025   4.727
 3559SOL    HW214555   3.134   0.997   4.818
 3559SOL    HW314556   3.206   1.056   4.699
 3559SOL    MW414557   3.133   1.026   4.736
 3560SOL     OW14558   3.203   0.520   5.006
 3560SOL    HW214559   3.224   0.521   4.913
 3560SOL    HW314560   3.248   0.442   5.039
 3560SOL    MW414561   3.210   0.510   4.998
 3561SOL     OW14562   3.696   0.651   5.548
 3561SOL    HW214563   3.733   0.596   5.617
 3561SOL    HW314564   3.721   0.608   5.466
 3561SOL    MW414565   3.703   0.639   5.547
 3562SOL     OW14566   3.243   0.949   5.600
 3562SOL    HW214567   3.309   0.897   5.554
 3562SOL    HW314568   3.263   0.936   5.693
 3562SOL    MW414569   3.254   0.940   5.607
 3563SOL     OW14570   3.194   0.035   3.948
 3563SOL    HW214571   3.268   0.079   3.991
 3563SOL    HW314572   3.118   0.089   3.970
 3563SOL    MW414573   3.194   0.047   3.956
 3564SOL     OW14574   3.254   0.810   4.226
 3564SOL    HW214575   3.169   0.780   4.196
 3564SOL    HW314576   3.246   0.817   4.321
 3564SOL    MW414577   3.242   0.808   4.235
 3565SOL     OW14578   2.330   1.273   4.957
 3565SOL    HW214579   2.342   1.300   5.048
 3565SOL    HW314580   2.311   1.354   4.910
 3565SOL    MW414581   2.329   1.288   4.962
 3566SOL     OW14582   2.614   0.253   4.780
 3566SOL    HW214583   2.587   0.255   4.871
 3566SOL    HW314584   2.544   0.205   4.735
 3566SOL    MW414585   2.602   0.249   4.787
 3567SOL     OW14586   2.468   1.745   4.942
 3567SOL    HW214587   2.520   1.822   4.919
 3567SOL    HW314588   2.477   1.737   5.037
 3567SOL    MW414589   2.477   1.752   4.953
 3568SOL     OW14590   3.370   1.330   5.174
 3568SOL    HW214591   3.355   1.259   5.237
 3568SOL    HW314592   3.416   1.288   5.102
 3568SOL    MW414593   3.376   1.314   5.174
 3569SOL     OW14594   2.444   1.061   5.291
 3569SOL    HW214595   2.481   1.066   5.203
 3569SOL    HW314596   2.483   1.134   5.338
 3569SOL    MW414597   2.454   1.071   5.286
 3570SOL     OW14598   2.624   1.104   5.103
 3570SOL    HW214599   2.683   1.050   5.156
 3570SOL    HW314600   2.639   1.076   5.013
 3570SOL    MW414601   2.634   1.093   5.099
 3571SOL     OW14602   2.627   0.476   3.952
 3571SOL    HW214603   2.700   0.525   3.915
 3571SOL    HW314604   2.643   0.385   3.926
 3571SOL    MW414605   2.639   0.471   3.945
 3572SOL     OW14606   3.435   1.593   5.275
 3572SOL    HW214607   3.477   1.578   5.360
 3572SOL    HW314608   3.426   1.506   5.237
 3572SOL    MW414609   3.439   1.581   5.282
 3573SOL     OW14610   3.095   0.072   4.866
 3573SOL    HW214611   3.150   0.081   4.788
 3573SOL    HW314612   3.150   0.106   4.937
 3573SOL    MW414613   3.109   0.077   4.865
 3574SOL     OW14614   2.102   0.985   4.050
 3574SOL    HW214615   2.039   1.001   3.979
 3574SOL    HW314616   2.049   0.948   4.121
 3574SOL    MW414617   2.087   0.982   4.050
 3575SOL     OW14618   2.458   1.339   3.909
 3575SOL    HW214619   2.473   1.315   4.001
 3575SOL    HW314620   2.366   1.317   3.893
 3575SOL    MW414621   2.448   1.332   3.919
 3576SOL     OW14622   2.997   1.570   4.061
 3576SOL    HW214623   3.005   1.488   4.012
 3576SOL    HW314624   2.916   1.609   4.028
 3576SOL    MW414625   2.987   1.565   4.051
 3577SOL     OW14626   2.256   1.728   4.630
 3577SOL    HW214627   2.260   1.639   4.665
 3577SOL    HW314628   2.282   1.719   4.539
 3577SOL    MW414629   2.259   1.716   4.622
 3578SOL     OW14630   2.873   1.206   4.873
 3578SOL    HW214631   2.805   1.140   4.889
 3578SOL    HW314632   2.891   1.200   4.780
 3578SOL    MW414633   2.866   1.197   4.864
 3579SOL     OW14634   1.962   1.481   5.124
 3579SOL    HW214635   1.952   1.439   5.210
 3579SOL    HW314636   1.883   1.534   5.114
 3579SOL    MW414637   1.951   1.482   5.135
 3580SOL     OW14638   2.866   0.345   4.694
 3580SOL    HW214639   2.796   0.297   4.739
 3580SOL    HW314640   2.898   0.408   4.758
 3580SOL    MW414641   2.861   0.347   4.708
 3581SOL     OW14642   2.517   0.781   5.314
 3581SOL    HW214643   2.510   0.876   5.302
 3581SOL    HW314644   2.526   0.770   5.409
 3581SOL    MW414645   2.518   0.793   5.324
 3582SOL     OW14646   2.238   1.296   5.572
 3582SOL    HW214647   2.310   1.298   5.509
 3582SOL    HW314648   2.208   1.205   5.571
 3582SOL    MW414649   2.243   1.285   5.564
 3583SOL     OW14650   3.322   0.059   5.039
 3583SOL    HW214651   3.393   0.005   5.003
 3583SOL    HW314652   3.321   0.038   5.132
 3583SOL    MW414653   3.331   0.050   5.047
 3584SOL     OW14654   3.522   1.589   5.523
 3584SOL    HW214655   3.495   1.586   5.614
 3584SOL    HW314656   3.618   1.593   5.526
 3584SOL    MW414657   3.532   1.589   5.535
 3585SOL     OW14658   2.333   0.451   4.507
 3585SOL    HW214659   2.404   0.399   4.470
 3585SOL    HW314660   2.319   0.416   4.594
 3585SOL    MW414661   2.341   0.440   4.514
 3586SOL     OW14662   1.888   1.786   5.579
 3586SOL    HW214663   1.938   1.764   5.501
 3586SOL    HW314664   1.896   1.881   5.587
 3586SOL    MW414665   1.896   1.795   5.570
 3587SOL     OW14666   2.649   1.544   4.583
 3587SOL    HW214667   2.577   1.481   4.596
 3587SOL    HW314668   2.610   1.629   4.601
 3587SOL    MW414669   2.633   1.547   4.586
 3588SOL     OW14670   2.969   0.392   4.231
 3588SOL    HW214671   2.991   0.329   4.163
 3588SOL    HW314672   2.874   0.384   4.242
 3588SOL    MW414673   2.959   0.383   4.223
 3589SOL     OW14674   2.054   0.082   4.163
 3589SOL    HW214675   2.125   0.103   4.102
 3589SOL    HW314676   2.008   0.010   4.121
 3589SOL    MW414677   2.058   0.076   4.149
 3590SOL     OW14678   1.885   0.549   5.306
 3590SOL    HW214679   1.949   0.615   5.281
 3590SOL    HW314680   1.804   0.576   5.263
 3590SOL    MW414681   1.883   0.561   5.298
 3591SOL     OW14682   3.623   1.456   4.263
 3591SOL    HW214683   3.593   1.389   4.324
 3591SOL    HW314684   3.717   1.462   4.277
 3591SOL    MW414685   3.631   1.448   4.273
 3592SOL     OW14686   3.179   1.133   4.193
 3592SOL    HW214687   3.151   1.219   4.226
 3592SOL    HW314688   3.207   1.149   4.103
 3592SOL    MW414689   3.179   1.147   4.185
 3593SOL     OW14690   2.841   0.053   4.246
 3593SOL    HW214691   2.878   0.112   4.311
 3593SOL    HW314692   2.818   0.109   4.172
 3593SOL    MW414693   2.842   0.068   4.245
 3594SOL     OW14694   3.694   0.935   4.668
 3594SOL    HW214695   3.685   0.967   4.579
 3594SOL    HW314696   3.647   0.851   4.668
 3594SOL    MW414697   3.687   0.928   4.658
 3595SOL     OW14698   2.070   0.775   5.247
 3595SOL    HW214699   2.091   0.844   5.185
 3595SOL    HW314700   2.150   0.722   5.252
 3595SOL    MW414701   2.083   0.776   5.241
 3596SOL     OW14702   3.606   0.866   4.369
 3596SOL    HW214703   3.700   0.855   4.357
 3596SOL    HW314704   3.582   0.938   4.310
 3596SOL    MW414705   3.616   0.874   4.360
 3597SOL     OW14706   2.055   0.790   5.514
 3597SOL    HW214707   1.981   0.734   5.540
 3597SOL    HW314708   2.050   0.793   5.419
 3597SOL    MW414709   2.044   0.783   5.504
 3598SOL     OW14710   2.221   0.077   4.964
 3598SOL    HW214711   2.264   0.161   4.984
 3598SOL    HW314712   2.294   0.015   4.957
 3598SOL    MW414713   2.236   0.080   4.965
 3599SOL     OW14714   2.262   0.744   4.142
 3599SOL    HW214715   2.262   0.839   4.127
 3599SOL    HW314716   2.339   0.728   4.196
 3599SOL    MW414717   2.272   0.755   4.147
 3600SOL     OW14718   3.038   0.603   5.206
 3600SOL    HW214719   3.074   0.576   5.122
 3600SOL    HW314720   2.951   0.637   5.185
 3600SOL    MW414721   3.032   0.604   5.193
 3601SOL     OW14722   2.021   0.475   4.431
 3601SOL    HW214723   2.083   0.482   4.504
 3601SOL    HW314724   2.021   0.382   4.408
 3601SOL    MW414725   2.029   0.464   4.438
 3602SOL     OW14726   3.568   1.815   3.963
 3602SOL    HW214727   3.635   1.848   3.903
 3602SOL    HW314728   3.525   1.894   3.997
 3602SOL    MW414729   3.570   1.830   3.959
 3603SOL     OW14730   2.703   0.736   4.915
 3603SOL    HW214731   2.661   0.654   4.891
 3603SOL    HW314732   2.704   0.735   5.011
 3603SOL    MW414733   2.696   0.725   4.924
 3604SOL     OW14734   3.374   1.869   5.314
 3604SOL    HW214735   3.377   1.775   5.297
 3604SOL    HW314736   3.397   1.877   5.406
 3604SOL    MW414737   3.377   1.857   5.324
 3605SOL     OW14738   2.507   0.206   5.020
 3605SOL    HW214739   2.438   0.269   5.041
 3605SOL    HW314740   2.534   0.170   5.105
 3605SOL    MW414741   2.501   0.209   5.033
 3606SOL     OW14742   1.890   1.047   3.889
 3606SOL    HW214743   1.859   1.112   3.952
 3606SOL    HW314744   1.839   0.969   3.908
 3606SOL    MW414745   1.880   1.044   3.899
 3607SOL     OW14746   3.334   0.798   4.481
 3607SOL    HW214747   3.414   0.813   4.430
 3607SOL    HW314748   3.327   0.703   4.487
 3607SOL    MW414749   3.343   0.787   4.476
 3608SOL     OW14750   2.474   1.847   3.831
 3608SOL    HW214751   2.379   1.847   3.823
 3608SOL    HW314752   2.490   1.793   3.909
 3608SOL    MW414753   2.464   1.841   3.840
 3609SOL     OW14754   2.784   0.724   5.178
 3609SOL    HW214755   2.853   0.791   5.175
 3609SOL    HW314756   2.717   0.762   5.234
 3609SOL    MW414757   2.785   0.737   5.185
 3610SOL     OW14758   2.202   1.024   5.426
 3610SOL    HW214759   2.156   0.940   5.428
 3610SOL    HW314760   2.259   1.018   5.350
 3610SOL    MW414761   2.204   1.012   5.418
 3611SOL     OW14762   3.319   0.667   3.747
 3611SOL    HW214763   3.247   0.643   3.689
 3611SOL    HW314764   3.385   0.704   3.689
 3611SOL    MW414765   3.318   0.669   3.732
 3612SOL     OW14766   2.453   1.399   4.427
 3612SOL    HW214767   2.518   1.332   4.448
 3612SOL    HW314768   2.505   1.476   4.404
 3612SOL    MW414769   2.468   1.401   4.426
 3613SOL     OW14770   2.714   0.564   4.557
 3613SOL    HW214771   2.654   0.582   4.629
 3613SOL    HW314772   2.748   0.476   4.576
 3613SOL    MW414773   2.710   0.554   4.570
 3614SOL     OW14774   3.655   0.063   5.226
 3614SOL    HW214775   3.576   0.109   5.254
 3614SOL    HW314776   3.690   0.117   5.155
 3614SOL    MW414777   3.649   0.076   5.220
 3615SOL     OW14778   2.939   1.147   4.576
 3615SOL    HW214779   3.031   1.128   4.594
 3615SOL    HW314780   2.912   1.077   4.516
 3615SOL    MW414781   2.947   1.135   4.570
 3616SOL     OW14782   2.732   0.967   3.931
 3616SOL    HW214783   2.718   0.879   3.896
 3616SOL    HW314784   2.683   1.024   3.872
 3616SOL    MW414785   2.724   0.962   3.919
 3617SOL     OW14786   3.213   1.385   4.672
 3617SOL    HW214787   3.186   1.469   4.637
 3617SOL    HW314788   3.173   1.380   4.759
 3617SOL    MW414789   3.206   1.394   4.678
 3618SOL     OW14790   3.132   1.333   4.940
 3618SOL    HW214791   3.143   1.300   5.029
 3618SOL    HW314792   3.051   1.292   4.909
 3618SOL    MW414793   3.122   1.325   4.946
 3619SOL     OW14794   2.145   0.691   4.710
 3619SOL    HW214795   2.095   0.690   4.791
 3619SOL    HW314796   2.165   0.783   4.694
 3619SOL    MW414797   2.141   0.703   4.718
 3620SOL     OW14798   3.212   1.455   5.472
 3620SOL    HW214799   3.212   1.549   5.488
 3620SOL    HW314800   3.257   1.445   5.388
 3620SOL    MW414801   3.218   1.465   5.463
 3621SOL     OW14802   3.451   0.173   4.033
 3621SOL    HW214803   3.444   0.177   4.128
 3621SOL    HW314804   3.463   0.264   4.006
 3621SOL    MW414805   3.452   0.186   4.041
 3622SOL     OW14806   2.740   0.736   4.147
 3622SOL    HW214807   2.720   0.722   4.054
 3622SOL    HW314808   2.833   0.715   4.154
 3622SOL    MW414809   2.750   0.731   4.136
 3623SOL     OW14810   2.067   0.359   5.451
 3623SOL    HW214811   2.024   0.418   5.388
 3623SOL    HW314812   2.135   0.414   5.491
 3623SOL    MW414813   2.071   0.374   5.448
 3624SOL     OW14814   3.179   0.979   4.996
 3624SOL    HW214815   3.242   0.976   5.069
 3624SOL    HW314816   3.095   0.997   5.038
 3624SOL    MW414817   3.175   0.981   5.011
 3625SOL     OW14818   2.723   1.694   4.185
 3625SOL    HW214819   2.781   1.765   4.212
 3625SOL    HW314820   2.746   1.622   4.243
 3625SOL    MW414821   2.734   1.694   4.196
 3626SOL     OW14822   3.518   0.156   4.775
 3626SOL    HW214823   3.563   0.074   4.794
 3626SOL    HW314824   3.538   0.212   4.851
 3626SOL    MW414825   3.528   0.152   4.787
 3627SOL     OW14826   1.966  -0.001   4.874
 3627SOL    HW214827   1.957   0.000   4.779
 3627SOL    HW314828   2.060   0.011   4.889
 3627SOL    MW414829   1.978   0.002   4.865
 3628SOL     OW14830   3.603   1.192   4.494
 3628SOL    HW214831   3.582   1.138   4.417
 3628SOL    HW314832   3.699   1.190   4.498
 3628SOL    MW414833   3.612   1.185   4.483
 3629SOL     OW14834   2.295   1.337   5.237
 3629SOL    HW214835   2.216   1.287   5.260
 3629SOL    HW314836   2.365   1.296   5.287
 3629SOL    MW414837   2.293   1.325   5.247
 3630SOL     OW14838   2.179   0.126   3.920
 3630SOL    HW214839   2.108   0.181   3.888
 3630SOL    HW314840   2.221   0.092   3.841
 3630SOL    MW414841   2.175   0.128   3.906
 3631SOL     OW14842   3.303   0.623   4.756
 3631SOL    HW214843   3.226   0.669   4.722
 3631SOL    HW314844   3.360   0.692   4.790
 3631SOL    MW414845   3.300   0.638   4.756
 3632SOL     OW14846   1.935   0.225   3.769
 3632SOL    HW214847   1.902   0.304   3.813
 3632SOL    HW314848   1.990   0.258   3.698
 3632SOL    MW414849   1.938   0.239   3.766
 3633SOL     OW14850   1.969   1.482   3.958
 3633SOL    HW214851   1.986   1.566   4.000
 3633SOL    HW314852   2.004   1.491   3.870
 3633SOL    MW414853   1.974   1.495   3.952
 3634SOL     OW14854   3.241   1.571   4.175
 3634SOL    HW214855   3.304   1.561   4.104
 3634SOL    HW314856   3.158   1.591   4.130
 3634SOL    MW414857   3.238   1.572   4.160
 3635SOL     OW14858   3.604   0.839   5.862
 3635SOL    HW214859   3.645   0.781   5.927
 3635SOL    HW314860   3.511   0.831   5.879
 3635SOL    MW414861   3.598   0.831   5.872
 3636SOL     OW14862   2.398   1.022   6.091
 3636SOL    HW214863   2.488   0.997   6.075
 3636SOL    HW314864   2.394   1.115   6.068
 3636SOL    MW414865   2.410   1.031   6.086
 3637SOL     OW14866   2.124   0.506   6.032
 3637SOL    HW214867   2.156   0.594   6.014
 3637SOL    HW314868   2.112   0.504   6.127
 3637SOL    MW414869   2.127   0.518   6.044
 3638SOL     OW14870   2.387   0.692   6.285
 3638SOL    HW214871   2.372   0.612   6.336
 3638SOL    HW314872   2.469   0.727   6.319
 3638SOL    MW414873   2.395   0.684   6.297
 3639SOL     OW14874   1.972   1.778   6.441
 3639SOL    HW214875   2.061   1.770   6.476
 3639SOL    HW314876   1.936   1.690   6.446
 3639SOL    MW414877   1.979   1.765   6.446
 3640SOL     OW14878   3.237   1.170   5.810
 3640SOL    HW214879   3.155   1.206   5.776
 3640SOL    HW314880   3.305   1.213   5.759
 3640SOL    MW414881   3.235   1.180   5.798
 3641SOL     OW14882   2.236   1.305   6.476
 3641SOL    HW214883   2.212   1.358   6.552
 3641SOL    HW314884   2.292   1.363   6.424
 3641SOL    MW414885   2.240   1.320   6.479
 3642SOL     OW14886   2.798   0.949   6.286
 3642SOL    HW214887   2.712   0.936   6.326
 3642SOL    HW314888   2.851   0.876   6.318
 3642SOL    MW414889   2.794   0.938   6.295
 3643SOL     OW14890   2.789   1.311   6.003
 3643SOL    HW214891   2.766   1.373   6.071
 3643SOL    HW314892   2.746   1.229   6.029
 3643SOL    MW414893   2.781   1.307   6.014
 3644SOL     OW14894   2.286   0.284   5.971
 3644SOL    HW214895   2.260   0.246   5.887
 3644SOL    HW314896   2.223   0.354   5.987
 3644SOL    MW414897   2.275   0.287   5.962
 3645SOL     OW14898   2.783   1.708   5.786
 3645SOL    HW214899   2.738   1.724   5.869
 3645SOL    HW314900   2.714   1.673   5.728
 3645SOL    MW414901   2.769   1.705   5.788
 3646SOL     OW14902   3.718   0.481   5.761
 3646SOL    HW214903   3.627   0.483   5.789
 3646SOL    HW314904   3.763   0.543   5.819
 3646SOL    MW414905   3.711   0.489   5.771
 3647SOL     OW14906   3.463   1.084   6.111
 3647SOL    HW214907   3.373   1.084   6.146
 3647SOL    HW314908   3.456   1.130   6.028
 3647SOL    MW414909   3.450   1.090   6.105
 3648SOL     OW14910   2.990   0.665   6.072
 3648SOL    HW214911   3.016   0.689   5.983
 3648SOL    HW314912   2.972   0.572   6.068
 3648SOL    MW414913   2.992   0.657   6.059
 3649SOL     OW14914   3.655   1.285   5.923
 3649SOL    HW214915   3.611   1.326   5.998
 3649SOL    HW314916   3.712   1.353   5.888
 3649SOL    MW414917   3.657   1.299   5.928
 3650SOL     OW14918   2.311   1.701   6.241
 3650SOL    HW214919   2.343   1.789   6.219
 3650SOL    HW314920   2.264   1.673   6.163
 3650SOL    MW414921   2.310   1.709   6.228
 3651SOL     OW14922   2.027   1.761   5.818
 3651SOL    HW214923   2.056   1.851   5.810
 3651SOL    HW314924   1.977   1.744   5.739
 3651SOL    MW414925   2.025   1.769   5.807
 3652SOL     OW14926   3.431   1.569   5.789
 3652SOL    HW214927   3.479   1.638   5.835
 3652SOL    HW314928   3.352   1.613   5.758
 3652SOL    MW414929   3.426   1.583   5.792
 3653SOL     OW14930   2.829   0.694   5.733
 3653SOL    HW214931   2.831   0.641   5.654
 3653SOL    HW314932   2.917   0.731   5.739
 3653SOL    MW414933   2.841   0.693   5.722
 3654SOL     OW14934   3.443   0.620   6.069
 3654SOL    HW214935   3.482   0.620   6.156
 3654SOL    HW314936   3.384   0.696   6.069
 3654SOL    MW414937   3.440   0.631   6.080
 3655SOL     OW14938   2.056   0.220   6.264
 3655SOL    HW214939   2.047   0.160   6.190
 3655SOL    HW314940   1.989   0.191   6.327
 3655SOL    MW414941   2.046   0.207   6.262
 3656SOL     OW14942   2.999   1.313   5.825
 3656SOL    HW214943   2.949   1.315   5.907
 3656SOL    HW314944   2.933   1.331   5.757
 3656SOL    MW414945   2.985   1.315   5.827
 3657SOL     OW14946   2.462   1.731   5.933
 3657SOL    HW214947   2.383   1.689   5.966
 3657SOL    HW314948   2.528   1.714   6.000
 3657SOL    MW414949   2.461   1.723   5.946
 3658SOL     OW14950   2.598   1.146   5.640
 3658SOL    HW214951   2.520   1.092   5.627
 3658SOL    HW314952   2.569   1.219   5.693
 3658SOL    MW414953   2.584   1.148   5.645
 3659SOL     OW14954   3.179   1.662   5.708
 3659SOL    HW214955   3.105   1.625   5.758
 3659SOL    HW314956   3.187   1.752   5.741
 3659SOL    MW414957   3.170   1.669   5.720
 3660SOL     OW14958   3.403   1.336   5.650
 3660SOL    HW214959   3.350   1.385   5.586
 3660SOL    HW314960   3.434   1.402   5.711
 3660SOL    MW414961   3.401   1.350   5.648
 3661SOL     OW14962   2.628   0.225   5.705
 3661SOL    HW214963   2.576   0.145   5.693
 3661SOL    HW314964   2.715   0.202   5.673
 3661SOL    MW414965   2.631   0.211   5.699
 3662SOL     OW14966   1.989   0.865   6.162
 3662SOL    HW214967   2.080   0.880   6.189
 3662SOL    HW314968   1.992   0.786   6.108
 3662SOL    MW414969   2.001   0.857   6.160
 3663SOL     OW14970   1.997   1.477   6.201
 3663SOL    HW214971   1.969   1.516   6.283
 3663SOL    HW314972   2.017   1.386   6.223
 3663SOL    MW414973   1.995   1.469   6.214
 3664SOL     OW14974   2.830   1.520   6.236
 3664SOL    HW214975   2.913   1.474   6.220
 3664SOL    HW314976   2.820   1.519   6.332
 3664SOL    MW414977   2.840   1.513   6.246
 3665SOL     OW14978   2.563   1.577   5.641
 3665SOL    HW214979   2.503   1.646   5.611
 3665SOL    HW314980   2.508   1.519   5.694
 3665SOL    MW414981   2.547   1.579   5.643
 3666SOL     OW14982   3.001   0.222   5.864
 3666SOL    HW214983   2.934   0.198   5.801
 3666SOL    HW314984   3.066   0.271   5.813
 3666SOL    MW414985   3.001   0.224   5.849
 3667SOL     OW14986   2.194   1.621   6.030
 3667SOL    HW214987   2.155   1.668   5.956
 3667SOL    HW314988   2.128   1.556   6.055
 3667SOL    MW414989   2.181   1.619   6.024
 3668SOL     OW14990   2.686   1.030   6.054
 3668SOL    HW214991   2.688   1.004   5.961
 3668SOL    HW314992   2.744   0.967   6.097
 3668SOL    MW414993   2.694   1.019   6.048
 3669SOL     OW14994   2.001   1.208   6.321
 3669SOL    HW214995   2.065   1.240   6.384
 3669SOL    HW314996   2.050   1.144   6.269
 3669SOL    MW414997   2.016   1.204   6.322
 3670SOL     OW14998   3.176   0.378   5.722
 3670SOL    HW214999   3.149   0.444   5.658
 3670SOL    HW315000   3.246   0.421   5.772
 3670SOL    MW415001   3.181   0.391   5.719
 3671SOL     OW15002   2.844   0.083   5.659
 3671SOL    HW215003   2.900   0.075   5.581
 3671SOL    HW315004   2.821  -0.007   5.681
 3671SOL    MW415005   2.849   0.070   5.652
 3672SOL     OW15006   3.349   0.934   5.864
 3672SOL    HW215007   3.316   1.023   5.854
 3672SOL    HW315008   3.314   0.905   5.949
 3672SOL    MW415009   3.339   0.943   5.875
 3673SOL     OW15010   2.343   0.972   5.656
 3673SOL    HW215011   2.266   0.985   5.712
 3673SOL    HW315012   2.307   0.936   5.575
 3673SOL    MW415013   2.329   0.968   5.653
 3674SOL     OW15014   2.996   0.945   5.899
 3674SOL    HW215015   2.906   0.966   5.874
 3674SOL    HW315016   3.023   1.018   5.955
 3674SOL    MW415017   2.988   0.957   5.902
 3675SOL     OW15018   2.383   1.301   6.055
 3675SOL    HW215019   2.376   1.333   6.145
 3675SOL    HW315020   2.293   1.285   6.027
 3675SOL    MW415021   2.371   1.303   6.062
 3676SOL     OW15022   2.386   0.585   5.769
 3676SOL    HW215023   2.352   0.641   5.839
 3676SOL    HW315024   2.457   0.535   5.809
 3676SOL    MW415025   2.392   0.586   5.783
 3677SOL     OW15026   2.302   0.126   6.262
 3677SOL    HW215027   2.352   0.169   6.193
 3677SOL    HW315028   2.217   0.170   6.262
 3677SOL    MW415029   2.299   0.139   6.253
 3678SOL     OW15030   3.111   0.733   5.808
 3678SOL    HW215031   3.158   0.751   5.727
 3678SOL    HW315032   3.077   0.817   5.836
 3678SOL    MW415033   3.113   0.747   5.801
 3679SOL     OW15034   2.224   0.911   6.302
 3679SOL    HW215035   2.282   0.967   6.250
 3679SOL    HW315036   2.268   0.826   6.304
 3679SOL    MW415037   2.237   0.908   6.295
 3680SOL     OW15038   3.364   0.263   6.139
 3680SOL    HW215039   3.286   0.213   6.164
 3680SOL    HW315040   3.335   0.354   6.139
 3680SOL    MW415041   3.350   0.267   6.142
 3681SOL     OW15042   2.846   1.475   5.630
 3681SOL    HW215043   2.873   1.553   5.582
 3681SOL    HW315044   2.753   1.490   5.649
 3681SOL    MW415045   2.837   1.488   5.626
 3682SOL     OW15046   1.886   0.637   6.021
 3682SOL    HW215047   1.826   0.609   6.091
 3682SOL    HW315048   1.960   0.577   6.027
 3682SOL    MW415049   1.888   0.626   6.030
 3683SOL     OW15050   3.054   1.368   6.181
 3683SOL    HW215051   3.077   1.319   6.259
 3683SOL    HW315052   3.135   1.410   6.153
 3683SOL    MW415053   3.067   1.368   6.188
 3684SOL     OW15054   2.409   0.121   6.537
 3684SOL    HW215055   2.419   0.030   6.563
 3684SOL    HW315056   2.365   0.117   6.452
 3684SOL    MW415057   2.405   0.109   6.529
 3685SOL     OW15058   3.194   0.035   5.817
 3685SOL    HW215059   3.268   0.079   5.860
 3685SOL    HW315060   3.118   0.089   5.839
 3685SOL    MW415061   3.194   0.047   5.825
 3686SOL     OW15062   3.254   0.810   6.095
 3686SOL    HW215063   3.169   0.780   6.065
 3686SOL    HW315064   3.246   0.817   6.190
 3686SOL    MW415065   3.242   0.808   6.104
 3687SOL     OW15066   2.627   0.476   5.821
 3687SOL    HW215067   2.700   0.525   5.784
 3687SOL    HW315068   2.643   0.385   5.795
 3687SOL    MW415069   2.639   0.471   5.814
 3688SOL     OW15070   2.102   0.985   5.919
 3688SOL    HW215071   2.039   1.001   5.848
 3688SOL    HW315072   2.049   0.948   5.990
 3688SOL    MW415073   2.087   0.982   5.919
 3689SOL     OW15074   2.458   1.339   5.778
 3689SOL    HW215075   2.473   1.315   5.870
 3689SOL    HW315076   2.366   1.317   5.762
 3689SOL    MW415077   2.448   1.332   5.788
 3690SOL     OW15078   2.997   1.570   5.930
 3690SOL    HW215079   3.005   1.488   5.881
 3690SOL    HW315080   2.916   1.609   5.897
 3690SOL    MW415081   2.987   1.565   5.920
 3691SOL     OW15082   2.256   1.728   6.499
 3691SOL    HW215083   2.260   1.639   6.534
 3691SOL    HW315084   2.282   1.719   6.408
 3691SOL    MW415085   2.259   1.716   6.491
 3692SOL     OW15086   2.333   0.451   6.376
 3692SOL    HW215087   2.404   0.399   6.339
 3692SOL    HW315088   2.319   0.416   6.463
 3692SOL    MW415089   2.341   0.440   6.383
 3693SOL     OW15090   2.969   0.392   6.100
 3693SOL    HW215091   2.991   0.329   6.032
 3693SOL    HW315092   2.874   0.384   6.111
 3693SOL    MW415093   2.959   0.383   6.092
 3694SOL     OW15094   2.054   0.082   6.032
 3694SOL    HW215095   2.125   0.103   5.971
 3694SOL    HW315096   2.008   0.010   5.990
 3694SOL    MW415097   2.058   0.076   6.018
 3695SOL     OW15098   3.623   1.456   6.132
 3695SOL    HW215099   3.593   1.389   6.193
 3695SOL    HW315100   3.717   1.462   6.146
 3695SOL    MW415101   3.631   1.448   6.142
 3696SOL     OW15102   3.179   1.133   6.062
 3696SOL    HW215103   3.151   1.219   6.095
 3696SOL    HW315104   3.207   1.149   5.972
 3696SOL    MW415105   3.179   1.147   6.054
 3697SOL     OW15106   2.841   0.053   6.115
 3697SOL    HW215107   2.878   0.112   6.180
 3697SOL    HW315108   2.818   0.109   6.041
 3697SOL    MW415109   2.842   0.068   6.114
 3698SOL     OW15110   2.262   0.744   6.011
 3698SOL    HW215111   2.262   0.839   5.996
 3698SOL    HW315112   2.339   0.728   6.065
 3698SOL    MW415113   2.272   0.755   6.016
 3699SOL     OW15114   2.021   0.475   6.300
 3699SOL    HW215115   2.083   0.482   6.373
 3699SOL    HW315116   2.021   0.382   6.277
 3699SOL    MW415117   2.029   0.464   6.307
 3700SOL     OW15118   3.568   1.815   5.832
 3700SOL    HW215119   3.635   1.848   5.772
 3700SOL    HW315120   3.525   1.894   5.866
 3700SOL    MW415121   3.570   1.830   5.828
 3701SOL     OW15122   1.890   1.047   5.758
 3701SOL    HW215123   1.859   1.112   5.821
 3701SOL    HW315124   1.839   0.969   5.777
 3701SOL    MW415125   1.880   1.044   5.768
 3702SOL     OW15126   2.474   1.847   5.700
 3702SOL    HW215127   2.379   1.847   5.692
 3702SOL    HW315128   2.490   1.793   5.778
 3702SOL    MW415129   2.464   1.841   5.709
 3703SOL     OW15130   3.319   0.667   5.615
 3703SOL    HW215131   3.247   0.643   5.557
 3703SOL    HW315132   3.385   0.704   5.557
 3703SOL    MW415133   3.318   0.669   5.600
 3704SOL     OW15134   2.714   0.564   6.426
 3704SOL    HW215135   2.654   0.582   6.498
 3704SOL    HW315136   2.748   0.476   6.445
 3704SOL    MW415137   2.710   0.554   6.439
 3705SOL     OW15138   2.732   0.967   5.800
 3705SOL    HW215139   2.718   0.879   5.765
 3705SOL    HW315140   2.683   1.024   5.741
 3705SOL    MW415141   2.724   0.962   5.788
 3706SOL     OW15142   3.451   0.173   5.902
 3706SOL    HW215143   3.444   0.177   5.997
 3706SOL    HW315144   3.463   0.264   5.875
 3706SOL    MW415145   3.452   0.186   5.910
 3707SOL     OW15146   2.740   0.736   6.016
 3707SOL    HW215147   2.720   0.722   5.923
 3707SOL    HW315148   2.833   0.715   6.023
 3707SOL    MW415149   2.750   0.731   6.005
 3708SOL     OW15150   2.723   1.694   6.054
 3708SOL    HW215151   2.781   1.765   6.081
 3708SOL    HW315152   2.746   1.622   6.112
 3708SOL    MW415153   2.734   1.694   6.065
 3709SOL     OW15154   2.179   0.126   5.789
 3709SOL    HW215155   2.108   0.181   5.757
 3709SOL    HW315156   2.221   0.092   5.710
 3709SOL    MW415157   2.175   0.128   5.775
 3710SOL     OW15158   1.935   0.225   5.638
 3710SOL    HW215159   1.902   0.304   5.682
 3710SOL    HW315160   1.990   0.258   5.567
 3710SOL    MW415161   1.938   0.239   5.635
 3711SOL     OW15162   1.969   1.482   5.827
 3711SOL    HW215163   1.986   1.566   5.869
 3711SOL    HW315164   2.004   1.491   5.739
 3711SOL    MW415165   1.974   1.495   5.821
 3712SOL     OW15166   3.241   1.571   6.044
 3712SOL    HW215167   3.304   1.561   5.973
 3712SOL    HW315168   3.158   1.591   5.999
 3712SOL    MW415169   3.238   1.572   6.029
 3713SOL     OW15170   3.470   2.639   1.252
 3713SOL    HW215171   3.425   2.706   1.303
 3713SOL    HW315172   3.558   2.675   1.238
 3713SOL    MW415173   3.476   2.652   1.256
 3714SOL     OW15174   2.398   2.890   0.486
 3714SOL    HW215175   2.488   2.865   0.470
 3714SOL    HW315176   2.394   2.983   0.463
 3714SOL    MW415177   2.410   2.899   0.481
 3715SOL     OW15178   3.514   3.593   0.628
 3715SOL    HW215179   3.526   3.539   0.706
 3715SOL    HW315180   3.551   3.541   0.557
 3715SOL    MW415181   3.520   3.578   0.629
 3716SOL     OW15182   2.893   3.478   1.629
 3716SOL    HW215183   2.934   3.514   1.550
 3716SOL    HW315184   2.928   3.389   1.636
 3716SOL    MW415185   2.904   3.471   1.620
 3717SOL     OW15186   3.450   3.033   1.233
 3717SOL    HW215187   3.371   2.998   1.191
 3717SOL    HW315188   3.477   3.105   1.177
 3717SOL    MW415189   3.443   3.038   1.220
 3718SOL     OW15190   2.682   2.346   0.499
 3718SOL    HW215191   2.657   2.434   0.527
 3718SOL    HW315192   2.679   2.349   0.403
 3718SOL    MW415193   2.678   2.358   0.491
 3719SOL     OW15194   2.124   2.374   0.427
 3719SOL    HW215195   2.156   2.462   0.409
 3719SOL    HW315196   2.112   2.372   0.522
 3719SOL    MW415197   2.127   2.386   0.439
 3720SOL     OW15198   2.202   2.787   1.328
 3720SOL    HW215199   2.265   2.734   1.279
 3720SOL    HW315200   2.183   2.861   1.271
 3720SOL    MW415201   2.208   2.789   1.315
 3721SOL     OW15202   2.523   2.129   0.514
 3721SOL    HW215203   2.581   2.205   0.516
 3721SOL    HW315204   2.458   2.150   0.447
 3721SOL    MW415205   2.522   2.141   0.505
 3722SOL     OW15206   2.610   3.056   0.689
 3722SOL    HW215207   2.690   3.059   0.741
 3722SOL    HW315208   2.638   3.023   0.603
 3722SOL    MW415209   2.624   3.052   0.684
 3723SOL     OW15210   2.635   3.397   1.592
 3723SOL    HW215211   2.719   3.423   1.631
 3723SOL    HW315212   2.659   3.341   1.518
 3723SOL    MW415213   2.649   3.393   1.587
 3724SOL     OW15214   2.387   2.560   0.680
 3724SOL    HW215215   2.372   2.480   0.731
 3724SOL    HW315216   2.469   2.595   0.714
 3724SOL    MW415217   2.395   2.552   0.692
 3725SOL     OW15218   2.724   3.246   1.365
 3725SOL    HW215219   2.688   3.312   1.305
 3725SOL    HW315220   2.652   3.184   1.378
 3725SOL    MW415221   2.710   3.246   1.359
 3726SOL     OW15222   2.529   2.386   1.057
 3726SOL    HW215223   2.435   2.382   1.075
 3726SOL    HW315224   2.559   2.295   1.066
 3726SOL    MW415225   2.520   2.374   1.060
 3727SOL     OW15226   2.275   2.800   0.961
 3727SOL    HW215227   2.230   2.807   0.877
 3727SOL    HW315228   2.255   2.883   1.005
 3727SOL    MW415229   2.267   2.812   0.955
 3728SOL     OW15230   1.972   3.646   0.836
 3728SOL    HW215231   2.061   3.638   0.871
 3728SOL    HW315232   1.936   3.558   0.841
 3728SOL    MW415233   1.979   3.633   0.841
 3729SOL     OW15234   2.236   3.173   0.871
 3729SOL    HW215235   2.212   3.226   0.947
 3729SOL    HW315236   2.292   3.231   0.819
 3729SOL    MW415237   2.240   3.188   0.874
 3730SOL     OW15238   2.798   2.817   0.681
 3730SOL    HW215239   2.712   2.804   0.721
 3730SOL    HW315240   2.851   2.744   0.713
 3730SOL    MW415241   2.794   2.806   0.690
 3731SOL     OW15242   2.206   3.469   1.466
 3731SOL    HW215243   2.114   3.445   1.451
 3731SOL    HW315244   2.250   3.386   1.483
 3731SOL    MW415245   2.200   3.454   1.465
 3732SOL     OW15246   2.789   3.179   0.398
 3732SOL    HW215247   2.766   3.241   0.466
 3732SOL    HW315248   2.746   3.097   0.424
 3732SOL    MW415249   2.781   3.175   0.409
 3733SOL     OW15250   3.662   2.180   0.854
 3733SOL    HW215251   3.599   2.160   0.923
 3733SOL    HW315252   3.652   2.109   0.791
 3733SOL    MW415253   3.652   2.167   0.855
 3734SOL     OW15254   2.286   2.152   0.366
 3734SOL    HW215255   2.260   2.114   0.282
 3734SOL    HW315256   2.223   2.222   0.382
 3734SOL    MW415257   2.275   2.155   0.357
 3735SOL     OW15258   2.121   3.113   0.403
 3735SOL    HW215259   2.069   3.181   0.359
 3735SOL    HW315260   2.118   3.039   0.343
 3735SOL    MW415261   2.113   3.112   0.390
 3736SOL     OW15262   3.463   2.952   0.506
 3736SOL    HW215263   3.373   2.952   0.541
 3736SOL    HW315264   3.456   2.998   0.423
 3736SOL    MW415265   3.450   2.958   0.500
 3737SOL     OW15266   3.263   2.587   1.578
 3737SOL    HW215267   3.332   2.525   1.555
 3737SOL    HW315268   3.188   2.561   1.525
 3737SOL    MW415269   3.263   2.574   1.569
 3738SOL     OW15270   2.004   3.467   1.130
 3738SOL    HW215271   1.987   3.413   1.207
 3738SOL    HW315272   1.992   3.557   1.160
 3738SOL    MW415273   2.001   3.471   1.144
 3739SOL     OW15274   2.999   2.974   1.570
 3739SOL    HW215275   2.984   3.067   1.555
 3739SOL    HW315276   3.094   2.964   1.570
 3739SOL    MW415277   3.008   2.984   1.567
 3740SOL     OW15278   2.795   2.398   1.771
 3740SOL    HW215279   2.885   2.399   1.738
 3740SOL    HW315280   2.754   2.323   1.729
 3740SOL    MW415281   2.801   2.388   1.762
 3741SOL     OW15282   3.370   2.930   0.898
 3741SOL    HW215283   3.373   2.864   0.829
 3741SOL    HW315284   3.455   2.973   0.894
 3741SOL    MW415285   3.382   2.926   0.889
 3742SOL     OW15286   2.990   2.533   0.467
 3742SOL    HW215287   3.016   2.557   0.378
 3742SOL    HW315288   2.972   2.440   0.463
 3742SOL    MW415289   2.992   2.525   0.454
 3743SOL     OW15290   2.575   2.202   1.721
 3743SOL    HW215291   2.585   2.128   1.661
 3743SOL    HW315292   2.611   2.171   1.804
 3743SOL    MW415293   2.581   2.188   1.723
 3744SOL     OW15294   2.311   3.569   0.636
 3744SOL    HW215295   2.343   3.657   0.614
 3744SOL    HW315296   2.264   3.541   0.558
 3744SOL    MW415297   2.310   3.577   0.623
 3745SOL     OW15298   3.695   1.931   0.685
 3745SOL    HW215299   3.749   1.882   0.747
 3745SOL    HW315300   3.638   1.865   0.646
 3745SOL    MW415301   3.695   1.915   0.687
 3746SOL     OW15302   2.027   3.629   0.213
 3746SOL    HW215303   2.056   3.719   0.205
 3746SOL    HW315304   1.977   3.612   0.134
 3746SOL    MW415305   2.025   3.637   0.202
 3747SOL     OW15306   2.814   1.884   1.098
 3747SOL    HW215307   2.773   1.962   1.060
 3747SOL    HW315308   2.908   1.902   1.093
 3747SOL    MW415309   2.820   1.896   1.093
 3748SOL     OW15310   3.443   2.488   0.464
 3748SOL    HW215311   3.482   2.488   0.551
 3748SOL    HW315312   3.384   2.564   0.464
 3748SOL    MW415313   3.440   2.499   0.475
 3749SOL     OW15314   2.760   2.855   1.593
 3749SOL    HW215315   2.737   2.835   1.683
 3749SOL    HW315316   2.845   2.899   1.598
 3749SOL    MW415317   2.767   2.858   1.605
 3750SOL     OW15318   2.840   1.992   1.353
 3750SOL    HW215319   2.846   1.954   1.266
 3750SOL    HW315320   2.829   2.086   1.338
 3750SOL    MW415321   2.841   2.000   1.341
 3751SOL     OW15322   2.929   2.481   1.187
 3751SOL    HW215323   3.004   2.510   1.134
 3751SOL    HW315324   2.861   2.546   1.171
 3751SOL    MW415325   2.930   2.493   1.177
 3752SOL     OW15326   3.479   2.449   1.464
 3752SOL    HW215327   3.460   2.358   1.443
 3752SOL    HW315328   3.457   2.498   1.385
 3752SOL    MW415329   3.474   2.442   1.451
 3753SOL     OW15330   3.621   3.543   1.368
 3753SOL    HW215331   3.549   3.505   1.419
 3753SOL    HW315332   3.638   3.628   1.409
 3753SOL    MW415333   3.615   3.548   1.380
 3754SOL     OW15334   2.926   2.187   1.570
 3754SOL    HW215335   2.892   2.226   1.489
 3754SOL    HW315336   2.904   2.095   1.563
 3754SOL    MW415337   2.919   2.180   1.560
 3755SOL     OW15338   3.335   3.001   1.646
 3755SOL    HW215339   3.417   3.042   1.676
 3755SOL    HW315340   3.298   2.963   1.726
 3755SOL    MW415341   3.341   3.002   1.661
 3756SOL     OW15342   3.630   2.374   0.630
 3756SOL    HW215343   3.719   2.343   0.647
 3756SOL    HW315344   3.573   2.314   0.678
 3756SOL    MW415345   3.633   2.362   0.639
 3757SOL     OW15346   2.056   2.088   0.659
 3757SOL    HW215347   2.047   2.028   0.585
 3757SOL    HW315348   1.989   2.059   0.722
 3757SOL    MW415349   2.046   2.075   0.657
 3758SOL     OW15350   2.003   2.261   1.022
 3758SOL    HW215351   1.975   2.352   1.031
 3758SOL    HW315352   1.940   2.222   0.961
 3758SOL    MW415353   1.990   2.267   1.016
 3759SOL     OW15354   2.462   3.599   0.328
 3759SOL    HW215355   2.383   3.557   0.361
 3759SOL    HW315356   2.528   3.582   0.395
 3759SOL    MW415357   2.461   3.591   0.341
 3760SOL     OW15358   3.590   3.119   1.725
 3760SOL    HW215359   3.640   3.045   1.757
 3760SOL    HW315360   3.536   3.146   1.800
 3760SOL    MW415361   3.590   3.113   1.738
 3761SOL     OW15362   3.724   2.754   1.227
 3761SOL    HW215363   3.740   2.792   1.140
 3761SOL    HW315364   3.758   2.820   1.288
 3761SOL    MW415365   3.731   2.767   1.223
 3762SOL     OW15366   3.516   3.463   0.896
 3762SOL    HW215367   3.545   3.530   0.957
 3762SOL    HW315368   3.497   3.387   0.951
 3762SOL    MW415369   3.518   3.463   0.911
 3763SOL     OW15370   1.987   2.536   1.192
 3763SOL    HW215371   2.049   2.566   1.258
 3763SOL    HW315372   1.921   2.605   1.186
 3763SOL    MW415373   1.986   2.549   1.199
 3764SOL     OW15374   2.082   3.645   1.644
 3764SOL    HW215375   2.056   3.713   1.582
 3764SOL    HW315376   2.130   3.582   1.592
 3764SOL    MW415377   2.084   3.645   1.630
 3765SOL     OW15378   2.134   2.964   1.151
 3765SOL    HW215379   2.187   3.039   1.176
 3765SOL    HW315380   2.053   3.002   1.117
 3765SOL    MW415381   2.130   2.979   1.151
 3766SOL     OW15382   2.674   2.868   1.139
 3766SOL    HW215383   2.702   2.777   1.151
 3766SOL    HW315384   2.603   2.862   1.075
 3766SOL    MW415385   2.667   2.856   1.134
 3767SOL     OW15386   1.989   2.733   0.557
 3767SOL    HW215387   2.080   2.748   0.584
 3767SOL    HW315388   1.992   2.654   0.503
 3767SOL    MW415389   2.001   2.725   0.555
 3768SOL     OW15390   2.225   2.441   1.811
 3768SOL    HW215391   2.172   2.521   1.818
 3768SOL    HW315392   2.295   2.453   1.876
 3768SOL    MW415393   2.227   2.454   1.819
 3769SOL     OW15394   2.611   1.991   1.518
 3769SOL    HW215395   2.588   1.899   1.520
 3769SOL    HW315396   2.697   1.993   1.475
 3769SOL    MW415397   2.618   1.981   1.514
 3770SOL     OW15398   2.616   3.665   0.931
 3770SOL    HW215399   2.705   3.680   0.961
 3770SOL    HW315400   2.611   3.712   0.847
 3770SOL    MW415401   2.626   3.673   0.924
 3771SOL     OW15402   3.272   2.040   1.828
 3771SOL    HW215403   3.328   1.967   1.854
 3771SOL    HW315404   3.242   2.078   1.910
 3771SOL    MW415405   3.276   2.035   1.841
 3772SOL     OW15406   1.997   3.345   0.596
 3772SOL    HW215407   1.969   3.384   0.678
 3772SOL    HW315408   2.017   3.254   0.618
 3772SOL    MW415409   1.995   3.337   0.609
 3773SOL     OW15410   2.830   3.388   0.631
 3773SOL    HW215411   2.913   3.342   0.615
 3773SOL    HW315412   2.820   3.387   0.727
 3773SOL    MW415413   2.840   3.381   0.641
 3774SOL     OW15414   3.662   2.533   0.945
 3774SOL    HW215415   3.751   2.563   0.927
 3774SOL    HW315416   3.642   2.473   0.874
 3774SOL    MW415417   3.671   2.530   0.934
 3775SOL     OW15418   3.513   2.712   1.825
 3775SOL    HW215419   3.568   2.636   1.806
 3775SOL    HW315420   3.515   2.720   1.920
 3775SOL    MW415421   3.521   2.703   1.833
 3776SOL     OW15422   2.808   2.274   1.344
 3776SOL    HW215423   2.727   2.315   1.372
 3776SOL    HW315424   2.855   2.342   1.296
 3776SOL    MW415425   2.803   2.289   1.342
 3777SOL     OW15426   3.068   2.612   0.967
 3777SOL    HW215427   3.081   2.706   0.977
 3777SOL    HW315428   3.029   2.602   0.881
 3777SOL    MW415429   3.064   2.623   0.957
 3778SOL     OW15430   2.520   2.807   0.771
 3778SOL    HW215431   2.431   2.798   0.804
 3778SOL    HW315432   2.524   2.897   0.739
 3778SOL    MW415433   2.509   2.818   0.771
 3779SOL     OW15434   3.319   2.390   0.766
 3779SOL    HW215435   3.264   2.311   0.765
 3779SOL    HW315436   3.301   2.431   0.850
 3779SOL    MW415437   3.309   2.385   0.775
 3780SOL     OW15438   2.290   2.077   1.583
 3780SOL    HW215439   2.211   2.095   1.635
 3780SOL    HW315440   2.285   2.139   1.510
 3780SOL    MW415441   2.280   2.087   1.580
 3781SOL     OW15442   2.938   2.594   0.723
 3781SOL    HW215443   2.875   2.526   0.747
 3781SOL    HW315444   2.958   2.575   0.631
 3781SOL    MW415445   2.932   2.581   0.715
 3782SOL     OW15446   2.194   3.489   0.425
 3782SOL    HW215447   2.155   3.536   0.351
 3782SOL    HW315448   2.128   3.424   0.450
 3782SOL    MW415449   2.181   3.487   0.419
 3783SOL     OW15450   2.686   2.898   0.449
 3783SOL    HW215451   2.688   2.872   0.356
 3783SOL    HW315452   2.744   2.835   0.492
 3783SOL    MW415453   2.694   2.887   0.443
 3784SOL     OW15454   3.239   3.458   1.221
 3784SOL    HW215455   3.164   3.504   1.259
 3784SOL    HW315456   3.221   3.365   1.238
 3784SOL    MW415457   3.228   3.452   1.229
 3785SOL     OW15458   3.243   3.666   0.651
 3785SOL    HW215459   3.186   3.619   0.590
 3785SOL    HW315460   3.329   3.627   0.638
 3785SOL    MW415461   3.246   3.657   0.641
 3786SOL     OW15462   3.196   2.142   0.782
 3786SOL    HW215463   3.224   2.074   0.843
 3786SOL    HW315464   3.110   2.113   0.752
 3786SOL    MW415465   3.189   2.129   0.786
 3787SOL     OW15466   2.001   3.076   0.716
 3787SOL    HW215467   2.065   3.108   0.779
 3787SOL    HW315468   2.050   3.012   0.664
 3787SOL    MW415469   2.016   3.072   0.717
 3788SOL     OW15470   2.501   3.152   1.698
 3788SOL    HW215471   2.549   3.235   1.685
 3788SOL    HW315472   2.558   3.100   1.754
 3788SOL    MW415473   2.515   3.156   1.704
 3789SOL     OW15474   2.077   3.394   1.838
 3789SOL    HW215475   2.133   3.318   1.853
 3789SOL    HW315476   2.026   3.372   1.760
 3789SOL    MW415477   2.077   3.381   1.829
 3790SOL     OW15478   3.349   2.802   0.259
 3790SOL    HW215479   3.316   2.891   0.249
 3790SOL    HW315480   3.314   2.773   0.344
 3790SOL    MW415481   3.339   2.811   0.270
 3791SOL     OW15482   2.962   3.231   1.447
 3791SOL    HW215483   2.873   3.237   1.415
 3791SOL    HW315484   3.006   3.310   1.415
 3791SOL    MW415485   2.957   3.241   1.439
 3792SOL     OW15486   2.255   1.899   1.789
 3792SOL    HW215487   2.183   1.864   1.737
 3792SOL    HW315488   2.313   1.940   1.724
 3792SOL    MW415489   2.253   1.900   1.774
 3793SOL     OW15490   2.279   3.389   1.088
 3793SOL    HW215491   2.324   3.451   1.145
 3793SOL    HW315492   2.186   3.408   1.101
 3793SOL    MW415493   2.272   3.399   1.095
 3794SOL     OW15494   3.719   2.918   1.442
 3794SOL    HW215495   3.634   2.931   1.401
 3794SOL    HW315496   3.699   2.882   1.529
 3794SOL    MW415497   3.706   2.914   1.447
 3795SOL     OW15498   2.701   3.457   1.196
 3795SOL    HW215499   2.725   3.446   1.105
 3795SOL    HW315500   2.624   3.514   1.194
 3795SOL    MW415501   2.693   3.462   1.185
 3796SOL     OW15502   2.343   2.840   0.051
 3796SOL    HW215503   2.266   2.853   0.107
 3796SOL    HW315504   2.307   2.804  -0.030
 3796SOL    MW415505   2.329   2.836   0.048
 3797SOL     OW15506   2.996   2.813   0.294
 3797SOL    HW215507   2.906   2.834   0.269
 3797SOL    HW315508   3.023   2.886   0.350
 3797SOL    MW415509   2.988   2.825   0.297
 3798SOL     OW15510   2.496   3.162   0.986
 3798SOL    HW215511   2.489   3.141   1.080
 3798SOL    HW315512   2.414   3.130   0.949
 3798SOL    MW415513   2.484   3.156   0.993
 3799SOL     OW15514   3.360   2.172   1.388
 3799SOL    HW215515   3.307   2.174   1.468
 3799SOL    HW315516   3.345   2.085   1.351
 3799SOL    MW415517   3.352   2.162   1.393
 3800SOL     OW15518   3.696   2.096   1.261
 3800SOL    HW215519   3.677   2.163   1.196
 3800SOL    HW315520   3.753   2.034   1.216
 3800SOL    MW415521   3.700   2.097   1.247
 3801SOL     OW15522   1.942   3.254   1.649
 3801SOL    HW215523   1.986   3.187   1.595
 3801SOL    HW315524   1.857   3.216   1.669
 3801SOL    MW415525   1.937   3.240   1.645
 3802SOL     OW15526   2.625   1.929   0.701
 3802SOL    HW215527   2.554   1.990   0.683
 3802SOL    HW315528   2.676   1.926   0.620
 3802SOL    MW415529   2.621   1.935   0.688
 3803SOL     OW15530   2.383   3.169   0.450
 3803SOL    HW215531   2.376   3.201   0.540
 3803SOL    HW315532   2.293   3.153   0.422
 3803SOL    MW415533   2.371   3.171   0.457
 3804SOL     OW15534   2.978   3.562   1.359
 3804SOL    HW215535   2.898   3.547   1.309
 3804SOL    HW315536   2.985   3.657   1.366
 3804SOL    MW415537   2.969   3.573   1.353
 3805SOL     OW15538   3.092   3.527   0.849
 3805SOL    HW215539   3.139   3.600   0.808
 3805SOL    HW315540   3.013   3.566   0.885
 3805SOL    MW415541   3.087   3.542   0.848
 3806SOL     OW15542   3.500   3.622   1.124
 3806SOL    HW215543   3.543   3.592   1.204
 3806SOL    HW315544   3.419   3.570   1.121
 3806SOL    MW415545   3.495   3.611   1.134
 3807SOL     OW15546   2.585   2.586   1.831
 3807SOL    HW215547   2.655   2.528   1.803
 3807SOL    HW315548   2.528   2.531   1.886
 3807SOL    MW415549   2.587   2.573   1.835
 3808SOL     OW15550   3.372   2.798   1.464
 3808SOL    HW215551   3.377   2.851   1.544
 3808SOL    HW315552   3.334   2.715   1.492
 3808SOL    MW415553   3.368   2.793   1.479
 3809SOL     OW15554   3.012   1.933   1.710
 3809SOL    HW215555   3.007   1.840   1.691
 3809SOL    HW315556   3.095   1.944   1.756
 3809SOL    MW415557   3.020   1.922   1.714
 3810SOL     OW15558   2.386   2.453   0.164
 3810SOL    HW215559   2.352   2.509   0.234
 3810SOL    HW315560   2.457   2.403   0.204
 3810SOL    MW415561   2.392   2.454   0.178
 3811SOL     OW15562   3.482   3.204   0.986
 3811SOL    HW215563   3.517   3.186   0.899
 3811SOL    HW315564   3.387   3.205   0.973
 3811SOL    MW415565   3.474   3.201   0.973
 3812SOL     OW15566   2.911   2.852   1.355
 3812SOL    HW215567   2.954   2.887   1.433
 3812SOL    HW315568   2.894   2.929   1.301
 3812SOL    MW415569   2.914   2.867   1.358
 3813SOL     OW15570   2.302   1.994   0.657
 3813SOL    HW215571   2.352   2.037   0.588
 3813SOL    HW315572   2.217   2.038   0.657
 3813SOL    MW415573   2.299   2.007   0.648
 3814SOL     OW15574   2.061   3.056   1.517
 3814SOL    HW215575   2.089   3.009   1.595
 3814SOL    HW315576   1.982   3.011   1.488
 3814SOL    MW415577   2.054   3.045   1.523
 3815SOL     OW15578   2.569   2.383   1.484
 3815SOL    HW215579   2.541   2.471   1.508
 3815SOL    HW315580   2.538   2.327   1.555
 3815SOL    MW415581   2.561   2.386   1.496
 3816SOL     OW15582   2.224   2.779   0.697
 3816SOL    HW215583   2.282   2.835   0.645
 3816SOL    HW315584   2.268   2.694   0.699
 3816SOL    MW415585   2.237   2.776   0.690
 3817SOL     OW15586   3.364   2.131   0.534
 3817SOL    HW215587   3.286   2.081   0.559
 3817SOL    HW315588   3.335   2.222   0.534
 3817SOL    MW415589   3.350   2.135   0.537
 3818SOL     OW15590   2.950   2.093   0.693
 3818SOL    HW215591   2.970   2.168   0.637
 3818SOL    HW315592   2.930   2.132   0.778
 3818SOL    MW415593   2.951   2.109   0.697
 3819SOL     OW15594   3.710   2.866   1.712
 3819SOL    HW215595   3.623   2.846   1.748
 3819SOL    HW315596   3.764   2.792   1.737
 3819SOL    MW415597   3.705   2.855   1.720
 3820SOL     OW15598   1.931   3.379   0.869
 3820SOL    HW215599   1.963   3.383   0.960
 3820SOL    HW315600   1.836   3.387   0.877
 3820SOL    MW415601   1.923   3.382   0.882
 3821SOL     OW15602   1.886   2.505   0.416
 3821SOL    HW215603   1.826   2.477   0.486
 3821SOL    HW315604   1.960   2.445   0.422
 3821SOL    MW415605   1.888   2.494   0.425
 3822SOL     OW15606   3.454   3.717   1.850
 3822SOL    HW215607   3.499   3.641   1.815
 3822SOL    HW315608   3.492   3.730   1.937
 3822SOL    MW415609   3.464   3.710   1.856
 3823SOL     OW15610   3.054   3.236   0.576
 3823SOL    HW215611   3.077   3.187   0.654
 3823SOL    HW315612   3.135   3.278   0.548
 3823SOL    MW415613   3.067   3.236   0.583
 3824SOL     OW15614   2.312   2.244   1.305
 3824SOL    HW215615   2.345   2.325   1.345
 3824SOL    HW315616   2.285   2.270   1.217
 3824SOL    MW415617   2.311   2.258   1.299
 3825SOL     OW15618   2.266   2.211   1.041
 3825SOL    HW215619   2.296   2.125   1.012
 3825SOL    HW315620   2.171   2.204   1.044
 3825SOL    MW415621   2.258   2.200   1.039
 3826SOL     OW15622   3.095   2.420   1.732
 3826SOL    HW215623   3.147   2.355   1.685
 3826SOL    HW315624   3.053   2.471   1.662
 3826SOL    MW415625   3.096   2.417   1.715
 3827SOL     OW15626   3.194   2.215   1.593
 3827SOL    HW215627   3.101   2.199   1.580
 3827SOL    HW315628   3.220   2.153   1.661
 3827SOL    MW415629   3.184   2.205   1.600
 3828SOL     OW15630   2.409   1.989   0.932
 3828SOL    HW215631   2.419   1.898   0.958
 3828SOL    HW315632   2.365   1.985   0.847
 3828SOL    MW415633   2.405   1.977   0.924
 3829SOL     OW15634   2.503   3.604   1.478
 3829SOL    HW215635   2.420   3.589   1.523
 3829SOL    HW315636   2.562   3.537   1.513
 3829SOL    MW415637   2.501   3.594   1.488
 3830SOL     OW15638   3.560   2.311   1.103
 3830SOL    HW215639   3.493   2.344   1.163
 3830SOL    HW315640   3.603   2.389   1.069
 3830SOL    MW415641   3.558   2.326   1.107
 3831SOL     OW15642   3.738   3.031   1.073
 3831SOL    HW215643   3.731   2.971   0.998
 3831SOL    HW315644   3.664   3.091   1.062
 3831SOL    MW415645   3.728   3.031   1.062
 3832SOL     OW15646   3.120   2.893   0.991
 3832SOL    HW215647   3.134   2.865   1.082
 3832SOL    HW315648   3.206   2.924   0.963
 3832SOL    MW415649   3.133   2.894   1.000
 3833SOL     OW15650   3.203   2.388   1.270
 3833SOL    HW215651   3.224   2.389   1.177
 3833SOL    HW315652   3.248   2.310   1.303
 3833SOL    MW415653   3.210   2.378   1.262
 3834SOL     OW15654   3.696   2.519   1.812
 3834SOL    HW215655   3.733   2.464   1.881
 3834SOL    HW315656   3.721   2.476   1.730
 3834SOL    MW415657   3.703   2.507   1.811
 3835SOL     OW15658   3.243   2.817   1.863
 3835SOL    HW215659   3.309   2.765   1.817
 3835SOL    HW315660   3.263   2.804   1.956
 3835SOL    MW415661   3.254   2.808   1.870
 3836SOL     OW15662   3.254   2.678   0.490
 3836SOL    HW215663   3.169   2.648   0.460
 3836SOL    HW315664   3.246   2.685   0.585
 3836SOL    MW415665   3.242   2.676   0.499
 3837SOL     OW15666   2.330   3.141   1.221
 3837SOL    HW215667   2.342   3.168   1.312
 3837SOL    HW315668   2.311   3.222   1.174
 3837SOL    MW415669   2.329   3.156   1.226
 3838SOL     OW15670   2.614   2.121   1.044
 3838SOL    HW215671   2.587   2.123   1.135
 3838SOL    HW315672   2.544   2.073   0.999
 3838SOL    MW415673   2.602   2.117   1.051
 3839SOL     OW15674   2.468   3.613   1.206
 3839SOL    HW215675   2.520   3.690   1.183
 3839SOL    HW315676   2.477   3.605   1.301
 3839SOL    MW415677   2.477   3.620   1.217
 3840SOL     OW15678   3.370   3.198   1.438
 3840SOL    HW215679   3.355   3.127   1.501
 3840SOL    HW315680   3.416   3.156   1.366
 3840SOL    MW415681   3.376   3.182   1.438
 3841SOL     OW15682   2.444   2.929   1.555
 3841SOL    HW215683   2.481   2.934   1.467
 3841SOL    HW315684   2.483   3.002   1.602
 3841SOL    MW415685   2.454   2.939   1.550
 3842SOL     OW15686   2.624   2.972   1.367
 3842SOL    HW215687   2.683   2.918   1.420
 3842SOL    HW315688   2.639   2.944   1.277
 3842SOL    MW415689   2.634   2.961   1.363
 3843SOL     OW15690   3.435   3.461   1.539
 3843SOL    HW215691   3.477   3.446   1.624
 3843SOL    HW315692   3.426   3.374   1.501
 3843SOL    MW415693   3.439   3.449   1.546
 3844SOL     OW15694   3.095   1.940   1.130
 3844SOL    HW215695   3.150   1.949   1.052
 3844SOL    HW315696   3.150   1.974   1.201
 3844SOL    MW415697   3.109   1.945   1.129
 3845SOL     OW15698   2.102   2.853   0.314
 3845SOL    HW215699   2.039   2.869   0.243
 3845SOL    HW315700   2.049   2.816   0.385
 3845SOL    MW415701   2.087   2.850   0.314
 3846SOL     OW15702   2.458   3.207   0.173
 3846SOL    HW215703   2.473   3.183   0.265
 3846SOL    HW315704   2.366   3.185   0.157
 3846SOL    MW415705   2.448   3.200   0.183
 3847SOL     OW15706   2.256   3.596   0.894
 3847SOL    HW215707   2.260   3.507   0.929
 3847SOL    HW315708   2.282   3.587   0.803
 3847SOL    MW415709   2.259   3.584   0.886
 3848SOL     OW15710   2.873   3.074   1.137
 3848SOL    HW215711   2.805   3.008   1.153
 3848SOL    HW315712   2.891   3.068   1.044
 3848SOL    MW415713   2.866   3.065   1.128
 3849SOL     OW15714   1.962   3.349   1.388
 3849SOL    HW215715   1.952   3.307   1.474
 3849SOL    HW315716   1.883   3.402   1.378
 3849SOL    MW415717   1.951   3.350   1.399
 3850SOL     OW15718   2.866   2.213   0.958
 3850SOL    HW215719   2.796   2.165   1.003
 3850SOL    HW315720   2.898   2.276   1.022
 3850SOL    MW415721   2.861   2.215   0.972
 3851SOL     OW15722   2.517   2.649   1.578
 3851SOL    HW215723   2.510   2.744   1.566
 3851SOL    HW315724   2.526   2.638   1.673
 3851SOL    MW415725   2.518   2.661   1.588
 3852SOL     OW15726   2.238   3.164   1.836
 3852SOL    HW215727   2.310   3.166   1.773
 3852SOL    HW315728   2.208   3.073   1.835
 3852SOL    MW415729   2.243   3.153   1.828
 3853SOL     OW15730   3.322   1.927   1.303
 3853SOL    HW215731   3.393   1.873   1.267
 3853SOL    HW315732   3.321   1.906   1.396
 3853SOL    MW415733   3.331   1.918   1.311
 3854SOL     OW15734   3.522   3.457   1.787
 3854SOL    HW215735   3.495   3.454   1.878
 3854SOL    HW315736   3.618   3.461   1.790
 3854SOL    MW415737   3.532   3.457   1.799
 3855SOL     OW15738   2.333   2.319   0.771
 3855SOL    HW215739   2.404   2.267   0.734
 3855SOL    HW315740   2.319   2.284   0.858
 3855SOL    MW415741   2.341   2.308   0.778
 3856SOL     OW15742   1.888   3.654   1.843
 3856SOL    HW215743   1.938   3.632   1.765
 3856SOL    HW315744   1.896   3.749   1.851
 3856SOL    MW415745   1.896   3.663   1.834
 3857SOL     OW15746   2.649   3.412   0.847
 3857SOL    HW215747   2.577   3.349   0.860
 3857SOL    HW315748   2.610   3.497   0.865
 3857SOL    MW415749   2.633   3.415   0.850
 3858SOL     OW15750   2.054   1.950   0.427
 3858SOL    HW215751   2.125   1.971   0.366
 3858SOL    HW315752   2.008   1.878   0.385
 3858SOL    MW415753   2.058   1.944   0.413
 3859SOL     OW15754   1.885   2.417   1.570
 3859SOL    HW215755   1.949   2.483   1.545
 3859SOL    HW315756   1.804   2.444   1.527
 3859SOL    MW415757   1.883   2.429   1.562
 3860SOL     OW15758   3.623   3.324   0.527
 3860SOL    HW215759   3.593   3.257   0.588
 3860SOL    HW315760   3.717   3.330   0.541
 3860SOL    MW415761   3.631   3.316   0.537
 3861SOL     OW15762   3.179   3.001   0.457
 3861SOL    HW215763   3.151   3.087   0.490
 3861SOL    HW315764   3.207   3.017   0.367
 3861SOL    MW415765   3.179   3.015   0.449
 3862SOL     OW15766   2.841   1.921   0.510
 3862SOL    HW215767   2.878   1.980   0.575
 3862SOL    HW315768   2.818   1.977   0.436
 3862SOL    MW415769   2.842   1.936   0.509
 3863SOL     OW15770   3.694   2.803   0.932
 3863SOL    HW215771   3.685   2.835   0.843
 3863SOL    HW315772   3.647   2.719   0.932
 3863SOL    MW415773   3.687   2.796   0.922
 3864SOL     OW15774   2.070   2.643   1.511
 3864SOL    HW215775   2.091   2.712   1.449
 3864SOL    HW315776   2.150   2.590   1.516
 3864SOL    MW415777   2.083   2.644   1.505
 3865SOL     OW15778   3.606   2.734   0.633
 3865SOL    HW215779   3.700   2.723   0.621
 3865SOL    HW315780   3.582   2.806   0.574
 3865SOL    MW415781   3.616   2.742   0.624
 3866SOL     OW15782   2.055   2.658   1.778
 3866SOL    HW215783   1.981   2.602   1.804
 3866SOL    HW315784   2.050   2.661   1.683
 3866SOL    MW415785   2.044   2.651   1.768
 3867SOL     OW15786   2.221   1.945   1.228
 3867SOL    HW215787   2.264   2.029   1.248
 3867SOL    HW315788   2.294   1.883   1.221
 3867SOL    MW415789   2.236   1.948   1.229
 3868SOL     OW15790   2.262   2.612   0.406
 3868SOL    HW215791   2.262   2.707   0.391
 3868SOL    HW315792   2.339   2.596   0.460
 3868SOL    MW415793   2.272   2.623   0.411
 3869SOL     OW15794   3.038   2.471   1.470
 3869SOL    HW215795   3.074   2.444   1.386
 3869SOL    HW315796   2.951   2.505   1.449
 3869SOL    MW415797   3.032   2.472   1.457
 3870SOL     OW15798   2.021   2.343   0.695
 3870SOL    HW215799   2.083   2.350   0.768
 3870SOL    HW315800   2.021   2.250   0.672
 3870SOL    MW415801   2.029   2.332   0.702
 3871SOL     OW15802   2.703   2.604   1.179
 3871SOL    HW215803   2.661   2.522   1.155
 3871SOL    HW315804   2.704   2.603   1.275
 3871SOL    MW415805   2.696   2.593   1.188
 3872SOL     OW15806   3.374   3.737   1.578
 3872SOL    HW215807   3.377   3.643   1.561
 3872SOL    HW315808   3.397   3.745   1.670
 3872SOL    MW415809   3.377   3.725   1.588
 3873SOL     OW15810   2.507   2.074   1.284
 3873SOL    HW215811   2.438   2.137   1.305
 3873SOL    HW315812   2.534   2.038   1.369
 3873SOL    MW415813   2.501   2.077   1.297
 3874SOL     OW15814   1.890   2.915   0.153
 3874SOL    HW215815   1.859   2.980   0.216
 3874SOL    HW315816   1.839   2.837   0.172
 3874SOL    MW415817   1.880   2.912   0.163
 3875SOL     OW15818   3.302   1.927   0.901
 3875SOL    HW215819   3.390   1.936   0.938
 3875SOL    HW315820   3.312   1.868   0.827
 3875SOL    MW415821   3.316   1.921   0.895
 3876SOL     OW15822   3.334   2.666   0.745
 3876SOL    HW215823   3.414   2.681   0.694
 3876SOL    HW315824   3.327   2.571   0.751
 3876SOL    MW415825   3.343   2.655   0.740
 3877SOL     OW15826   2.474   3.715   0.095
 3877SOL    HW215827   2.379   3.715   0.087
 3877SOL    HW315828   2.490   3.661   0.173
 3877SOL    MW415829   2.464   3.709   0.104
 3878SOL     OW15830   2.784   2.592   1.442
 3878SOL    HW215831   2.853   2.659   1.439
 3878SOL    HW315832   2.717   2.630   1.498
 3878SOL    MW415833   2.785   2.605   1.449
 3879SOL     OW15834   2.202   2.892   1.690
 3879SOL    HW215835   2.156   2.808   1.692
 3879SOL    HW315836   2.259   2.886   1.614
 3879SOL    MW415837   2.204   2.880   1.682
 3880SOL     OW15838   2.453   3.267   0.691
 3880SOL    HW215839   2.518   3.200   0.712
 3880SOL    HW315840   2.505   3.344   0.668
 3880SOL    MW415841   2.468   3.269   0.690
 3881SOL     OW15842   2.714   2.432   0.821
 3881SOL    HW215843   2.654   2.450   0.893
 3881SOL    HW315844   2.748   2.344   0.840
 3881SOL    MW415845   2.710   2.422   0.834
 3882SOL     OW15846   3.655   1.931   1.490
 3882SOL    HW215847   3.576   1.977   1.518
 3882SOL    HW315848   3.690   1.985   1.419
 3882SOL    MW415849   3.649   1.944   1.484
 3883SOL     OW15850   2.939   3.015   0.840
 3883SOL    HW215851   3.031   2.996   0.858
 3883SOL    HW315852   2.912   2.945   0.780
 3883SOL    MW415853   2.947   3.003   0.834
 3884SOL     OW15854   2.732   2.835   0.195
 3884SOL    HW215855   2.718   2.747   0.160
 3884SOL    HW315856   2.683   2.892   0.136
 3884SOL    MW415857   2.724   2.830   0.183
 3885SOL     OW15858   3.213   3.253   0.936
 3885SOL    HW215859   3.186   3.337   0.901
 3885SOL    HW315860   3.173   3.248   1.023
 3885SOL    MW415861   3.206   3.262   0.942
 3886SOL     OW15862   3.132   3.201   1.204
 3886SOL    HW215863   3.143   3.168   1.293
 3886SOL    HW315864   3.051   3.160   1.173
 3886SOL    MW415865   3.122   3.193   1.210
 3887SOL     OW15866   2.145   2.559   0.974
 3887SOL    HW215867   2.095   2.558   1.055
 3887SOL    HW315868   2.165   2.651   0.958
 3887SOL    MW415869   2.141   2.571   0.982
 3888SOL     OW15870   3.212   3.323   1.736
 3888SOL    HW215871   3.212   3.417   1.752
 3888SOL    HW315872   3.257   3.313   1.652
 3888SOL    MW415873   3.218   3.333   1.727
 3889SOL     OW15874   2.740   2.604   0.411
 3889SOL    HW215875   2.720   2.590   0.318
 3889SOL    HW315876   2.833   2.583   0.418
 3889SOL    MW415877   2.750   2.599   0.400
 3890SOL     OW15878   2.067   2.227   1.715
 3890SOL    HW215879   2.024   2.286   1.652
 3890SOL    HW315880   2.135   2.282   1.755
 3890SOL    MW415881   2.071   2.242   1.712
 3891SOL     OW15882   3.179   2.847   1.260
 3891SOL    HW215883   3.242   2.844   1.333
 3891SOL    HW315884   3.095   2.865   1.302
 3891SOL    MW415885   3.175   2.849   1.275
 3892SOL     OW15886   2.723   3.562   0.449
 3892SOL    HW215887   2.781   3.633   0.476
 3892SOL    HW315888   2.746   3.490   0.507
 3892SOL    MW415889   2.734   3.562   0.460
 3893SOL     OW15890   3.518   2.024   1.039
 3893SOL    HW215891   3.563   1.942   1.058
 3893SOL    HW315892   3.538   2.080   1.115
 3893SOL    MW415893   3.528   2.020   1.051
 3894SOL     OW15894   1.966   1.867   1.138
 3894SOL    HW215895   1.957   1.868   1.043
 3894SOL    HW315896   2.060   1.879   1.153
 3894SOL    MW415897   1.978   1.870   1.129
 3895SOL     OW15898   3.603   3.060   0.758
 3895SOL    HW215899   3.582   3.006   0.681
 3895SOL    HW315900   3.699   3.058   0.762
 3895SOL    MW415901   3.612   3.053   0.747
 3896SOL     OW15902   2.295   3.205   1.501
 3896SOL    HW215903   2.216   3.155   1.524
 3896SOL    HW315904   2.365   3.164   1.551
 3896SOL    MW415905   2.293   3.193   1.511
 3897SOL     OW15906   2.179   1.994   0.184
 3897SOL    HW215907   2.108   2.049   0.152
 3897SOL    HW315908   2.221   1.960   0.105
 3897SOL    MW415909   2.175   1.996   0.170
 3898SOL     OW15910   3.303   2.491   1.020
 3898SOL    HW215911   3.226   2.537   0.986
 3898SOL    HW315912   3.360   2.560   1.054
 3898SOL    MW415913   3.300   2.506   1.020
 3899SOL     OW15914   1.935   2.093   0.033
 3899SOL    HW215915   1.902   2.172   0.077
 3899SOL    HW315916   1.990   2.126  -0.038
 3899SOL    MW415917   1.938   2.107   0.030
 3900SOL     OW15918   1.969   3.350   0.222
 3900SOL    HW215919   1.986   3.434   0.264
 3900SOL    HW315920   2.004   3.359   0.134
 3900SOL    MW415921   1.974   3.363   0.216
 3901SOL     OW15922   3.241   3.439   0.439
 3901SOL    HW215923   3.304   3.429   0.368
 3901SOL    HW315924   3.158   3.459   0.394
 3901SOL    MW415925   3.238   3.440   0.424
 3902SOL     OW15926   3.604   2.707   2.125
 3902SOL    HW215927   3.645   2.649   2.190
 3902SOL    HW315928   3.511   2.699   2.142
 3902SOL    MW415929   3.598   2.699   2.135
 3903SOL     OW15930   3.470   2.639   3.120
 3903SOL    HW215931   3.425   2.706   3.171
 3903SOL    HW315932   3.558   2.675   3.106
 3903SOL    MW415933   3.476   2.652   3.124
 3904SOL     OW15934   2.398   2.890   2.354
 3904SOL    HW215935   2.488   2.865   2.338
 3904SOL    HW315936   2.394   2.983   2.331
 3904SOL    MW415937   2.410   2.899   2.349
 3905SOL     OW15938   3.514   3.593   2.496
 3905SOL    HW215939   3.526   3.539   2.574
 3905SOL    HW315940   3.551   3.541   2.425
 3905SOL    MW415941   3.520   3.578   2.497
 3906SOL     OW15942   2.893   3.478   3.497
 3906SOL    HW215943   2.934   3.514   3.418
 3906SOL    HW315944   2.928   3.389   3.504
 3906SOL    MW415945   2.904   3.471   3.488
 3907SOL     OW15946   3.450   3.033   3.101
 3907SOL    HW215947   3.371   2.998   3.059
 3907SOL    HW315948   3.477   3.105   3.045
 3907SOL    MW415949   3.443   3.038   3.088
 3908SOL     OW15950   2.682   2.346   2.367
 3908SOL    HW215951   2.657   2.434   2.395
 3908SOL    HW315952   2.679   2.349   2.271
 3908SOL    MW415953   2.678   2.358   2.359
 3909SOL     OW15954   2.124   2.374   2.295
 3909SOL    HW215955   2.156   2.462   2.277
 3909SOL    HW315956   2.112   2.372   2.390
 3909SOL    MW415957   2.127   2.386   2.307
 3910SOL     OW15958   2.202   2.787   3.196
 3910SOL    HW215959   2.265   2.734   3.147
 3910SOL    HW315960   2.183   2.861   3.139
 3910SOL    MW415961   2.208   2.789   3.183
 3911SOL     OW15962   2.523   2.129   2.382
 3911SOL    HW215963   2.581   2.205   2.384
 3911SOL    HW315964   2.458   2.150   2.315
 3911SOL    MW415965   2.522   2.141   2.373
 3912SOL     OW15966   2.610   3.056   2.557
 3912SOL    HW215967   2.690   3.059   2.609
 3912SOL    HW315968   2.638   3.023   2.471
 3912SOL    MW415969   2.624   3.052   2.552
 3913SOL     OW15970   2.635   3.397   3.460
 3913SOL    HW215971   2.719   3.423   3.499
 3913SOL    HW315972   2.659   3.341   3.386
 3913SOL    MW415973   2.649   3.393   3.455
 3914SOL     OW15974   2.387   2.560   2.548
 3914SOL    HW215975   2.372   2.480   2.599
 3914SOL    HW315976   2.469   2.595   2.582
 3914SOL    MW415977   2.395   2.552   2.560
 3915SOL     OW15978   2.724   3.246   3.233
 3915SOL    HW215979   2.688   3.312   3.173
 3915SOL    HW315980   2.652   3.184   3.246
 3915SOL    MW415981   2.710   3.246   3.227
 3916SOL     OW15982   2.529   2.386   2.925
 3916SOL    HW215983   2.435   2.382   2.943
 3916SOL    HW315984   2.559   2.295   2.934
 3916SOL    MW415985   2.520   2.374   2.928
 3917SOL     OW15986   2.275   2.800   2.829
 3917SOL    HW215987   2.230   2.807   2.745
 3917SOL    HW315988   2.255   2.883   2.873
 3917SOL    MW415989   2.267   2.812   2.823
 3918SOL     OW15990   1.972   3.646   2.704
 3918SOL    HW215991   2.061   3.638   2.739
 3918SOL    HW315992   1.936   3.558   2.709
 3918SOL    MW415993   1.979   3.633   2.709
 3919SOL     OW15994   3.237   3.038   2.073
 3919SOL    HW215995   3.155   3.074   2.039
 3919SOL    HW315996   3.305   3.081   2.022
 3919SOL    MW415997   3.235   3.048   2.061
 3920SOL     OW15998   2.236   3.173   2.739
 3920SOL    HW215999   2.212   3.226   2.815
 3920SOL    HW316000   2.292   3.231   2.687
 3920SOL    MW416001   2.240   3.188   2.742
 3921SOL     OW16002   2.798   2.817   2.549
 3921SOL    HW216003   2.712   2.804   2.589
 3921SOL    HW316004   2.851   2.744   2.581
 3921SOL    MW416005   2.794   2.806   2.558
 3922SOL     OW16006   2.206   3.469   3.334
 3922SOL    HW216007   2.114   3.445   3.319
 3922SOL    HW316008   2.250   3.386   3.351
 3922SOL    MW416009   2.200   3.454   3.333
 3923SOL     OW16010   2.789   3.179   2.266
 3923SOL    HW216011   2.766   3.241   2.334
 3923SOL    HW316012   2.746   3.097   2.292
 3923SOL    MW416013   2.781   3.175   2.277
 3924SOL     OW16014   3.662   2.180   2.722
 3924SOL    HW216015   3.599   2.160   2.791
 3924SOL    HW316016   3.652   2.109   2.659
 3924SOL    MW416017   3.652   2.167   2.723
 3925SOL     OW16018   2.286   2.152   2.234
 3925SOL    HW216019   2.260   2.114   2.150
 3925SOL    HW316020   2.223   2.222   2.250
 3925SOL    MW416021   2.275   2.155   2.225
 3926SOL     OW16022   2.121   3.113   2.271
 3926SOL    HW216023   2.069   3.181   2.227
 3926SOL    HW316024   2.118   3.039   2.211
 3926SOL    MW416025   2.113   3.112   2.258
 3927SOL     OW16026   2.783   3.576   2.049
 3927SOL    HW216027   2.738   3.592   2.132
 3927SOL    HW316028   2.714   3.541   1.991
 3927SOL    MW416029   2.769   3.573   2.051
 3928SOL     OW16030   3.718   2.349   2.024
 3928SOL    HW216031   3.627   2.351   2.052
 3928SOL    HW316032   3.763   2.411   2.082
 3928SOL    MW416033   3.711   2.357   2.034
 3929SOL     OW16034   3.463   2.952   2.374
 3929SOL    HW216035   3.373   2.952   2.409
 3929SOL    HW316036   3.456   2.998   2.291
 3929SOL    MW416037   3.450   2.958   2.368
 3930SOL     OW16038   3.263   2.587   3.446
 3930SOL    HW216039   3.332   2.525   3.423
 3930SOL    HW316040   3.188   2.561   3.393
 3930SOL    MW416041   3.263   2.574   3.437
 3931SOL     OW16042   2.004   3.467   2.998
 3931SOL    HW216043   1.987   3.413   3.075
 3931SOL    HW316044   1.992   3.557   3.028
 3931SOL    MW416045   2.001   3.471   3.012
 3932SOL     OW16046   2.999   2.974   3.438
 3932SOL    HW216047   2.984   3.067   3.423
 3932SOL    HW316048   3.094   2.964   3.438
 3932SOL    MW416049   3.008   2.984   3.435
 3933SOL     OW16050   2.795   2.398   3.639
 3933SOL    HW216051   2.885   2.399   3.606
 3933SOL    HW316052   2.754   2.323   3.597
 3933SOL    MW416053   2.801   2.388   3.630
 3934SOL     OW16054   3.370   2.930   2.766
 3934SOL    HW216055   3.373   2.864   2.697
 3934SOL    HW316056   3.455   2.973   2.762
 3934SOL    MW416057   3.382   2.926   2.757
 3935SOL     OW16058   2.990   2.533   2.335
 3935SOL    HW216059   3.016   2.557   2.246
 3935SOL    HW316060   2.972   2.440   2.331
 3935SOL    MW416061   2.992   2.525   2.322
 3936SOL     OW16062   3.655   3.153   2.186
 3936SOL    HW216063   3.611   3.194   2.261
 3936SOL    HW316064   3.712   3.221   2.151
 3936SOL    MW416065   3.657   3.167   2.191
 3937SOL     OW16066   2.575   2.202   3.589
 3937SOL    HW216067   2.585   2.128   3.529
 3937SOL    HW316068   2.611   2.171   3.672
 3937SOL    MW416069   2.581   2.188   3.591
 3938SOL     OW16070   2.311   3.569   2.504
 3938SOL    HW216071   2.343   3.657   2.482
 3938SOL    HW316072   2.264   3.541   2.426
 3938SOL    MW416073   2.310   3.577   2.491
 3939SOL     OW16074   3.695   1.931   2.553
 3939SOL    HW216075   3.749   1.882   2.615
 3939SOL    HW316076   3.638   1.865   2.514
 3939SOL    MW416077   3.695   1.915   2.555
 3940SOL     OW16078   2.027   3.629   2.081
 3940SOL    HW216079   2.056   3.719   2.073
 3940SOL    HW316080   1.977   3.612   2.002
 3940SOL    MW416081   2.025   3.637   2.070
 3941SOL     OW16082   2.814   1.884   2.966
 3941SOL    HW216083   2.773   1.962   2.928
 3941SOL    HW316084   2.908   1.902   2.961
 3941SOL    MW416085   2.820   1.896   2.961
 3942SOL     OW16086   3.431   3.437   2.052
 3942SOL    HW216087   3.479   3.506   2.098
 3942SOL    HW316088   3.352   3.481   2.021
 3942SOL    MW416089   3.426   3.451   2.055
 3943SOL     OW16090   2.829   2.562   1.996
 3943SOL    HW216091   2.831   2.509   1.917
 3943SOL    HW316092   2.917   2.599   2.002
 3943SOL    MW416093   2.841   2.561   1.985
 3944SOL     OW16094   3.443   2.488   2.332
 3944SOL    HW216095   3.482   2.488   2.419
 3944SOL    HW316096   3.384   2.564   2.332
 3944SOL    MW416097   3.440   2.499   2.343
 3945SOL     OW16098   2.760   2.855   3.461
 3945SOL    HW216099   2.737   2.835   3.551
 3945SOL    HW316100   2.845   2.899   3.466
 3945SOL    MW416101   2.767   2.858   3.473
 3946SOL     OW16102   2.840   1.992   3.221
 3946SOL    HW216103   2.846   1.954   3.134
 3946SOL    HW316104   2.829   2.086   3.206
 3946SOL    MW416105   2.841   2.000   3.209
 3947SOL     OW16106   2.929   2.481   3.055
 3947SOL    HW216107   3.004   2.510   3.002
 3947SOL    HW316108   2.861   2.546   3.039
 3947SOL    MW416109   2.930   2.493   3.045
 3948SOL     OW16110   3.479   2.449   3.332
 3948SOL    HW216111   3.460   2.358   3.311
 3948SOL    HW316112   3.457   2.498   3.253
 3948SOL    MW416113   3.474   2.442   3.319
 3949SOL     OW16114   3.621   3.543   3.236
 3949SOL    HW216115   3.549   3.505   3.287
 3949SOL    HW316116   3.638   3.628   3.277
 3949SOL    MW416117   3.615   3.548   3.248
 3950SOL     OW16118   2.926   2.187   3.438
 3950SOL    HW216119   2.892   2.226   3.357
 3950SOL    HW316120   2.904   2.095   3.431
 3950SOL    MW416121   2.919   2.180   3.428
 3951SOL     OW16122   3.335   3.001   3.514
 3951SOL    HW216123   3.417   3.042   3.544
 3951SOL    HW316124   3.298   2.963   3.594
 3951SOL    MW416125   3.341   3.002   3.529
 3952SOL     OW16126   3.630   2.374   2.498
 3952SOL    HW216127   3.719   2.343   2.515
 3952SOL    HW316128   3.573   2.314   2.546
 3952SOL    MW416129   3.633   2.362   2.507
 3953SOL     OW16130   2.056   2.088   2.527
 3953SOL    HW216131   2.047   2.028   2.453
 3953SOL    HW316132   1.989   2.059   2.590
 3953SOL    MW416133   2.046   2.075   2.525
 3954SOL     OW16134   2.999   3.181   2.088
 3954SOL    HW216135   2.949   3.183   2.170
 3954SOL    HW316136   2.933   3.199   2.020
 3954SOL    MW416137   2.985   3.183   2.090
 3955SOL     OW16138   2.003   2.261   2.890
 3955SOL    HW216139   1.975   2.352   2.899
 3955SOL    HW316140   1.940   2.222   2.829
 3955SOL    MW416141   1.990   2.267   2.884
 3956SOL     OW16142   2.462   3.599   2.196
 3956SOL    HW216143   2.383   3.557   2.229
 3956SOL    HW316144   2.528   3.582   2.263
 3956SOL    MW416145   2.461   3.591   2.209
 3957SOL     OW16146   3.590   3.119   3.593
 3957SOL    HW216147   3.640   3.045   3.625
 3957SOL    HW316148   3.536   3.146   3.668
 3957SOL    MW416149   3.590   3.113   3.606
 3958SOL     OW16150   2.598   3.014   1.903
 3958SOL    HW216151   2.520   2.960   1.890
 3958SOL    HW316152   2.569   3.087   1.956
 3958SOL    MW416153   2.584   3.016   1.908
 3959SOL     OW16154   3.724   2.754   3.095
 3959SOL    HW216155   3.740   2.792   3.008
 3959SOL    HW316156   3.758   2.820   3.156
 3959SOL    MW416157   3.731   2.767   3.091
 3960SOL     OW16158   3.516   3.463   2.764
 3960SOL    HW216159   3.545   3.530   2.825
 3960SOL    HW316160   3.497   3.387   2.819
 3960SOL    MW416161   3.518   3.463   2.779
 3961SOL     OW16162   3.179   3.530   1.971
 3961SOL    HW216163   3.105   3.493   2.021
 3961SOL    HW316164   3.187   3.620   2.004
 3961SOL    MW416165   3.170   3.537   1.983
 3962SOL     OW16166   1.987   2.536   3.060
 3962SOL    HW216167   2.049   2.566   3.126
 3962SOL    HW316168   1.921   2.605   3.054
 3962SOL    MW416169   1.986   2.549   3.067
 3963SOL     OW16170   3.403   3.204   1.913
 3963SOL    HW216171   3.350   3.253   1.849
 3963SOL    HW316172   3.434   3.270   1.974
 3963SOL    MW416173   3.401   3.218   1.911
 3964SOL     OW16174   2.628   2.093   1.968
 3964SOL    HW216175   2.576   2.013   1.956
 3964SOL    HW316176   2.715   2.070   1.936
 3964SOL    MW416177   2.631   2.079   1.962
 3965SOL     OW16178   2.082   3.645   3.512
 3965SOL    HW216179   2.056   3.713   3.450
 3965SOL    HW316180   2.130   3.582   3.460
 3965SOL    MW416181   2.084   3.645   3.498
 3966SOL     OW16182   2.134   2.964   3.019
 3966SOL    HW216183   2.187   3.039   3.044
 3966SOL    HW316184   2.053   3.002   2.985
 3966SOL    MW416185   2.130   2.979   3.019
 3967SOL     OW16186   2.674   2.868   3.007
 3967SOL    HW216187   2.702   2.777   3.019
 3967SOL    HW316188   2.603   2.862   2.943
 3967SOL    MW416189   2.667   2.856   3.002
 3968SOL     OW16190   1.989   2.733   2.425
 3968SOL    HW216191   2.080   2.748   2.452
 3968SOL    HW316192   1.992   2.654   2.371
 3968SOL    MW416193   2.001   2.725   2.423
 3969SOL     OW16194   2.225   2.441   3.679
 3969SOL    HW216195   2.172   2.521   3.686
 3969SOL    HW316196   2.295   2.453   3.744
 3969SOL    MW416197   2.227   2.454   3.687
 3970SOL     OW16198   2.611   1.991   3.386
 3970SOL    HW216199   2.588   1.899   3.388
 3970SOL    HW316200   2.697   1.993   3.343
 3970SOL    MW416201   2.618   1.981   3.382
 3971SOL     OW16202   2.295   2.515   3.425
 3971SOL    HW216203   2.375   2.565   3.411
 3971SOL    HW316204   2.286   2.509   3.520
 3971SOL    MW416205   2.304   2.521   3.435
 3972SOL     OW16206   2.616   3.665   2.799
 3972SOL    HW216207   2.705   3.680   2.829
 3972SOL    HW316208   2.611   3.712   2.715
 3972SOL    MW416209   2.626   3.673   2.792
 3973SOL     OW16210   3.272   2.040   3.696
 3973SOL    HW216211   3.328   1.967   3.722
 3973SOL    HW316212   3.242   2.078   3.778
 3973SOL    MW416213   3.276   2.035   3.709
 3974SOL     OW16214   1.997   3.345   2.464
 3974SOL    HW216215   1.969   3.384   2.546
 3974SOL    HW316216   2.017   3.254   2.486
 3974SOL    MW416217   1.995   3.337   2.477
 3975SOL     OW16218   2.830   3.388   2.499
 3975SOL    HW216219   2.913   3.342   2.483
 3975SOL    HW316220   2.820   3.387   2.595
 3975SOL    MW416221   2.840   3.381   2.509
 3976SOL     OW16222   3.662   2.533   2.813
 3976SOL    HW216223   3.751   2.563   2.795
 3976SOL    HW316224   3.642   2.473   2.742
 3976SOL    MW416225   3.671   2.530   2.802
 3977SOL     OW16226   3.513   2.712   3.693
 3977SOL    HW216227   3.568   2.636   3.674
 3977SOL    HW316228   3.515   2.720   3.788
 3977SOL    MW416229   3.521   2.703   3.701
 3978SOL     OW16230   2.563   3.445   1.904
 3978SOL    HW216231   2.503   3.514   1.874
 3978SOL    HW316232   2.508   3.387   1.957
 3978SOL    MW416233   2.547   3.447   1.906
 3979SOL     OW16234   3.001   2.090   2.127
 3979SOL    HW216235   2.934   2.066   2.064
 3979SOL    HW316236   3.066   2.139   2.076
 3979SOL    MW416237   3.001   2.092   2.112
 3980SOL     OW16238   2.808   2.274   3.212
 3980SOL    HW216239   2.727   2.315   3.240
 3980SOL    HW316240   2.855   2.342   3.164
 3980SOL    MW416241   2.803   2.289   3.210
 3981SOL     OW16242   3.068   2.612   2.835
 3981SOL    HW216243   3.081   2.706   2.845
 3981SOL    HW316244   3.029   2.602   2.749
 3981SOL    MW416245   3.064   2.623   2.825
 3982SOL     OW16246   2.520   2.807   2.639
 3982SOL    HW216247   2.431   2.798   2.672
 3982SOL    HW316248   2.524   2.897   2.607
 3982SOL    MW416249   2.509   2.818   2.639
 3983SOL     OW16250   3.319   2.390   2.634
 3983SOL    HW216251   3.264   2.311   2.633
 3983SOL    HW316252   3.301   2.431   2.718
 3983SOL    MW416253   3.309   2.385   2.643
 3984SOL     OW16254   2.290   2.077   3.451
 3984SOL    HW216255   2.211   2.095   3.503
 3984SOL    HW316256   2.285   2.139   3.378
 3984SOL    MW416257   2.280   2.087   3.448
 3985SOL     OW16258   2.938   2.594   2.591
 3985SOL    HW216259   2.875   2.526   2.615
 3985SOL    HW316260   2.958   2.575   2.499
 3985SOL    MW416261   2.932   2.581   2.583
 3986SOL     OW16262   2.194   3.489   2.293
 3986SOL    HW216263   2.155   3.536   2.219
 3986SOL    HW316264   2.128   3.424   2.318
 3986SOL    MW416265   2.181   3.487   2.287
 3987SOL     OW16266   2.686   2.898   2.317
 3987SOL    HW216267   2.688   2.872   2.224
 3987SOL    HW316268   2.744   2.835   2.360
 3987SOL    MW416269   2.694   2.887   2.311
 3988SOL     OW16270   3.239   3.458   3.089
 3988SOL    HW216271   3.164   3.504   3.127
 3988SOL    HW316272   3.221   3.365   3.106
 3988SOL    MW416273   3.228   3.452   3.097
 3989SOL     OW16274   3.243   3.666   2.519
 3989SOL    HW216275   3.186   3.619   2.458
 3989SOL    HW316276   3.329   3.627   2.506
 3989SOL    MW416277   3.246   3.657   2.509
 3990SOL     OW16278   3.196   2.142   2.650
 3990SOL    HW216279   3.224   2.074   2.711
 3990SOL    HW316280   3.110   2.113   2.620
 3990SOL    MW416281   3.189   2.129   2.654
 3991SOL     OW16282   2.001   3.076   2.584
 3991SOL    HW216283   2.065   3.108   2.647
 3991SOL    HW316284   2.050   3.012   2.532
 3991SOL    MW416285   2.016   3.072   2.585
 3992SOL     OW16286   2.501   3.152   3.566
 3992SOL    HW216287   2.549   3.235   3.553
 3992SOL    HW316288   2.558   3.100   3.622
 3992SOL    MW416289   2.515   3.156   3.572
 3993SOL     OW16290   2.077   3.394   3.706
 3993SOL    HW216291   2.133   3.318   3.721
 3993SOL    HW316292   2.026   3.372   3.628
 3993SOL    MW416293   2.077   3.381   3.697
 3994SOL     OW16294   3.176   2.246   1.985
 3994SOL    HW216295   3.149   2.312   1.921
 3994SOL    HW316296   3.246   2.289   2.035
 3994SOL    MW416297   3.181   2.259   1.982
 3995SOL     OW16298   2.844   1.951   1.922
 3995SOL    HW216299   2.900   1.943   1.844
 3995SOL    HW316300   2.821   1.861   1.944
 3995SOL    MW416301   2.849   1.938   1.915
 3996SOL     OW16302   3.349   2.802   2.127
 3996SOL    HW216303   3.316   2.891   2.117
 3996SOL    HW316304   3.314   2.773   2.212
 3996SOL    MW416305   3.339   2.811   2.138
 3997SOL     OW16306   2.962   3.231   3.315
 3997SOL    HW216307   2.873   3.237   3.283
 3997SOL    HW316308   3.006   3.310   3.283
 3997SOL    MW416309   2.957   3.241   3.307
 3998SOL     OW16310   2.255   1.899   3.657
 3998SOL    HW216311   2.183   1.864   3.605
 3998SOL    HW316312   2.313   1.940   3.592
 3998SOL    MW416313   2.253   1.900   3.642
 3999SOL     OW16314   2.279   3.389   2.956
 3999SOL    HW216315   2.324   3.451   3.013
 3999SOL    HW316316   2.186   3.408   2.969
 3999SOL    MW416317   2.272   3.399   2.963
 4000SOL     OW16318   3.719   2.918   3.310
 4000SOL    HW216319   3.634   2.931   3.269
 4000SOL    HW316320   3.699   2.882   3.397
 4000SOL    MW416321   3.706   2.914   3.315
 4001SOL     OW16322   2.701   3.457   3.064
 4001SOL    HW216323   2.725   3.446   2.973
 4001SOL    HW316324   2.624   3.514   3.062
 4001SOL    MW416325   2.693   3.462   3.053
 4002SOL     OW16326   2.343   2.840   1.919
 4002SOL    HW216327   2.266   2.853   1.975
 4002SOL    HW316328   2.307   2.804   1.838
 4002SOL    MW416329   2.329   2.836   1.916
 4003SOL     OW16330   2.996   2.813   2.162
 4003SOL    HW216331   2.906   2.834   2.137
 4003SOL    HW316332   3.023   2.886   2.218
 4003SOL    MW416333   2.988   2.825   2.165
 4004SOL     OW16334   2.496   3.162   2.854
 4004SOL    HW216335   2.489   3.141   2.948
 4004SOL    HW316336   2.414   3.130   2.817
 4004SOL    MW416337   2.484   3.156   2.861
 4005SOL     OW16338   3.360   2.172   3.256
 4005SOL    HW216339   3.307   2.174   3.336
 4005SOL    HW316340   3.345   2.085   3.219
 4005SOL    MW416341   3.352   2.162   3.261
 4006SOL     OW16342   3.696   2.096   3.129
 4006SOL    HW216343   3.677   2.163   3.064
 4006SOL    HW316344   3.753   2.034   3.084
 4006SOL    MW416345   3.700   2.097   3.115
 4007SOL     OW16346   1.942   3.254   3.517
 4007SOL    HW216347   1.986   3.187   3.463
 4007SOL    HW316348   1.857   3.216   3.537
 4007SOL    MW416349   1.937   3.240   3.513
 4008SOL     OW16350   2.625   1.929   2.569
 4008SOL    HW216351   2.554   1.990   2.551
 4008SOL    HW316352   2.676   1.926   2.488
 4008SOL    MW416353   2.621   1.935   2.556
 4009SOL     OW16354   2.383   3.169   2.318
 4009SOL    HW216355   2.376   3.201   2.408
 4009SOL    HW316356   2.293   3.153   2.290
 4009SOL    MW416357   2.371   3.171   2.325
 4010SOL     OW16358   2.978   3.562   3.227
 4010SOL    HW216359   2.898   3.547   3.177
 4010SOL    HW316360   2.985   3.657   3.234
 4010SOL    MW416361   2.969   3.573   3.221
 4011SOL     OW16362   3.092   3.527   2.717
 4011SOL    HW216363   3.139   3.600   2.676
 4011SOL    HW316364   3.013   3.566   2.753
 4011SOL    MW416365   3.087   3.542   2.716
 4012SOL     OW16366   3.500   3.622   2.992
 4012SOL    HW216367   3.543   3.592   3.072
 4012SOL    HW316368   3.419   3.570   2.989
 4012SOL    MW416369   3.495   3.611   3.002
 4013SOL     OW16370   2.585   2.586   3.699
 4013SOL    HW216371   2.655   2.528   3.671
 4013SOL    HW316372   2.528   2.531   3.754
 4013SOL    MW416373   2.587   2.573   3.703
 4014SOL     OW16374   3.372   2.798   3.332
 4014SOL    HW216375   3.377   2.851   3.412
 4014SOL    HW316376   3.334   2.715   3.360
 4014SOL    MW416377   3.368   2.793   3.347
 4015SOL     OW16378   3.012   1.933   3.578
 4015SOL    HW216379   3.007   1.840   3.559
 4015SOL    HW316380   3.095   1.944   3.624
 4015SOL    MW416381   3.020   1.922   3.582
 4016SOL     OW16382   2.386   2.453   2.032
 4016SOL    HW216383   2.352   2.509   2.102
 4016SOL    HW316384   2.457   2.403   2.072
 4016SOL    MW416385   2.392   2.454   2.046
 4017SOL     OW16386   3.482   3.204   2.854
 4017SOL    HW216387   3.517   3.186   2.767
 4017SOL    HW316388   3.387   3.205   2.841
 4017SOL    MW416389   3.474   3.201   2.841
 4018SOL     OW16390   2.911   2.852   3.223
 4018SOL    HW216391   2.954   2.887   3.301
 4018SOL    HW316392   2.894   2.929   3.169
 4018SOL    MW416393   2.914   2.867   3.226
 4019SOL     OW16394   3.442   2.339   2.096
 4019SOL    HW216395   3.434   2.410   2.033
 4019SOL    HW316396   3.460   2.383   2.179
 4019SOL    MW416397   3.443   2.353   2.098
 4020SOL     OW16398   2.302   1.994   2.525
 4020SOL    HW216399   2.352   2.037   2.456
 4020SOL    HW316400   2.217   2.038   2.525
 4020SOL    MW416401   2.299   2.007   2.516
 4021SOL     OW16402   2.061   3.056   3.385
 4021SOL    HW216403   2.089   3.009   3.463
 4021SOL    HW316404   1.982   3.011   3.356
 4021SOL    MW416405   2.054   3.045   3.391
 4022SOL     OW16406   2.569   2.383   3.352
 4022SOL    HW216407   2.541   2.471   3.376
 4022SOL    HW316408   2.538   2.327   3.423
 4022SOL    MW416409   2.561   2.386   3.364
 4023SOL     OW16410   3.111   2.601   2.071
 4023SOL    HW216411   3.158   2.619   1.990
 4023SOL    HW316412   3.077   2.685   2.099
 4023SOL    MW416413   3.113   2.615   2.064
 4024SOL     OW16414   2.224   2.779   2.565
 4024SOL    HW216415   2.282   2.835   2.513
 4024SOL    HW316416   2.268   2.694   2.567
 4024SOL    MW416417   2.237   2.776   2.558
 4025SOL     OW16418   2.950   2.093   2.561
 4025SOL    HW216419   2.970   2.168   2.505
 4025SOL    HW316420   2.930   2.132   2.646
 4025SOL    MW416421   2.951   2.109   2.565
 4026SOL     OW16422   2.846   3.343   1.893
 4026SOL    HW216423   2.873   3.421   1.845
 4026SOL    HW316424   2.753   3.358   1.912
 4026SOL    MW416425   2.837   3.356   1.889
 4027SOL     OW16426   3.710   2.866   3.580
 4027SOL    HW216427   3.623   2.846   3.616
 4027SOL    HW316428   3.764   2.792   3.605
 4027SOL    MW416429   3.705   2.855   3.588
 4028SOL     OW16430   1.931   3.379   2.737
 4028SOL    HW216431   1.963   3.383   2.828
 4028SOL    HW316432   1.836   3.387   2.745
 4028SOL    MW416433   1.923   3.382   2.750
 4029SOL     OW16434   1.886   2.505   2.284
 4029SOL    HW216435   1.826   2.477   2.354
 4029SOL    HW316436   1.960   2.445   2.290
 4029SOL    MW416437   1.888   2.494   2.293
 4030SOL     OW16438   3.454   3.717   3.718
 4030SOL    HW216439   3.499   3.641   3.683
 4030SOL    HW316440   3.492   3.730   3.805
 4030SOL    MW416441   3.464   3.710   3.724
 4031SOL     OW16442   3.054   3.236   2.444
 4031SOL    HW216443   3.077   3.187   2.522
 4031SOL    HW316444   3.135   3.278   2.416
 4031SOL    MW416445   3.067   3.236   2.451
 4032SOL     OW16446   2.312   2.244   3.173
 4032SOL    HW216447   2.345   2.325   3.213
 4032SOL    HW316448   2.285   2.270   3.085
 4032SOL    MW416449   2.311   2.258   3.167
 4033SOL     OW16450   2.266   2.211   2.909
 4033SOL    HW216451   2.296   2.125   2.880
 4033SOL    HW316452   2.171   2.204   2.912
 4033SOL    MW416453   2.258   2.200   2.907
 4034SOL     OW16454   3.095   2.420   3.600
 4034SOL    HW216455   3.147   2.355   3.553
 4034SOL    HW316456   3.053   2.471   3.530
 4034SOL    MW416457   3.096   2.417   3.583
 4035SOL     OW16458   3.194   2.215   3.461
 4035SOL    HW216459   3.101   2.199   3.448
 4035SOL    HW316460   3.220   2.153   3.529
 4035SOL    MW416461   3.184   2.205   3.468
 4036SOL     OW16462   2.409   1.989   2.800
 4036SOL    HW216463   2.419   1.898   2.826
 4036SOL    HW316464   2.365   1.985   2.715
 4036SOL    MW416465   2.405   1.977   2.792
 4037SOL     OW16466   2.503   3.604   3.346
 4037SOL    HW216467   2.420   3.589   3.391
 4037SOL    HW316468   2.562   3.537   3.381
 4037SOL    MW416469   2.501   3.594   3.356
 4038SOL     OW16470   3.560   2.311   2.971
 4038SOL    HW216471   3.493   2.344   3.031
 4038SOL    HW316472   3.603   2.389   2.937
 4038SOL    MW416473   3.558   2.326   2.975
 4039SOL     OW16474   3.738   3.031   2.941
 4039SOL    HW216475   3.731   2.971   2.866
 4039SOL    HW316476   3.664   3.091   2.930
 4039SOL    MW416477   3.728   3.031   2.930
 4040SOL     OW16478   3.120   2.893   2.859
 4040SOL    HW216479   3.134   2.865   2.950
 4040SOL    HW316480   3.206   2.924   2.831
 4040SOL    MW416481   3.133   2.894   2.868
 4041SOL     OW16482   3.203   2.388   3.138
 4041SOL    HW216483   3.224   2.389   3.045
 4041SOL    HW316484   3.248   2.310   3.171
 4041SOL    MW416485   3.210   2.378   3.130
 4042SOL     OW16486   3.696   2.519   3.680
 4042SOL    HW216487   3.733   2.464   3.749
 4042SOL    HW316488   3.721   2.476   3.598
 4042SOL    MW416489   3.703   2.507   3.679
 4043SOL     OW16490   3.243   2.817   3.731
 4043SOL    HW216491   3.309   2.765   3.685
 4043SOL    HW316492   3.263   2.804   3.824
 4043SOL    MW416493   3.254   2.808   3.738
 4044SOL     OW16494   3.194   1.903   2.080
 4044SOL    HW216495   3.268   1.947   2.123
 4044SOL    HW316496   3.118   1.957   2.102
 4044SOL    MW416497   3.194   1.915   2.088
 4045SOL     OW16498   3.254   2.678   2.358
 4045SOL    HW216499   3.169   2.648   2.328
 4045SOL    HW316500   3.246   2.685   2.453
 4045SOL    MW416501   3.242   2.676   2.367
 4046SOL     OW16502   2.330   3.141   3.089
 4046SOL    HW216503   2.342   3.168   3.180
 4046SOL    HW316504   2.311   3.222   3.042
 4046SOL    MW416505   2.329   3.156   3.094
 4047SOL     OW16506   2.614   2.121   2.912
 4047SOL    HW216507   2.587   2.123   3.003
 4047SOL    HW316508   2.544   2.073   2.867
 4047SOL    MW416509   2.602   2.117   2.919
 4048SOL     OW16510   2.468   3.613   3.074
 4048SOL    HW216511   2.520   3.690   3.051
 4048SOL    HW316512   2.477   3.605   3.169
 4048SOL    MW416513   2.477   3.620   3.085
 4049SOL     OW16514   3.370   3.198   3.306
 4049SOL    HW216515   3.355   3.127   3.369
 4049SOL    HW316516   3.416   3.156   3.234
 4049SOL    MW416517   3.376   3.182   3.306
 4050SOL     OW16518   2.444   2.929   3.423
 4050SOL    HW216519   2.481   2.934   3.335
 4050SOL    HW316520   2.483   3.002   3.470
 4050SOL    MW416521   2.454   2.939   3.418
 4051SOL     OW16522   2.624   2.972   3.235
 4051SOL    HW216523   2.683   2.918   3.288
 4051SOL    HW316524   2.639   2.944   3.145
 4051SOL    MW416525   2.634   2.961   3.231
 4052SOL     OW16526   2.627   2.344   2.084
 4052SOL    HW216527   2.700   2.393   2.047
 4052SOL    HW316528   2.643   2.253   2.058
 4052SOL    MW416529   2.639   2.339   2.077
 4053SOL     OW16530   3.435   3.461   3.407
 4053SOL    HW216531   3.477   3.446   3.492
 4053SOL    HW316532   3.426   3.374   3.369
 4053SOL    MW416533   3.439   3.449   3.414
 4054SOL     OW16534   3.095   1.940   2.998
 4054SOL    HW216535   3.150   1.949   2.920
 4054SOL    HW316536   3.150   1.974   3.069
 4054SOL    MW416537   3.109   1.945   2.997
 4055SOL     OW16538   2.102   2.853   2.182
 4055SOL    HW216539   2.039   2.869   2.111
 4055SOL    HW316540   2.049   2.816   2.253
 4055SOL    MW416541   2.087   2.850   2.182
 4056SOL     OW16542   2.458   3.207   2.041
 4056SOL    HW216543   2.473   3.183   2.133
 4056SOL    HW316544   2.366   3.185   2.025
 4056SOL    MW416545   2.448   3.200   2.051
 4057SOL     OW16546   2.997   3.438   2.193
 4057SOL    HW216547   3.005   3.356   2.144
 4057SOL    HW316548   2.916   3.477   2.160
 4057SOL    MW416549   2.987   3.433   2.183
 4058SOL     OW16550   2.256   3.596   2.762
 4058SOL    HW216551   2.260   3.507   2.797
 4058SOL    HW316552   2.282   3.587   2.671
 4058SOL    MW416553   2.259   3.584   2.754
 4059SOL     OW16554   2.873   3.074   3.005
 4059SOL    HW216555   2.805   3.008   3.021
 4059SOL    HW316556   2.891   3.068   2.912
 4059SOL    MW416557   2.866   3.065   2.996
 4060SOL     OW16558   1.962   3.349   3.256
 4060SOL    HW216559   1.952   3.307   3.342
 4060SOL    HW316560   1.883   3.402   3.246
 4060SOL    MW416561   1.951   3.350   3.267
 4061SOL     OW16562   2.866   2.213   2.826
 4061SOL    HW216563   2.796   2.165   2.871
 4061SOL    HW316564   2.898   2.276   2.890
 4061SOL    MW416565   2.861   2.215   2.840
 4062SOL     OW16566   2.517   2.649   3.446
 4062SOL    HW216567   2.510   2.744   3.434
 4062SOL    HW316568   2.526   2.638   3.541
 4062SOL    MW416569   2.518   2.661   3.456
 4063SOL     OW16570   2.238   3.164   3.704
 4063SOL    HW216571   2.310   3.166   3.641
 4063SOL    HW316572   2.208   3.073   3.703
 4063SOL    MW416573   2.243   3.153   3.696
 4064SOL     OW16574   3.322   1.927   3.171
 4064SOL    HW216575   3.393   1.873   3.135
 4064SOL    HW316576   3.321   1.906   3.264
 4064SOL    MW416577   3.331   1.918   3.179
 4065SOL     OW16578   3.522   3.457   3.655
 4065SOL    HW216579   3.495   3.454   3.746
 4065SOL    HW316580   3.618   3.461   3.658
 4065SOL    MW416581   3.532   3.457   3.667
 4066SOL     OW16582   2.333   2.319   2.639
 4066SOL    HW216583   2.404   2.267   2.602
 4066SOL    HW316584   2.319   2.284   2.726
 4066SOL    MW416585   2.341   2.308   2.646
 4067SOL     OW16586   1.888   3.654   3.711
 4067SOL    HW216587   1.938   3.632   3.633
 4067SOL    HW316588   1.896   3.749   3.719
 4067SOL    MW416589   1.896   3.663   3.702
 4068SOL     OW16590   2.649   3.412   2.715
 4068SOL    HW216591   2.577   3.349   2.728
 4068SOL    HW316592   2.610   3.497   2.733
 4068SOL    MW416593   2.633   3.415   2.718
 4069SOL     OW16594   2.969   2.260   2.363
 4069SOL    HW216595   2.991   2.197   2.295
 4069SOL    HW316596   2.874   2.252   2.374
 4069SOL    MW416597   2.959   2.251   2.355
 4070SOL     OW16598   2.054   1.950   2.295
 4070SOL    HW216599   2.125   1.971   2.234
 4070SOL    HW316600   2.008   1.878   2.253
 4070SOL    MW416601   2.058   1.944   2.281
 4071SOL     OW16602   1.885   2.417   3.438
 4071SOL    HW216603   1.949   2.483   3.413
 4071SOL    HW316604   1.804   2.444   3.395
 4071SOL    MW416605   1.883   2.429   3.430
 4072SOL     OW16606   3.623   3.324   2.395
 4072SOL    HW216607   3.593   3.257   2.456
 4072SOL    HW316608   3.717   3.330   2.409
 4072SOL    MW416609   3.631   3.316   2.405
 4073SOL     OW16610   3.179   3.001   2.325
 4073SOL    HW216611   3.151   3.087   2.358
 4073SOL    HW316612   3.207   3.017   2.235
 4073SOL    MW416613   3.179   3.015   2.317
 4074SOL     OW16614   2.841   1.921   2.378
 4074SOL    HW216615   2.878   1.980   2.443
 4074SOL    HW316616   2.818   1.977   2.304
 4074SOL    MW416617   2.842   1.936   2.377
 4075SOL     OW16618   3.694   2.803   2.800
 4075SOL    HW216619   3.685   2.835   2.711
 4075SOL    HW316620   3.647   2.719   2.800
 4075SOL    MW416621   3.687   2.796   2.790
 4076SOL     OW16622   2.070   2.643   3.379
 4076SOL    HW216623   2.091   2.712   3.317
 4076SOL    HW316624   2.150   2.590   3.384
 4076SOL    MW416625   2.083   2.644   3.373
 4077SOL     OW16626   3.606   2.734   2.501
 4077SOL    HW216627   3.700   2.723   2.489
 4077SOL    HW316628   3.582   2.806   2.442
 4077SOL    MW416629   3.616   2.742   2.492
 4078SOL     OW16630   2.055   2.658   3.646
 4078SOL    HW216631   1.981   2.602   3.672
 4078SOL    HW316632   2.050   2.661   3.551
 4078SOL    MW416633   2.044   2.651   3.636
 4079SOL     OW16634   2.221   1.945   3.096
 4079SOL    HW216635   2.264   2.029   3.116
 4079SOL    HW316636   2.294   1.883   3.089
 4079SOL    MW416637   2.236   1.948   3.097
 4080SOL     OW16638   2.262   2.612   2.274
 4080SOL    HW216639   2.262   2.707   2.259
 4080SOL    HW316640   2.339   2.596   2.328
 4080SOL    MW416641   2.272   2.623   2.279
 4081SOL     OW16642   3.038   2.471   3.338
 4081SOL    HW216643   3.074   2.444   3.254
 4081SOL    HW316644   2.951   2.505   3.317
 4081SOL    MW416645   3.032   2.472   3.325
 4082SOL     OW16646   2.021   2.343   2.563
 4082SOL    HW216647   2.083   2.350   2.636
 4082SOL    HW316648   2.021   2.250   2.540
 4082SOL    MW416649   2.029   2.332   2.570
 4083SOL     OW16650   3.568   3.683   2.095
 4083SOL    HW216651   3.635   3.716   2.035
 4083SOL    HW316652   3.525   3.762   2.129
 4083SOL    MW416653   3.570   3.698   2.091
 4084SOL     OW16654   2.703   2.604   3.047
 4084SOL    HW216655   2.661   2.522   3.023
 4084SOL    HW316656   2.704   2.603   3.143
 4084SOL    MW416657   2.696   2.593   3.056
 4085SOL     OW16658   3.374   3.737   3.446
 4085SOL    HW216659   3.377   3.643   3.429
 4085SOL    HW316660   3.397   3.745   3.538
 4085SOL    MW416661   3.377   3.725   3.456
 4086SOL     OW16662   2.507   2.074   3.152
 4086SOL    HW216663   2.438   2.137   3.173
 4086SOL    HW316664   2.534   2.038   3.237
 4086SOL    MW416665   2.501   2.077   3.165
 4087SOL     OW16666   1.890   2.915   2.021
 4087SOL    HW216667   1.859   2.980   2.084
 4087SOL    HW316668   1.839   2.837   2.040
 4087SOL    MW416669   1.880   2.912   2.031
 4088SOL     OW16670   3.302   1.927   2.769
 4088SOL    HW216671   3.390   1.936   2.806
 4088SOL    HW316672   3.312   1.868   2.695
 4088SOL    MW416673   3.316   1.921   2.763
 4089SOL     OW16674   3.334   2.666   2.613
 4089SOL    HW216675   3.414   2.681   2.562
 4089SOL    HW316676   3.327   2.571   2.619
 4089SOL    MW416677   3.343   2.655   2.608
 4090SOL     OW16678   2.474   3.715   1.963
 4090SOL    HW216679   2.379   3.715   1.955
 4090SOL    HW316680   2.490   3.661   2.041
 4090SOL    MW416681   2.464   3.709   1.972
 4091SOL     OW16682   2.784   2.592   3.310
 4091SOL    HW216683   2.853   2.659   3.307
 4091SOL    HW316684   2.717   2.630   3.366
 4091SOL    MW416685   2.785   2.605   3.317
 4092SOL     OW16686   2.202   2.892   3.558
 4092SOL    HW216687   2.156   2.808   3.560
 4092SOL    HW316688   2.259   2.886   3.482
 4092SOL    MW416689   2.204   2.880   3.550
 4093SOL     OW16690   3.319   2.535   1.879
 4093SOL    HW216691   3.247   2.511   1.821
 4093SOL    HW316692   3.385   2.572   1.821
 4093SOL    MW416693   3.318   2.537   1.864
 4094SOL     OW16694   2.453   3.267   2.559
 4094SOL    HW216695   2.518   3.200   2.580
 4094SOL    HW316696   2.505   3.344   2.536
 4094SOL    MW416697   2.468   3.269   2.558
 4095SOL     OW16698   2.714   2.432   2.689
 4095SOL    HW216699   2.654   2.450   2.761
 4095SOL    HW316700   2.748   2.344   2.708
 4095SOL    MW416701   2.710   2.422   2.702
 4096SOL     OW16702   3.655   1.931   3.358
 4096SOL    HW216703   3.576   1.977   3.386
 4096SOL    HW316704   3.690   1.985   3.287
 4096SOL    MW416705   3.649   1.944   3.352
 4097SOL     OW16706   2.939   3.015   2.708
 4097SOL    HW216707   3.031   2.996   2.726
 4097SOL    HW316708   2.912   2.945   2.648
 4097SOL    MW416709   2.947   3.003   2.702
 4098SOL     OW16710   2.732   2.835   2.063
 4098SOL    HW216711   2.718   2.747   2.028
 4098SOL    HW316712   2.683   2.892   2.004
 4098SOL    MW416713   2.724   2.830   2.051
 4099SOL     OW16714   3.213   3.253   2.804
 4099SOL    HW216715   3.186   3.337   2.769
 4099SOL    HW316716   3.173   3.248   2.891
 4099SOL    MW416717   3.206   3.262   2.810
 4100SOL     OW16718   3.132   3.201   3.072
 4100SOL    HW216719   3.143   3.168   3.161
 4100SOL    HW316720   3.051   3.160   3.041
 4100SOL    MW416721   3.122   3.193   3.078
 4101SOL     OW16722   2.145   2.559   2.842
 4101SOL    HW216723   2.095   2.558   2.923
 4101SOL    HW316724   2.165   2.651   2.826
 4101SOL    MW416725   2.141   2.571   2.850
 4102SOL     OW16726   3.212   3.323   3.604
 4102SOL    HW216727   3.212   3.417   3.620
 4102SOL    HW316728   3.257   3.313   3.520
 4102SOL    MW416729   3.218   3.333   3.595
 4103SOL     OW16730   3.451   2.041   2.165
 4103SOL    HW216731   3.444   2.045   2.260
 4103SOL    HW316732   3.463   2.132   2.138
 4103SOL    MW416733   3.452   2.054   2.173
 4104SOL     OW16734   2.740   2.604   2.279
 4104SOL    HW216735   2.720   2.590   2.186
 4104SOL    HW316736   2.833   2.583   2.286
 4104SOL    MW416737   2.750   2.599   2.268
 4105SOL     OW16738   2.067   2.227   3.583
 4105SOL    HW216739   2.024   2.286   3.520
 4105SOL    HW316740   2.135   2.282   3.623
 4105SOL    MW416741   2.071   2.242   3.580
 4106SOL     OW16742   3.179   2.847   3.128
 4106SOL    HW216743   3.242   2.844   3.201
 4106SOL    HW316744   3.095   2.865   3.170
 4106SOL    MW416745   3.175   2.849   3.143
 4107SOL     OW16746   2.723   3.562   2.317
 4107SOL    HW216747   2.781   3.633   2.344
 4107SOL    HW316748   2.746   3.490   2.375
 4107SOL    MW416749   2.734   3.562   2.328
 4108SOL     OW16750   3.518   2.024   2.907
 4108SOL    HW216751   3.563   1.942   2.926
 4108SOL    HW316752   3.538   2.080   2.983
 4108SOL    MW416753   3.528   2.020   2.919
 4109SOL     OW16754   1.966   1.867   3.006
 4109SOL    HW216755   1.957   1.868   2.911
 4109SOL    HW316756   2.060   1.879   3.021
 4109SOL    MW416757   1.978   1.870   2.997
 4110SOL     OW16758   3.603   3.060   2.626
 4110SOL    HW216759   3.582   3.006   2.549
 4110SOL    HW316760   3.699   3.058   2.630
 4110SOL    MW416761   3.612   3.053   2.615
 4111SOL     OW16762   2.295   3.205   3.369
 4111SOL    HW216763   2.216   3.155   3.392
 4111SOL    HW316764   2.365   3.164   3.419
 4111SOL    MW416765   2.293   3.193   3.379
 4112SOL     OW16766   2.179   1.994   2.052
 4112SOL    HW216767   2.108   2.049   2.020
 4112SOL    HW316768   2.221   1.960   1.973
 4112SOL    MW416769   2.175   1.996   2.038
 4113SOL     OW16770   3.303   2.491   2.888
 4113SOL    HW216771   3.226   2.537   2.854
 4113SOL    HW316772   3.360   2.560   2.922
 4113SOL    MW416773   3.300   2.506   2.888
 4114SOL     OW16774   1.935   2.093   1.901
 4114SOL    HW216775   1.902   2.172   1.945
 4114SOL    HW316776   1.990   2.126   1.830
 4114SOL    MW416777   1.938   2.107   1.898
 4115SOL     OW16778   1.969   3.350   2.090
 4115SOL    HW216779   1.986   3.434   2.132
 4115SOL    HW316780   2.004   3.359   2.002
 4115SOL    MW416781   1.974   3.363   2.084
 4116SOL     OW16782   3.241   3.439   2.307
 4116SOL    HW216783   3.304   3.429   2.236
 4116SOL    HW316784   3.158   3.459   2.262
 4116SOL    MW416785   3.238   3.440   2.292
 4117SOL     OW16786   3.604   2.707   3.993
 4117SOL    HW216787   3.645   2.649   4.058
 4117SOL    HW316788   3.511   2.699   4.010
 4117SOL    MW416789   3.598   2.699   4.003
 4118SOL     OW16790   3.470   2.639   4.988
 4118SOL    HW216791   3.425   2.706   5.039
 4118SOL    HW316792   3.558   2.675   4.974
 4118SOL    MW416793   3.476   2.652   4.992
 4119SOL     OW16794   2.398   2.890   4.222
 4119SOL    HW216795   2.488   2.865   4.206
 4119SOL    HW316796   2.394   2.983   4.199
 4119SOL    MW416797   2.410   2.899   4.217
 4120SOL     OW16798   3.514   3.593   4.364
 4120SOL    HW216799   3.526   3.539   4.442
 4120SOL    HW316800   3.551   3.541   4.293
 4120SOL    MW416801   3.520   3.578   4.365
 4121SOL     OW16802   2.893   3.478   5.365
 4121SOL    HW216803   2.934   3.514   5.286
 4121SOL    HW316804   2.928   3.389   5.372
 4121SOL    MW416805   2.904   3.471   5.356
 4122SOL     OW16806   3.450   3.033   4.969
 4122SOL    HW216807   3.371   2.998   4.927
 4122SOL    HW316808   3.477   3.105   4.913
 4122SOL    MW416809   3.443   3.038   4.956
 4123SOL     OW16810   2.682   2.346   4.235
 4123SOL    HW216811   2.657   2.434   4.263
 4123SOL    HW316812   2.679   2.349   4.139
 4123SOL    MW416813   2.678   2.358   4.227
 4124SOL     OW16814   2.124   2.374   4.163
 4124SOL    HW216815   2.156   2.462   4.145
 4124SOL    HW316816   2.112   2.372   4.258
 4124SOL    MW416817   2.127   2.386   4.175
 4125SOL     OW16818   2.202   2.787   5.064
 4125SOL    HW216819   2.265   2.734   5.015
 4125SOL    HW316820   2.183   2.861   5.007
 4125SOL    MW416821   2.208   2.789   5.051
 4126SOL     OW16822   2.523   2.129   4.250
 4126SOL    HW216823   2.581   2.205   4.252
 4126SOL    HW316824   2.458   2.150   4.183
 4126SOL    MW416825   2.522   2.141   4.241
 4127SOL     OW16826   2.610   3.056   4.425
 4127SOL    HW216827   2.690   3.059   4.477
 4127SOL    HW316828   2.638   3.023   4.339
 4127SOL    MW416829   2.624   3.052   4.420
 4128SOL     OW16830   2.635   3.397   5.328
 4128SOL    HW216831   2.719   3.423   5.367
 4128SOL    HW316832   2.659   3.341   5.254
 4128SOL    MW416833   2.649   3.393   5.323
 4129SOL     OW16834   2.387   2.560   4.416
 4129SOL    HW216835   2.372   2.480   4.467
 4129SOL    HW316836   2.469   2.595   4.450
 4129SOL    MW416837   2.395   2.552   4.428
 4130SOL     OW16838   2.724   3.246   5.101
 4130SOL    HW216839   2.688   3.312   5.041
 4130SOL    HW316840   2.652   3.184   5.114
 4130SOL    MW416841   2.710   3.246   5.095
 4131SOL     OW16842   2.529   2.386   4.793
 4131SOL    HW216843   2.435   2.382   4.811
 4131SOL    HW316844   2.559   2.295   4.802
 4131SOL    MW416845   2.520   2.374   4.796
 4132SOL     OW16846   2.275   2.800   4.697
 4132SOL    HW216847   2.230   2.807   4.613
 4132SOL    HW316848   2.255   2.883   4.741
 4132SOL    MW416849   2.267   2.812   4.691
 4133SOL     OW16850   1.972   3.646   4.572
 4133SOL    HW216851   2.061   3.638   4.607
 4133SOL    HW316852   1.936   3.558   4.577
 4133SOL    MW416853   1.979   3.633   4.577
 4134SOL     OW16854   3.237   3.038   3.941
 4134SOL    HW216855   3.155   3.074   3.907
 4134SOL    HW316856   3.305   3.081   3.890
 4134SOL    MW416857   3.235   3.048   3.929
 4135SOL     OW16858   2.236   3.173   4.607
 4135SOL    HW216859   2.212   3.226   4.683
 4135SOL    HW316860   2.292   3.231   4.555
 4135SOL    MW416861   2.240   3.188   4.610
 4136SOL     OW16862   2.798   2.817   4.417
 4136SOL    HW216863   2.712   2.804   4.457
 4136SOL    HW316864   2.851   2.744   4.449
 4136SOL    MW416865   2.794   2.806   4.426
 4137SOL     OW16866   2.206   3.469   5.202
 4137SOL    HW216867   2.114   3.445   5.187
 4137SOL    HW316868   2.250   3.386   5.219
 4137SOL    MW416869   2.200   3.454   5.201
 4138SOL     OW16870   2.789   3.179   4.134
 4138SOL    HW216871   2.766   3.241   4.202
 4138SOL    HW316872   2.746   3.097   4.160
 4138SOL    MW416873   2.781   3.175   4.145
 4139SOL     OW16874   3.662   2.180   4.590
 4139SOL    HW216875   3.599   2.160   4.659
 4139SOL    HW316876   3.652   2.109   4.527
 4139SOL    MW416877   3.652   2.167   4.591
 4140SOL     OW16878   2.286   2.152   4.102
 4140SOL    HW216879   2.260   2.114   4.018
 4140SOL    HW316880   2.223   2.222   4.118
 4140SOL    MW416881   2.275   2.155   4.093
 4141SOL     OW16882   2.121   3.113   4.139
 4141SOL    HW216883   2.069   3.181   4.095
 4141SOL    HW316884   2.118   3.039   4.079
 4141SOL    MW416885   2.113   3.112   4.126
 4142SOL     OW16886   2.783   3.576   3.917
 4142SOL    HW216887   2.738   3.592   4.000
 4142SOL    HW316888   2.714   3.541   3.859
 4142SOL    MW416889   2.769   3.573   3.919
 4143SOL     OW16890   3.718   2.349   3.892
 4143SOL    HW216891   3.627   2.351   3.920
 4143SOL    HW316892   3.763   2.411   3.950
 4143SOL    MW416893   3.711   2.357   3.902
 4144SOL     OW16894   3.463   2.952   4.242
 4144SOL    HW216895   3.373   2.952   4.277
 4144SOL    HW316896   3.456   2.998   4.159
 4144SOL    MW416897   3.450   2.958   4.236
 4145SOL     OW16898   3.263   2.587   5.314
 4145SOL    HW216899   3.332   2.525   5.291
 4145SOL    HW316900   3.188   2.561   5.261
 4145SOL    MW416901   3.263   2.574   5.305
 4146SOL     OW16902   2.004   3.467   4.866
 4146SOL    HW216903   1.987   3.413   4.943
 4146SOL    HW316904   1.992   3.557   4.896
 4146SOL    MW416905   2.001   3.471   4.880
 4147SOL     OW16906   2.999   2.974   5.306
 4147SOL    HW216907   2.984   3.067   5.291
 4147SOL    HW316908   3.094   2.964   5.306
 4147SOL    MW416909   3.008   2.984   5.303
 4148SOL     OW16910   2.795   2.398   5.507
 4148SOL    HW216911   2.885   2.399   5.474
 4148SOL    HW316912   2.754   2.323   5.465
 4148SOL    MW416913   2.801   2.388   5.498
 4149SOL     OW16914   3.370   2.930   4.634
 4149SOL    HW216915   3.373   2.864   4.565
 4149SOL    HW316916   3.455   2.973   4.630
 4149SOL    MW416917   3.382   2.926   4.625
 4150SOL     OW16918   2.990   2.533   4.203
 4150SOL    HW216919   3.016   2.557   4.114
 4150SOL    HW316920   2.972   2.440   4.199
 4150SOL    MW416921   2.992   2.525   4.190
 4151SOL     OW16922   3.655   3.153   4.054
 4151SOL    HW216923   3.611   3.194   4.129
 4151SOL    HW316924   3.712   3.221   4.019
 4151SOL    MW416925   3.657   3.167   4.059
 4152SOL     OW16926   2.575   2.202   5.457
 4152SOL    HW216927   2.585   2.128   5.397
 4152SOL    HW316928   2.611   2.171   5.540
 4152SOL    MW416929   2.581   2.188   5.459
 4153SOL     OW16930   2.311   3.569   4.372
 4153SOL    HW216931   2.343   3.657   4.350
 4153SOL    HW316932   2.264   3.541   4.294
 4153SOL    MW416933   2.310   3.577   4.359
 4154SOL     OW16934   3.695   1.931   4.421
 4154SOL    HW216935   3.749   1.882   4.483
 4154SOL    HW316936   3.638   1.865   4.382
 4154SOL    MW416937   3.695   1.915   4.423
 4155SOL     OW16938   2.027   3.629   3.949
 4155SOL    HW216939   2.056   3.719   3.941
 4155SOL    HW316940   1.977   3.612   3.870
 4155SOL    MW416941   2.025   3.637   3.938
 4156SOL     OW16942   2.814   1.884   4.834
 4156SOL    HW216943   2.773   1.962   4.796
 4156SOL    HW316944   2.908   1.902   4.829
 4156SOL    MW416945   2.820   1.896   4.829
 4157SOL     OW16946   3.431   3.437   3.920
 4157SOL    HW216947   3.479   3.506   3.966
 4157SOL    HW316948   3.352   3.481   3.889
 4157SOL    MW416949   3.426   3.451   3.923
 4158SOL     OW16950   2.829   2.562   3.864
 4158SOL    HW216951   2.831   2.509   3.785
 4158SOL    HW316952   2.917   2.599   3.870
 4158SOL    MW416953   2.841   2.561   3.853
 4159SOL     OW16954   3.443   2.488   4.200
 4159SOL    HW216955   3.482   2.488   4.287
 4159SOL    HW316956   3.384   2.564   4.200
 4159SOL    MW416957   3.440   2.499   4.211
 4160SOL     OW16958   2.760   2.855   5.329
 4160SOL    HW216959   2.737   2.835   5.419
 4160SOL    HW316960   2.845   2.899   5.334
 4160SOL    MW416961   2.767   2.858   5.341
 4161SOL     OW16962   2.840   1.992   5.089
 4161SOL    HW216963   2.846   1.954   5.002
 4161SOL    HW316964   2.829   2.086   5.074
 4161SOL    MW416965   2.841   2.000   5.077
 4162SOL     OW16966   2.929   2.481   4.923
 4162SOL    HW216967   3.004   2.510   4.870
 4162SOL    HW316968   2.861   2.546   4.907
 4162SOL    MW416969   2.930   2.493   4.913
 4163SOL     OW16970   3.479   2.449   5.200
 4163SOL    HW216971   3.460   2.358   5.179
 4163SOL    HW316972   3.457   2.498   5.121
 4163SOL    MW416973   3.474   2.442   5.187
 4164SOL     OW16974   3.621   3.543   5.104
 4164SOL    HW216975   3.549   3.505   5.155
 4164SOL    HW316976   3.638   3.628   5.145
 4164SOL    MW416977   3.615   3.548   5.116
 4165SOL     OW16978   2.926   2.187   5.306
 4165SOL    HW216979   2.892   2.226   5.225
 4165SOL    HW316980   2.904   2.095   5.299
 4165SOL    MW416981   2.919   2.180   5.296
 4166SOL     OW16982   3.335   3.001   5.382
 4166SOL    HW216983   3.417   3.042   5.412
 4166SOL    HW316984   3.298   2.963   5.462
 4166SOL    MW416985   3.341   3.002   5.397
 4167SOL     OW16986   3.630   2.374   4.366
 4167SOL    HW216987   3.719   2.343   4.383
 4167SOL    HW316988   3.573   2.314   4.414
 4167SOL    MW416989   3.633   2.362   4.375
 4168SOL     OW16990   2.056   2.088   4.395
 4168SOL    HW216991   2.047   2.028   4.321
 4168SOL    HW316992   1.989   2.059   4.458
 4168SOL    MW416993   2.046   2.075   4.393
 4169SOL     OW16994   2.999   3.181   3.956
 4169SOL    HW216995   2.949   3.183   4.038
 4169SOL    HW316996   2.933   3.199   3.888
 4169SOL    MW416997   2.985   3.183   3.958
 4170SOL     OW16998   2.003   2.261   4.758
 4170SOL    HW216999   1.975   2.352   4.767
 4170SOL    HW317000   1.940   2.222   4.697
 4170SOL    MW417001   1.990   2.267   4.752
 4171SOL     OW17002   2.462   3.599   4.064
 4171SOL    HW217003   2.383   3.557   4.097
 4171SOL    HW317004   2.528   3.582   4.131
 4171SOL    MW417005   2.461   3.591   4.077
 4172SOL     OW17006   3.590   3.119   5.461
 4172SOL    HW217007   3.640   3.045   5.493
 4172SOL    HW317008   3.536   3.146   5.536
 4172SOL    MW417009   3.590   3.113   5.474
 4173SOL     OW17010   2.598   3.014   3.771
 4173SOL    HW217011   2.520   2.960   3.758
 4173SOL    HW317012   2.569   3.087   3.824
 4173SOL    MW417013   2.584   3.016   3.776
 4174SOL     OW17014   3.724   2.754   4.963
 4174SOL    HW217015   3.740   2.792   4.876
 4174SOL    HW317016   3.758   2.820   5.024
 4174SOL    MW417017   3.731   2.767   4.959
 4175SOL     OW17018   3.516   3.463   4.632
 4175SOL    HW217019   3.545   3.530   4.693
 4175SOL    HW317020   3.497   3.387   4.687
 4175SOL    MW417021   3.518   3.463   4.647
 4176SOL     OW17022   3.179   3.530   3.839
 4176SOL    HW217023   3.105   3.493   3.889
 4176SOL    HW317024   3.187   3.620   3.872
 4176SOL    MW417025   3.170   3.537   3.851
 4177SOL     OW17026   1.987   2.536   4.928
 4177SOL    HW217027   2.049   2.566   4.994
 4177SOL    HW317028   1.921   2.605   4.922
 4177SOL    MW417029   1.986   2.549   4.935
 4178SOL     OW17030   3.403   3.204   3.781
 4178SOL    HW217031   3.350   3.253   3.717
 4178SOL    HW317032   3.434   3.270   3.842
 4178SOL    MW417033   3.401   3.218   3.779
 4179SOL     OW17034   2.628   2.093   3.836
 4179SOL    HW217035   2.576   2.013   3.824
 4179SOL    HW317036   2.715   2.070   3.804
 4179SOL    MW417037   2.631   2.079   3.830
 4180SOL     OW17038   2.082   3.645   5.380
 4180SOL    HW217039   2.056   3.713   5.318
 4180SOL    HW317040   2.130   3.582   5.328
 4180SOL    MW417041   2.084   3.645   5.366
 4181SOL     OW17042   2.134   2.964   4.887
 4181SOL    HW217043   2.187   3.039   4.912
 4181SOL    HW317044   2.053   3.002   4.853
 4181SOL    MW417045   2.130   2.979   4.887
 4182SOL     OW17046   2.674   2.868   4.875
 4182SOL    HW217047   2.702   2.777   4.887
 4182SOL    HW317048   2.603   2.862   4.811
 4182SOL    MW417049   2.667   2.856   4.870
 4183SOL     OW17050   1.989   2.733   4.293
 4183SOL    HW217051   2.080   2.748   4.320
 4183SOL    HW317052   1.992   2.654   4.239
 4183SOL    MW417053   2.001   2.725   4.291
 4184SOL     OW17054   2.225   2.441   5.547
 4184SOL    HW217055   2.172   2.521   5.554
 4184SOL    HW317056   2.295   2.453   5.612
 4184SOL    MW417057   2.227   2.454   5.555
 4185SOL     OW17058   2.611   1.991   5.254
 4185SOL    HW217059   2.588   1.899   5.256
 4185SOL    HW317060   2.697   1.993   5.211
 4185SOL    MW417061   2.618   1.981   5.250
 4186SOL     OW17062   2.295   2.515   5.293
 4186SOL    HW217063   2.375   2.565   5.279
 4186SOL    HW317064   2.286   2.509   5.388
 4186SOL    MW417065   2.304   2.521   5.303
 4187SOL     OW17066   2.616   3.665   4.667
 4187SOL    HW217067   2.705   3.680   4.697
 4187SOL    HW317068   2.611   3.712   4.583
 4187SOL    MW417069   2.626   3.673   4.660
 4188SOL     OW17070   3.272   2.040   5.564
 4188SOL    HW217071   3.328   1.967   5.590
 4188SOL    HW317072   3.242   2.078   5.646
 4188SOL    MW417073   3.276   2.035   5.577
 4189SOL     OW17074   1.997   3.345   4.332
 4189SOL    HW217075   1.969   3.384   4.414
 4189SOL    HW317076   2.017   3.254   4.354
 4189SOL    MW417077   1.995   3.337   4.345
 4190SOL     OW17078   2.830   3.388   4.367
 4190SOL    HW217079   2.913   3.342   4.351
 4190SOL    HW317080   2.820   3.387   4.463
 4190SOL    MW417081   2.840   3.381   4.377
 4191SOL     OW17082   3.662   2.533   4.681
 4191SOL    HW217083   3.751   2.563   4.663
 4191SOL    HW317084   3.642   2.473   4.610
 4191SOL    MW417085   3.671   2.530   4.670
 4192SOL     OW17086   3.513   2.712   5.561
 4192SOL    HW217087   3.568   2.636   5.542
 4192SOL    HW317088   3.515   2.720   5.656
 4192SOL    MW417089   3.521   2.703   5.569
 4193SOL     OW17090   2.563   3.445   3.772
 4193SOL    HW217091   2.503   3.514   3.742
 4193SOL    HW317092   2.508   3.387   3.825
 4193SOL    MW417093   2.547   3.447   3.774
 4194SOL     OW17094   3.001   2.090   3.995
 4194SOL    HW217095   2.934   2.066   3.932
 4194SOL    HW317096   3.066   2.139   3.944
 4194SOL    MW417097   3.001   2.092   3.980
 4195SOL     OW17098   2.808   2.274   5.080
 4195SOL    HW217099   2.727   2.315   5.108
 4195SOL    HW317100   2.855   2.342   5.032
 4195SOL    MW417101   2.803   2.289   5.078
 4196SOL     OW17102   3.068   2.612   4.703
 4196SOL    HW217103   3.081   2.706   4.713
 4196SOL    HW317104   3.029   2.602   4.617
 4196SOL    MW417105   3.064   2.623   4.693
 4197SOL     OW17106   2.520   2.807   4.507
 4197SOL    HW217107   2.431   2.798   4.540
 4197SOL    HW317108   2.524   2.897   4.475
 4197SOL    MW417109   2.509   2.818   4.507
 4198SOL     OW17110   3.319   2.390   4.502
 4198SOL    HW217111   3.264   2.311   4.501
 4198SOL    HW317112   3.301   2.431   4.586
 4198SOL    MW417113   3.309   2.385   4.511
 4199SOL     OW17114   2.290   2.077   5.319
 4199SOL    HW217115   2.211   2.095   5.371
 4199SOL    HW317116   2.285   2.139   5.246
 4199SOL    MW417117   2.280   2.087   5.316
 4200SOL     OW17118   2.938   2.594   4.459
 4200SOL    HW217119   2.875   2.526   4.483
 4200SOL    HW317120   2.958   2.575   4.367
 4200SOL    MW417121   2.932   2.581   4.451
 4201SOL     OW17122   2.194   3.489   4.161
 4201SOL    HW217123   2.155   3.536   4.087
 4201SOL    HW317124   2.128   3.424   4.186
 4201SOL    MW417125   2.181   3.487   4.155
 4202SOL     OW17126   2.686   2.898   4.185
 4202SOL    HW217127   2.688   2.872   4.092
 4202SOL    HW317128   2.744   2.835   4.228
 4202SOL    MW417129   2.694   2.887   4.179
 4203SOL     OW17130   3.239   3.458   4.957
 4203SOL    HW217131   3.164   3.504   4.995
 4203SOL    HW317132   3.221   3.365   4.974
 4203SOL    MW417133   3.228   3.452   4.965
 4204SOL     OW17134   3.243   3.666   4.387
 4204SOL    HW217135   3.186   3.619   4.326
 4204SOL    HW317136   3.329   3.627   4.374
 4204SOL    MW417137   3.246   3.657   4.377
 4205SOL     OW17138   3.196   2.142   4.518
 4205SOL    HW217139   3.224   2.074   4.579
 4205SOL    HW317140   3.110   2.113   4.488
 4205SOL    MW417141   3.189   2.129   4.522
 4206SOL     OW17142   2.001   3.076   4.452
 4206SOL    HW217143   2.065   3.108   4.515
 4206SOL    HW317144   2.050   3.012   4.400
 4206SOL    MW417145   2.016   3.072   4.453
 4207SOL     OW17146   2.501   3.152   5.434
 4207SOL    HW217147   2.549   3.235   5.421
 4207SOL    HW317148   2.558   3.100   5.490
 4207SOL    MW417149   2.515   3.156   5.440
 4208SOL     OW17150   2.077   3.394   5.574
 4208SOL    HW217151   2.133   3.318   5.589
 4208SOL    HW317152   2.026   3.372   5.496
 4208SOL    MW417153   2.077   3.381   5.565
 4209SOL     OW17154   3.176   2.246   3.853
 4209SOL    HW217155   3.149   2.312   3.789
 4209SOL    HW317156   3.246   2.289   3.903
 4209SOL    MW417157   3.181   2.259   3.850
 4210SOL     OW17158   2.844   1.951   3.790
 4210SOL    HW217159   2.900   1.943   3.712
 4210SOL    HW317160   2.821   1.861   3.812
 4210SOL    MW417161   2.849   1.938   3.783
 4211SOL     OW17162   3.349   2.802   3.995
 4211SOL    HW217163   3.316   2.891   3.985
 4211SOL    HW317164   3.314   2.773   4.080
 4211SOL    MW417165   3.339   2.811   4.006
 4212SOL     OW17166   2.962   3.231   5.183
 4212SOL    HW217167   2.873   3.237   5.151
 4212SOL    HW317168   3.006   3.310   5.151
 4212SOL    MW417169   2.957   3.241   5.175
 4213SOL     OW17170   2.255   1.899   5.525
 4213SOL    HW217171   2.183   1.864   5.473
 4213SOL    HW317172   2.313   1.940   5.460
 4213SOL    MW417173   2.253   1.900   5.510
 4214SOL     OW17174   2.279   3.389   4.824
 4214SOL    HW217175   2.324   3.451   4.881
 4214SOL    HW317176   2.186   3.408   4.837
 4214SOL    MW417177   2.272   3.399   4.831
 4215SOL     OW17178   3.719   2.918   5.178
 4215SOL    HW217179   3.634   2.931   5.137
 4215SOL    HW317180   3.699   2.882   5.265
 4215SOL    MW417181   3.706   2.914   5.183
 4216SOL     OW17182   2.701   3.457   4.932
 4216SOL    HW217183   2.725   3.446   4.841
 4216SOL    HW317184   2.624   3.514   4.930
 4216SOL    MW417185   2.693   3.462   4.921
 4217SOL     OW17186   2.343   2.840   3.787
 4217SOL    HW217187   2.266   2.853   3.843
 4217SOL    HW317188   2.307   2.804   3.706
 4217SOL    MW417189   2.329   2.836   3.784
 4218SOL     OW17190   2.996   2.813   4.030
 4218SOL    HW217191   2.906   2.834   4.005
 4218SOL    HW317192   3.023   2.886   4.086
 4218SOL    MW417193   2.988   2.825   4.033
 4219SOL     OW17194   2.496   3.162   4.722
 4219SOL    HW217195   2.489   3.141   4.816
 4219SOL    HW317196   2.414   3.130   4.685
 4219SOL    MW417197   2.484   3.156   4.729
 4220SOL     OW17198   3.360   2.172   5.124
 4220SOL    HW217199   3.307   2.174   5.204
 4220SOL    HW317200   3.345   2.085   5.087
 4220SOL    MW417201   3.352   2.162   5.129
 4221SOL     OW17202   3.696   2.096   4.997
 4221SOL    HW217203   3.677   2.163   4.932
 4221SOL    HW317204   3.753   2.034   4.952
 4221SOL    MW417205   3.700   2.097   4.983
 4222SOL     OW17206   1.942   3.254   5.385
 4222SOL    HW217207   1.986   3.187   5.331
 4222SOL    HW317208   1.857   3.216   5.405
 4222SOL    MW417209   1.937   3.240   5.381
 4223SOL     OW17210   2.625   1.929   4.437
 4223SOL    HW217211   2.554   1.990   4.419
 4223SOL    HW317212   2.676   1.926   4.356
 4223SOL    MW417213   2.621   1.935   4.424
 4224SOL     OW17214   2.383   3.169   4.186
 4224SOL    HW217215   2.376   3.201   4.276
 4224SOL    HW317216   2.293   3.153   4.158
 4224SOL    MW417217   2.371   3.171   4.193
 4225SOL     OW17218   2.978   3.562   5.095
 4225SOL    HW217219   2.898   3.547   5.045
 4225SOL    HW317220   2.985   3.657   5.102
 4225SOL    MW417221   2.969   3.573   5.089
 4226SOL     OW17222   3.092   3.527   4.585
 4226SOL    HW217223   3.139   3.600   4.544
 4226SOL    HW317224   3.013   3.566   4.621
 4226SOL    MW417225   3.087   3.542   4.584
 4227SOL     OW17226   3.500   3.622   4.860
 4227SOL    HW217227   3.543   3.592   4.940
 4227SOL    HW317228   3.419   3.570   4.857
 4227SOL    MW417229   3.495   3.611   4.870
 4228SOL     OW17230   2.585   2.586   5.567
 4228SOL    HW217231   2.655   2.528   5.539
 4228SOL    HW317232   2.528   2.531   5.622
 4228SOL    MW417233   2.587   2.573   5.571
 4229SOL     OW17234   3.372   2.798   5.200
 4229SOL    HW217235   3.377   2.851   5.280
 4229SOL    HW317236   3.334   2.715   5.228
 4229SOL    MW417237   3.368   2.793   5.215
 4230SOL     OW17238   3.012   1.933   5.446
 4230SOL    HW217239   3.007   1.840   5.427
 4230SOL    HW317240   3.095   1.944   5.492
 4230SOL    MW417241   3.020   1.922   5.450
 4231SOL     OW17242   2.386   2.453   3.900
 4231SOL    HW217243   2.352   2.509   3.970
 4231SOL    HW317244   2.457   2.403   3.940
 4231SOL    MW417245   2.392   2.454   3.914
 4232SOL     OW17246   3.482   3.204   4.722
 4232SOL    HW217247   3.517   3.186   4.635
 4232SOL    HW317248   3.387   3.205   4.709
 4232SOL    MW417249   3.474   3.201   4.709
 4233SOL     OW17250   2.911   2.852   5.091
 4233SOL    HW217251   2.954   2.887   5.169
 4233SOL    HW317252   2.894   2.929   5.037
 4233SOL    MW417253   2.914   2.867   5.094
 4234SOL     OW17254   3.442   2.339   3.964
 4234SOL    HW217255   3.434   2.410   3.901
 4234SOL    HW317256   3.460   2.383   4.047
 4234SOL    MW417257   3.443   2.353   3.966
 4235SOL     OW17258   2.302   1.994   4.393
 4235SOL    HW217259   2.352   2.037   4.324
 4235SOL    HW317260   2.217   2.038   4.393
 4235SOL    MW417261   2.299   2.007   4.384
 4236SOL     OW17262   2.061   3.056   5.253
 4236SOL    HW217263   2.089   3.009   5.331
 4236SOL    HW317264   1.982   3.011   5.224
 4236SOL    MW417265   2.054   3.045   5.259
 4237SOL     OW17266   2.569   2.383   5.220
 4237SOL    HW217267   2.541   2.471   5.244
 4237SOL    HW317268   2.538   2.327   5.291
 4237SOL    MW417269   2.561   2.386   5.232
 4238SOL     OW17270   3.111   2.601   3.939
 4238SOL    HW217271   3.158   2.619   3.858
 4238SOL    HW317272   3.077   2.685   3.967
 4238SOL    MW417273   3.113   2.615   3.932
 4239SOL     OW17274   2.224   2.779   4.433
 4239SOL    HW217275   2.282   2.835   4.381
 4239SOL    HW317276   2.268   2.694   4.435
 4239SOL    MW417277   2.237   2.776   4.426
 4240SOL     OW17278   3.364   2.131   4.270
 4240SOL    HW217279   3.286   2.081   4.295
 4240SOL    HW317280   3.335   2.222   4.270
 4240SOL    MW417281   3.350   2.135   4.273
 4241SOL     OW17282   2.950   2.093   4.429
 4241SOL    HW217283   2.970   2.168   4.373
 4241SOL    HW317284   2.930   2.132   4.514
 4241SOL    MW417285   2.951   2.109   4.433
 4242SOL     OW17286   2.846   3.343   3.761
 4242SOL    HW217287   2.873   3.421   3.713
 4242SOL    HW317288   2.753   3.358   3.780
 4242SOL    MW417289   2.837   3.356   3.757
 4243SOL     OW17290   3.710   2.866   5.448
 4243SOL    HW217291   3.623   2.846   5.484
 4243SOL    HW317292   3.764   2.792   5.473
 4243SOL    MW417293   3.705   2.855   5.456
 4244SOL     OW17294   1.931   3.379   4.605
 4244SOL    HW217295   1.963   3.383   4.696
 4244SOL    HW317296   1.836   3.387   4.613
 4244SOL    MW417297   1.923   3.382   4.618
 4245SOL     OW17298   1.886   2.505   4.152
 4245SOL    HW217299   1.826   2.477   4.222
 4245SOL    HW317300   1.960   2.445   4.158
 4245SOL    MW417301   1.888   2.494   4.161
 4246SOL     OW17302   3.454   3.717   5.586
 4246SOL    HW217303   3.499   3.641   5.551
 4246SOL    HW317304   3.492   3.730   5.673
 4246SOL    MW417305   3.464   3.710   5.592
 4247SOL     OW17306   3.054   3.236   4.312
 4247SOL    HW217307   3.077   3.187   4.390
 4247SOL    HW317308   3.135   3.278   4.284
 4247SOL    MW417309   3.067   3.236   4.319
 4248SOL     OW17310   2.312   2.244   5.041
 4248SOL    HW217311   2.345   2.325   5.081
 4248SOL    HW317312   2.285   2.270   4.953
 4248SOL    MW417313   2.311   2.258   5.035
 4249SOL     OW17314   2.266   2.211   4.777
 4249SOL    HW217315   2.296   2.125   4.748
 4249SOL    HW317316   2.171   2.204   4.780
 4249SOL    MW417317   2.258   2.200   4.775
 4250SOL     OW17318   3.095   2.420   5.468
 4250SOL    HW217319   3.147   2.355   5.421
 4250SOL    HW317320   3.053   2.471   5.398
 4250SOL    MW417321   3.096   2.417   5.451
 4251SOL     OW17322   3.194   2.215   5.329
 4251SOL    HW217323   3.101   2.199   5.316
 4251SOL    HW317324   3.220   2.153   5.397
 4251SOL    MW417325   3.184   2.205   5.336
 4252SOL     OW17326   2.409   1.989   4.668
 4252SOL    HW217327   2.419   1.898   4.694
 4252SOL    HW317328   2.365   1.985   4.583
 4252SOL    MW417329   2.405   1.977   4.660
 4253SOL     OW17330   2.503   3.604   5.214
 4253SOL    HW217331   2.420   3.589   5.259
 4253SOL    HW317332   2.562   3.537   5.249
 4253SOL    MW417333   2.501   3.594   5.224
 4254SOL     OW17334   3.560   2.311   4.839
 4254SOL    HW217335   3.493   2.344   4.899
 4254SOL    HW317336   3.603   2.389   4.805
 4254SOL    MW417337   3.558   2.326   4.843
 4255SOL     OW17338   3.738   3.031   4.809
 4255SOL    HW217339   3.731   2.971   4.734
 4255SOL    HW317340   3.664   3.091   4.798
 4255SOL    MW417341   3.728   3.031   4.798
 4256SOL     OW17342   3.120   2.893   4.727
 4256SOL    HW217343   3.134   2.865   4.818
 4256SOL    HW317344   3.206   2.924   4.699
 4256SOL    MW417345   3.133   2.894   4.736
 4257SOL     OW17346   3.203   2.388   5.006
 4257SOL    HW217347   3.224   2.389   4.913
 4257SOL    HW317348   3.248   2.310   5.039
 4257SOL    MW417349   3.210   2.378   4.998
 4258SOL     OW17350   3.696   2.519   5.548
 4258SOL    HW217351   3.733   2.464   5.617
 4258SOL    HW317352   3.721   2.476   5.466
 4258SOL    MW417353   3.703   2.507   5.547
 4259SOL     OW17354   3.243   2.817   5.600
 4259SOL    HW217355   3.309   2.765   5.554
 4259SOL    HW317356   3.263   2.804   5.693
 4259SOL    MW417357   3.254   2.808   5.607
 4260SOL     OW17358   3.194   1.903   3.948
 4260SOL    HW217359   3.268   1.947   3.991
 4260SOL    HW317360   3.118   1.957   3.970
 4260SOL    MW417361   3.194   1.915   3.956
 4261SOL     OW17362   3.254   2.678   4.226
 4261SOL    HW217363   3.169   2.648   4.196
 4261SOL    HW317364   3.246   2.685   4.321
 4261SOL    MW417365   3.242   2.676   4.235
 4262SOL     OW17366   2.330   3.141   4.957
 4262SOL    HW217367   2.342   3.168   5.048
 4262SOL    HW317368   2.311   3.222   4.910
 4262SOL    MW417369   2.329   3.156   4.962
 4263SOL     OW17370   2.614   2.121   4.780
 4263SOL    HW217371   2.587   2.123   4.871
 4263SOL    HW317372   2.544   2.073   4.735
 4263SOL    MW417373   2.602   2.117   4.787
 4264SOL     OW17374   2.468   3.613   4.942
 4264SOL    HW217375   2.520   3.690   4.919
 4264SOL    HW317376   2.477   3.605   5.037
 4264SOL    MW417377   2.477   3.620   4.953
 4265SOL     OW17378   3.370   3.198   5.174
 4265SOL    HW217379   3.355   3.127   5.237
 4265SOL    HW317380   3.416   3.156   5.102
 4265SOL    MW417381   3.376   3.182   5.174
 4266SOL     OW17382   2.444   2.929   5.291
 4266SOL    HW217383   2.481   2.934   5.203
 4266SOL    HW317384   2.483   3.002   5.338
 4266SOL    MW417385   2.454   2.939   5.286
 4267SOL     OW17386   2.624   2.972   5.103
 4267SOL    HW217387   2.683   2.918   5.156
 4267SOL    HW317388   2.639   2.944   5.013
 4267SOL    MW417389   2.634   2.961   5.099
 4268SOL     OW17390   2.627   2.344   3.952
 4268SOL    HW217391   2.700   2.393   3.915
 4268SOL    HW317392   2.643   2.253   3.926
 4268SOL    MW417393   2.639   2.339   3.945
 4269SOL     OW17394   3.435   3.461   5.275
 4269SOL    HW217395   3.477   3.446   5.360
 4269SOL    HW317396   3.426   3.374   5.237
 4269SOL    MW417397   3.439   3.449   5.282
 4270SOL     OW17398   3.095   1.940   4.866
 4270SOL    HW217399   3.150   1.949   4.788
 4270SOL    HW317400   3.150   1.974   4.937
 4270SOL    MW417401   3.109   1.945   4.865
 4271SOL     OW17402   2.102   2.853   4.050
 4271SOL    HW217403   2.039   2.869   3.979
 4271SOL    HW317404   2.049   2.816   4.121
 4271SOL    MW417405   2.087   2.850   4.050
 4272SOL     OW17406   2.458   3.207   3.909
 4272SOL    HW217407   2.473   3.183   4.001
 4272SOL    HW317408   2.366   3.185   3.893
 4272SOL    MW417409   2.448   3.200   3.919
 4273SOL     OW17410   2.997   3.438   4.061
 4273SOL    HW217411   3.005   3.356   4.012
 4273SOL    HW317412   2.916   3.477   4.028
 4273SOL    MW417413   2.987   3.433   4.051
 4274SOL     OW17414   2.256   3.596   4.630
 4274SOL    HW217415   2.260   3.507   4.665
 4274SOL    HW317416   2.282   3.587   4.539
 4274SOL    MW417417   2.259   3.584   4.622
 4275SOL     OW17418   2.873   3.074   4.873
 4275SOL    HW217419   2.805   3.008   4.889
 4275SOL    HW317420   2.891   3.068   4.780
 4275SOL    MW417421   2.866   3.065   4.864
 4276SOL     OW17422   1.962   3.349   5.124
 4276SOL    HW217423   1.952   3.307   5.210
 4276SOL    HW317424   1.883   3.402   5.114
 4276SOL    MW417425   1.951   3.350   5.135
 4277SOL     OW17426   2.866   2.213   4.694
 4277SOL    HW217427   2.796   2.165   4.739
 4277SOL    HW317428   2.898   2.276   4.758
 4277SOL    MW417429   2.861   2.215   4.708
 4278SOL     OW17430   2.517   2.649   5.314
 4278SOL    HW217431   2.510   2.744   5.302
 4278SOL    HW317432   2.526   2.638   5.409
 4278SOL    MW417433   2.518   2.661   5.324
 4279SOL     OW17434   2.238   3.164   5.572
 4279SOL    HW217435   2.310   3.166   5.509
 4279SOL    HW317436   2.208   3.073   5.571
 4279SOL    MW417437   2.243   3.153   5.564
 4280SOL     OW17438   3.322   1.927   5.039
 4280SOL    HW217439   3.393   1.873   5.003
 4280SOL    HW317440   3.321   1.906   5.132
 4280SOL    MW417441   3.331   1.918   5.047
 4281SOL     OW17442   3.522   3.457   5.523
 4281SOL    HW217443   3.495   3.454   5.614
 4281SOL    HW317444   3.618   3.461   5.526
 4281SOL    MW417445   3.532   3.457   5.535
 4282SOL     OW17446   2.333   2.319   4.507
 4282SOL    HW217447   2.404   2.267   4.470
 4282SOL    HW317448   2.319   2.284   4.594
 4282SOL    MW417449   2.341   2.308   4.514
 4283SOL     OW17450   1.888   3.654   5.579
 4283SOL    HW217451   1.938   3.632   5.501
 4283SOL    HW317452   1.896   3.749   5.587
 4283SOL    MW417453   1.896   3.663   5.570
 4284SOL     OW17454   2.649   3.412   4.583
 4284SOL    HW217455   2.577   3.349   4.596
 4284SOL    HW317456   2.610   3.497   4.601
 4284SOL    MW417457   2.633   3.415   4.586
 4285SOL     OW17458   2.969   2.260   4.231
 4285SOL    HW217459   2.991   2.197   4.163
 4285SOL    HW317460   2.874   2.252   4.242
 4285SOL    MW417461   2.959   2.251   4.223
 4286SOL     OW17462   2.054   1.950   4.163
 4286SOL    HW217463   2.125   1.971   4.102
 4286SOL    HW317464   2.008   1.878   4.121
 4286SOL    MW417465   2.058   1.944   4.149
 4287SOL     OW17466   1.885   2.417   5.306
 4287SOL    HW217467   1.949   2.483   5.281
 4287SOL    HW317468   1.804   2.444   5.263
 4287SOL    MW417469   1.883   2.429   5.298
 4288SOL     OW17470   3.623   3.324   4.263
 4288SOL    HW217471   3.593   3.257   4.324
 4288SOL    HW317472   3.717   3.330   4.277
 4288SOL    MW417473   3.631   3.316   4.273
 4289SOL     OW17474   3.179   3.001   4.193
 4289SOL    HW217475   3.151   3.087   4.226
 4289SOL    HW317476   3.207   3.017   4.103
 4289SOL    MW417477   3.179   3.015   4.185
 4290SOL     OW17478   2.841   1.921   4.246
 4290SOL    HW217479   2.878   1.980   4.311
 4290SOL    HW317480   2.818   1.977   4.172
 4290SOL    MW417481   2.842   1.936   4.245
 4291SOL     OW17482   3.694   2.803   4.668
 4291SOL    HW217483   3.685   2.835   4.579
 4291SOL    HW317484   3.647   2.719   4.668
 4291SOL    MW417485   3.687   2.796   4.658
 4292SOL     OW17486   2.070   2.643   5.247
 4292SOL    HW217487   2.091   2.712   5.185
 4292SOL    HW317488   2.150   2.590   5.252
 4292SOL    MW417489   2.083   2.644   5.241
 4293SOL     OW17490   3.606   2.734   4.369
 4293SOL    HW217491   3.700   2.723   4.357
 4293SOL    HW317492   3.582   2.806   4.310
 4293SOL    MW417493   3.616   2.742   4.360
 4294SOL     OW17494   2.055   2.658   5.514
 4294SOL    HW217495   1.981   2.602   5.540
 4294SOL    HW317496   2.050   2.661   5.419
 4294SOL    MW417497   2.044   2.651   5.504
 4295SOL     OW17498   2.221   1.945   4.964
 4295SOL    HW217499   2.264   2.029   4.984
 4295SOL    HW317500   2.294   1.883   4.957
 4295SOL    MW417501   2.236   1.948   4.965
 4296SOL     OW17502   2.262   2.612   4.142
 4296SOL    HW217503   2.262   2.707   4.127
 4296SOL    HW317504   2.339   2.596   4.196
 4296SOL    MW417505   2.272   2.623   4.147
 4297SOL     OW17506   3.038   2.471   5.206
 4297SOL    HW217507   3.074   2.444   5.122
 4297SOL    HW317508   2.951   2.505   5.185
 4297SOL    MW417509   3.032   2.472   5.193
 4298SOL     OW17510   2.021   2.343   4.431
 4298SOL    HW217511   2.083   2.350   4.504
 4298SOL    HW317512   2.021   2.250   4.408
 4298SOL    MW417513   2.029   2.332   4.438
 4299SOL     OW17514   3.568   3.683   3.963
 4299SOL    HW217515   3.635   3.716   3.903
 4299SOL    HW317516   3.525   3.762   3.997
 4299SOL    MW417517   3.570   3.698   3.959
 4300SOL     OW17518   2.703   2.604   4.915
 4300SOL    HW217519   2.661   2.522   4.891
 4300SOL    HW317520   2.704   2.603   5.011
 4300SOL    MW417521   2.696   2.593   4.924
 4301SOL     OW17522   3.374   3.737   5.314
 4301SOL    HW217523   3.377   3.643   5.297
 4301SOL    HW317524   3.397   3.745   5.406
 4301SOL    MW417525   3.377   3.725   5.324
 4302SOL     OW17526   2.507   2.074   5.020
 4302SOL    HW217527   2.438   2.137   5.041
 4302SOL    HW317528   2.534   2.038   5.105
 4302SOL    MW417529   2.501   2.077   5.033
 4303SOL     OW17530   1.890   2.915   3.889
 4303SOL    HW217531   1.859   2.980   3.952
 4303SOL    HW317532   1.839   2.837   3.908
 4303SOL    MW417533   1.880   2.912   3.899
 4304SOL     OW17534   3.302   1.927   4.637
 4304SOL    HW217535   3.390   1.936   4.674
 4304SOL    HW317536   3.312   1.868   4.563
 4304SOL    MW417537   3.316   1.921   4.631
 4305SOL     OW17538   3.334   2.666   4.481
 4305SOL    HW217539   3.414   2.681   4.430
 4305SOL    HW317540   3.327   2.571   4.487
 4305SOL    MW417541   3.343   2.655   4.476
 4306SOL     OW17542   2.474   3.715   3.831
 4306SOL    HW217543   2.379   3.715   3.823
 4306SOL    HW317544   2.490   3.661   3.909
 4306SOL    MW417545   2.464   3.709   3.840
 4307SOL     OW17546   2.784   2.592   5.178
 4307SOL    HW217547   2.853   2.659   5.175
 4307SOL    HW317548   2.717   2.630   5.234
 4307SOL    MW417549   2.785   2.605   5.185
 4308SOL     OW17550   2.202   2.892   5.426
 4308SOL    HW217551   2.156   2.808   5.428
 4308SOL    HW317552   2.259   2.886   5.350
 4308SOL    MW417553   2.204   2.880   5.418
 4309SOL     OW17554   3.319   2.535   3.747
 4309SOL    HW217555   3.247   2.511   3.689
 4309SOL    HW317556   3.385   2.572   3.689
 4309SOL    MW417557   3.318   2.537   3.732
 4310SOL     OW17558   2.453   3.267   4.427
 4310SOL    HW217559   2.518   3.200   4.448
 4310SOL    HW317560   2.505   3.344   4.404
 4310SOL    MW417561   2.468   3.269   4.426
 4311SOL     OW17562   2.714   2.432   4.557
 4311SOL    HW217563   2.654   2.450   4.629
 4311SOL    HW317564   2.748   2.344   4.576
 4311SOL    MW417565   2.710   2.422   4.570
 4312SOL     OW17566   3.655   1.931   5.226
 4312SOL    HW217567   3.576   1.977   5.254
 4312SOL    HW317568   3.690   1.985   5.155
 4312SOL    MW417569   3.649   1.944   5.220
 4313SOL     OW17570   2.939   3.015   4.576
 4313SOL    HW217571   3.031   2.996   4.594
 4313SOL    HW317572   2.912   2.945   4.516
 4313SOL    MW417573   2.947   3.003   4.570
 4314SOL     OW17574   2.732   2.835   3.931
 4314SOL    HW217575   2.718   2.747   3.896
 4314SOL    HW317576   2.683   2.892   3.872
 4314SOL    MW417577   2.724   2.830   3.919
 4315SOL     OW17578   3.213   3.253   4.672
 4315SOL    HW217579   3.186   3.337   4.637
 4315SOL    HW317580   3.173   3.248   4.759
 4315SOL    MW417581   3.206   3.262   4.678
 4316SOL     OW17582   3.132   3.201   4.940
 4316SOL    HW217583   3.143   3.168   5.029
 4316SOL    HW317584   3.051   3.160   4.909
 4316SOL    MW417585   3.122   3.193   4.946
 4317SOL     OW17586   2.145   2.559   4.710
 4317SOL    HW217587   2.095   2.558   4.791
 4317SOL    HW317588   2.165   2.651   4.694
 4317SOL    MW417589   2.141   2.571   4.718
 4318SOL     OW17590   3.212   3.323   5.472
 4318SOL    HW217591   3.212   3.417   5.488
 4318SOL    HW317592   3.257   3.313   5.388
 4318SOL    MW417593   3.218   3.333   5.463
 4319SOL     OW17594   3.451   2.041   4.033
 4319SOL    HW217595   3.444   2.045   4.128
 4319SOL    HW317596   3.463   2.132   4.006
 4319SOL    MW417597   3.452   2.054   4.041
 4320SOL     OW17598   2.740   2.604   4.147
 4320SOL    HW217599   2.720   2.590   4.054
 4320SOL    HW317600   2.833   2.583   4.154
 4320SOL    MW417601   2.750   2.599   4.136
 4321SOL     OW17602   2.067   2.227   5.451
 4321SOL    HW217603   2.024   2.286   5.388
 4321SOL    HW317604   2.135   2.282   5.491
 4321SOL    MW417605   2.071   2.242   5.448
 4322SOL     OW17606   3.179   2.847   4.996
 4322SOL    HW217607   3.242   2.844   5.069
 4322SOL    HW317608   3.095   2.865   5.038
 4322SOL    MW417609   3.175   2.849   5.011
 4323SOL     OW17610   2.723   3.562   4.185
 4323SOL    HW217611   2.781   3.633   4.212
 4323SOL    HW317612   2.746   3.490   4.243
 4323SOL    MW417613   2.734   3.562   4.196
 4324SOL     OW17614   3.518   2.024   4.775
 4324SOL    HW217615   3.563   1.942   4.794
 4324SOL    HW317616   3.538   2.080   4.851
 4324SOL    MW417617   3.528   2.020   4.787
 4325SOL     OW17618   1.966   1.867   4.874
 4325SOL    HW217619   1.957   1.868   4.779
 4325SOL    HW317620   2.060   1.879   4.889
 4325SOL    MW417621   1.978   1.870   4.865
 4326SOL     OW17622   3.603   3.060   4.494
 4326SOL    HW217623   3.582   3.006   4.417
 4326SOL    HW317624   3.699   3.058   4.498
 4326SOL    MW417625   3.612   3.053   4.483
 4327SOL     OW17626   2.295   3.205   5.237
 4327SOL    HW217627   2.216   3.155   5.260
 4327SOL    HW317628   2.365   3.164   5.287
 4327SOL    MW417629   2.293   3.193   5.247
 4328SOL     OW17630   2.179   1.994   3.920
 4328SOL    HW217631   2.108   2.049   3.888
 4328SOL    HW317632   2.221   1.960   3.841
 4328SOL    MW417633   2.175   1.996   3.906
 4329SOL     OW17634   3.303   2.491   4.756
 4329SOL    HW217635   3.226   2.537   4.722
 4329SOL    HW317636   3.360   2.560   4.790
 4329SOL    MW417637   3.300   2.506   4.756
 4330SOL     OW17638   1.935   2.093   3.769
 4330SOL    HW217639   1.902   2.172   3.813
 4330SOL    HW317640   1.990   2.126   3.698
 4330SOL    MW417641   1.938   2.107   3.766
 4331SOL     OW17642   3.241   3.439   4.175
 4331SOL    HW217643   3.304   3.429   4.104
 4331SOL    HW317644   3.158   3.459   4.130
 4331SOL    MW417645   3.238   3.440   4.160
 4332SOL     OW17646   3.604   2.707   5.862
 4332SOL    HW217647   3.645   2.649   5.927
 4332SOL    HW317648   3.511   2.699   5.879
 4332SOL    MW417649   3.598   2.699   5.872
 4333SOL     OW17650   2.398   2.890   6.091
 4333SOL    HW217651   2.488   2.865   6.075
 4333SOL    HW317652   2.394   2.983   6.068
 4333SOL    MW417653   2.410   2.899   6.086
 4334SOL     OW17654   2.124   2.374   6.032
 4334SOL    HW217655   2.156   2.462   6.014
 4334SOL    HW317656   2.112   2.372   6.127
 4334SOL    MW417657   2.127   2.386   6.044
 4335SOL     OW17658   2.387   2.560   6.285
 4335SOL    HW217659   2.372   2.480   6.336
 4335SOL    HW317660   2.469   2.595   6.319
 4335SOL    MW417661   2.395   2.552   6.297
 4336SOL     OW17662   1.972   3.646   6.441
 4336SOL    HW217663   2.061   3.638   6.476
 4336SOL    HW317664   1.936   3.558   6.446
 4336SOL    MW417665   1.979   3.633   6.446
 4337SOL     OW17666   3.237   3.038   5.810
 4337SOL    HW217667   3.155   3.074   5.776
 4337SOL    HW317668   3.305   3.081   5.759
 4337SOL    MW417669   3.235   3.048   5.798
 4338SOL     OW17670   2.236   3.173   6.476
 4338SOL    HW217671   2.212   3.226   6.552
 4338SOL    HW317672   2.292   3.231   6.424
 4338SOL    MW417673   2.240   3.188   6.479
 4339SOL     OW17674   2.798   2.817   6.286
 4339SOL    HW217675   2.712   2.804   6.326
 4339SOL    HW317676   2.851   2.744   6.318
 4339SOL    MW417677   2.794   2.806   6.295
 4340SOL     OW17678   2.789   3.179   6.003
 4340SOL    HW217679   2.766   3.241   6.071
 4340SOL    HW317680   2.746   3.097   6.029
 4340SOL    MW417681   2.781   3.175   6.014
 4341SOL     OW17682   2.286   2.152   5.971
 4341SOL    HW217683   2.260   2.114   5.887
 4341SOL    HW317684   2.223   2.222   5.987
 4341SOL    MW417685   2.275   2.155   5.962
 4342SOL     OW17686   2.121   3.113   6.008
 4342SOL    HW217687   2.069   3.181   5.964
 4342SOL    HW317688   2.118   3.039   5.948
 4342SOL    MW417689   2.113   3.112   5.995
 4343SOL     OW17690   2.783   3.576   5.786
 4343SOL    HW217691   2.738   3.592   5.869
 4343SOL    HW317692   2.714   3.541   5.728
 4343SOL    MW417693   2.769   3.573   5.788
 4344SOL     OW17694   3.718   2.349   5.761
 4344SOL    HW217695   3.627   2.351   5.789
 4344SOL    HW317696   3.763   2.411   5.819
 4344SOL    MW417697   3.711   2.357   5.771
 4345SOL     OW17698   3.463   2.952   6.111
 4345SOL    HW217699   3.373   2.952   6.146
 4345SOL    HW317700   3.456   2.998   6.028
 4345SOL    MW417701   3.450   2.958   6.105
 4346SOL     OW17702   2.990   2.533   6.072
 4346SOL    HW217703   3.016   2.557   5.983
 4346SOL    HW317704   2.972   2.440   6.068
 4346SOL    MW417705   2.992   2.525   6.059
 4347SOL     OW17706   3.655   3.153   5.923
 4347SOL    HW217707   3.611   3.194   5.998
 4347SOL    HW317708   3.712   3.221   5.888
 4347SOL    MW417709   3.657   3.167   5.928
 4348SOL     OW17710   2.311   3.569   6.241
 4348SOL    HW217711   2.343   3.657   6.219
 4348SOL    HW317712   2.264   3.541   6.163
 4348SOL    MW417713   2.310   3.577   6.228
 4349SOL     OW17714   2.027   3.629   5.818
 4349SOL    HW217715   2.056   3.719   5.810
 4349SOL    HW317716   1.977   3.612   5.739
 4349SOL    MW417717   2.025   3.637   5.807
 4350SOL     OW17718   3.431   3.437   5.789
 4350SOL    HW217719   3.479   3.506   5.835
 4350SOL    HW317720   3.352   3.481   5.758
 4350SOL    MW417721   3.426   3.451   5.792
 4351SOL     OW17722   2.829   2.562   5.733
 4351SOL    HW217723   2.831   2.509   5.654
 4351SOL    HW317724   2.917   2.599   5.739
 4351SOL    MW417725   2.841   2.561   5.722
 4352SOL     OW17726   3.443   2.488   6.069
 4352SOL    HW217727   3.482   2.488   6.156
 4352SOL    HW317728   3.384   2.564   6.069
 4352SOL    MW417729   3.440   2.499   6.080
 4353SOL     OW17730   3.630   2.374   6.235
 4353SOL    HW217731   3.719   2.343   6.252
 4353SOL    HW317732   3.573   2.314   6.283
 4353SOL    MW417733   3.633   2.362   6.244
 4354SOL     OW17734   2.056   2.088   6.264
 4354SOL    HW217735   2.047   2.028   6.190
 4354SOL    HW317736   1.989   2.059   6.327
 4354SOL    MW417737   2.046   2.075   6.262
 4355SOL     OW17738   2.462   3.599   5.933
 4355SOL    HW217739   2.383   3.557   5.966
 4355SOL    HW317740   2.528   3.582   6.000
 4355SOL    MW417741   2.461   3.591   5.946
 4356SOL     OW17742   2.598   3.014   5.640
 4356SOL    HW217743   2.520   2.960   5.627
 4356SOL    HW317744   2.569   3.087   5.693
 4356SOL    MW417745   2.584   3.016   5.645
 4357SOL     OW17746   3.179   3.530   5.708
 4357SOL    HW217747   3.105   3.493   5.758
 4357SOL    HW317748   3.187   3.620   5.741
 4357SOL    MW417749   3.170   3.537   5.720
 4358SOL     OW17750   3.403   3.204   5.650
 4358SOL    HW217751   3.350   3.253   5.586
 4358SOL    HW317752   3.434   3.270   5.711
 4358SOL    MW417753   3.401   3.218   5.648
 4359SOL     OW17754   2.628   2.093   5.705
 4359SOL    HW217755   2.576   2.013   5.693
 4359SOL    HW317756   2.715   2.070   5.673
 4359SOL    MW417757   2.631   2.079   5.699
 4360SOL     OW17758   1.989   2.733   6.162
 4360SOL    HW217759   2.080   2.748   6.189
 4360SOL    HW317760   1.992   2.654   6.108
 4360SOL    MW417761   2.001   2.725   6.160
 4361SOL     OW17762   1.997   3.345   6.201
 4361SOL    HW217763   1.969   3.384   6.283
 4361SOL    HW317764   2.017   3.254   6.223
 4361SOL    MW417765   1.995   3.337   6.214
 4362SOL     OW17766   2.830   3.388   6.236
 4362SOL    HW217767   2.913   3.342   6.220
 4362SOL    HW317768   2.820   3.387   6.332
 4362SOL    MW417769   2.840   3.381   6.246
 4363SOL     OW17770   2.563   3.445   5.641
 4363SOL    HW217771   2.503   3.514   5.611
 4363SOL    HW317772   2.508   3.387   5.694
 4363SOL    MW417773   2.547   3.447   5.643
 4364SOL     OW17774   3.001   2.090   5.864
 4364SOL    HW217775   2.934   2.066   5.801
 4364SOL    HW317776   3.066   2.139   5.813
 4364SOL    MW417777   3.001   2.092   5.849
 4365SOL     OW17778   2.194   3.489   6.030
 4365SOL    HW217779   2.155   3.536   5.956
 4365SOL    HW317780   2.128   3.424   6.055
 4365SOL    MW417781   2.181   3.487   6.024
 4366SOL     OW17782   2.686   2.898   6.054
 4366SOL    HW217783   2.688   2.872   5.961
 4366SOL    HW317784   2.744   2.835   6.097
 4366SOL    MW417785   2.694   2.887   6.048
 4367SOL     OW17786   2.001   3.076   6.321
 4367SOL    HW217787   2.065   3.108   6.384
 4367SOL    HW317788   2.050   3.012   6.269
 4367SOL    MW417789   2.016   3.072   6.322
 4368SOL     OW17790   2.844   1.951   5.659
 4368SOL    HW217791   2.900   1.943   5.581
 4368SOL    HW317792   2.821   1.861   5.681
 4368SOL    MW417793   2.849   1.938   5.652
 4369SOL     OW17794   3.349   2.802   5.864
 4369SOL    HW217795   3.316   2.891   5.854
 4369SOL    HW317796   3.314   2.773   5.949
 4369SOL    MW417797   3.339   2.811   5.875
 4370SOL     OW17798   2.343   2.840   5.656
 4370SOL    HW217799   2.266   2.853   5.712
 4370SOL    HW317800   2.307   2.804   5.575
 4370SOL    MW417801   2.329   2.836   5.653
 4371SOL     OW17802   2.996   2.813   5.899
 4371SOL    HW217803   2.906   2.834   5.874
 4371SOL    HW317804   3.023   2.886   5.955
 4371SOL    MW417805   2.988   2.825   5.902
 4372SOL     OW17806   2.383   3.169   6.055
 4372SOL    HW217807   2.376   3.201   6.145
 4372SOL    HW317808   2.293   3.153   6.027
 4372SOL    MW417809   2.371   3.171   6.062
 4373SOL     OW17810   2.386   2.453   5.769
 4373SOL    HW217811   2.352   2.509   5.839
 4373SOL    HW317812   2.457   2.403   5.809
 4373SOL    MW417813   2.392   2.454   5.783
 4374SOL     OW17814   3.442   2.339   5.833
 4374SOL    HW217815   3.434   2.410   5.770
 4374SOL    HW317816   3.460   2.383   5.916
 4374SOL    MW417817   3.443   2.353   5.835
 4375SOL     OW17818   2.302   1.994   6.262
 4375SOL    HW217819   2.352   2.037   6.193
 4375SOL    HW317820   2.217   2.038   6.262
 4375SOL    MW417821   2.299   2.007   6.253
 4376SOL     OW17822   3.111   2.601   5.808
 4376SOL    HW217823   3.158   2.619   5.727
 4376SOL    HW317824   3.077   2.685   5.836
 4376SOL    MW417825   3.113   2.615   5.801
 4377SOL     OW17826   2.224   2.779   6.302
 4377SOL    HW217827   2.282   2.835   6.250
 4377SOL    HW317828   2.268   2.694   6.304
 4377SOL    MW417829   2.237   2.776   6.295
 4378SOL     OW17830   3.364   2.131   6.139
 4378SOL    HW217831   3.286   2.081   6.164
 4378SOL    HW317832   3.335   2.222   6.139
 4378SOL    MW417833   3.350   2.135   6.142
 4379SOL     OW17834   2.846   3.343   5.630
 4379SOL    HW217835   2.873   3.421   5.582
 4379SOL    HW317836   2.753   3.358   5.649
 4379SOL    MW417837   2.837   3.356   5.626
 4380SOL     OW17838   1.886   2.505   6.021
 4380SOL    HW217839   1.826   2.477   6.091
 4380SOL    HW317840   1.960   2.445   6.027
 4380SOL    MW417841   1.888   2.494   6.030
 4381SOL     OW17842   2.409   1.989   6.537
 4381SOL    HW217843   2.419   1.898   6.563
 4381SOL    HW317844   2.365   1.985   6.452
 4381SOL    MW417845   2.405   1.977   6.529
 4382SOL     OW17846   3.194   1.903   5.817
 4382SOL    HW217847   3.268   1.947   5.860
 4382SOL    HW317848   3.118   1.957   5.839
 4382SOL    MW417849   3.194   1.915   5.825
 4383SOL     OW17850   3.254   2.678   6.095
 4383SOL    HW217851   3.169   2.648   6.065
 4383SOL    HW317852   3.246   2.685   6.190
 4383SOL    MW417853   3.242   2.676   6.104
 4384SOL     OW17854   2.627   2.344   5.821
 4384SOL    HW217855   2.700   2.393   5.784
 4384SOL    HW317856   2.643   2.253   5.795
 4384SOL    MW417857   2.639   2.339   5.814
 4385SOL     OW17858   2.102   2.853   5.919
 4385SOL    HW217859   2.039   2.869   5.848
 4385SOL    HW317860   2.049   2.816   5.990
 4385SOL    MW417861   2.087   2.850   5.919
 4386SOL     OW17862   2.458   3.207   5.778
 4386SOL    HW217863   2.473   3.183   5.870
 4386SOL    HW317864   2.366   3.185   5.762
 4386SOL    MW417865   2.448   3.200   5.788
 4387SOL     OW17866   2.997   3.438   5.930
 4387SOL    HW217867   3.005   3.356   5.881
 4387SOL    HW317868   2.916   3.477   5.897
 4387SOL    MW417869   2.987   3.433   5.920
 4388SOL     OW17870   2.256   3.596   6.499
 4388SOL    HW217871   2.260   3.507   6.534
 4388SOL    HW317872   2.282   3.587   6.408
 4388SOL    MW417873   2.259   3.584   6.491
 4389SOL     OW17874   2.333   2.319   6.376
 4389SOL    HW217875   2.404   2.267   6.339
 4389SOL    HW317876   2.319   2.284   6.463
 4389SOL    MW417877   2.341   2.308   6.383
 4390SOL     OW17878   2.969   2.260   6.100
 4390SOL    HW217879   2.991   2.197   6.032
 4390SOL    HW317880   2.874   2.252   6.111
 4390SOL    MW417881   2.959   2.251   6.092
 4391SOL     OW17882   2.054   1.950   6.032
 4391SOL    HW217883   2.125   1.971   5.971
 4391SOL    HW317884   2.008   1.878   5.990
 4391SOL    MW417885   2.058   1.944   6.018
 4392SOL     OW17886   3.623   3.324   6.132
 4392SOL    HW217887   3.593   3.257   6.193
 4392SOL    HW317888   3.717   3.330   6.146
 4392SOL    MW417889   3.631   3.316   6.142
 4393SOL     OW17890   3.179   3.001   6.062
 4393SOL    HW217891   3.151   3.087   6.095
 4393SOL    HW317892   3.207   3.017   5.972
 4393SOL    MW417893   3.179   3.015   6.054
 4394SOL     OW17894   2.841   1.921   6.115
 4394SOL    HW217895   2.878   1.980   6.180
 4394SOL    HW317896   2.818   1.977   6.041
 4394SOL    MW417897   2.842   1.936   6.114
 4395SOL     OW17898   2.262   2.612   6.011
 4395SOL    HW217899   2.262   2.707   5.996
 4395SOL    HW317900   2.339   2.596   6.065
 4395SOL    MW417901   2.272   2.623   6.016
 4396SOL     OW17902   2.021   2.343   6.300
 4396SOL    HW217903   2.083   2.350   6.373
 4396SOL    HW317904   2.021   2.250   6.277
 4396SOL    MW417905   2.029   2.332   6.307
 4397SOL     OW17906   3.568   3.683   5.832
 4397SOL    HW217907   3.635   3.716   5.772
 4397SOL    HW317908   3.525   3.762   5.866
 4397SOL    MW417909   3.570   3.698   5.828
 4398SOL     OW17910   1.890   2.915   5.758
 4398SOL    HW217911   1.859   2.980   5.821
 4398SOL    HW317912   1.839   2.837   5.777
 4398SOL    MW417913   1.880   2.912   5.768
 4399SOL     OW17914   2.474   3.715   5.700
 4399SOL    HW217915   2.379   3.715   5.692
 4399SOL    HW317916   2.490   3.661   5.778
 4399SOL    MW417917   2.464   3.709   5.709
 4400SOL     OW17918   3.319   2.535   5.615
 4400SOL    HW217919   3.247   2.511   5.557
 4400SOL    HW317920   3.385   2.572   5.557
 4400SOL    MW417921   3.318   2.537   5.600
 4401SOL     OW17922   2.714   2.432   6.426
 4401SOL    HW217923   2.654   2.450   6.498
 4401SOL    HW317924   2.748   2.344   6.445
 4401SOL    MW417925   2.710   2.422   6.439
 4402SOL     OW17926   2.732   2.835   5.800
 4402SOL    HW217927   2.718   2.747   5.765
 4402SOL    HW317928   2.683   2.892   5.741
 4402SOL    MW417929   2.724   2.830   5.788
 4403SOL     OW17930   3.451   2.041   5.902
 4403SOL    HW217931   3.444   2.045   5.997
 4403SOL    HW317932   3.463   2.132   5.875
 4403SOL    MW417933   3.452   2.054   5.910
 4404SOL     OW17934   2.740   2.604   6.016
 4404SOL    HW217935   2.720   2.590   5.923
 4404SOL    HW317936   2.833   2.583   6.023
 4404SOL    MW417937   2.750   2.599   6.005
 4405SOL     OW17938   2.723   3.562   6.054
 4405SOL    HW217939   2.781   3.633   6.081
 4405SOL    HW317940   2.746   3.490   6.112
 4405SOL    MW417941   2.734   3.562   6.065
 4406SOL     OW17942   2.179   1.994   5.789
 4406SOL    HW217943   2.108   2.049   5.757
 4406SOL    HW317944   2.221   1.960   5.710
 4406SOL    MW417945   2.175   1.996   5.775
 4407SOL     OW17946   1.935   2.093   5.638
 4407SOL    HW217947   1.902   2.172   5.682
 4407SOL    HW317948   1.990   2.126   5.567
 4407SOL    MW417949   1.938   2.107   5.635
 4408SOL     OW17950   1.969   3.350   5.827
 4408SOL    HW217951   1.986   3.434   5.869
 4408SOL    HW317952   2.004   3.359   5.739
 4408SOL    MW417953   1.974   3.363   5.821
 4409SOL     OW17954   3.241   3.439   6.044
 4409SOL    HW217955   3.304   3.429   5.973
 4409SOL    HW317956   3.158   3.459   5.999
 4409SOL    MW417957   3.238   3.440   6.029
 4410SOL     OW17958   3.604   4.575   0.257
 4410SOL    HW217959   3.645   4.517   0.322
 4410SOL    HW317960   3.511   4.567   0.274
 4410SOL    MW417961   3.598   4.567   0.267
 4411SOL     OW17962   3.470   4.507   1.252
 4411SOL    HW217963   3.425   4.574   1.303
 4411SOL    HW317964   3.558   4.543   1.238
 4411SOL    MW417965   3.476   4.520   1.256
 4412SOL     OW17966   2.398   4.758   0.486
 4412SOL    HW217967   2.488   4.733   0.470
 4412SOL    HW317968   2.394   4.851   0.463
 4412SOL    MW417969   2.410   4.767   0.481
 4413SOL     OW17970   3.514   5.461   0.628
 4413SOL    HW217971   3.526   5.407   0.706
 4413SOL    HW317972   3.551   5.409   0.557
 4413SOL    MW417973   3.520   5.446   0.629
 4414SOL     OW17974   2.893   5.346   1.629
 4414SOL    HW217975   2.934   5.382   1.550
 4414SOL    HW317976   2.928   5.257   1.636
 4414SOL    MW417977   2.904   5.339   1.620
 4415SOL     OW17978   3.450   4.901   1.233
 4415SOL    HW217979   3.371   4.866   1.191
 4415SOL    HW317980   3.477   4.973   1.177
 4415SOL    MW417981   3.443   4.906   1.220
 4416SOL     OW17982   2.682   4.214   0.499
 4416SOL    HW217983   2.657   4.302   0.527
 4416SOL    HW317984   2.679   4.217   0.403
 4416SOL    MW417985   2.678   4.226   0.491
 4417SOL     OW17986   2.124   4.242   0.427
 4417SOL    HW217987   2.156   4.330   0.409
 4417SOL    HW317988   2.112   4.240   0.522
 4417SOL    MW417989   2.127   4.254   0.439
 4418SOL     OW17990   2.202   4.655   1.328
 4418SOL    HW217991   2.265   4.602   1.279
 4418SOL    HW317992   2.183   4.729   1.271
 4418SOL    MW417993   2.208   4.657   1.315
 4419SOL     OW17994   2.523   3.997   0.514
 4419SOL    HW217995   2.581   4.073   0.516
 4419SOL    HW317996   2.458   4.018   0.447
 4419SOL    MW417997   2.522   4.009   0.505
 4420SOL     OW17998   2.610   4.924   0.689
 4420SOL    HW217999   2.690   4.927   0.741
 4420SOL    HW318000   2.638   4.891   0.603
 4420SOL    MW418001   2.624   4.920   0.684
 4421SOL     OW18002   2.635   5.265   1.592
 4421SOL    HW218003   2.719   5.291   1.631
 4421SOL    HW318004   2.659   5.209   1.518
 4421SOL    MW418005   2.649   5.261   1.587
 4422SOL     OW18006   2.387   4.428   0.680
 4422SOL    HW218007   2.372   4.348   0.731
 4422SOL    HW318008   2.469   4.463   0.714
 4422SOL    MW418009   2.395   4.420   0.692
 4423SOL     OW18010   2.724   5.114   1.365
 4423SOL    HW218011   2.688   5.180   1.305
 4423SOL    HW318012   2.652   5.052   1.378
 4423SOL    MW418013   2.710   5.114   1.359
 4424SOL     OW18014   2.529   4.254   1.057
 4424SOL    HW218015   2.435   4.250   1.075
 4424SOL    HW318016   2.559   4.163   1.066
 4424SOL    MW418017   2.520   4.242   1.060
 4425SOL     OW18018   2.275   4.668   0.961
 4425SOL    HW218019   2.230   4.675   0.877
 4425SOL    HW318020   2.255   4.751   1.005
 4425SOL    MW418021   2.267   4.680   0.955
 4426SOL     OW18022   1.972   5.514   0.836
 4426SOL    HW218023   2.061   5.506   0.871
 4426SOL    HW318024   1.936   5.426   0.841
 4426SOL    MW418025   1.979   5.501   0.841
 4427SOL     OW18026   3.237   4.906   0.205
 4427SOL    HW218027   3.155   4.942   0.171
 4427SOL    HW318028   3.305   4.949   0.154
 4427SOL    MW418029   3.235   4.916   0.193
 4428SOL     OW18030   2.236   5.041   0.871
 4428SOL    HW218031   2.212   5.094   0.947
 4428SOL    HW318032   2.292   5.099   0.819
 4428SOL    MW418033   2.240   5.056   0.874
 4429SOL     OW18034   2.798   4.685   0.681
 4429SOL    HW218035   2.712   4.672   0.721
 4429SOL    HW318036   2.851   4.612   0.713
 4429SOL    MW418037   2.794   4.674   0.690
 4430SOL     OW18038   2.206   5.337   1.466
 4430SOL    HW218039   2.114   5.313   1.451
 4430SOL    HW318040   2.250   5.254   1.483
 4430SOL    MW418041   2.200   5.322   1.465
 4431SOL     OW18042   2.789   5.047   0.398
 4431SOL    HW218043   2.766   5.109   0.466
 4431SOL    HW318044   2.746   4.965   0.424
 4431SOL    MW418045   2.781   5.043   0.409
 4432SOL     OW18046   3.662   4.048   0.854
 4432SOL    HW218047   3.599   4.028   0.923
 4432SOL    HW318048   3.652   3.977   0.791
 4432SOL    MW418049   3.652   4.035   0.855
 4433SOL     OW18050   2.286   4.020   0.366
 4433SOL    HW218051   2.260   3.982   0.282
 4433SOL    HW318052   2.223   4.090   0.382
 4433SOL    MW418053   2.275   4.023   0.357
 4434SOL     OW18054   2.121   4.981   0.403
 4434SOL    HW218055   2.069   5.049   0.359
 4434SOL    HW318056   2.118   4.907   0.343
 4434SOL    MW418057   2.113   4.980   0.390
 4435SOL     OW18058   2.783   5.444   0.181
 4435SOL    HW218059   2.738   5.460   0.264
 4435SOL    HW318060   2.714   5.409   0.123
 4435SOL    MW418061   2.769   5.441   0.183
 4436SOL     OW18062   3.718   4.217   0.156
 4436SOL    HW218063   3.627   4.219   0.184
 4436SOL    HW318064   3.763   4.279   0.214
 4436SOL    MW418065   3.711   4.225   0.166
 4437SOL     OW18066   3.463   4.820   0.506
 4437SOL    HW218067   3.373   4.820   0.541
 4437SOL    HW318068   3.456   4.866   0.423
 4437SOL    MW418069   3.450   4.826   0.500
 4438SOL     OW18070   3.263   4.455   1.578
 4438SOL    HW218071   3.332   4.393   1.555
 4438SOL    HW318072   3.188   4.429   1.525
 4438SOL    MW418073   3.263   4.442   1.569
 4439SOL     OW18074   2.004   5.335   1.130
 4439SOL    HW218075   1.987   5.281   1.207
 4439SOL    HW318076   1.992   5.425   1.160
 4439SOL    MW418077   2.001   5.339   1.144
 4440SOL     OW18078   2.999   4.842   1.570
 4440SOL    HW218079   2.984   4.935   1.555
 4440SOL    HW318080   3.094   4.832   1.570
 4440SOL    MW418081   3.008   4.852   1.567
 4441SOL     OW18082   2.795   4.266   1.771
 4441SOL    HW218083   2.885   4.267   1.738
 4441SOL    HW318084   2.754   4.191   1.729
 4441SOL    MW418085   2.801   4.256   1.762
 4442SOL     OW18086   3.370   4.798   0.898
 4442SOL    HW218087   3.373   4.732   0.829
 4442SOL    HW318088   3.455   4.841   0.894
 4442SOL    MW418089   3.382   4.794   0.889
 4443SOL     OW18090   2.990   4.401   0.467
 4443SOL    HW218091   3.016   4.425   0.378
 4443SOL    HW318092   2.972   4.308   0.463
 4443SOL    MW418093   2.992   4.393   0.454
 4444SOL     OW18094   3.655   5.021   0.318
 4444SOL    HW218095   3.611   5.062   0.393
 4444SOL    HW318096   3.712   5.089   0.283
 4444SOL    MW418097   3.657   5.035   0.323
 4445SOL     OW18098   2.575   4.070   1.721
 4445SOL    HW218099   2.585   3.996   1.661
 4445SOL    HW318100   2.611   4.039   1.804
 4445SOL    MW418101   2.581   4.056   1.723
 4446SOL     OW18102   2.311   5.437   0.636
 4446SOL    HW218103   2.343   5.525   0.614
 4446SOL    HW318104   2.264   5.409   0.558
 4446SOL    MW418105   2.310   5.445   0.623
 4447SOL     OW18106   3.695   3.799   0.685
 4447SOL    HW218107   3.749   3.750   0.747
 4447SOL    HW318108   3.638   3.733   0.646
 4447SOL    MW418109   3.695   3.783   0.687
 4448SOL     OW18110   2.027   5.497   0.213
 4448SOL    HW218111   2.056   5.587   0.205
 4448SOL    HW318112   1.977   5.480   0.134
 4448SOL    MW418113   2.025   5.505   0.202
 4449SOL     OW18114   2.814   3.752   1.098
 4449SOL    HW218115   2.773   3.830   1.060
 4449SOL    HW318116   2.908   3.770   1.093
 4449SOL    MW418117   2.820   3.764   1.093
 4450SOL     OW18118   3.431   5.305   0.184
 4450SOL    HW218119   3.479   5.374   0.230
 4450SOL    HW318120   3.352   5.349   0.153
 4450SOL    MW418121   3.426   5.319   0.187
 4451SOL     OW18122   2.829   4.430   0.128
 4451SOL    HW218123   2.831   4.377   0.049
 4451SOL    HW318124   2.917   4.467   0.134
 4451SOL    MW418125   2.841   4.429   0.117
 4452SOL     OW18126   3.443   4.356   0.464
 4452SOL    HW218127   3.482   4.356   0.551
 4452SOL    HW318128   3.384   4.432   0.464
 4452SOL    MW418129   3.440   4.367   0.475
 4453SOL     OW18130   2.760   4.723   1.593
 4453SOL    HW218131   2.737   4.703   1.683
 4453SOL    HW318132   2.845   4.767   1.598
 4453SOL    MW418133   2.767   4.726   1.605
 4454SOL     OW18134   2.840   3.860   1.353
 4454SOL    HW218135   2.846   3.822   1.266
 4454SOL    HW318136   2.829   3.954   1.338
 4454SOL    MW418137   2.841   3.868   1.341
 4455SOL     OW18138   2.929   4.349   1.187
 4455SOL    HW218139   3.004   4.378   1.134
 4455SOL    HW318140   2.861   4.414   1.171
 4455SOL    MW418141   2.930   4.361   1.177
 4456SOL     OW18142   3.479   4.317   1.464
 4456SOL    HW218143   3.460   4.226   1.443
 4456SOL    HW318144   3.457   4.366   1.385
 4456SOL    MW418145   3.474   4.310   1.451
 4457SOL     OW18146   3.621   5.411   1.368
 4457SOL    HW218147   3.549   5.373   1.419
 4457SOL    HW318148   3.638   5.496   1.409
 4457SOL    MW418149   3.615   5.416   1.380
 4458SOL     OW18150   2.926   4.055   1.570
 4458SOL    HW218151   2.892   4.094   1.489
 4458SOL    HW318152   2.904   3.963   1.563
 4458SOL    MW418153   2.919   4.048   1.560
 4459SOL     OW18154   3.630   4.242   0.630
 4459SOL    HW218155   3.719   4.211   0.647
 4459SOL    HW318156   3.573   4.182   0.678
 4459SOL    MW418157   3.633   4.230   0.639
 4460SOL     OW18158   2.056   3.956   0.659
 4460SOL    HW218159   2.047   3.896   0.585
 4460SOL    HW318160   1.989   3.927   0.722
 4460SOL    MW418161   2.046   3.943   0.657
 4461SOL     OW18162   2.999   5.049   0.220
 4461SOL    HW218163   2.949   5.051   0.302
 4461SOL    HW318164   2.933   5.067   0.152
 4461SOL    MW418165   2.985   5.051   0.222
 4462SOL     OW18166   2.003   4.129   1.022
 4462SOL    HW218167   1.975   4.220   1.031
 4462SOL    HW318168   1.940   4.090   0.961
 4462SOL    MW418169   1.990   4.135   1.016
 4463SOL     OW18170   2.462   5.467   0.328
 4463SOL    HW218171   2.383   5.425   0.361
 4463SOL    HW318172   2.528   5.450   0.395
 4463SOL    MW418173   2.461   5.459   0.341
 4464SOL     OW18174   3.590   4.987   1.725
 4464SOL    HW218175   3.640   4.913   1.757
 4464SOL    HW318176   3.536   5.014   1.800
 4464SOL    MW418177   3.590   4.981   1.738
 4465SOL     OW18178   2.598   4.882   0.035
 4465SOL    HW218179   2.520   4.828   0.022
 4465SOL    HW318180   2.569   4.955   0.088
 4465SOL    MW418181   2.584   4.884   0.040
 4466SOL     OW18182   3.724   4.622   1.227
 4466SOL    HW218183   3.740   4.660   1.140
 4466SOL    HW318184   3.758   4.688   1.288
 4466SOL    MW418185   3.731   4.635   1.223
 4467SOL     OW18186   3.516   5.331   0.896
 4467SOL    HW218187   3.545   5.398   0.957
 4467SOL    HW318188   3.497   5.255   0.951
 4467SOL    MW418189   3.518   5.331   0.911
 4468SOL     OW18190   3.179   5.398   0.103
 4468SOL    HW218191   3.105   5.361   0.153
 4468SOL    HW318192   3.187   5.488   0.136
 4468SOL    MW418193   3.170   5.405   0.115
 4469SOL     OW18194   1.987   4.404   1.192
 4469SOL    HW218195   2.049   4.434   1.258
 4469SOL    HW318196   1.921   4.473   1.186
 4469SOL    MW418197   1.986   4.417   1.199
 4470SOL     OW18198   3.403   5.072   0.045
 4470SOL    HW218199   3.350   5.121  -0.019
 4470SOL    HW318200   3.434   5.138   0.106
 4470SOL    MW418201   3.401   5.086   0.043
 4471SOL     OW18202   2.628   3.961   0.100
 4471SOL    HW218203   2.576   3.881   0.088
 4471SOL    HW318204   2.715   3.938   0.068
 4471SOL    MW418205   2.631   3.947   0.094
 4472SOL     OW18206   2.082   5.513   1.644
 4472SOL    HW218207   2.056   5.581   1.582
 4472SOL    HW318208   2.130   5.450   1.592
 4472SOL    MW418209   2.084   5.513   1.630
 4473SOL     OW18210   2.134   4.832   1.151
 4473SOL    HW218211   2.187   4.907   1.176
 4473SOL    HW318212   2.053   4.870   1.117
 4473SOL    MW418213   2.130   4.847   1.151
 4474SOL     OW18214   2.674   4.736   1.139
 4474SOL    HW218215   2.702   4.645   1.151
 4474SOL    HW318216   2.603   4.730   1.075
 4474SOL    MW418217   2.667   4.724   1.134
 4475SOL     OW18218   1.989   4.601   0.557
 4475SOL    HW218219   2.080   4.616   0.584
 4475SOL    HW318220   1.992   4.522   0.503
 4475SOL    MW418221   2.001   4.593   0.555
 4476SOL     OW18222   2.225   4.309   1.811
 4476SOL    HW218223   2.172   4.389   1.818
 4476SOL    HW318224   2.295   4.321   1.876
 4476SOL    MW418225   2.227   4.322   1.819
 4477SOL     OW18226   2.611   3.859   1.518
 4477SOL    HW218227   2.588   3.767   1.520
 4477SOL    HW318228   2.697   3.861   1.475
 4477SOL    MW418229   2.618   3.849   1.514
 4478SOL     OW18230   2.295   4.383   1.557
 4478SOL    HW218231   2.375   4.433   1.543
 4478SOL    HW318232   2.286   4.377   1.652
 4478SOL    MW418233   2.304   4.389   1.567
 4479SOL     OW18234   2.616   5.533   0.931
 4479SOL    HW218235   2.705   5.548   0.961
 4479SOL    HW318236   2.611   5.580   0.847
 4479SOL    MW418237   2.626   5.541   0.924
 4480SOL     OW18238   3.272   3.908   1.828
 4480SOL    HW218239   3.328   3.835   1.854
 4480SOL    HW318240   3.242   3.946   1.910
 4480SOL    MW418241   3.276   3.903   1.841
 4481SOL     OW18242   1.997   5.213   0.596
 4481SOL    HW218243   1.969   5.252   0.678
 4481SOL    HW318244   2.017   5.122   0.618
 4481SOL    MW418245   1.995   5.205   0.609
 4482SOL     OW18246   2.830   5.256   0.631
 4482SOL    HW218247   2.913   5.210   0.615
 4482SOL    HW318248   2.820   5.255   0.727
 4482SOL    MW418249   2.840   5.249   0.641
 4483SOL     OW18250   3.662   4.401   0.945
 4483SOL    HW218251   3.751   4.431   0.927
 4483SOL    HW318252   3.642   4.341   0.874
 4483SOL    MW418253   3.671   4.398   0.934
 4484SOL     OW18254   3.513   4.580   1.825
 4484SOL    HW218255   3.568   4.504   1.806
 4484SOL    HW318256   3.515   4.588   1.920
 4484SOL    MW418257   3.521   4.571   1.833
 4485SOL     OW18258   2.563   5.313   0.036
 4485SOL    HW218259   2.503   5.382   0.006
 4485SOL    HW318260   2.508   5.255   0.089
 4485SOL    MW418261   2.547   5.315   0.038
 4486SOL     OW18262   3.001   3.958   0.259
 4486SOL    HW218263   2.934   3.934   0.196
 4486SOL    HW318264   3.066   4.007   0.208
 4486SOL    MW418265   3.001   3.960   0.244
 4487SOL     OW18266   2.808   4.142   1.344
 4487SOL    HW218267   2.727   4.183   1.372
 4487SOL    HW318268   2.855   4.210   1.296
 4487SOL    MW418269   2.803   4.157   1.342
 4488SOL     OW18270   3.068   4.480   0.967
 4488SOL    HW218271   3.081   4.574   0.977
 4488SOL    HW318272   3.029   4.470   0.881
 4488SOL    MW418273   3.064   4.491   0.957
 4489SOL     OW18274   2.520   4.675   0.771
 4489SOL    HW218275   2.431   4.666   0.804
 4489SOL    HW318276   2.524   4.765   0.739
 4489SOL    MW418277   2.509   4.686   0.771
 4490SOL     OW18278   3.319   4.258   0.766
 4490SOL    HW218279   3.264   4.179   0.765
 4490SOL    HW318280   3.301   4.299   0.850
 4490SOL    MW418281   3.309   4.253   0.775
 4491SOL     OW18282   2.290   3.945   1.583
 4491SOL    HW218283   2.211   3.963   1.635
 4491SOL    HW318284   2.285   4.007   1.510
 4491SOL    MW418285   2.280   3.955   1.580
 4492SOL     OW18286   2.938   4.462   0.723
 4492SOL    HW218287   2.875   4.394   0.747
 4492SOL    HW318288   2.958   4.443   0.631
 4492SOL    MW418289   2.932   4.449   0.715
 4493SOL     OW18290   2.194   5.357   0.425
 4493SOL    HW218291   2.155   5.404   0.351
 4493SOL    HW318292   2.128   5.292   0.450
 4493SOL    MW418293   2.181   5.355   0.419
 4494SOL     OW18294   2.686   4.766   0.449
 4494SOL    HW218295   2.688   4.740   0.356
 4494SOL    HW318296   2.744   4.703   0.492
 4494SOL    MW418297   2.694   4.755   0.443
 4495SOL     OW18298   3.239   5.326   1.221
 4495SOL    HW218299   3.164   5.372   1.259
 4495SOL    HW318300   3.221   5.233   1.238
 4495SOL    MW418301   3.228   5.320   1.229
 4496SOL     OW18302   3.243   5.534   0.651
 4496SOL    HW218303   3.186   5.487   0.590
 4496SOL    HW318304   3.329   5.495   0.638
 4496SOL    MW418305   3.246   5.525   0.641
 4497SOL     OW18306   3.196   4.010   0.782
 4497SOL    HW218307   3.224   3.942   0.843
 4497SOL    HW318308   3.110   3.981   0.752
 4497SOL    MW418309   3.189   3.997   0.786
 4498SOL     OW18310   2.001   4.944   0.716
 4498SOL    HW218311   2.065   4.976   0.779
 4498SOL    HW318312   2.050   4.880   0.664
 4498SOL    MW418313   2.016   4.940   0.717
 4499SOL     OW18314   2.501   5.020   1.698
 4499SOL    HW218315   2.549   5.103   1.685
 4499SOL    HW318316   2.558   4.968   1.754
 4499SOL    MW418317   2.515   5.024   1.704
 4500SOL     OW18318   3.176   4.114   0.117
 4500SOL    HW218319   3.149   4.180   0.053
 4500SOL    HW318320   3.246   4.157   0.167
 4500SOL    MW418321   3.181   4.127   0.114
 4501SOL     OW18322   3.349   4.670   0.259
 4501SOL    HW218323   3.316   4.759   0.249
 4501SOL    HW318324   3.314   4.641   0.344
 4501SOL    MW418325   3.339   4.679   0.270
 4502SOL     OW18326   2.962   5.099   1.447
 4502SOL    HW218327   2.873   5.105   1.415
 4502SOL    HW318328   3.006   5.178   1.415
 4502SOL    MW418329   2.957   5.109   1.439
 4503SOL     OW18330   2.255   3.767   1.789
 4503SOL    HW218331   2.183   3.732   1.737
 4503SOL    HW318332   2.313   3.808   1.724
 4503SOL    MW418333   2.253   3.768   1.774
 4504SOL     OW18334   2.279   5.257   1.088
 4504SOL    HW218335   2.324   5.319   1.145
 4504SOL    HW318336   2.186   5.276   1.101
 4504SOL    MW418337   2.272   5.267   1.095
 4505SOL     OW18338   3.719   4.786   1.442
 4505SOL    HW218339   3.634   4.799   1.401
 4505SOL    HW318340   3.699   4.750   1.529
 4505SOL    MW418341   3.706   4.782   1.447
 4506SOL     OW18342   2.701   5.325   1.196
 4506SOL    HW218343   2.725   5.314   1.105
 4506SOL    HW318344   2.624   5.382   1.194
 4506SOL    MW418345   2.693   5.330   1.185
 4507SOL     OW18346   2.343   4.708   0.051
 4507SOL    HW218347   2.266   4.721   0.107
 4507SOL    HW318348   2.307   4.672  -0.030
 4507SOL    MW418349   2.329   4.704   0.048
 4508SOL     OW18350   2.996   4.681   0.294
 4508SOL    HW218351   2.906   4.702   0.269
 4508SOL    HW318352   3.023   4.754   0.350
 4508SOL    MW418353   2.988   4.693   0.297
 4509SOL     OW18354   2.496   5.030   0.986
 4509SOL    HW218355   2.489   5.009   1.080
 4509SOL    HW318356   2.414   4.998   0.949
 4509SOL    MW418357   2.484   5.024   0.993
 4510SOL     OW18358   3.360   4.040   1.388
 4510SOL    HW218359   3.307   4.042   1.468
 4510SOL    HW318360   3.345   3.953   1.351
 4510SOL    MW418361   3.352   4.030   1.393
 4511SOL     OW18362   3.696   3.964   1.261
 4511SOL    HW218363   3.677   4.031   1.196
 4511SOL    HW318364   3.753   3.902   1.216
 4511SOL    MW418365   3.700   3.965   1.247
 4512SOL     OW18366   1.942   5.122   1.649
 4512SOL    HW218367   1.986   5.055   1.595
 4512SOL    HW318368   1.857   5.084   1.669
 4512SOL    MW418369   1.937   5.108   1.645
 4513SOL     OW18370   2.625   3.797   0.701
 4513SOL    HW218371   2.554   3.858   0.683
 4513SOL    HW318372   2.676   3.794   0.620
 4513SOL    MW418373   2.621   3.803   0.688
 4514SOL     OW18374   2.383   5.037   0.450
 4514SOL    HW218375   2.376   5.069   0.540
 4514SOL    HW318376   2.293   5.021   0.422
 4514SOL    MW418377   2.371   5.039   0.457
 4515SOL     OW18378   2.978   5.430   1.359
 4515SOL    HW218379   2.898   5.415   1.309
 4515SOL    HW318380   2.985   5.525   1.366
 4515SOL    MW418381   2.969   5.441   1.353
 4516SOL     OW18382   3.092   5.395   0.849
 4516SOL    HW218383   3.139   5.468   0.808
 4516SOL    HW318384   3.013   5.434   0.885
 4516SOL    MW418385   3.087   5.410   0.848
 4517SOL     OW18386   3.500   5.490   1.124
 4517SOL    HW218387   3.543   5.460   1.204
 4517SOL    HW318388   3.419   5.438   1.121
 4517SOL    MW418389   3.495   5.479   1.134
 4518SOL     OW18390   2.585   4.454   1.831
 4518SOL    HW218391   2.655   4.396   1.803
 4518SOL    HW318392   2.528   4.399   1.886
 4518SOL    MW418393   2.587   4.441   1.835
 4519SOL     OW18394   3.372   4.666   1.464
 4519SOL    HW218395   3.377   4.719   1.544
 4519SOL    HW318396   3.334   4.583   1.492
 4519SOL    MW418397   3.368   4.661   1.479
 4520SOL     OW18398   3.012   3.801   1.710
 4520SOL    HW218399   3.007   3.708   1.691
 4520SOL    HW318400   3.095   3.812   1.756
 4520SOL    MW418401   3.020   3.790   1.714
 4521SOL     OW18402   2.386   4.321   0.164
 4521SOL    HW218403   2.352   4.377   0.234
 4521SOL    HW318404   2.457   4.271   0.204
 4521SOL    MW418405   2.392   4.322   0.178
 4522SOL     OW18406   3.482   5.072   0.986
 4522SOL    HW218407   3.517   5.054   0.899
 4522SOL    HW318408   3.387   5.073   0.973
 4522SOL    MW418409   3.474   5.069   0.973
 4523SOL     OW18410   2.911   4.720   1.355
 4523SOL    HW218411   2.954   4.755   1.433
 4523SOL    HW318412   2.894   4.797   1.301
 4523SOL    MW418413   2.914   4.735   1.358
 4524SOL     OW18414   3.442   4.207   0.228
 4524SOL    HW218415   3.434   4.278   0.165
 4524SOL    HW318416   3.460   4.251   0.311
 4524SOL    MW418417   3.443   4.221   0.230
 4525SOL     OW18418   2.302   3.862   0.657
 4525SOL    HW218419   2.352   3.905   0.588
 4525SOL    HW318420   2.217   3.906   0.657
 4525SOL    MW418421   2.299   3.875   0.648
 4526SOL     OW18422   2.061   4.924   1.517
 4526SOL    HW218423   2.089   4.877   1.595
 4526SOL    HW318424   1.982   4.879   1.488
 4526SOL    MW418425   2.054   4.913   1.523
 4527SOL     OW18426   2.569   4.251   1.484
 4527SOL    HW218427   2.541   4.339   1.508
 4527SOL    HW318428   2.538   4.195   1.555
 4527SOL    MW418429   2.561   4.254   1.496
 4528SOL     OW18430   3.111   4.469   0.203
 4528SOL    HW218431   3.158   4.487   0.122
 4528SOL    HW318432   3.077   4.553   0.231
 4528SOL    MW418433   3.113   4.483   0.196
 4529SOL     OW18434   2.224   4.647   0.697
 4529SOL    HW218435   2.282   4.703   0.645
 4529SOL    HW318436   2.268   4.562   0.699
 4529SOL    MW418437   2.237   4.644   0.690
 4530SOL     OW18438   3.364   3.999   0.534
 4530SOL    HW218439   3.286   3.949   0.559
 4530SOL    HW318440   3.335   4.090   0.534
 4530SOL    MW418441   3.350   4.003   0.537
 4531SOL     OW18442   2.950   3.961   0.693
 4531SOL    HW218443   2.970   4.036   0.637
 4531SOL    HW318444   2.930   4.000   0.778
 4531SOL    MW418445   2.951   3.977   0.697
 4532SOL     OW18446   2.846   5.211   0.025
 4532SOL    HW218447   2.873   5.289  -0.023
 4532SOL    HW318448   2.753   5.226   0.044
 4532SOL    MW418449   2.837   5.224   0.021
 4533SOL     OW18450   3.710   4.734   1.712
 4533SOL    HW218451   3.623   4.714   1.748
 4533SOL    HW318452   3.764   4.660   1.737
 4533SOL    MW418453   3.705   4.723   1.720
 4534SOL     OW18454   1.931   5.247   0.869
 4534SOL    HW218455   1.963   5.251   0.960
 4534SOL    HW318456   1.836   5.255   0.877
 4534SOL    MW418457   1.923   5.250   0.882
 4535SOL     OW18458   1.886   4.373   0.416
 4535SOL    HW218459   1.826   4.345   0.486
 4535SOL    HW318460   1.960   4.313   0.422
 4535SOL    MW418461   1.888   4.362   0.425
 4536SOL     OW18462   3.454   5.585   1.850
 4536SOL    HW218463   3.499   5.509   1.815
 4536SOL    HW318464   3.492   5.598   1.937
 4536SOL    MW418465   3.464   5.578   1.856
 4537SOL     OW18466   3.054   5.104   0.576
 4537SOL    HW218467   3.077   5.055   0.654
 4537SOL    HW318468   3.135   5.146   0.548
 4537SOL    MW418469   3.067   5.104   0.583
 4538SOL     OW18470   2.312   4.112   1.305
 4538SOL    HW218471   2.345   4.193   1.345
 4538SOL    HW318472   2.285   4.138   1.217
 4538SOL    MW418473   2.311   4.126   1.299
 4539SOL     OW18474   2.266   4.079   1.041
 4539SOL    HW218475   2.296   3.993   1.012
 4539SOL    HW318476   2.171   4.072   1.044
 4539SOL    MW418477   2.258   4.068   1.039
 4540SOL     OW18478   3.095   4.288   1.732
 4540SOL    HW218479   3.147   4.223   1.685
 4540SOL    HW318480   3.053   4.339   1.662
 4540SOL    MW418481   3.096   4.285   1.715
 4541SOL     OW18482   3.194   4.083   1.593
 4541SOL    HW218483   3.101   4.067   1.580
 4541SOL    HW318484   3.220   4.021   1.661
 4541SOL    MW418485   3.184   4.073   1.600
 4542SOL     OW18486   2.409   3.857   0.932
 4542SOL    HW218487   2.419   3.766   0.958
 4542SOL    HW318488   2.365   3.853   0.847
 4542SOL    MW418489   2.405   3.845   0.924
 4543SOL     OW18490   2.503   5.472   1.478
 4543SOL    HW218491   2.420   5.457   1.523
 4543SOL    HW318492   2.562   5.405   1.513
 4543SOL    MW418493   2.501   5.462   1.488
 4544SOL     OW18494   3.560   4.179   1.103
 4544SOL    HW218495   3.493   4.212   1.163
 4544SOL    HW318496   3.603   4.257   1.069
 4544SOL    MW418497   3.558   4.194   1.107
 4545SOL     OW18498   3.738   4.899   1.073
 4545SOL    HW218499   3.731   4.839   0.998
 4545SOL    HW318500   3.664   4.959   1.062
 4545SOL    MW418501   3.728   4.899   1.062
 4546SOL     OW18502   3.120   4.761   0.991
 4546SOL    HW218503   3.134   4.733   1.082
 4546SOL    HW318504   3.206   4.792   0.963
 4546SOL    MW418505   3.133   4.762   1.000
 4547SOL     OW18506   3.203   4.256   1.270
 4547SOL    HW218507   3.224   4.257   1.177
 4547SOL    HW318508   3.248   4.178   1.303
 4547SOL    MW418509   3.210   4.246   1.262
 4548SOL     OW18510   3.696   4.387   1.812
 4548SOL    HW218511   3.733   4.332   1.881
 4548SOL    HW318512   3.721   4.344   1.730
 4548SOL    MW418513   3.703   4.375   1.811
 4549SOL     OW18514   3.243   4.685   1.863
 4549SOL    HW218515   3.309   4.633   1.817
 4549SOL    HW318516   3.263   4.672   1.956
 4549SOL    MW418517   3.254   4.676   1.870
 4550SOL     OW18518   3.194   3.771   0.212
 4550SOL    HW218519   3.268   3.815   0.255
 4550SOL    HW318520   3.118   3.825   0.234
 4550SOL    MW418521   3.194   3.783   0.220
 4551SOL     OW18522   3.254   4.546   0.490
 4551SOL    HW218523   3.169   4.516   0.460
 4551SOL    HW318524   3.246   4.553   0.585
 4551SOL    MW418525   3.242   4.544   0.499
 4552SOL     OW18526   2.330   5.009   1.221
 4552SOL    HW218527   2.342   5.036   1.312
 4552SOL    HW318528   2.311   5.090   1.174
 4552SOL    MW418529   2.329   5.024   1.226
 4553SOL     OW18530   2.614   3.989   1.044
 4553SOL    HW218531   2.587   3.991   1.135
 4553SOL    HW318532   2.544   3.941   0.999
 4553SOL    MW418533   2.602   3.985   1.051
 4554SOL     OW18534   2.468   5.481   1.206
 4554SOL    HW218535   2.520   5.558   1.183
 4554SOL    HW318536   2.477   5.473   1.301
 4554SOL    MW418537   2.477   5.488   1.217
 4555SOL     OW18538   3.370   5.066   1.438
 4555SOL    HW218539   3.355   4.995   1.501
 4555SOL    HW318540   3.416   5.024   1.366
 4555SOL    MW418541   3.376   5.050   1.438
 4556SOL     OW18542   2.444   4.797   1.555
 4556SOL    HW218543   2.481   4.802   1.467
 4556SOL    HW318544   2.483   4.870   1.602
 4556SOL    MW418545   2.454   4.807   1.550
 4557SOL     OW18546   2.624   4.840   1.367
 4557SOL    HW218547   2.683   4.786   1.420
 4557SOL    HW318548   2.639   4.812   1.277
 4557SOL    MW418549   2.634   4.829   1.363
 4558SOL     OW18550   2.627   4.212   0.216
 4558SOL    HW218551   2.700   4.261   0.179
 4558SOL    HW318552   2.643   4.121   0.190
 4558SOL    MW418553   2.639   4.207   0.209
 4559SOL     OW18554   3.435   5.329   1.539
 4559SOL    HW218555   3.477   5.314   1.624
 4559SOL    HW318556   3.426   5.242   1.501
 4559SOL    MW418557   3.439   5.317   1.546
 4560SOL     OW18558   3.095   3.808   1.130
 4560SOL    HW218559   3.150   3.817   1.052
 4560SOL    HW318560   3.150   3.842   1.201
 4560SOL    MW418561   3.109   3.813   1.129
 4561SOL     OW18562   2.102   4.721   0.314
 4561SOL    HW218563   2.039   4.737   0.243
 4561SOL    HW318564   2.049   4.684   0.385
 4561SOL    MW418565   2.087   4.718   0.314
 4562SOL     OW18566   2.458   5.075   0.173
 4562SOL    HW218567   2.473   5.051   0.265
 4562SOL    HW318568   2.366   5.053   0.157
 4562SOL    MW418569   2.448   5.068   0.183
 4563SOL     OW18570   2.997   5.306   0.325
 4563SOL    HW218571   3.005   5.224   0.276
 4563SOL    HW318572   2.916   5.345   0.292
 4563SOL    MW418573   2.987   5.301   0.315
 4564SOL     OW18574   2.256   5.464   0.894
 4564SOL    HW218575   2.260   5.375   0.929
 4564SOL    HW318576   2.282   5.455   0.803
 4564SOL    MW418577   2.259   5.452   0.886
 4565SOL     OW18578   2.873   4.942   1.137
 4565SOL    HW218579   2.805   4.876   1.153
 4565SOL    HW318580   2.891   4.936   1.044
 4565SOL    MW418581   2.866   4.933   1.128
 4566SOL     OW18582   1.962   5.217   1.388
 4566SOL    HW218583   1.952   5.175   1.474
 4566SOL    HW318584   1.883   5.270   1.378
 4566SOL    MW418585   1.951   5.218   1.399
 4567SOL     OW18586   2.866   4.081   0.958
 4567SOL    HW218587   2.796   4.033   1.003
 4567SOL    HW318588   2.898   4.144   1.022
 4567SOL    MW418589   2.861   4.083   0.972
 4568SOL     OW18590   2.517   4.517   1.578
 4568SOL    HW218591   2.510   4.612   1.566
 4568SOL    HW318592   2.526   4.506   1.673
 4568SOL    MW418593   2.518   4.529   1.588
 4569SOL     OW18594   2.238   5.032   1.836
 4569SOL    HW218595   2.310   5.034   1.773
 4569SOL    HW318596   2.208   4.941   1.835
 4569SOL    MW418597   2.243   5.021   1.828
 4570SOL     OW18598   3.322   3.795   1.303
 4570SOL    HW218599   3.393   3.741   1.267
 4570SOL    HW318600   3.321   3.774   1.396
 4570SOL    MW418601   3.331   3.786   1.311
 4571SOL     OW18602   3.522   5.325   1.787
 4571SOL    HW218603   3.495   5.322   1.878
 4571SOL    HW318604   3.618   5.329   1.790
 4571SOL    MW418605   3.532   5.325   1.799
 4572SOL     OW18606   2.333   4.187   0.771
 4572SOL    HW218607   2.404   4.135   0.734
 4572SOL    HW318608   2.319   4.152   0.858
 4572SOL    MW418609   2.341   4.176   0.778
 4573SOL     OW18610   1.888   5.522   1.843
 4573SOL    HW218611   1.938   5.500   1.765
 4573SOL    HW318612   1.896   5.617   1.851
 4573SOL    MW418613   1.896   5.531   1.834
 4574SOL     OW18614   2.649   5.280   0.847
 4574SOL    HW218615   2.577   5.217   0.860
 4574SOL    HW318616   2.610   5.365   0.865
 4574SOL    MW418617   2.633   5.283   0.850
 4575SOL     OW18618   2.969   4.128   0.495
 4575SOL    HW218619   2.991   4.065   0.427
 4575SOL    HW318620   2.874   4.120   0.506
 4575SOL    MW418621   2.959   4.119   0.487
 4576SOL     OW18622   2.054   3.818   0.427
 4576SOL    HW218623   2.125   3.839   0.366
 4576SOL    HW318624   2.008   3.746   0.385
 4576SOL    MW418625   2.058   3.812   0.413
 4577SOL     OW18626   1.885   4.285   1.570
 4577SOL    HW218627   1.949   4.351   1.545
 4577SOL    HW318628   1.804   4.312   1.527
 4577SOL    MW418629   1.883   4.297   1.562
 4578SOL     OW18630   3.623   5.192   0.527
 4578SOL    HW218631   3.593   5.125   0.588
 4578SOL    HW318632   3.717   5.198   0.541
 4578SOL    MW418633   3.631   5.184   0.537
 4579SOL     OW18634   3.179   4.869   0.457
 4579SOL    HW218635   3.151   4.955   0.490
 4579SOL    HW318636   3.207   4.885   0.367
 4579SOL    MW418637   3.179   4.883   0.449
 4580SOL     OW18638   2.841   3.789   0.510
 4580SOL    HW218639   2.878   3.848   0.575
 4580SOL    HW318640   2.818   3.845   0.436
 4580SOL    MW418641   2.842   3.804   0.509
 4581SOL     OW18642   3.694   4.671   0.932
 4581SOL    HW218643   3.685   4.703   0.843
 4581SOL    HW318644   3.647   4.587   0.932
 4581SOL    MW418645   3.687   4.664   0.922
 4582SOL     OW18646   2.070   4.511   1.511
 4582SOL    HW218647   2.091   4.580   1.449
 4582SOL    HW318648   2.150   4.458   1.516
 4582SOL    MW418649   2.083   4.512   1.505
 4583SOL     OW18650   3.606   4.602   0.633
 4583SOL    HW218651   3.700   4.591   0.621
 4583SOL    HW318652   3.582   4.674   0.574
 4583SOL    MW418653   3.616   4.610   0.624
 4584SOL     OW18654   2.055   4.526   1.778
 4584SOL    HW218655   1.981   4.470   1.804
 4584SOL    HW318656   2.050   4.529   1.683
 4584SOL    MW418657   2.044   4.519   1.768
 4585SOL     OW18658   2.221   3.813   1.228
 4585SOL    HW218659   2.264   3.897   1.248
 4585SOL    HW318660   2.294   3.751   1.221
 4585SOL    MW418661   2.236   3.816   1.229
 4586SOL     OW18662   2.262   4.480   0.406
 4586SOL    HW218663   2.262   4.575   0.391
 4586SOL    HW318664   2.339   4.464   0.460
 4586SOL    MW418665   2.272   4.491   0.411
 4587SOL     OW18666   3.038   4.339   1.470
 4587SOL    HW218667   3.074   4.312   1.386
 4587SOL    HW318668   2.951   4.373   1.449
 4587SOL    MW418669   3.032   4.340   1.457
 4588SOL     OW18670   2.021   4.211   0.695
 4588SOL    HW218671   2.083   4.218   0.768
 4588SOL    HW318672   2.021   4.118   0.672
 4588SOL    MW418673   2.029   4.200   0.702
 4589SOL     OW18674   3.568   5.551   0.227
 4589SOL    HW218675   3.635   5.584   0.167
 4589SOL    HW318676   3.525   5.630   0.261
 4589SOL    MW418677   3.570   5.566   0.223
 4590SOL     OW18678   2.703   4.472   1.179
 4590SOL    HW218679   2.661   4.390   1.155
 4590SOL    HW318680   2.704   4.471   1.275
 4590SOL    MW418681   2.696   4.461   1.188
 4591SOL     OW18682   3.374   5.605   1.578
 4591SOL    HW218683   3.377   5.511   1.561
 4591SOL    HW318684   3.397   5.613   1.670
 4591SOL    MW418685   3.377   5.593   1.588
 4592SOL     OW18686   2.507   3.942   1.284
 4592SOL    HW218687   2.438   4.005   1.305
 4592SOL    HW318688   2.534   3.906   1.369
 4592SOL    MW418689   2.501   3.945   1.297
 4593SOL     OW18690   1.890   4.783   0.153
 4593SOL    HW218691   1.859   4.848   0.216
 4593SOL    HW318692   1.839   4.705   0.172
 4593SOL    MW418693   1.880   4.780   0.163
 4594SOL     OW18694   3.302   3.795   0.901
 4594SOL    HW218695   3.390   3.804   0.938
 4594SOL    HW318696   3.312   3.736   0.827
 4594SOL    MW418697   3.316   3.789   0.895
 4595SOL     OW18698   3.334   4.534   0.745
 4595SOL    HW218699   3.414   4.549   0.694
 4595SOL    HW318700   3.327   4.439   0.751
 4595SOL    MW418701   3.343   4.523   0.740
 4596SOL     OW18702   2.474   5.583   0.095
 4596SOL    HW218703   2.379   5.583   0.087
 4596SOL    HW318704   2.490   5.529   0.173
 4596SOL    MW418705   2.464   5.577   0.104
 4597SOL     OW18706   2.784   4.460   1.442
 4597SOL    HW218707   2.853   4.527   1.439
 4597SOL    HW318708   2.717   4.498   1.498
 4597SOL    MW418709   2.785   4.473   1.449
 4598SOL     OW18710   2.202   4.760   1.690
 4598SOL    HW218711   2.156   4.676   1.692
 4598SOL    HW318712   2.259   4.754   1.614
 4598SOL    MW418713   2.204   4.748   1.682
 4599SOL     OW18714   3.319   4.403   0.011
 4599SOL    HW218715   3.247   4.379  -0.047
 4599SOL    HW318716   3.385   4.440  -0.047
 4599SOL    MW418717   3.318   4.405  -0.004
 4600SOL     OW18718   2.453   5.135   0.691
 4600SOL    HW218719   2.518   5.068   0.712
 4600SOL    HW318720   2.505   5.212   0.668
 4600SOL    MW418721   2.468   5.137   0.690
 4601SOL     OW18722   2.714   4.300   0.821
 4601SOL    HW218723   2.654   4.318   0.893
 4601SOL    HW318724   2.748   4.212   0.840
 4601SOL    MW418725   2.710   4.290   0.834
 4602SOL     OW18726   3.655   3.799   1.490
 4602SOL    HW218727   3.576   3.845   1.518
 4602SOL    HW318728   3.690   3.853   1.419
 4602SOL    MW418729   3.649   3.812   1.484
 4603SOL     OW18730   2.939   4.883   0.840
 4603SOL    HW218731   3.031   4.864   0.858
 4603SOL    HW318732   2.912   4.813   0.780
 4603SOL    MW418733   2.947   4.871   0.834
 4604SOL     OW18734   2.732   4.703   0.195
 4604SOL    HW218735   2.718   4.615   0.160
 4604SOL    HW318736   2.683   4.760   0.136
 4604SOL    MW418737   2.724   4.698   0.183
 4605SOL     OW18738   3.213   5.121   0.936
 4605SOL    HW218739   3.186   5.205   0.901
 4605SOL    HW318740   3.173   5.116   1.023
 4605SOL    MW418741   3.206   5.130   0.942
 4606SOL     OW18742   3.132   5.069   1.204
 4606SOL    HW218743   3.143   5.036   1.293
 4606SOL    HW318744   3.051   5.028   1.173
 4606SOL    MW418745   3.122   5.061   1.210
 4607SOL     OW18746   2.145   4.427   0.974
 4607SOL    HW218747   2.095   4.426   1.055
 4607SOL    HW318748   2.165   4.519   0.958
 4607SOL    MW418749   2.141   4.439   0.982
 4608SOL     OW18750   3.212   5.191   1.736
 4608SOL    HW218751   3.212   5.285   1.752
 4608SOL    HW318752   3.257   5.181   1.652
 4608SOL    MW418753   3.218   5.201   1.727
 4609SOL     OW18754   3.451   3.909   0.297
 4609SOL    HW218755   3.444   3.913   0.392
 4609SOL    HW318756   3.463   4.000   0.270
 4609SOL    MW418757   3.452   3.922   0.305
 4610SOL     OW18758   2.740   4.472   0.411
 4610SOL    HW218759   2.720   4.458   0.318
 4610SOL    HW318760   2.833   4.451   0.418
 4610SOL    MW418761   2.750   4.467   0.400
 4611SOL     OW18762   2.067   4.095   1.715
 4611SOL    HW218763   2.024   4.154   1.652
 4611SOL    HW318764   2.135   4.150   1.755
 4611SOL    MW418765   2.071   4.110   1.712
 4612SOL     OW18766   3.179   4.715   1.260
 4612SOL    HW218767   3.242   4.712   1.333
 4612SOL    HW318768   3.095   4.733   1.302
 4612SOL    MW418769   3.175   4.717   1.275
 4613SOL     OW18770   2.723   5.430   0.449
 4613SOL    HW218771   2.781   5.501   0.476
 4613SOL    HW318772   2.746   5.358   0.507
 4613SOL    MW418773   2.734   5.430   0.460
 4614SOL     OW18774   3.518   3.892   1.039
 4614SOL    HW218775   3.563   3.810   1.058
 4614SOL    HW318776   3.538   3.948   1.115
 4614SOL    MW418777   3.528   3.888   1.051
 4615SOL     OW18778   1.966   3.735   1.138
 4615SOL    HW218779   1.957   3.736   1.043
 4615SOL    HW318780   2.060   3.747   1.153
 4615SOL    MW418781   1.978   3.738   1.129
 4616SOL     OW18782   3.603   4.928   0.758
 4616SOL    HW218783   3.582   4.874   0.681
 4616SOL    HW318784   3.699   4.926   0.762
 4616SOL    MW418785   3.612   4.921   0.747
 4617SOL     OW18786   2.295   5.073   1.501
 4617SOL    HW218787   2.216   5.023   1.524
 4617SOL    HW318788   2.365   5.032   1.551
 4617SOL    MW418789   2.293   5.061   1.511
 4618SOL     OW18790   2.179   3.862   0.184
 4618SOL    HW218791   2.108   3.917   0.152
 4618SOL    HW318792   2.221   3.828   0.105
 4618SOL    MW418793   2.175   3.864   0.170
 4619SOL     OW18794   3.303   4.359   1.020
 4619SOL    HW218795   3.226   4.405   0.986
 4619SOL    HW318796   3.360   4.428   1.054
 4619SOL    MW418797   3.300   4.374   1.020
 4620SOL     OW18798   1.935   3.961   0.033
 4620SOL    HW218799   1.902   4.040   0.077
 4620SOL    HW318800   1.990   3.994  -0.038
 4620SOL    MW418801   1.938   3.975   0.030
 4621SOL     OW18802   1.969   5.218   0.222
 4621SOL    HW218803   1.986   5.302   0.264
 4621SOL    HW318804   2.004   5.227   0.134
 4621SOL    MW418805   1.974   5.231   0.216
 4622SOL     OW18806   3.241   5.307   0.439
 4622SOL    HW218807   3.304   5.297   0.368
 4622SOL    HW318808   3.158   5.327   0.394
 4622SOL    MW418809   3.238   5.308   0.424
 4623SOL     OW18810   3.604   4.575   2.125
 4623SOL    HW218811   3.645   4.517   2.190
 4623SOL    HW318812   3.511   4.567   2.142
 4623SOL    MW418813   3.598   4.567   2.135
 4624SOL     OW18814   3.470   4.507   3.120
 4624SOL    HW218815   3.425   4.574   3.171
 4624SOL    HW318816   3.558   4.543   3.106
 4624SOL    MW418817   3.476   4.520   3.124
 4625SOL     OW18818   2.398   4.758   2.354
 4625SOL    HW218819   2.488   4.733   2.338
 4625SOL    HW318820   2.394   4.851   2.331
 4625SOL    MW418821   2.410   4.767   2.349
 4626SOL     OW18822   2.893   5.346   3.497
 4626SOL    HW218823   2.934   5.382   3.418
 4626SOL    HW318824   2.928   5.257   3.504
 4626SOL    MW418825   2.904   5.339   3.488
 4627SOL     OW18826   3.450   4.901   3.101
 4627SOL    HW218827   3.371   4.866   3.059
 4627SOL    HW318828   3.477   4.973   3.045
 4627SOL    MW418829   3.443   4.906   3.088
 4628SOL     OW18830   2.682   4.214   2.367
 4628SOL    HW218831   2.657   4.302   2.395
 4628SOL    HW318832   2.679   4.217   2.271
 4628SOL    MW418833   2.678   4.226   2.359
 4629SOL     OW18834   2.124   4.242   2.295
 4629SOL    HW218835   2.156   4.330   2.277
 4629SOL    HW318836   2.112   4.240   2.390
 4629SOL    MW418837   2.127   4.254   2.307
 4630SOL     OW18838   2.202   4.655   3.196
 4630SOL    HW218839   2.265   4.602   3.147
 4630SOL    HW318840   2.183   4.729   3.139
 4630SOL    MW418841   2.208   4.657   3.183
 4631SOL     OW18842   2.523   3.997   2.382
 4631SOL    HW218843   2.581   4.073   2.384
 4631SOL    HW318844   2.458   4.018   2.315
 4631SOL    MW418845   2.522   4.009   2.373
 4632SOL     OW18846   2.610   4.924   2.557
 4632SOL    HW218847   2.690   4.927   2.609
 4632SOL    HW318848   2.638   4.891   2.471
 4632SOL    MW418849   2.624   4.920   2.552
 4633SOL     OW18850   2.635   5.265   3.460
 4633SOL    HW218851   2.719   5.291   3.499
 4633SOL    HW318852   2.659   5.209   3.386
 4633SOL    MW418853   2.649   5.261   3.455
 4634SOL     OW18854   2.387   4.428   2.548
 4634SOL    HW218855   2.372   4.348   2.599
 4634SOL    HW318856   2.469   4.463   2.582
 4634SOL    MW418857   2.395   4.420   2.560
 4635SOL     OW18858   2.724   5.114   3.233
 4635SOL    HW218859   2.688   5.180   3.173
 4635SOL    HW318860   2.652   5.052   3.246
 4635SOL    MW418861   2.710   5.114   3.227
 4636SOL     OW18862   2.529   4.254   2.925
 4636SOL    HW218863   2.435   4.250   2.943
 4636SOL    HW318864   2.559   4.163   2.934
 4636SOL    MW418865   2.520   4.242   2.928
 4637SOL     OW18866   2.275   4.668   2.829
 4637SOL    HW218867   2.230   4.675   2.745
 4637SOL    HW318868   2.255   4.751   2.873
 4637SOL    MW418869   2.267   4.680   2.823
 4638SOL     OW18870   1.972   5.514   2.704
 4638SOL    HW218871   2.061   5.506   2.739
 4638SOL    HW318872   1.936   5.426   2.709
 4638SOL    MW418873   1.979   5.501   2.709
 4639SOL     OW18874   3.237   4.906   2.073
 4639SOL    HW218875   3.155   4.942   2.039
 4639SOL    HW318876   3.305   4.949   2.022
 4639SOL    MW418877   3.235   4.916   2.061
 4640SOL     OW18878   2.236   5.041   2.739
 4640SOL    HW218879   2.212   5.094   2.815
 4640SOL    HW318880   2.292   5.099   2.687
 4640SOL    MW418881   2.240   5.056   2.742
 4641SOL     OW18882   2.798   4.685   2.549
 4641SOL    HW218883   2.712   4.672   2.589
 4641SOL    HW318884   2.851   4.612   2.581
 4641SOL    MW418885   2.794   4.674   2.558
 4642SOL     OW18886   2.206   5.337   3.334
 4642SOL    HW218887   2.114   5.313   3.319
 4642SOL    HW318888   2.250   5.254   3.351
 4642SOL    MW418889   2.200   5.322   3.333
 4643SOL     OW18890   2.789   5.047   2.266
 4643SOL    HW218891   2.766   5.109   2.334
 4643SOL    HW318892   2.746   4.965   2.292
 4643SOL    MW418893   2.781   5.043   2.277
 4644SOL     OW18894   3.662   4.048   2.722
 4644SOL    HW218895   3.599   4.028   2.791
 4644SOL    HW318896   3.652   3.977   2.659
 4644SOL    MW418897   3.652   4.035   2.723
 4645SOL     OW18898   2.286   4.020   2.234
 4645SOL    HW218899   2.260   3.982   2.150
 4645SOL    HW318900   2.223   4.090   2.250
 4645SOL    MW418901   2.275   4.023   2.225
 4646SOL     OW18902   2.121   4.981   2.271
 4646SOL    HW218903   2.069   5.049   2.227
 4646SOL    HW318904   2.118   4.907   2.211
 4646SOL    MW418905   2.113   4.980   2.258
 4647SOL     OW18906   2.783   5.444   2.049
 4647SOL    HW218907   2.738   5.460   2.132
 4647SOL    HW318908   2.714   5.409   1.991
 4647SOL    MW418909   2.769   5.441   2.051
 4648SOL     OW18910   3.718   4.217   2.024
 4648SOL    HW218911   3.627   4.219   2.052
 4648SOL    HW318912   3.763   4.279   2.082
 4648SOL    MW418913   3.711   4.225   2.034
 4649SOL     OW18914   3.463   4.820   2.374
 4649SOL    HW218915   3.373   4.820   2.409
 4649SOL    HW318916   3.456   4.866   2.291
 4649SOL    MW418917   3.450   4.826   2.368
 4650SOL     OW18918   3.263   4.455   3.446
 4650SOL    HW218919   3.332   4.393   3.423
 4650SOL    HW318920   3.188   4.429   3.393
 4650SOL    MW418921   3.263   4.442   3.437
 4651SOL     OW18922   2.004   5.335   2.998
 4651SOL    HW218923   1.987   5.281   3.075
 4651SOL    HW318924   1.992   5.425   3.028
 4651SOL    MW418925   2.001   5.339   3.012
 4652SOL     OW18926   2.999   4.842   3.438
 4652SOL    HW218927   2.984   4.935   3.423
 4652SOL    HW318928   3.094   4.832   3.438
 4652SOL    MW418929   3.008   4.852   3.435
 4653SOL     OW18930   2.795   4.266   3.639
 4653SOL    HW218931   2.885   4.267   3.606
 4653SOL    HW318932   2.754   4.191   3.597
 4653SOL    MW418933   2.801   4.256   3.630
 4654SOL     OW18934   3.370   4.798   2.766
 4654SOL    HW218935   3.373   4.732   2.697
 4654SOL    HW318936   3.455   4.841   2.762
 4654SOL    MW418937   3.382   4.794   2.757
 4655SOL     OW18938   2.990   4.401   2.335
 4655SOL    HW218939   3.016   4.425   2.246
 4655SOL    HW318940   2.972   4.308   2.331
 4655SOL    MW418941   2.992   4.393   2.322
 4656SOL     OW18942   3.655   5.021   2.186
 4656SOL    HW218943   3.611   5.062   2.261
 4656SOL    HW318944   3.712   5.089   2.151
 4656SOL    MW418945   3.657   5.035   2.191
 4657SOL     OW18946   2.575   4.070   3.589
 4657SOL    HW218947   2.585   3.996   3.529
 4657SOL    HW318948   2.611   4.039   3.672
 4657SOL    MW418949   2.581   4.056   3.591
 4658SOL     OW18950   2.311   5.437   2.504
 4658SOL    HW218951   2.343   5.525   2.482
 4658SOL    HW318952   2.264   5.409   2.426
 4658SOL    MW418953   2.310   5.445   2.491
 4659SOL     OW18954   3.695   3.799   2.553
 4659SOL    HW218955   3.749   3.750   2.615
 4659SOL    HW318956   3.638   3.733   2.514
 4659SOL    MW418957   3.695   3.783   2.555
 4660SOL     OW18958   2.027   5.497   2.081
 4660SOL    HW218959   2.056   5.587   2.073
 4660SOL    HW318960   1.977   5.480   2.002
 4660SOL    MW418961   2.025   5.505   2.070
 4661SOL     OW18962   2.814   3.752   2.966
 4661SOL    HW218963   2.773   3.830   2.928
 4661SOL    HW318964   2.908   3.770   2.961
 4661SOL    MW418965   2.820   3.764   2.961
 4662SOL     OW18966   3.431   5.305   2.052
 4662SOL    HW218967   3.479   5.374   2.098
 4662SOL    HW318968   3.352   5.349   2.021
 4662SOL    MW418969   3.426   5.319   2.055
 4663SOL     OW18970   2.829   4.430   1.996
 4663SOL    HW218971   2.831   4.377   1.917
 4663SOL    HW318972   2.917   4.467   2.002
 4663SOL    MW418973   2.841   4.429   1.985
 4664SOL     OW18974   3.443   4.356   2.332
 4664SOL    HW218975   3.482   4.356   2.419
 4664SOL    HW318976   3.384   4.432   2.332
 4664SOL    MW418977   3.440   4.367   2.343
 4665SOL     OW18978   2.760   4.723   3.461
 4665SOL    HW218979   2.737   4.703   3.551
 4665SOL    HW318980   2.845   4.767   3.466
 4665SOL    MW418981   2.767   4.726   3.473
 4666SOL     OW18982   2.840   3.860   3.221
 4666SOL    HW218983   2.846   3.822   3.134
 4666SOL    HW318984   2.829   3.954   3.206
 4666SOL    MW418985   2.841   3.868   3.209
 4667SOL     OW18986   2.929   4.349   3.055
 4667SOL    HW218987   3.004   4.378   3.002
 4667SOL    HW318988   2.861   4.414   3.039
 4667SOL    MW418989   2.930   4.361   3.045
 4668SOL     OW18990   3.479   4.317   3.332
 4668SOL    HW218991   3.460   4.226   3.311
 4668SOL    HW318992   3.457   4.366   3.253
 4668SOL    MW418993   3.474   4.310   3.319
 4669SOL     OW18994   2.926   4.055   3.438
 4669SOL    HW218995   2.892   4.094   3.357
 4669SOL    HW318996   2.904   3.963   3.431
 4669SOL    MW418997   2.919   4.048   3.428
 4670SOL     OW18998   3.335   4.869   3.514
 4670SOL    HW218999   3.417   4.910   3.544
 4670SOL    HW319000   3.298   4.831   3.594
 4670SOL    MW419001   3.341   4.870   3.529
 4671SOL     OW19002   3.630   4.242   2.498
 4671SOL    HW219003   3.719   4.211   2.515
 4671SOL    HW319004   3.573   4.182   2.546
 4671SOL    MW419005   3.633   4.230   2.507
 4672SOL     OW19006   2.056   3.956   2.527
 4672SOL    HW219007   2.047   3.896   2.453
 4672SOL    HW319008   1.989   3.927   2.590
 4672SOL    MW419009   2.046   3.943   2.525
 4673SOL     OW19010   2.999   5.049   2.088
 4673SOL    HW219011   2.949   5.051   2.170
 4673SOL    HW319012   2.933   5.067   2.020
 4673SOL    MW419013   2.985   5.051   2.090
 4674SOL     OW19014   2.462   5.467   2.196
 4674SOL    HW219015   2.383   5.425   2.229
 4674SOL    HW319016   2.528   5.450   2.263
 4674SOL    MW419017   2.461   5.459   2.209
 4675SOL     OW19018   2.598   4.882   1.903
 4675SOL    HW219019   2.520   4.828   1.890
 4675SOL    HW319020   2.569   4.955   1.956
 4675SOL    MW419021   2.584   4.884   1.908
 4676SOL     OW19022   3.179   5.398   1.971
 4676SOL    HW219023   3.105   5.361   2.021
 4676SOL    HW319024   3.187   5.488   2.004
 4676SOL    MW419025   3.170   5.405   1.983
 4677SOL     OW19026   1.987   4.404   3.060
 4677SOL    HW219027   2.049   4.434   3.126
 4677SOL    HW319028   1.921   4.473   3.054
 4677SOL    MW419029   1.986   4.417   3.067
 4678SOL     OW19030   3.403   5.072   1.913
 4678SOL    HW219031   3.350   5.121   1.849
 4678SOL    HW319032   3.434   5.138   1.974
 4678SOL    MW419033   3.401   5.086   1.911
 4679SOL     OW19034   2.628   3.961   1.968
 4679SOL    HW219035   2.576   3.881   1.956
 4679SOL    HW319036   2.715   3.938   1.936
 4679SOL    MW419037   2.631   3.947   1.962
 4680SOL     OW19038   2.082   5.513   3.512
 4680SOL    HW219039   2.056   5.581   3.450
 4680SOL    HW319040   2.130   5.450   3.460
 4680SOL    MW419041   2.084   5.513   3.498
 4681SOL     OW19042   2.134   4.832   3.019
 4681SOL    HW219043   2.187   4.907   3.044
 4681SOL    HW319044   2.053   4.870   2.985
 4681SOL    MW419045   2.130   4.847   3.019
 4682SOL     OW19046   2.674   4.736   3.007
 4682SOL    HW219047   2.702   4.645   3.019
 4682SOL    HW319048   2.603   4.730   2.943
 4682SOL    MW419049   2.667   4.724   3.002
 4683SOL     OW19050   1.989   4.601   2.425
 4683SOL    HW219051   2.080   4.616   2.452
 4683SOL    HW319052   1.992   4.522   2.371
 4683SOL    MW419053   2.001   4.593   2.423
 4684SOL     OW19054   2.225   4.309   3.679
 4684SOL    HW219055   2.172   4.389   3.686
 4684SOL    HW319056   2.295   4.321   3.744
 4684SOL    MW419057   2.227   4.322   3.687
 4685SOL     OW19058   2.611   3.859   3.386
 4685SOL    HW219059   2.588   3.767   3.388
 4685SOL    HW319060   2.697   3.861   3.343
 4685SOL    MW419061   2.618   3.849   3.382
 4686SOL     OW19062   2.295   4.383   3.425
 4686SOL    HW219063   2.375   4.433   3.411
 4686SOL    HW319064   2.286   4.377   3.520
 4686SOL    MW419065   2.304   4.389   3.435
 4687SOL     OW19066   2.616   5.533   2.799
 4687SOL    HW219067   2.705   5.548   2.829
 4687SOL    HW319068   2.611   5.580   2.715
 4687SOL    MW419069   2.626   5.541   2.792
 4688SOL     OW19070   3.272   3.908   3.696
 4688SOL    HW219071   3.328   3.835   3.722
 4688SOL    HW319072   3.242   3.946   3.778
 4688SOL    MW419073   3.276   3.903   3.709
 4689SOL     OW19074   1.997   5.213   2.464
 4689SOL    HW219075   1.969   5.252   2.546
 4689SOL    HW319076   2.017   5.122   2.486
 4689SOL    MW419077   1.995   5.205   2.477
 4690SOL     OW19078   2.830   5.256   2.499
 4690SOL    HW219079   2.913   5.210   2.483
 4690SOL    HW319080   2.820   5.255   2.595
 4690SOL    MW419081   2.840   5.249   2.509
 4691SOL     OW19082   3.662   4.401   2.813
 4691SOL    HW219083   3.751   4.431   2.795
 4691SOL    HW319084   3.642   4.341   2.742
 4691SOL    MW419085   3.671   4.398   2.802
 4692SOL     OW19086   3.513   4.580   3.693
 4692SOL    HW219087   3.568   4.504   3.674
 4692SOL    HW319088   3.515   4.588   3.788
 4692SOL    MW419089   3.521   4.571   3.701
 4693SOL     OW19090   2.563   5.313   1.904
 4693SOL    HW219091   2.503   5.382   1.874
 4693SOL    HW319092   2.508   5.255   1.957
 4693SOL    MW419093   2.547   5.315   1.906
 4694SOL     OW19094   3.001   3.958   2.127
 4694SOL    HW219095   2.934   3.934   2.064
 4694SOL    HW319096   3.066   4.007   2.076
 4694SOL    MW419097   3.001   3.960   2.112
 4695SOL     OW19098   2.808   4.142   3.212
 4695SOL    HW219099   2.727   4.183   3.240
 4695SOL    HW319100   2.855   4.210   3.164
 4695SOL    MW419101   2.803   4.157   3.210
 4696SOL     OW19102   3.068   4.480   2.835
 4696SOL    HW219103   3.081   4.574   2.845
 4696SOL    HW319104   3.029   4.470   2.749
 4696SOL    MW419105   3.064   4.491   2.825
 4697SOL     OW19106   2.520   4.675   2.639
 4697SOL    HW219107   2.431   4.666   2.672
 4697SOL    HW319108   2.524   4.765   2.607
 4697SOL    MW419109   2.509   4.686   2.639
 4698SOL     OW19110   3.319   4.258   2.634
 4698SOL    HW219111   3.264   4.179   2.633
 4698SOL    HW319112   3.301   4.299   2.718
 4698SOL    MW419113   3.309   4.253   2.643
 4699SOL     OW19114   2.290   3.945   3.451
 4699SOL    HW219115   2.211   3.963   3.503
 4699SOL    HW319116   2.285   4.007   3.378
 4699SOL    MW419117   2.280   3.955   3.448
 4700SOL     OW19118   2.938   4.462   2.591
 4700SOL    HW219119   2.875   4.394   2.615
 4700SOL    HW319120   2.958   4.443   2.499
 4700SOL    MW419121   2.932   4.449   2.583
 4701SOL     OW19122   2.194   5.357   2.293
 4701SOL    HW219123   2.155   5.404   2.219
 4701SOL    HW319124   2.128   5.292   2.318
 4701SOL    MW419125   2.181   5.355   2.287
 4702SOL     OW19126   2.686   4.766   2.317
 4702SOL    HW219127   2.688   4.740   2.224
 4702SOL    HW319128   2.744   4.703   2.360
 4702SOL    MW419129   2.694   4.755   2.311
 4703SOL     OW19130   3.243   5.534   2.519
 4703SOL    HW219131   3.186   5.487   2.458
 4703SOL    HW319132   3.329   5.495   2.506
 4703SOL    MW419133   3.246   5.525   2.509
 4704SOL     OW19134   3.196   4.010   2.650
 4704SOL    HW219135   3.224   3.942   2.711
 4704SOL    HW319136   3.110   3.981   2.620
 4704SOL    MW419137   3.189   3.997   2.654
 4705SOL     OW19138   2.001   4.944   2.584
 4705SOL    HW219139   2.065   4.976   2.647
 4705SOL    HW319140   2.050   4.880   2.532
 4705SOL    MW419141   2.016   4.940   2.585
 4706SOL     OW19142   2.501   5.020   3.566
 4706SOL    HW219143   2.549   5.103   3.553
 4706SOL    HW319144   2.558   4.968   3.622
 4706SOL    MW419145   2.515   5.024   3.572
 4707SOL     OW19146   2.077   5.262   3.706
 4707SOL    HW219147   2.133   5.186   3.721
 4707SOL    HW319148   2.026   5.240   3.628
 4707SOL    MW419149   2.077   5.249   3.697
 4708SOL     OW19150   3.176   4.114   1.985
 4708SOL    HW219151   3.149   4.180   1.921
 4708SOL    HW319152   3.246   4.157   2.035
 4708SOL    MW419153   3.181   4.127   1.982
 4709SOL     OW19154   2.844   3.819   1.922
 4709SOL    HW219155   2.900   3.811   1.844
 4709SOL    HW319156   2.821   3.729   1.944
 4709SOL    MW419157   2.849   3.806   1.915
 4710SOL     OW19158   3.349   4.670   2.127
 4710SOL    HW219159   3.316   4.759   2.117
 4710SOL    HW319160   3.314   4.641   2.212
 4710SOL    MW419161   3.339   4.679   2.138
 4711SOL     OW19162   2.255   3.767   3.657
 4711SOL    HW219163   2.183   3.732   3.605
 4711SOL    HW319164   2.313   3.808   3.592
 4711SOL    MW419165   2.253   3.768   3.642
 4712SOL     OW19166   2.279   5.257   2.956
 4712SOL    HW219167   2.324   5.319   3.013
 4712SOL    HW319168   2.186   5.276   2.969
 4712SOL    MW419169   2.272   5.267   2.963
 4713SOL     OW19170   2.701   5.325   3.064
 4713SOL    HW219171   2.725   5.314   2.973
 4713SOL    HW319172   2.624   5.382   3.062
 4713SOL    MW419173   2.693   5.330   3.053
 4714SOL     OW19174   2.343   4.708   1.919
 4714SOL    HW219175   2.266   4.721   1.975
 4714SOL    HW319176   2.307   4.672   1.838
 4714SOL    MW419177   2.329   4.704   1.916
 4715SOL     OW19178   2.996   4.681   2.162
 4715SOL    HW219179   2.906   4.702   2.137
 4715SOL    HW319180   3.023   4.754   2.218
 4715SOL    MW419181   2.988   4.693   2.165
 4716SOL     OW19182   2.496   5.030   2.854
 4716SOL    HW219183   2.489   5.009   2.948
 4716SOL    HW319184   2.414   4.998   2.817
 4716SOL    MW419185   2.484   5.024   2.861
 4717SOL     OW19186   3.360   4.040   3.256
 4717SOL    HW219187   3.307   4.042   3.336
 4717SOL    HW319188   3.345   3.953   3.219
 4717SOL    MW419189   3.352   4.030   3.261
 4718SOL     OW19190   3.696   3.964   3.129
 4718SOL    HW219191   3.677   4.031   3.064
 4718SOL    HW319192   3.753   3.902   3.084
 4718SOL    MW419193   3.700   3.965   3.115
 4719SOL     OW19194   1.942   5.122   3.517
 4719SOL    HW219195   1.986   5.055   3.463
 4719SOL    HW319196   1.857   5.084   3.537
 4719SOL    MW419197   1.937   5.108   3.513
 4720SOL     OW19198   2.625   3.797   2.569
 4720SOL    HW219199   2.554   3.858   2.551
 4720SOL    HW319200   2.676   3.794   2.488
 4720SOL    MW419201   2.621   3.803   2.556
 4721SOL     OW19202   2.383   5.037   2.318
 4721SOL    HW219203   2.376   5.069   2.408
 4721SOL    HW319204   2.293   5.021   2.290
 4721SOL    MW419205   2.371   5.039   2.325
 4722SOL     OW19206   2.978   5.430   3.227
 4722SOL    HW219207   2.898   5.415   3.177
 4722SOL    HW319208   2.985   5.525   3.234
 4722SOL    MW419209   2.969   5.441   3.221
 4723SOL     OW19210   3.092   5.395   2.717
 4723SOL    HW219211   3.139   5.468   2.676
 4723SOL    HW319212   3.013   5.434   2.753
 4723SOL    MW419213   3.087   5.410   2.716
 4724SOL     OW19214   2.585   4.454   3.699
 4724SOL    HW219215   2.655   4.396   3.671
 4724SOL    HW319216   2.528   4.399   3.754
 4724SOL    MW419217   2.587   4.441   3.703
 4725SOL     OW19218   3.372   4.666   3.332
 4725SOL    HW219219   3.377   4.719   3.412
 4725SOL    HW319220   3.334   4.583   3.360
 4725SOL    MW419221   3.368   4.661   3.347
 4726SOL     OW19222   3.012   3.801   3.578
 4726SOL    HW219223   3.007   3.708   3.559
 4726SOL    HW319224   3.095   3.812   3.624
 4726SOL    MW419225   3.020   3.790   3.582
 4727SOL     OW19226   2.386   4.321   2.032
 4727SOL    HW219227   2.352   4.377   2.102
 4727SOL    HW319228   2.457   4.271   2.072
 4727SOL    MW419229   2.392   4.322   2.046
 4728SOL     OW19230   2.911   4.720   3.223
 4728SOL    HW219231   2.954   4.755   3.301
 4728SOL    HW319232   2.894   4.797   3.169
 4728SOL    MW419233   2.914   4.735   3.226
 4729SOL     OW19234   3.442   4.207   2.096
 4729SOL    HW219235   3.434   4.278   2.033
 4729SOL    HW319236   3.460   4.251   2.179
 4729SOL    MW419237   3.443   4.221   2.098
 4730SOL     OW19238   2.302   3.862   2.525
 4730SOL    HW219239   2.352   3.905   2.456
 4730SOL    HW319240   2.217   3.906   2.525
 4730SOL    MW419241   2.299   3.875   2.516
 4731SOL     OW19242   2.061   4.924   3.385
 4731SOL    HW219243   2.089   4.877   3.463
 4731SOL    HW319244   1.982   4.879   3.356
 4731SOL    MW419245   2.054   4.913   3.391
 4732SOL     OW19246   2.569   4.251   3.352
 4732SOL    HW219247   2.541   4.339   3.376
 4732SOL    HW319248   2.538   4.195   3.423
 4732SOL    MW419249   2.561   4.254   3.364
 4733SOL     OW19250   3.111   4.469   2.071
 4733SOL    HW219251   3.158   4.487   1.990
 4733SOL    HW319252   3.077   4.553   2.099
 4733SOL    MW419253   3.113   4.483   2.064
 4734SOL     OW19254   2.224   4.647   2.565
 4734SOL    HW219255   2.282   4.703   2.513
 4734SOL    HW319256   2.268   4.562   2.567
 4734SOL    MW419257   2.237   4.644   2.558
 4735SOL     OW19258   3.364   3.999   2.402
 4735SOL    HW219259   3.286   3.949   2.427
 4735SOL    HW319260   3.335   4.090   2.402
 4735SOL    MW419261   3.350   4.003   2.405
 4736SOL     OW19262   2.950   3.961   2.561
 4736SOL    HW219263   2.970   4.036   2.505
 4736SOL    HW319264   2.930   4.000   2.646
 4736SOL    MW419265   2.951   3.977   2.565
 4737SOL     OW19266   2.846   5.211   1.893
 4737SOL    HW219267   2.873   5.289   1.845
 4737SOL    HW319268   2.753   5.226   1.912
 4737SOL    MW419269   2.837   5.224   1.889
 4738SOL     OW19270   3.710   4.734   3.580
 4738SOL    HW219271   3.623   4.714   3.616
 4738SOL    HW319272   3.764   4.660   3.605
 4738SOL    MW419273   3.705   4.723   3.588
 4739SOL     OW19274   1.931   5.247   2.737
 4739SOL    HW219275   1.963   5.251   2.828
 4739SOL    HW319276   1.836   5.255   2.745
 4739SOL    MW419277   1.923   5.250   2.750
 4740SOL     OW19278   1.886   4.373   2.284
 4740SOL    HW219279   1.826   4.345   2.354
 4740SOL    HW319280   1.960   4.313   2.290
 4740SOL    MW419281   1.888   4.362   2.293
 4741SOL     OW19282   2.312   4.112   3.173
 4741SOL    HW219283   2.345   4.193   3.213
 4741SOL    HW319284   2.285   4.138   3.085
 4741SOL    MW419285   2.311   4.126   3.167
 4742SOL     OW19286   2.266   4.079   2.909
 4742SOL    HW219287   2.296   3.993   2.880
 4742SOL    HW319288   2.171   4.072   2.912
 4742SOL    MW419289   2.258   4.068   2.907
 4743SOL     OW19290   3.095   4.288   3.600
 4743SOL    HW219291   3.147   4.223   3.553
 4743SOL    HW319292   3.053   4.339   3.530
 4743SOL    MW419293   3.096   4.285   3.583
 4744SOL     OW19294   3.194   4.083   3.461
 4744SOL    HW219295   3.101   4.067   3.448
 4744SOL    HW319296   3.220   4.021   3.529
 4744SOL    MW419297   3.184   4.073   3.468
 4745SOL     OW19298   2.409   3.857   2.800
 4745SOL    HW219299   2.419   3.766   2.826
 4745SOL    HW319300   2.365   3.853   2.715
 4745SOL    MW419301   2.405   3.845   2.792
 4746SOL     OW19302   2.503   5.472   3.346
 4746SOL    HW219303   2.420   5.457   3.391
 4746SOL    HW319304   2.562   5.405   3.381
 4746SOL    MW419305   2.501   5.462   3.356
 4747SOL     OW19306   3.560   4.179   2.971
 4747SOL    HW219307   3.493   4.212   3.031
 4747SOL    HW319308   3.603   4.257   2.937
 4747SOL    MW419309   3.558   4.194   2.975
 4748SOL     OW19310   3.120   4.761   2.859
 4748SOL    HW219311   3.134   4.733   2.950
 4748SOL    HW319312   3.206   4.792   2.831
 4748SOL    MW419313   3.133   4.762   2.868
 4749SOL     OW19314   3.203   4.256   3.138
 4749SOL    HW219315   3.224   4.257   3.045
 4749SOL    HW319316   3.248   4.178   3.171
 4749SOL    MW419317   3.210   4.246   3.130
 4750SOL     OW19318   3.696   4.387   3.680
 4750SOL    HW219319   3.733   4.332   3.749
 4750SOL    HW319320   3.721   4.344   3.598
 4750SOL    MW419321   3.703   4.375   3.679
 4751SOL     OW19322   3.243   4.685   3.731
 4751SOL    HW219323   3.309   4.633   3.685
 4751SOL    HW319324   3.263   4.672   3.824
 4751SOL    MW419325   3.254   4.676   3.738
 4752SOL     OW19326   3.194   3.771   2.080
 4752SOL    HW219327   3.268   3.815   2.123
 4752SOL    HW319328   3.118   3.825   2.102
 4752SOL    MW419329   3.194   3.783   2.088
 4753SOL     OW19330   3.254   4.546   2.358
 4753SOL    HW219331   3.169   4.516   2.328
 4753SOL    HW319332   3.246   4.553   2.453
 4753SOL    MW419333   3.242   4.544   2.367
 4754SOL     OW19334   2.330   5.009   3.089
 4754SOL    HW219335   2.342   5.036   3.180
 4754SOL    HW319336   2.311   5.090   3.042
 4754SOL    MW419337   2.329   5.024   3.094
 4755SOL     OW19338   2.614   3.989   2.912
 4755SOL    HW219339   2.587   3.991   3.003
 4755SOL    HW319340   2.544   3.941   2.867
 4755SOL    MW419341   2.602   3.985   2.919
 4756SOL     OW19342   2.468   5.481   3.074
 4756SOL    HW219343   2.520   5.558   3.051
 4756SOL    HW319344   2.477   5.473   3.169
 4756SOL    MW419345   2.477   5.488   3.085
 4757SOL     OW19346   2.444   4.797   3.423
 4757SOL    HW219347   2.481   4.802   3.335
 4757SOL    HW319348   2.483   4.870   3.470
 4757SOL    MW419349   2.454   4.807   3.418
 4758SOL     OW19350   2.624   4.840   3.235
 4758SOL    HW219351   2.683   4.786   3.288
 4758SOL    HW319352   2.639   4.812   3.145
 4758SOL    MW419353   2.634   4.829   3.231
 4759SOL     OW19354   2.627   4.212   2.084
 4759SOL    HW219355   2.700   4.261   2.047
 4759SOL    HW319356   2.643   4.121   2.058
 4759SOL    MW419357   2.639   4.207   2.077
 4760SOL     OW19358   3.095   3.808   2.998
 4760SOL    HW219359   3.150   3.817   2.920
 4760SOL    HW319360   3.150   3.842   3.069
 4760SOL    MW419361   3.109   3.813   2.997
 4761SOL     OW19362   2.102   4.721   2.182
 4761SOL    HW219363   2.039   4.737   2.111
 4761SOL    HW319364   2.049   4.684   2.253
 4761SOL    MW419365   2.087   4.718   2.182
 4762SOL     OW19366   2.458   5.075   2.041
 4762SOL    HW219367   2.473   5.051   2.133
 4762SOL    HW319368   2.366   5.053   2.025
 4762SOL    MW419369   2.448   5.068   2.051
 4763SOL     OW19370   2.997   5.306   2.193
 4763SOL    HW219371   3.005   5.224   2.144
 4763SOL    HW319372   2.916   5.345   2.160
 4763SOL    MW419373   2.987   5.301   2.183
 4764SOL     OW19374   2.256   5.464   2.762
 4764SOL    HW219375   2.260   5.375   2.797
 4764SOL    HW319376   2.282   5.455   2.671
 4764SOL    MW419377   2.259   5.452   2.754
 4765SOL     OW19378   2.873   4.942   3.005
 4765SOL    HW219379   2.805   4.876   3.021
 4765SOL    HW319380   2.891   4.936   2.912
 4765SOL    MW419381   2.866   4.933   2.996
 4766SOL     OW19382   1.962   5.217   3.256
 4766SOL    HW219383   1.952   5.175   3.342
 4766SOL    HW319384   1.883   5.270   3.246
 4766SOL    MW419385   1.951   5.218   3.267
 4767SOL     OW19386   2.866   4.081   2.826
 4767SOL    HW219387   2.796   4.033   2.871
 4767SOL    HW319388   2.898   4.144   2.890
 4767SOL    MW419389   2.861   4.083   2.840
 4768SOL     OW19390   2.517   4.517   3.446
 4768SOL    HW219391   2.510   4.612   3.434
 4768SOL    HW319392   2.526   4.506   3.541
 4768SOL    MW419393   2.518   4.529   3.456
 4769SOL     OW19394   2.238   5.032   3.704
 4769SOL    HW219395   2.310   5.034   3.641
 4769SOL    HW319396   2.208   4.941   3.703
 4769SOL    MW419397   2.243   5.021   3.696
 4770SOL     OW19398   3.322   3.795   3.171
 4770SOL    HW219399   3.393   3.741   3.135
 4770SOL    HW319400   3.321   3.774   3.264
 4770SOL    MW419401   3.331   3.786   3.179
 4771SOL     OW19402   2.333   4.187   2.639
 4771SOL    HW219403   2.404   4.135   2.602
 4771SOL    HW319404   2.319   4.152   2.726
 4771SOL    MW419405   2.341   4.176   2.646
 4772SOL     OW19406   1.888   5.522   3.711
 4772SOL    HW219407   1.938   5.500   3.633
 4772SOL    HW319408   1.896   5.617   3.719
 4772SOL    MW419409   1.896   5.531   3.702
 4773SOL     OW19410   2.649   5.280   2.715
 4773SOL    HW219411   2.577   5.217   2.728
 4773SOL    HW319412   2.610   5.365   2.733
 4773SOL    MW419413   2.633   5.283   2.718
 4774SOL     OW19414   2.969   4.128   2.363
 4774SOL    HW219415   2.991   4.065   2.295
 4774SOL    HW319416   2.874   4.120   2.374
 4774SOL    MW419417   2.959   4.119   2.355
 4775SOL     OW19418   2.054   3.818   2.295
 4775SOL    HW219419   2.125   3.839   2.234
 4775SOL    HW319420   2.008   3.746   2.253
 4775SOL    MW419421   2.058   3.812   2.281
 4776SOL     OW19422   1.885   4.285   3.438
 4776SOL    HW219423   1.949   4.351   3.413
 4776SOL    HW319424   1.804   4.312   3.395
 4776SOL    MW419425   1.883   4.297   3.430
 4777SOL     OW19426   3.623   5.192   2.395
 4777SOL    HW219427   3.593   5.125   2.456
 4777SOL    HW319428   3.717   5.198   2.409
 4777SOL    MW419429   3.631   5.184   2.405
 4778SOL     OW19430   3.179   4.869   2.325
 4778SOL    HW219431   3.151   4.955   2.358
 4778SOL    HW319432   3.207   4.885   2.235
 4778SOL    MW419433   3.179   4.883   2.317
 4779SOL     OW19434   2.841   3.789   2.378
 4779SOL    HW219435   2.878   3.848   2.443
 4779SOL    HW319436   2.818   3.845   2.304
 4779SOL    MW419437   2.842   3.804   2.377
 4780SOL     OW19438   3.694   4.671   2.800
 4780SOL    HW219439   3.685   4.703   2.711
 4780SOL    HW319440   3.647   4.587   2.800
 4780SOL    MW419441   3.687   4.664   2.790
 4781SOL     OW19442   2.070   4.511   3.379
 4781SOL    HW219443   2.091   4.580   3.317
 4781SOL    HW319444   2.150   4.458   3.384
 4781SOL    MW419445   2.083   4.512   3.373
 4782SOL     OW19446   3.606   4.602   2.501
 4782SOL    HW219447   3.700   4.591   2.489
 4782SOL    HW319448   3.582   4.674   2.442
 4782SOL    MW419449   3.616   4.610   2.492
 4783SOL     OW19450   2.055   4.526   3.646
 4783SOL    HW219451   1.981   4.470   3.672
 4783SOL    HW319452   2.050   4.529   3.551
 4783SOL    MW419453   2.044   4.519   3.636
 4784SOL     OW19454   2.221   3.813   3.096
 4784SOL    HW219455   2.264   3.897   3.116
 4784SOL    HW319456   2.294   3.751   3.089
 4784SOL    MW419457   2.236   3.816   3.097
 4785SOL     OW19458   2.262   4.480   2.274
 4785SOL    HW219459   2.262   4.575   2.259
 4785SOL    HW319460   2.339   4.464   2.328
 4785SOL    MW419461   2.272   4.491   2.279
 4786SOL     OW19462   3.038   4.339   3.338
 4786SOL    HW219463   3.074   4.312   3.254
 4786SOL    HW319464   2.951   4.373   3.317
 4786SOL    MW419465   3.032   4.340   3.325
 4787SOL     OW19466   2.021   4.211   2.563
 4787SOL    HW219467   2.083   4.218   2.636
 4787SOL    HW319468   2.021   4.118   2.540
 4787SOL    MW419469   2.029   4.200   2.570
 4788SOL     OW19470   3.568   5.551   2.095
 4788SOL    HW219471   3.635   5.584   2.035
 4788SOL    HW319472   3.525   5.630   2.129
 4788SOL    MW419473   3.570   5.566   2.091
 4789SOL     OW19474   2.703   4.472   3.047
 4789SOL    HW219475   2.661   4.390   3.023
 4789SOL    HW319476   2.704   4.471   3.143
 4789SOL    MW419477   2.696   4.461   3.056
 4790SOL     OW19478   2.507   3.942   3.152
 4790SOL    HW219479   2.438   4.005   3.173
 4790SOL    HW319480   2.534   3.906   3.237
 4790SOL    MW419481   2.501   3.945   3.165
 4791SOL     OW19482   1.890   4.783   2.021
 4791SOL    HW219483   1.859   4.848   2.084
 4791SOL    HW319484   1.839   4.705   2.040
 4791SOL    MW419485   1.880   4.780   2.031
 4792SOL     OW19486   3.302   3.795   2.769
 4792SOL    HW219487   3.390   3.804   2.806
 4792SOL    HW319488   3.312   3.736   2.695
 4792SOL    MW419489   3.316   3.789   2.763
 4793SOL     OW19490   3.334   4.534   2.613
 4793SOL    HW219491   3.414   4.549   2.562
 4793SOL    HW319492   3.327   4.439   2.619
 4793SOL    MW419493   3.343   4.523   2.608
 4794SOL     OW19494   2.474   5.583   1.963
 4794SOL    HW219495   2.379   5.583   1.955
 4794SOL    HW319496   2.490   5.529   2.041
 4794SOL    MW419497   2.464   5.577   1.972
 4795SOL     OW19498   2.784   4.460   3.310
 4795SOL    HW219499   2.853   4.527   3.307
 4795SOL    HW319500   2.717   4.498   3.366
 4795SOL    MW419501   2.785   4.473   3.317
 4796SOL     OW19502   2.202   4.760   3.558
 4796SOL    HW219503   2.156   4.676   3.560
 4796SOL    HW319504   2.259   4.754   3.482
 4796SOL    MW419505   2.204   4.748   3.550
 4797SOL     OW19506   3.319   4.403   1.879
 4797SOL    HW219507   3.247   4.379   1.821
 4797SOL    HW319508   3.385   4.440   1.821
 4797SOL    MW419509   3.318   4.405   1.864
 4798SOL     OW19510   2.453   5.135   2.559
 4798SOL    HW219511   2.518   5.068   2.580
 4798SOL    HW319512   2.505   5.212   2.536
 4798SOL    MW419513   2.468   5.137   2.558
 4799SOL     OW19514   2.714   4.300   2.689
 4799SOL    HW219515   2.654   4.318   2.761
 4799SOL    HW319516   2.748   4.212   2.708
 4799SOL    MW419517   2.710   4.290   2.702
 4800SOL     OW19518   3.655   3.799   3.358
 4800SOL    HW219519   3.576   3.845   3.386
 4800SOL    HW319520   3.690   3.853   3.287
 4800SOL    MW419521   3.649   3.812   3.352
 4801SOL     OW19522   2.939   4.883   2.708
 4801SOL    HW219523   3.031   4.864   2.726
 4801SOL    HW319524   2.912   4.813   2.648
 4801SOL    MW419525   2.947   4.871   2.702
 4802SOL     OW19526   2.732   4.703   2.063
 4802SOL    HW219527   2.718   4.615   2.028
 4802SOL    HW319528   2.683   4.760   2.004
 4802SOL    MW419529   2.724   4.698   2.051
 4803SOL     OW19530   3.213   5.121   2.804
 4803SOL    HW219531   3.186   5.205   2.769
 4803SOL    HW319532   3.173   5.116   2.891
 4803SOL    MW419533   3.206   5.130   2.810
 4804SOL     OW19534   2.145   4.427   2.842
 4804SOL    HW219535   2.095   4.426   2.923
 4804SOL    HW319536   2.165   4.519   2.826
 4804SOL    MW419537   2.141   4.439   2.850
 4805SOL     OW19538   3.451   3.909   2.165
 4805SOL    HW219539   3.444   3.913   2.260
 4805SOL    HW319540   3.463   4.000   2.138
 4805SOL    MW419541   3.452   3.922   2.173
 4806SOL     OW19542   2.740   4.472   2.279
 4806SOL    HW219543   2.720   4.458   2.186
 4806SOL    HW319544   2.833   4.451   2.286
 4806SOL    MW419545   2.750   4.467   2.268
 4807SOL     OW19546   2.067   4.095   3.583
 4807SOL    HW219547   2.024   4.154   3.520
 4807SOL    HW319548   2.135   4.150   3.623
 4807SOL    MW419549   2.071   4.110   3.580
 4808SOL     OW19550   3.179   4.715   3.128
 4808SOL    HW219551   3.242   4.712   3.201
 4808SOL    HW319552   3.095   4.733   3.170
 4808SOL    MW419553   3.175   4.717   3.143
 4809SOL     OW19554   2.723   5.430   2.317
 4809SOL    HW219555   2.781   5.501   2.344
 4809SOL    HW319556   2.746   5.358   2.375
 4809SOL    MW419557   2.734   5.430   2.328
 4810SOL     OW19558   3.518   3.892   2.907
 4810SOL    HW219559   3.563   3.810   2.926
 4810SOL    HW319560   3.538   3.948   2.983
 4810SOL    MW419561   3.528   3.888   2.919
 4811SOL     OW19562   1.966   3.735   3.006
 4811SOL    HW219563   1.957   3.736   2.911
 4811SOL    HW319564   2.060   3.747   3.021
 4811SOL    MW419565   1.978   3.738   2.997
 4812SOL     OW19566   3.603   4.928   2.626
 4812SOL    HW219567   3.582   4.874   2.549
 4812SOL    HW319568   3.699   4.926   2.630
 4812SOL    MW419569   3.612   4.921   2.615
 4813SOL     OW19570   2.295   5.073   3.369
 4813SOL    HW219571   2.216   5.023   3.392
 4813SOL    HW319572   2.365   5.032   3.419
 4813SOL    MW419573   2.293   5.061   3.379
 4814SOL     OW19574   2.179   3.862   2.052
 4814SOL    HW219575   2.108   3.917   2.020
 4814SOL    HW319576   2.221   3.828   1.973
 4814SOL    MW419577   2.175   3.864   2.038
 4815SOL     OW19578   3.303   4.359   2.888
 4815SOL    HW219579   3.226   4.405   2.854
 4815SOL    HW319580   3.360   4.428   2.922
 4815SOL    MW419581   3.300   4.374   2.888
 4816SOL     OW19582   1.969   5.218   2.090
 4816SOL    HW219583   1.986   5.302   2.132
 4816SOL    HW319584   2.004   5.227   2.002
 4816SOL    MW419585   1.974   5.231   2.084
 4817SOL     OW19586   3.241   5.307   2.307
 4817SOL    HW219587   3.304   5.297   2.236
 4817SOL    HW319588   3.158   5.327   2.262
 4817SOL    MW419589   3.238   5.308   2.292
 4818SOL     OW19590   3.604   4.575   3.993
 4818SOL    HW219591   3.645   4.517   4.058
 4818SOL    HW319592   3.511   4.567   4.010
 4818SOL    MW419593   3.598   4.567   4.003
 4819SOL     OW19594   3.470   4.507   4.988
 4819SOL    HW219595   3.425   4.574   5.039
 4819SOL    HW319596   3.558   4.543   4.974
 4819SOL    MW419597   3.476   4.520   4.992
 4820SOL     OW19598   2.398   4.758   4.222
 4820SOL    HW219599   2.488   4.733   4.206
 4820SOL    HW319600   2.394   4.851   4.199
 4820SOL    MW419601   2.410   4.767   4.217
 4821SOL     OW19602   3.514   5.461   4.364
 4821SOL    HW219603   3.526   5.407   4.442
 4821SOL    HW319604   3.551   5.409   4.293
 4821SOL    MW419605   3.520   5.446   4.365
 4822SOL     OW19606   2.893   5.346   5.365
 4822SOL    HW219607   2.934   5.382   5.286
 4822SOL    HW319608   2.928   5.257   5.372
 4822SOL    MW419609   2.904   5.339   5.356
 4823SOL     OW19610   3.450   4.901   4.969
 4823SOL    HW219611   3.371   4.866   4.927
 4823SOL    HW319612   3.477   4.973   4.913
 4823SOL    MW419613   3.443   4.906   4.956
 4824SOL     OW19614   2.682   4.214   4.235
 4824SOL    HW219615   2.657   4.302   4.263
 4824SOL    HW319616   2.679   4.217   4.139
 4824SOL    MW419617   2.678   4.226   4.227
 4825SOL     OW19618   2.124   4.242   4.163
 4825SOL    HW219619   2.156   4.330   4.145
 4825SOL    HW319620   2.112   4.240   4.258
 4825SOL    MW419621   2.127   4.254   4.175
 4826SOL     OW19622   2.202   4.655   5.064
 4826SOL    HW219623   2.265   4.602   5.015
 4826SOL    HW319624   2.183   4.729   5.007
 4826SOL    MW419625   2.208   4.657   5.051
 4827SOL     OW19626   2.523   3.997   4.250
 4827SOL    HW219627   2.581   4.073   4.252
 4827SOL    HW319628   2.458   4.018   4.183
 4827SOL    MW419629   2.522   4.009   4.241
 4828SOL     OW19630   2.610   4.924   4.425
 4828SOL    HW219631   2.690   4.927   4.477
 4828SOL    HW319632   2.638   4.891   4.339
 4828SOL    MW419633   2.624   4.920   4.420
 4829SOL     OW19634   2.635   5.265   5.328
 4829SOL    HW219635   2.719   5.291   5.367
 4829SOL    HW319636   2.659   5.209   5.254
 4829SOL    MW419637   2.649   5.261   5.323
 4830SOL     OW19638   2.387   4.428   4.416
 4830SOL    HW219639   2.372   4.348   4.467
 4830SOL    HW319640   2.469   4.463   4.450
 4830SOL    MW419641   2.395   4.420   4.428
 4831SOL     OW19642   2.724   5.114   5.101
 4831SOL    HW219643   2.688   5.180   5.041
 4831SOL    HW319644   2.652   5.052   5.114
 4831SOL    MW419645   2.710   5.114   5.095
 4832SOL     OW19646   2.529   4.254   4.793
 4832SOL    HW219647   2.435   4.250   4.811
 4832SOL    HW319648   2.559   4.163   4.802
 4832SOL    MW419649   2.520   4.242   4.796
 4833SOL     OW19650   2.275   4.668   4.697
 4833SOL    HW219651   2.230   4.675   4.613
 4833SOL    HW319652   2.255   4.751   4.741
 4833SOL    MW419653   2.267   4.680   4.691
 4834SOL     OW19654   1.972   5.514   4.572
 4834SOL    HW219655   2.061   5.506   4.607
 4834SOL    HW319656   1.936   5.426   4.577
 4834SOL    MW419657   1.979   5.501   4.577
 4835SOL     OW19658   3.237   4.906   3.941
 4835SOL    HW219659   3.155   4.942   3.907
 4835SOL    HW319660   3.305   4.949   3.890
 4835SOL    MW419661   3.235   4.916   3.929
 4836SOL     OW19662   2.798   4.685   4.417
 4836SOL    HW219663   2.712   4.672   4.457
 4836SOL    HW319664   2.851   4.612   4.449
 4836SOL    MW419665   2.794   4.674   4.426
 4837SOL     OW19666   2.206   5.337   5.202
 4837SOL    HW219667   2.114   5.313   5.187
 4837SOL    HW319668   2.250   5.254   5.219
 4837SOL    MW419669   2.200   5.322   5.201
 4838SOL     OW19670   2.789   5.047   4.134
 4838SOL    HW219671   2.766   5.109   4.202
 4838SOL    HW319672   2.746   4.965   4.160
 4838SOL    MW419673   2.781   5.043   4.145
 4839SOL     OW19674   3.662   4.048   4.590
 4839SOL    HW219675   3.599   4.028   4.659
 4839SOL    HW319676   3.652   3.977   4.527
 4839SOL    MW419677   3.652   4.035   4.591
 4840SOL     OW19678   2.286   4.020   4.102
 4840SOL    HW219679   2.260   3.982   4.018
 4840SOL    HW319680   2.223   4.090   4.118
 4840SOL    MW419681   2.275   4.023   4.093
 4841SOL     OW19682   2.121   4.981   4.139
 4841SOL    HW219683   2.069   5.049   4.095
 4841SOL    HW319684   2.118   4.907   4.079
 4841SOL    MW419685   2.113   4.980   4.126
 4842SOL     OW19686   3.718   4.217   3.892
 4842SOL    HW219687   3.627   4.219   3.920
 4842SOL    HW319688   3.763   4.279   3.950
 4842SOL    MW419689   3.711   4.225   3.902
 4843SOL     OW19690   3.463   4.820   4.242
 4843SOL    HW219691   3.373   4.820   4.277
 4843SOL    HW319692   3.456   4.866   4.159
 4843SOL    MW419693   3.450   4.826   4.236
 4844SOL     OW19694   3.263   4.455   5.314
 4844SOL    HW219695   3.332   4.393   5.291
 4844SOL    HW319696   3.188   4.429   5.261
 4844SOL    MW419697   3.263   4.442   5.305
 4845SOL     OW19698   2.999   4.842   5.306
 4845SOL    HW219699   2.984   4.935   5.291
 4845SOL    HW319700   3.094   4.832   5.306
 4845SOL    MW419701   3.008   4.852   5.303
 4846SOL     OW19702   2.795   4.266   5.507
 4846SOL    HW219703   2.885   4.267   5.474
 4846SOL    HW319704   2.754   4.191   5.465
 4846SOL    MW419705   2.801   4.256   5.498
 4847SOL     OW19706   3.370   4.798   4.634
 4847SOL    HW219707   3.373   4.732   4.565
 4847SOL    HW319708   3.455   4.841   4.630
 4847SOL    MW419709   3.382   4.794   4.625
 4848SOL     OW19710   2.990   4.401   4.203
 4848SOL    HW219711   3.016   4.425   4.114
 4848SOL    HW319712   2.972   4.308   4.199
 4848SOL    MW419713   2.992   4.393   4.190
 4849SOL     OW19714   2.575   4.070   5.457
 4849SOL    HW219715   2.585   3.996   5.397
 4849SOL    HW319716   2.611   4.039   5.540
 4849SOL    MW419717   2.581   4.056   5.459
 4850SOL     OW19718   3.695   3.799   4.421
 4850SOL    HW219719   3.749   3.750   4.483
 4850SOL    HW319720   3.638   3.733   4.382
 4850SOL    MW419721   3.695   3.783   4.423
 4851SOL     OW19722   2.027   5.497   3.949
 4851SOL    HW219723   2.056   5.587   3.941
 4851SOL    HW319724   1.977   5.480   3.870
 4851SOL    MW419725   2.025   5.505   3.938
 4852SOL     OW19726   2.814   3.752   4.834
 4852SOL    HW219727   2.773   3.830   4.796
 4852SOL    HW319728   2.908   3.770   4.829
 4852SOL    MW419729   2.820   3.764   4.829
 4853SOL     OW19730   2.829   4.430   3.864
 4853SOL    HW219731   2.831   4.377   3.785
 4853SOL    HW319732   2.917   4.467   3.870
 4853SOL    MW419733   2.841   4.429   3.853
 4854SOL     OW19734   3.443   4.356   4.200
 4854SOL    HW219735   3.482   4.356   4.287
 4854SOL    HW319736   3.384   4.432   4.200
 4854SOL    MW419737   3.440   4.367   4.211
 4855SOL     OW19738   2.760   4.723   5.329
 4855SOL    HW219739   2.737   4.703   5.419
 4855SOL    HW319740   2.845   4.767   5.334
 4855SOL    MW419741   2.767   4.726   5.341
 4856SOL     OW19742   2.840   3.860   5.089
 4856SOL    HW219743   2.846   3.822   5.002
 4856SOL    HW319744   2.829   3.954   5.074
 4856SOL    MW419745   2.841   3.868   5.077
 4857SOL     OW19746   2.929   4.349   4.923
 4857SOL    HW219747   3.004   4.378   4.870
 4857SOL    HW319748   2.861   4.414   4.907
 4857SOL    MW419749   2.930   4.361   4.913
 4858SOL     OW19750   3.479   4.317   5.200
 4858SOL    HW219751   3.460   4.226   5.179
 4858SOL    HW319752   3.457   4.366   5.121
 4858SOL    MW419753   3.474   4.310   5.187
 4859SOL     OW19754   3.621   5.411   5.104
 4859SOL    HW219755   3.549   5.373   5.155
 4859SOL    HW319756   3.638   5.496   5.145
 4859SOL    MW419757   3.615   5.416   5.116
 4860SOL     OW19758   2.926   4.055   5.306
 4860SOL    HW219759   2.892   4.094   5.225
 4860SOL    HW319760   2.904   3.963   5.299
 4860SOL    MW419761   2.919   4.048   5.296
 4861SOL     OW19762   3.335   4.869   5.382
 4861SOL    HW219763   3.417   4.910   5.412
 4861SOL    HW319764   3.298   4.831   5.462
 4861SOL    MW419765   3.341   4.870   5.397
 4862SOL     OW19766   3.630   4.242   4.366
 4862SOL    HW219767   3.719   4.211   4.383
 4862SOL    HW319768   3.573   4.182   4.414
 4862SOL    MW419769   3.633   4.230   4.375
 4863SOL     OW19770   2.056   3.956   4.395
 4863SOL    HW219771   2.047   3.896   4.321
 4863SOL    HW319772   1.989   3.927   4.458
 4863SOL    MW419773   2.046   3.943   4.393
 4864SOL     OW19774   2.003   4.129   4.758
 4864SOL    HW219775   1.975   4.220   4.767
 4864SOL    HW319776   1.940   4.090   4.697
 4864SOL    MW419777   1.990   4.135   4.752
 4865SOL     OW19778   2.462   5.467   4.064
 4865SOL    HW219779   2.383   5.425   4.097
 4865SOL    HW319780   2.528   5.450   4.131
 4865SOL    MW419781   2.461   5.459   4.077
 4866SOL     OW19782   3.590   4.987   5.461
 4866SOL    HW219783   3.640   4.913   5.493
 4866SOL    HW319784   3.536   5.014   5.536
 4866SOL    MW419785   3.590   4.981   5.474
 4867SOL     OW19786   2.598   4.882   3.771
 4867SOL    HW219787   2.520   4.828   3.758
 4867SOL    HW319788   2.569   4.955   3.824
 4867SOL    MW419789   2.584   4.884   3.776
 4868SOL     OW19790   3.724   4.622   4.963
 4868SOL    HW219791   3.740   4.660   4.876
 4868SOL    HW319792   3.758   4.688   5.024
 4868SOL    MW419793   3.731   4.635   4.959
 4869SOL     OW19794   3.516   5.331   4.632
 4869SOL    HW219795   3.545   5.398   4.693
 4869SOL    HW319796   3.497   5.255   4.687
 4869SOL    MW419797   3.518   5.331   4.647
 4870SOL     OW19798   1.987   4.404   4.928
 4870SOL    HW219799   2.049   4.434   4.994
 4870SOL    HW319800   1.921   4.473   4.922
 4870SOL    MW419801   1.986   4.417   4.935
 4871SOL     OW19802   2.628   3.961   3.836
 4871SOL    HW219803   2.576   3.881   3.824
 4871SOL    HW319804   2.715   3.938   3.804
 4871SOL    MW419805   2.631   3.947   3.830
 4872SOL     OW19806   2.082   5.513   5.380
 4872SOL    HW219807   2.056   5.581   5.318
 4872SOL    HW319808   2.130   5.450   5.328
 4872SOL    MW419809   2.084   5.513   5.366
 4873SOL     OW19810   2.134   4.832   4.887
 4873SOL    HW219811   2.187   4.907   4.912
 4873SOL    HW319812   2.053   4.870   4.853
 4873SOL    MW419813   2.130   4.847   4.887
 4874SOL     OW19814   2.674   4.736   4.875
 4874SOL    HW219815   2.702   4.645   4.887
 4874SOL    HW319816   2.603   4.730   4.811
 4874SOL    MW419817   2.667   4.724   4.870
 4875SOL     OW19818   1.989   4.601   4.293
 4875SOL    HW219819   2.080   4.616   4.320
 4875SOL    HW319820   1.992   4.522   4.239
 4875SOL    MW419821   2.001   4.593   4.291
 4876SOL     OW19822   2.225   4.309   5.547
 4876SOL    HW219823   2.172   4.389   5.554
 4876SOL    HW319824   2.295   4.321   5.612
 4876SOL    MW419825   2.227   4.322   5.555
 4877SOL     OW19826   2.611   3.859   5.254
 4877SOL    HW219827   2.588   3.767   5.256
 4877SOL    HW319828   2.697   3.861   5.211
 4877SOL    MW419829   2.618   3.849   5.250
 4878SOL     OW19830   2.295   4.383   5.293
 4878SOL    HW219831   2.375   4.433   5.279
 4878SOL    HW319832   2.286   4.377   5.388
 4878SOL    MW419833   2.304   4.389   5.303
 4879SOL     OW19834   2.616   5.533   4.667
 4879SOL    HW219835   2.705   5.548   4.697
 4879SOL    HW319836   2.611   5.580   4.583
 4879SOL    MW419837   2.626   5.541   4.660
 4880SOL     OW19838   3.272   3.908   5.564
 4880SOL    HW219839   3.328   3.835   5.590
 4880SOL    HW319840   3.242   3.946   5.646
 4880SOL    MW419841   3.276   3.903   5.577
 4881SOL     OW19842   1.997   5.213   4.332
 4881SOL    HW219843   1.969   5.252   4.414
 4881SOL    HW319844   2.017   5.122   4.354
 4881SOL    MW419845   1.995   5.205   4.345
 4882SOL     OW19846   2.830   5.256   4.367
 4882SOL    HW219847   2.913   5.210   4.351
 4882SOL    HW319848   2.820   5.255   4.463
 4882SOL    MW419849   2.840   5.249   4.377
 4883SOL     OW19850   3.662   4.401   4.681
 4883SOL    HW219851   3.751   4.431   4.663
 4883SOL    HW319852   3.642   4.341   4.610
 4883SOL    MW419853   3.671   4.398   4.670
 4884SOL     OW19854   3.513   4.580   5.561
 4884SOL    HW219855   3.568   4.504   5.542
 4884SOL    HW319856   3.515   4.588   5.656
 4884SOL    MW419857   3.521   4.571   5.569
 4885SOL     OW19858   2.563   5.313   3.772
 4885SOL    HW219859   2.503   5.382   3.742
 4885SOL    HW319860   2.508   5.255   3.825
 4885SOL    MW419861   2.547   5.315   3.774
 4886SOL     OW19862   3.001   3.958   3.995
 4886SOL    HW219863   2.934   3.934   3.932
 4886SOL    HW319864   3.066   4.007   3.944
 4886SOL    MW419865   3.001   3.960   3.980
 4887SOL     OW19866   2.808   4.142   5.080
 4887SOL    HW219867   2.727   4.183   5.108
 4887SOL    HW319868   2.855   4.210   5.032
 4887SOL    MW419869   2.803   4.157   5.078
 4888SOL     OW19870   3.068   4.480   4.703
 4888SOL    HW219871   3.081   4.574   4.713
 4888SOL    HW319872   3.029   4.470   4.617
 4888SOL    MW419873   3.064   4.491   4.693
 4889SOL     OW19874   2.520   4.675   4.507
 4889SOL    HW219875   2.431   4.666   4.540
 4889SOL    HW319876   2.524   4.765   4.475
 4889SOL    MW419877   2.509   4.686   4.507
 4890SOL     OW19878   3.319   4.258   4.502
 4890SOL    HW219879   3.264   4.179   4.501
 4890SOL    HW319880   3.301   4.299   4.586
 4890SOL    MW419881   3.309   4.253   4.511
 4891SOL     OW19882   2.290   3.945   5.319
 4891SOL    HW219883   2.211   3.963   5.371
 4891SOL    HW319884   2.285   4.007   5.246
 4891SOL    MW419885   2.280   3.955   5.316
 4892SOL     OW19886   2.938   4.462   4.459
 4892SOL    HW219887   2.875   4.394   4.483
 4892SOL    HW319888   2.958   4.443   4.367
 4892SOL    MW419889   2.932   4.449   4.451
 4893SOL     OW19890   2.194   5.357   4.161
 4893SOL    HW219891   2.155   5.404   4.087
 4893SOL    HW319892   2.128   5.292   4.186
 4893SOL    MW419893   2.181   5.355   4.155
 4894SOL     OW19894   2.686   4.766   4.185
 4894SOL    HW219895   2.688   4.740   4.092
 4894SOL    HW319896   2.744   4.703   4.228
 4894SOL    MW419897   2.694   4.755   4.179
 4895SOL     OW19898   3.239   5.326   4.957
 4895SOL    HW219899   3.164   5.372   4.995
 4895SOL    HW319900   3.221   5.233   4.974
 4895SOL    MW419901   3.228   5.320   4.965
 4896SOL     OW19902   3.196   4.010   4.518
 4896SOL    HW219903   3.224   3.942   4.579
 4896SOL    HW319904   3.110   3.981   4.488
 4896SOL    MW419905   3.189   3.997   4.522
 4897SOL     OW19906   2.001   4.944   4.452
 4897SOL    HW219907   2.065   4.976   4.515
 4897SOL    HW319908   2.050   4.880   4.400
 4897SOL    MW419909   2.016   4.940   4.453
 4898SOL     OW19910   2.501   5.020   5.434
 4898SOL    HW219911   2.549   5.103   5.421
 4898SOL    HW319912   2.558   4.968   5.490
 4898SOL    MW419913   2.515   5.024   5.440
 4899SOL     OW19914   2.077   5.262   5.574
 4899SOL    HW219915   2.133   5.186   5.589
 4899SOL    HW319916   2.026   5.240   5.496
 4899SOL    MW419917   2.077   5.249   5.565
 4900SOL     OW19918   3.176   4.114   3.853
 4900SOL    HW219919   3.149   4.180   3.789
 4900SOL    HW319920   3.246   4.157   3.903
 4900SOL    MW419921   3.181   4.127   3.850
 4901SOL     OW19922   2.844   3.819   3.790
 4901SOL    HW219923   2.900   3.811   3.712
 4901SOL    HW319924   2.821   3.729   3.812
 4901SOL    MW419925   2.849   3.806   3.783
 4902SOL     OW19926   3.349   4.670   3.995
 4902SOL    HW219927   3.316   4.759   3.985
 4902SOL    HW319928   3.314   4.641   4.080
 4902SOL    MW419929   3.339   4.679   4.006
 4903SOL     OW19930   2.962   5.099   5.183
 4903SOL    HW219931   2.873   5.105   5.151
 4903SOL    HW319932   3.006   5.178   5.151
 4903SOL    MW419933   2.957   5.109   5.175
 4904SOL     OW19934   2.255   3.767   5.525
 4904SOL    HW219935   2.183   3.732   5.473
 4904SOL    HW319936   2.313   3.808   5.460
 4904SOL    MW419937   2.253   3.768   5.510
 4905SOL     OW19938   3.719   4.786   5.178
 4905SOL    HW219939   3.634   4.799   5.137
 4905SOL    HW319940   3.699   4.750   5.265
 4905SOL    MW419941   3.706   4.782   5.183
 4906SOL     OW19942   2.701   5.325   4.932
 4906SOL    HW219943   2.725   5.314   4.841
 4906SOL    HW319944   2.624   5.382   4.930
 4906SOL    MW419945   2.693   5.330   4.921
 4907SOL     OW19946   2.343   4.708   3.787
 4907SOL    HW219947   2.266   4.721   3.843
 4907SOL    HW319948   2.307   4.672   3.706
 4907SOL    MW419949   2.329   4.704   3.784
 4908SOL     OW19950   2.996   4.681   4.030
 4908SOL    HW219951   2.906   4.702   4.005
 4908SOL    HW319952   3.023   4.754   4.086
 4908SOL    MW419953   2.988   4.693   4.033
 4909SOL     OW19954   2.496   5.030   4.722
 4909SOL    HW219955   2.489   5.009   4.816
 4909SOL    HW319956   2.414   4.998   4.685
 4909SOL    MW419957   2.484   5.024   4.729
 4910SOL     OW19958   3.360   4.040   5.124
 4910SOL    HW219959   3.307   4.042   5.204
 4910SOL    HW319960   3.345   3.953   5.087
 4910SOL    MW419961   3.352   4.030   5.129
 4911SOL     OW19962   3.696   3.964   4.997
 4911SOL    HW219963   3.677   4.031   4.932
 4911SOL    HW319964   3.753   3.902   4.952
 4911SOL    MW419965   3.700   3.965   4.983
 4912SOL     OW19966   1.942   5.122   5.385
 4912SOL    HW219967   1.986   5.055   5.331
 4912SOL    HW319968   1.857   5.084   5.405
 4912SOL    MW419969   1.937   5.108   5.381
 4913SOL     OW19970   2.625   3.797   4.437
 4913SOL    HW219971   2.554   3.858   4.419
 4913SOL    HW319972   2.676   3.794   4.356
 4913SOL    MW419973   2.621   3.803   4.424
 4914SOL     OW19974   2.383   5.037   4.186
 4914SOL    HW219975   2.376   5.069   4.276
 4914SOL    HW319976   2.293   5.021   4.158
 4914SOL    MW419977   2.371   5.039   4.193
 4915SOL     OW19978   2.978   5.430   5.095
 4915SOL    HW219979   2.898   5.415   5.045
 4915SOL    HW319980   2.985   5.525   5.102
 4915SOL    MW419981   2.969   5.441   5.089
 4916SOL     OW19982   3.500   5.490   4.860
 4916SOL    HW219983   3.543   5.460   4.940
 4916SOL    HW319984   3.419   5.438   4.857
 4916SOL    MW419985   3.495   5.479   4.870
 4917SOL     OW19986   2.585   4.454   5.567
 4917SOL    HW219987   2.655   4.396   5.539
 4917SOL    HW319988   2.528   4.399   5.622
 4917SOL    MW419989   2.587   4.441   5.571
 4918SOL     OW19990   3.372   4.666   5.200
 4918SOL    HW219991   3.377   4.719   5.280
 4918SOL    HW319992   3.334   4.583   5.228
 4918SOL    MW419993   3.368   4.661   5.215
 4919SOL     OW19994   3.012   3.801   5.446
 4919SOL    HW219995   3.007   3.708   5.427
 4919SOL    HW319996   3.095   3.812   5.492
 4919SOL    MW419997   3.020   3.790   5.450
 4920SOL     OW19998   2.386   4.321   3.900
 4920SOL    HW219999   2.352   4.377   3.970
 4920SOL    HW320000   2.457   4.271   3.940
 4920SOL    MW420001   2.392   4.322   3.914
 4921SOL     OW20002   3.482   5.072   4.722
 4921SOL    HW220003   3.517   5.054   4.635
 4921SOL    HW320004   3.387   5.073   4.709
 4921SOL    MW420005   3.474   5.069   4.709
 4922SOL     OW20006   2.911   4.720   5.091
 4922SOL    HW220007   2.954   4.755   5.169
 4922SOL    HW320008   2.894   4.797   5.037
 4922SOL    MW420009   2.914   4.735   5.094
 4923SOL     OW20010   3.442   4.207   3.964
 4923SOL    HW220011   3.434   4.278   3.901
 4923SOL    HW320012   3.460   4.251   4.047
 4923SOL    MW420013   3.443   4.221   3.966
 4924SOL     OW20014   2.302   3.862   4.393
 4924SOL    HW220015   2.352   3.905   4.324
 4924SOL    HW320016   2.217   3.906   4.393
 4924SOL    MW420017   2.299   3.875   4.384
 4925SOL     OW20018   2.061   4.924   5.253
 4925SOL    HW220019   2.089   4.877   5.331
 4925SOL    HW320020   1.982   4.879   5.224
 4925SOL    MW420021   2.054   4.913   5.259
 4926SOL     OW20022   2.569   4.251   5.220
 4926SOL    HW220023   2.541   4.339   5.244
 4926SOL    HW320024   2.538   4.195   5.291
 4926SOL    MW420025   2.561   4.254   5.232
 4927SOL     OW20026   3.111   4.469   3.939
 4927SOL    HW220027   3.158   4.487   3.858
 4927SOL    HW320028   3.077   4.553   3.967
 4927SOL    MW420029   3.113   4.483   3.932
 4928SOL     OW20030   2.224   4.647   4.433
 4928SOL    HW220031   2.282   4.703   4.381
 4928SOL    HW320032   2.268   4.562   4.435
 4928SOL    MW420033   2.237   4.644   4.426
 4929SOL     OW20034   3.364   3.999   4.270
 4929SOL    HW220035   3.286   3.949   4.295
 4929SOL    HW320036   3.335   4.090   4.270
 4929SOL    MW420037   3.350   4.003   4.273
 4930SOL     OW20038   2.950   3.961   4.429
 4930SOL    HW220039   2.970   4.036   4.373
 4930SOL    HW320040   2.930   4.000   4.514
 4930SOL    MW420041   2.951   3.977   4.433
 4931SOL     OW20042   3.710   4.734   5.448
 4931SOL    HW220043   3.623   4.714   5.484
 4931SOL    HW320044   3.764   4.660   5.473
 4931SOL    MW420045   3.705   4.723   5.456
 4932SOL     OW20046   1.886   4.373   4.152
 4932SOL    HW220047   1.826   4.345   4.222
 4932SOL    HW320048   1.960   4.313   4.158
 4932SOL    MW420049   1.888   4.362   4.161
 4933SOL     OW20050   3.454   5.585   5.586
 4933SOL    HW220051   3.499   5.509   5.551
 4933SOL    HW320052   3.492   5.598   5.673
 4933SOL    MW420053   3.464   5.578   5.592
 4934SOL     OW20054   3.054   5.104   4.312
 4934SOL    HW220055   3.077   5.055   4.390
 4934SOL    HW320056   3.135   5.146   4.284
 4934SOL    MW420057   3.067   5.104   4.319
 4935SOL     OW20058   2.312   4.112   5.041
 4935SOL    HW220059   2.345   4.193   5.081
 4935SOL    HW320060   2.285   4.138   4.953
 4935SOL    MW420061   2.311   4.126   5.035
 4936SOL     OW20062   2.266   4.079   4.777
 4936SOL    HW220063   2.296   3.993   4.748
 4936SOL    HW320064   2.171   4.072   4.780
 4936SOL    MW420065   2.258   4.068   4.775
 4937SOL     OW20066   3.095   4.288   5.468
 4937SOL    HW220067   3.147   4.223   5.421
 4937SOL    HW320068   3.053   4.339   5.398
 4937SOL    MW420069   3.096   4.285   5.451
 4938SOL     OW20070   3.194   4.083   5.329
 4938SOL    HW220071   3.101   4.067   5.316
 4938SOL    HW320072   3.220   4.021   5.397
 4938SOL    MW420073   3.184   4.073   5.336
 4939SOL     OW20074   2.409   3.857   4.668
 4939SOL    HW220075   2.419   3.766   4.694
 4939SOL    HW320076   2.365   3.853   4.583
 4939SOL    MW420077   2.405   3.845   4.660
 4940SOL     OW20078   2.503   5.472   5.214
 4940SOL    HW220079   2.420   5.457   5.259
 4940SOL    HW320080   2.562   5.405   5.249
 4940SOL    MW420081   2.501   5.462   5.224
 4941SOL     OW20082   3.560   4.179   4.839
 4941SOL    HW220083   3.493   4.212   4.899
 4941SOL    HW320084   3.603   4.257   4.805
 4941SOL    MW420085   3.558   4.194   4.843
 4942SOL     OW20086   3.738   4.899   4.809
 4942SOL    HW220087   3.731   4.839   4.734
 4942SOL    HW320088   3.664   4.959   4.798
 4942SOL    MW420089   3.728   4.899   4.798
 4943SOL     OW20090   3.120   4.761   4.727
 4943SOL    HW220091   3.134   4.733   4.818
 4943SOL    HW320092   3.206   4.792   4.699
 4943SOL    MW420093   3.133   4.762   4.736
 4944SOL     OW20094   3.203   4.256   5.006
 4944SOL    HW220095   3.224   4.257   4.913
 4944SOL    HW320096   3.248   4.178   5.039
 4944SOL    MW420097   3.210   4.246   4.998
 4945SOL     OW20098   3.696   4.387   5.548
 4945SOL    HW220099   3.733   4.332   5.617
 4945SOL    HW320100   3.721   4.344   5.466
 4945SOL    MW420101   3.703   4.375   5.547
 4946SOL     OW20102   3.243   4.685   5.600
 4946SOL    HW220103   3.309   4.633   5.554
 4946SOL    HW320104   3.263   4.672   5.693
 4946SOL    MW420105   3.254   4.676   5.607
 4947SOL     OW20106   3.194   3.771   3.948
 4947SOL    HW220107   3.268   3.815   3.991
 4947SOL    HW320108   3.118   3.825   3.970
 4947SOL    MW420109   3.194   3.783   3.956
 4948SOL     OW20110   3.254   4.546   4.226
 4948SOL    HW220111   3.169   4.516   4.196
 4948SOL    HW320112   3.246   4.553   4.321
 4948SOL    MW420113   3.242   4.544   4.235
 4949SOL     OW20114   2.330   5.009   4.957
 4949SOL    HW220115   2.342   5.036   5.048
 4949SOL    HW320116   2.311   5.090   4.910
 4949SOL    MW420117   2.329   5.024   4.962
 4950SOL     OW20118   2.614   3.989   4.780
 4950SOL    HW220119   2.587   3.991   4.871
 4950SOL    HW320120   2.544   3.941   4.735
 4950SOL    MW420121   2.602   3.985   4.787
 4951SOL     OW20122   3.370   5.066   5.174
 4951SOL    HW220123   3.355   4.995   5.237
 4951SOL    HW320124   3.416   5.024   5.102
 4951SOL    MW420125   3.376   5.050   5.174
 4952SOL     OW20126   2.444   4.797   5.291
 4952SOL    HW220127   2.481   4.802   5.203
 4952SOL    HW320128   2.483   4.870   5.338
 4952SOL    MW420129   2.454   4.807   5.286
 4953SOL     OW20130   2.624   4.840   5.103
 4953SOL    HW220131   2.683   4.786   5.156
 4953SOL    HW320132   2.639   4.812   5.013
 4953SOL    MW420133   2.634   4.829   5.099
 4954SOL     OW20134   2.627   4.212   3.952
 4954SOL    HW220135   2.700   4.261   3.915
 4954SOL    HW320136   2.643   4.121   3.926
 4954SOL    MW420137   2.639   4.207   3.945
 4955SOL     OW20138   3.435   5.329   5.275
 4955SOL    HW220139   3.477   5.314   5.360
 4955SOL    HW320140   3.426   5.242   5.237
 4955SOL    MW420141   3.439   5.317   5.282
 4956SOL     OW20142   3.095   3.808   4.866
 4956SOL    HW220143   3.150   3.817   4.788
 4956SOL    HW320144   3.150   3.842   4.937
 4956SOL    MW420145   3.109   3.813   4.865
 4957SOL     OW20146   2.102   4.721   4.050
 4957SOL    HW220147   2.039   4.737   3.979
 4957SOL    HW320148   2.049   4.684   4.121
 4957SOL    MW420149   2.087   4.718   4.050
 4958SOL     OW20150   2.458   5.075   3.909
 4958SOL    HW220151   2.473   5.051   4.001
 4958SOL    HW320152   2.366   5.053   3.893
 4958SOL    MW420153   2.448   5.068   3.919
 4959SOL     OW20154   2.873   4.942   4.873
 4959SOL    HW220155   2.805   4.876   4.889
 4959SOL    HW320156   2.891   4.936   4.780
 4959SOL    MW420157   2.866   4.933   4.864
 4960SOL     OW20158   1.962   5.217   5.124
 4960SOL    HW220159   1.952   5.175   5.210
 4960SOL    HW320160   1.883   5.270   5.114
 4960SOL    MW420161   1.951   5.218   5.135
 4961SOL     OW20162   2.517   4.517   5.314
 4961SOL    HW220163   2.510   4.612   5.302
 4961SOL    HW320164   2.526   4.506   5.409
 4961SOL    MW420165   2.518   4.529   5.324
 4962SOL     OW20166   2.238   5.032   5.572
 4962SOL    HW220167   2.310   5.034   5.509
 4962SOL    HW320168   2.208   4.941   5.571
 4962SOL    MW420169   2.243   5.021   5.564
 4963SOL     OW20170   3.322   3.795   5.039
 4963SOL    HW220171   3.393   3.741   5.003
 4963SOL    HW320172   3.321   3.774   5.132
 4963SOL    MW420173   3.331   3.786   5.047
 4964SOL     OW20174   3.522   5.325   5.523
 4964SOL    HW220175   3.495   5.322   5.614
 4964SOL    HW320176   3.618   5.329   5.526
 4964SOL    MW420177   3.532   5.325   5.535
 4965SOL     OW20178   2.333   4.187   4.507
 4965SOL    HW220179   2.404   4.135   4.470
 4965SOL    HW320180   2.319   4.152   4.594
 4965SOL    MW420181   2.341   4.176   4.514
 4966SOL     OW20182   1.888   5.522   5.579
 4966SOL    HW220183   1.938   5.500   5.501
 4966SOL    HW320184   1.896   5.617   5.587
 4966SOL    MW420185   1.896   5.531   5.570
 4967SOL     OW20186   2.649   5.280   4.583
 4967SOL    HW220187   2.577   5.217   4.596
 4967SOL    HW320188   2.610   5.365   4.601
 4967SOL    MW420189   2.633   5.283   4.586
 4968SOL     OW20190   2.969   4.128   4.231
 4968SOL    HW220191   2.991   4.065   4.163
 4968SOL    HW320192   2.874   4.120   4.242
 4968SOL    MW420193   2.959   4.119   4.223
 4969SOL     OW20194   2.054   3.818   4.163
 4969SOL    HW220195   2.125   3.839   4.102
 4969SOL    HW320196   2.008   3.746   4.121
 4969SOL    MW420197   2.058   3.812   4.149
 4970SOL     OW20198   1.885   4.285   5.306
 4970SOL    HW220199   1.949   4.351   5.281
 4970SOL    HW320200   1.804   4.312   5.263
 4970SOL    MW420201   1.883   4.297   5.298
 4971SOL     OW20202   3.623   5.192   4.263
 4971SOL    HW220203   3.593   5.125   4.324
 4971SOL    HW320204   3.717   5.198   4.277
 4971SOL    MW420205   3.631   5.184   4.273
 4972SOL     OW20206   3.179   4.869   4.193
 4972SOL    HW220207   3.151   4.955   4.226
 4972SOL    HW320208   3.207   4.885   4.103
 4972SOL    MW420209   3.179   4.883   4.185
 4973SOL     OW20210   2.841   3.789   4.246
 4973SOL    HW220211   2.878   3.848   4.311
 4973SOL    HW320212   2.818   3.845   4.172
 4973SOL    MW420213   2.842   3.804   4.245
 4974SOL     OW20214   3.694   4.671   4.668
 4974SOL    HW220215   3.685   4.703   4.579
 4974SOL    HW320216   3.647   4.587   4.668
 4974SOL    MW420217   3.687   4.664   4.658
 4975SOL     OW20218   2.070   4.511   5.247
 4975SOL    HW220219   2.091   4.580   5.185
 4975SOL    HW320220   2.150   4.458   5.252
 4975SOL    MW420221   2.083   4.512   5.241
 4976SOL     OW20222   3.606   4.602   4.369
 4976SOL    HW220223   3.700   4.591   4.357
 4976SOL    HW320224   3.582   4.674   4.310
 4976SOL    MW420225   3.616   4.610   4.360
 4977SOL     OW20226   2.055   4.526   5.514
 4977SOL    HW220227   1.981   4.470   5.540
 4977SOL    HW320228   2.050   4.529   5.419
 4977SOL    MW420229   2.044   4.519   5.504
 4978SOL     OW20230   2.221   3.813   4.964
 4978SOL    HW220231   2.264   3.897   4.984
 4978SOL    HW320232   2.294   3.751   4.957
 4978SOL    MW420233   2.236   3.816   4.965
 4979SOL     OW20234   2.262   4.480   4.142
 4979SOL    HW220235   2.262   4.575   4.127
 4979SOL    HW320236   2.339   4.464   4.196
 4979SOL    MW420237   2.272   4.491   4.147
 4980SOL     OW20238   3.038   4.339   5.206
 4980SOL    HW220239   3.074   4.312   5.122
 4980SOL    HW320240   2.951   4.373   5.185
 4980SOL    MW420241   3.032   4.340   5.193
 4981SOL     OW20242   2.021   4.211   4.431
 4981SOL    HW220243   2.083   4.218   4.504
 4981SOL    HW320244   2.021   4.118   4.408
 4981SOL    MW420245   2.029   4.200   4.438
 4982SOL     OW20246   2.703   4.472   4.915
 4982SOL    HW220247   2.661   4.390   4.891
 4982SOL    HW320248   2.704   4.471   5.011
 4982SOL    MW420249   2.696   4.461   4.924
 4983SOL     OW20250   3.374   5.605   5.314
 4983SOL    HW220251   3.377   5.511   5.297
 4983SOL    HW320252   3.397   5.613   5.406
 4983SOL    MW420253   3.377   5.593   5.324
 4984SOL     OW20254   2.507   3.942   5.020
 4984SOL    HW220255   2.438   4.005   5.041
 4984SOL    HW320256   2.534   3.906   5.105
 4984SOL    MW420257   2.501   3.945   5.033
 4985SOL     OW20258   1.890   4.783   3.889
 4985SOL    HW220259   1.859   4.848   3.952
 4985SOL    HW320260   1.839   4.705   3.908
 4985SOL    MW420261   1.880   4.780   3.899
 4986SOL     OW20262   3.302   3.795   4.637
 4986SOL    HW220263   3.390   3.804   4.674
 4986SOL    HW320264   3.312   3.736   4.563
 4986SOL    MW420265   3.316   3.789   4.631
 4987SOL     OW20266   3.334   4.534   4.481
 4987SOL    HW220267   3.414   4.549   4.430
 4987SOL    HW320268   3.327   4.439   4.487
 4987SOL    MW420269   3.343   4.523   4.476
 4988SOL     OW20270   2.474   5.583   3.831
 4988SOL    HW220271   2.379   5.583   3.823
 4988SOL    HW320272   2.490   5.529   3.909
 4988SOL    MW420273   2.464   5.577   3.840
 4989SOL     OW20274   2.784   4.460   5.178
 4989SOL    HW220275   2.853   4.527   5.175
 4989SOL    HW320276   2.717   4.498   5.234
 4989SOL    MW420277   2.785   4.473   5.185
 4990SOL     OW20278   2.202   4.760   5.426
 4990SOL    HW220279   2.156   4.676   5.428
 4990SOL    HW320280   2.259   4.754   5.350
 4990SOL    MW420281   2.204   4.748   5.418
 4991SOL     OW20282   3.319   4.403   3.747
 4991SOL    HW220283   3.247   4.379   3.689
 4991SOL    HW320284   3.385   4.440   3.689
 4991SOL    MW420285   3.318   4.405   3.732
 4992SOL     OW20286   2.453   5.135   4.427
 4992SOL    HW220287   2.518   5.068   4.448
 4992SOL    HW320288   2.505   5.212   4.404
 4992SOL    MW420289   2.468   5.137   4.426
 4993SOL     OW20290   2.714   4.300   4.557
 4993SOL    HW220291   2.654   4.318   4.629
 4993SOL    HW320292   2.748   4.212   4.576
 4993SOL    MW420293   2.710   4.290   4.570
 4994SOL     OW20294   3.655   3.799   5.226
 4994SOL    HW220295   3.576   3.845   5.254
 4994SOL    HW320296   3.690   3.853   5.155
 4994SOL    MW420297   3.649   3.812   5.220
 4995SOL     OW20298   2.939   4.883   4.576
 4995SOL    HW220299   3.031   4.864   4.594
 4995SOL    HW320300   2.912   4.813   4.516
 4995SOL    MW420301   2.947   4.871   4.570
 4996SOL     OW20302   2.732   4.703   3.931
 4996SOL    HW220303   2.718   4.615   3.896
 4996SOL    HW320304   2.683   4.760   3.872
 4996SOL    MW420305   2.724   4.698   3.919
 4997SOL     OW20306   3.132   5.069   4.940
 4997SOL    HW220307   3.143   5.036   5.029
 4997SOL    HW320308   3.051   5.028   4.909
 4997SOL    MW420309   3.122   5.061   4.946
 4998SOL     OW20310   2.145   4.427   4.710
 4998SOL    HW220311   2.095   4.426   4.791
 4998SOL    HW320312   2.165   4.519   4.694
 4998SOL    MW420313   2.141   4.439   4.718
 4999SOL     OW20314   3.212   5.191   5.472
 4999SOL    HW220315   3.212   5.285   5.488
 4999SOL    HW320316   3.257   5.181   5.388
 4999SOL    MW420317   3.218   5.201   5.463
 5000SOL     OW20318   3.451   3.909   4.033
 5000SOL    HW220319   3.444   3.913   4.128
 5000SOL    HW320320   3.463   4.000   4.006
 5000SOL    MW420321   3.452   3.922   4.041
 5001SOL     OW20322   2.740   4.472   4.147
 5001SOL    HW220323   2.720   4.458   4.054
 5001SOL    HW320324   2.833   4.451   4.154
 5001SOL    MW420325   2.750   4.467   4.136
 5002SOL     OW20326   2.067   4.095   5.451
 5002SOL    HW220327   2.024   4.154   5.388
 5002SOL    HW320328   2.135   4.150   5.491
 5002SOL    MW420329   2.071   4.110   5.448
 5003SOL     OW20330   3.179   4.715   4.996
 5003SOL    HW220331   3.242   4.712   5.069
 5003SOL    HW320332   3.095   4.733   5.038
 5003SOL    MW420333   3.175   4.717   5.011
 5004SOL     OW20334   3.518   3.892   4.775
 5004SOL    HW220335   3.563   3.810   4.794
 5004SOL    HW320336   3.538   3.948   4.851
 5004SOL    MW420337   3.528   3.888   4.787
 5005SOL     OW20338   1.966   3.735   4.874
 5005SOL    HW220339   1.957   3.736   4.779
 5005SOL    HW320340   2.060   3.747   4.889
 5005SOL    MW420341   1.978   3.738   4.865
 5006SOL     OW20342   3.603   4.928   4.494
 5006SOL    HW220343   3.582   4.874   4.417
 5006SOL    HW320344   3.699   4.926   4.498
 5006SOL    MW420345   3.612   4.921   4.483
 5007SOL     OW20346   2.295   5.073   5.237
 5007SOL    HW220347   2.216   5.023   5.260
 5007SOL    HW320348   2.365   5.032   5.287
 5007SOL    MW420349   2.293   5.061   5.247
 5008SOL     OW20350   2.179   3.862   3.920
 5008SOL    HW220351   2.108   3.917   3.888
 5008SOL    HW320352   2.221   3.828   3.841
 5008SOL    MW420353   2.175   3.864   3.906
 5009SOL     OW20354   3.303   4.359   4.756
 5009SOL    HW220355   3.226   4.405   4.722
 5009SOL    HW320356   3.360   4.428   4.790
 5009SOL    MW420357   3.300   4.374   4.756
 5010SOL     OW20358   1.935   3.961   3.769
 5010SOL    HW220359   1.902   4.040   3.813
 5010SOL    HW320360   1.990   3.994   3.698
 5010SOL    MW420361   1.938   3.975   3.766
 5011SOL     OW20362   1.969   5.218   3.958
 5011SOL    HW220363   1.986   5.302   4.000
 5011SOL    HW320364   2.004   5.227   3.870
 5011SOL    MW420365   1.974   5.231   3.952
 5012SOL     OW20366   3.241   5.307   4.175
 5012SOL    HW220367   3.304   5.297   4.104
 5012SOL    HW320368   3.158   5.327   4.130
 5012SOL    MW420369   3.238   5.308   4.160
 5013SOL     OW20370   3.604   4.575   5.862
 5013SOL    HW220371   3.645   4.517   5.927
 5013SOL    HW320372   3.511   4.567   5.879
 5013SOL    MW420373   3.598   4.567   5.872
 5014SOL     OW20374   2.398   4.758   6.091
 5014SOL    HW220375   2.488   4.733   6.075
 5014SOL    HW320376   2.394   4.851   6.068
 5014SOL    MW420377   2.410   4.767   6.086
 5015SOL     OW20378   3.514   5.461   6.233
 5015SOL    HW220379   3.526   5.407   6.311
 5015SOL    HW320380   3.551   5.409   6.162
 5015SOL    MW420381   3.520   5.446   6.234
 5016SOL     OW20382   2.682   4.214   6.104
 5016SOL    HW220383   2.657   4.302   6.132
 5016SOL    HW320384   2.679   4.217   6.008
 5016SOL    MW420385   2.678   4.226   6.096
 5017SOL     OW20386   2.124   4.242   6.032
 5017SOL    HW220387   2.156   4.330   6.014
 5017SOL    HW320388   2.112   4.240   6.127
 5017SOL    MW420389   2.127   4.254   6.044
 5018SOL     OW20390   2.523   3.997   6.119
 5018SOL    HW220391   2.581   4.073   6.121
 5018SOL    HW320392   2.458   4.018   6.052
 5018SOL    MW420393   2.522   4.009   6.110
 5019SOL     OW20394   2.610   4.924   6.294
 5019SOL    HW220395   2.690   4.927   6.346
 5019SOL    HW320396   2.638   4.891   6.208
 5019SOL    MW420397   2.624   4.920   6.289
 5020SOL     OW20398   2.387   4.428   6.285
 5020SOL    HW220399   2.372   4.348   6.336
 5020SOL    HW320400   2.469   4.463   6.319
 5020SOL    MW420401   2.395   4.420   6.297
 5021SOL     OW20402   1.972   5.514   6.441
 5021SOL    HW220403   2.061   5.506   6.476
 5021SOL    HW320404   1.936   5.426   6.446
 5021SOL    MW420405   1.979   5.501   6.446
 5022SOL     OW20406   3.237   4.906   5.810
 5022SOL    HW220407   3.155   4.942   5.776
 5022SOL    HW320408   3.305   4.949   5.759
 5022SOL    MW420409   3.235   4.916   5.798
 5023SOL     OW20410   2.236   5.041   6.476
 5023SOL    HW220411   2.212   5.094   6.552
 5023SOL    HW320412   2.292   5.099   6.424
 5023SOL    MW420413   2.240   5.056   6.479
 5024SOL     OW20414   2.798   4.685   6.286
 5024SOL    HW220415   2.712   4.672   6.326
 5024SOL    HW320416   2.851   4.612   6.318
 5024SOL    MW420417   2.794   4.674   6.295
 5025SOL     OW20418   2.789   5.047   6.003
 5025SOL    HW220419   2.766   5.109   6.071
 5025SOL    HW320420   2.746   4.965   6.029
 5025SOL    MW420421   2.781   5.043   6.014
 5026SOL     OW20422   3.662   4.048   6.459
 5026SOL    HW220423   3.599   4.028   6.528
 5026SOL    HW320424   3.652   3.977   6.396
 5026SOL    MW420425   3.652   4.035   6.460
 5027SOL     OW20426   2.286   4.020   5.971
 5027SOL    HW220427   2.260   3.982   5.887
 5027SOL    HW320428   2.223   4.090   5.987
 5027SOL    MW420429   2.275   4.023   5.962
 5028SOL     OW20430   2.121   4.981   6.008
 5028SOL    HW220431   2.069   5.049   5.964
 5028SOL    HW320432   2.118   4.907   5.948
 5028SOL    MW420433   2.113   4.980   5.995
 5029SOL     OW20434   2.783   5.444   5.786
 5029SOL    HW220435   2.738   5.460   5.869
 5029SOL    HW320436   2.714   5.409   5.728
 5029SOL    MW420437   2.769   5.441   5.788
 5030SOL     OW20438   3.718   4.217   5.761
 5030SOL    HW220439   3.627   4.219   5.789
 5030SOL    HW320440   3.763   4.279   5.819
 5030SOL    MW420441   3.711   4.225   5.771
 5031SOL     OW20442   3.463   4.820   6.111
 5031SOL    HW220443   3.373   4.820   6.146
 5031SOL    HW320444   3.456   4.866   6.028
 5031SOL    MW420445   3.450   4.826   6.105
 5032SOL     OW20446   3.370   4.798   6.503
 5032SOL    HW220447   3.373   4.732   6.434
 5032SOL    HW320448   3.455   4.841   6.499
 5032SOL    MW420449   3.382   4.794   6.494
 5033SOL     OW20450   2.990   4.401   6.072
 5033SOL    HW220451   3.016   4.425   5.983
 5033SOL    HW320452   2.972   4.308   6.068
 5033SOL    MW420453   2.992   4.393   6.059
 5034SOL     OW20454   3.655   5.021   5.923
 5034SOL    HW220455   3.611   5.062   5.998
 5034SOL    HW320456   3.712   5.089   5.888
 5034SOL    MW420457   3.657   5.035   5.928
 5035SOL     OW20458   2.311   5.437   6.241
 5035SOL    HW220459   2.343   5.525   6.219
 5035SOL    HW320460   2.264   5.409   6.163
 5035SOL    MW420461   2.310   5.445   6.228
 5036SOL     OW20462   2.027   5.497   5.818
 5036SOL    HW220463   2.056   5.587   5.810
 5036SOL    HW320464   1.977   5.480   5.739
 5036SOL    MW420465   2.025   5.505   5.807
 5037SOL     OW20466   3.431   5.305   5.789
 5037SOL    HW220467   3.479   5.374   5.835
 5037SOL    HW320468   3.352   5.349   5.758
 5037SOL    MW420469   3.426   5.319   5.792
 5038SOL     OW20470   2.829   4.430   5.733
 5038SOL    HW220471   2.831   4.377   5.654
 5038SOL    HW320472   2.917   4.467   5.739
 5038SOL    MW420473   2.841   4.429   5.722
 5039SOL     OW20474   3.443   4.356   6.069
 5039SOL    HW220475   3.482   4.356   6.156
 5039SOL    HW320476   3.384   4.432   6.069
 5039SOL    MW420477   3.440   4.367   6.080
 5040SOL     OW20478   3.630   4.242   6.235
 5040SOL    HW220479   3.719   4.211   6.252
 5040SOL    HW320480   3.573   4.182   6.283
 5040SOL    MW420481   3.633   4.230   6.244
 5041SOL     OW20482   2.056   3.956   6.264
 5041SOL    HW220483   2.047   3.896   6.190
 5041SOL    HW320484   1.989   3.927   6.327
 5041SOL    MW420485   2.046   3.943   6.262
 5042SOL     OW20486   2.999   5.049   5.825
 5042SOL    HW220487   2.949   5.051   5.907
 5042SOL    HW320488   2.933   5.067   5.757
 5042SOL    MW420489   2.985   5.051   5.827
 5043SOL     OW20490   2.462   5.467   5.933
 5043SOL    HW220491   2.383   5.425   5.966
 5043SOL    HW320492   2.528   5.450   6.000
 5043SOL    MW420493   2.461   5.459   5.946
 5044SOL     OW20494   2.598   4.882   5.640
 5044SOL    HW220495   2.520   4.828   5.627
 5044SOL    HW320496   2.569   4.955   5.693
 5044SOL    MW420497   2.584   4.884   5.645
 5045SOL     OW20498   3.179   5.398   5.708
 5045SOL    HW220499   3.105   5.361   5.758
 5045SOL    HW320500   3.187   5.488   5.741
 5045SOL    MW420501   3.170   5.405   5.720
 5046SOL     OW20502   3.403   5.072   5.650
 5046SOL    HW220503   3.350   5.121   5.586
 5046SOL    HW320504   3.434   5.138   5.711
 5046SOL    MW420505   3.401   5.086   5.648
 5047SOL     OW20506   2.628   3.961   5.705
 5047SOL    HW220507   2.576   3.881   5.693
 5047SOL    HW320508   2.715   3.938   5.673
 5047SOL    MW420509   2.631   3.947   5.699
 5048SOL     OW20510   1.989   4.601   6.162
 5048SOL    HW220511   2.080   4.616   6.189
 5048SOL    HW320512   1.992   4.522   6.108
 5048SOL    MW420513   2.001   4.593   6.160
 5049SOL     OW20514   2.616   5.533   6.536
 5049SOL    HW220515   2.705   5.548   6.566
 5049SOL    HW320516   2.611   5.580   6.452
 5049SOL    MW420517   2.626   5.541   6.529
 5050SOL     OW20518   1.997   5.213   6.201
 5050SOL    HW220519   1.969   5.252   6.283
 5050SOL    HW320520   2.017   5.122   6.223
 5050SOL    MW420521   1.995   5.205   6.214
 5051SOL     OW20522   2.830   5.256   6.236
 5051SOL    HW220523   2.913   5.210   6.220
 5051SOL    HW320524   2.820   5.255   6.332
 5051SOL    MW420525   2.840   5.249   6.246
 5052SOL     OW20526   2.563   5.313   5.641
 5052SOL    HW220527   2.503   5.382   5.611
 5052SOL    HW320528   2.508   5.255   5.694
 5052SOL    MW420529   2.547   5.315   5.643
 5053SOL     OW20530   3.001   3.958   5.864
 5053SOL    HW220531   2.934   3.934   5.801
 5053SOL    HW320532   3.066   4.007   5.813
 5053SOL    MW420533   3.001   3.960   5.849
 5054SOL     OW20534   2.520   4.675   6.376
 5054SOL    HW220535   2.431   4.666   6.409
 5054SOL    HW320536   2.524   4.765   6.344
 5054SOL    MW420537   2.509   4.686   6.376
 5055SOL     OW20538   3.319   4.258   6.371
 5055SOL    HW220539   3.264   4.179   6.370
 5055SOL    HW320540   3.301   4.299   6.455
 5055SOL    MW420541   3.309   4.253   6.380
 5056SOL     OW20542   2.938   4.462   6.328
 5056SOL    HW220543   2.875   4.394   6.352
 5056SOL    HW320544   2.958   4.443   6.236
 5056SOL    MW420545   2.932   4.449   6.320
 5057SOL     OW20546   2.194   5.357   6.030
 5057SOL    HW220547   2.155   5.404   5.956
 5057SOL    HW320548   2.128   5.292   6.055
 5057SOL    MW420549   2.181   5.355   6.024
 5058SOL     OW20550   2.686   4.766   6.054
 5058SOL    HW220551   2.688   4.740   5.961
 5058SOL    HW320552   2.744   4.703   6.097
 5058SOL    MW420553   2.694   4.755   6.048
 5059SOL     OW20554   3.243   5.534   6.256
 5059SOL    HW220555   3.186   5.487   6.195
 5059SOL    HW320556   3.329   5.495   6.243
 5059SOL    MW420557   3.246   5.525   6.246
 5060SOL     OW20558   2.001   4.944   6.321
 5060SOL    HW220559   2.065   4.976   6.384
 5060SOL    HW320560   2.050   4.880   6.269
 5060SOL    MW420561   2.016   4.940   6.322
 5061SOL     OW20562   3.176   4.114   5.722
 5061SOL    HW220563   3.149   4.180   5.658
 5061SOL    HW320564   3.246   4.157   5.772
 5061SOL    MW420565   3.181   4.127   5.719
 5062SOL     OW20566   2.844   3.819   5.659
 5062SOL    HW220567   2.900   3.811   5.581
 5062SOL    HW320568   2.821   3.729   5.681
 5062SOL    MW420569   2.849   3.806   5.652
 5063SOL     OW20570   3.349   4.670   5.864
 5063SOL    HW220571   3.316   4.759   5.854
 5063SOL    HW320572   3.314   4.641   5.949
 5063SOL    MW420573   3.339   4.679   5.875
 5064SOL     OW20574   2.343   4.708   5.656
 5064SOL    HW220575   2.266   4.721   5.712
 5064SOL    HW320576   2.307   4.672   5.575
 5064SOL    MW420577   2.329   4.704   5.653
 5065SOL     OW20578   2.996   4.681   5.899
 5065SOL    HW220579   2.906   4.702   5.874
 5065SOL    HW320580   3.023   4.754   5.955
 5065SOL    MW420581   2.988   4.693   5.902
 5066SOL     OW20582   2.383   5.037   6.055
 5066SOL    HW220583   2.376   5.069   6.145
 5066SOL    HW320584   2.293   5.021   6.027
 5066SOL    MW420585   2.371   5.039   6.062
 5067SOL     OW20586   3.092   5.395   6.454
 5067SOL    HW220587   3.139   5.468   6.413
 5067SOL    HW320588   3.013   5.434   6.490
 5067SOL    MW420589   3.087   5.410   6.453
 5068SOL     OW20590   2.386   4.321   5.769
 5068SOL    HW220591   2.352   4.377   5.839
 5068SOL    HW320592   2.457   4.271   5.809
 5068SOL    MW420593   2.392   4.322   5.783
 5069SOL     OW20594   3.442   4.207   5.833
 5069SOL    HW220595   3.434   4.278   5.770
 5069SOL    HW320596   3.460   4.251   5.916
 5069SOL    MW420597   3.443   4.221   5.835
 5070SOL     OW20598   2.302   3.862   6.262
 5070SOL    HW220599   2.352   3.905   6.193
 5070SOL    HW320600   2.217   3.906   6.262
 5070SOL    MW420601   2.299   3.875   6.253
 5071SOL     OW20602   3.111   4.469   5.808
 5071SOL    HW220603   3.158   4.487   5.727
 5071SOL    HW320604   3.077   4.553   5.836
 5071SOL    MW420605   3.113   4.483   5.801
 5072SOL     OW20606   2.224   4.647   6.302
 5072SOL    HW220607   2.282   4.703   6.250
 5072SOL    HW320608   2.268   4.562   6.304
 5072SOL    MW420609   2.237   4.644   6.295
 5073SOL     OW20610   3.364   3.999   6.139
 5073SOL    HW220611   3.286   3.949   6.164
 5073SOL    HW320612   3.335   4.090   6.139
 5073SOL    MW420613   3.350   4.003   6.142
 5074SOL     OW20614   2.846   5.211   5.630
 5074SOL    HW220615   2.873   5.289   5.582
 5074SOL    HW320616   2.753   5.226   5.649
 5074SOL    MW420617   2.837   5.224   5.626
 5075SOL     OW20618   1.886   4.373   6.021
 5075SOL    HW220619   1.826   4.345   6.091
 5075SOL    HW320620   1.960   4.313   6.027
 5075SOL    MW420621   1.888   4.362   6.030
 5076SOL     OW20622   3.054   5.104   6.181
 5076SOL    HW220623   3.077   5.055   6.259
 5076SOL    HW320624   3.135   5.146   6.153
 5076SOL    MW420625   3.067   5.104   6.188
 5077SOL     OW20626   2.409   3.857   6.537
 5077SOL    HW220627   2.419   3.766   6.563
 5077SOL    HW320628   2.365   3.853   6.452
 5077SOL    MW420629   2.405   3.845   6.529
 5078SOL     OW20630   3.194   3.771   5.817
 5078SOL    HW220631   3.268   3.815   5.860
 5078SOL    HW320632   3.118   3.825   5.839
 5078SOL    MW420633   3.194   3.783   5.825
 5079SOL     OW20634   3.254   4.546   6.095
 5079SOL    HW220635   3.169   4.516   6.065
 5079SOL    HW320636   3.246   4.553   6.190
 5079SOL    MW420637   3.242   4.544   6.104
 5080SOL     OW20638   2.627   4.212   5.821
 5080SOL    HW220639   2.700   4.261   5.784
 5080SOL    HW320640   2.643   4.121   5.795
 5080SOL    MW420641   2.639   4.207   5.814
 5081SOL     OW20642   2.102   4.721   5.919
 5081SOL    HW220643   2.039   4.737   5.848
 5081SOL    HW320644   2.049   4.684   5.990
 5081SOL    MW420645   2.087   4.718   5.919
 5082SOL     OW20646   2.458   5.075   5.778
 5082SOL    HW220647   2.473   5.051   5.870
 5082SOL    HW320648   2.366   5.053   5.762
 5082SOL    MW420649   2.448   5.068   5.788
 5083SOL     OW20650   2.997   5.306   5.930
 5083SOL    HW220651   3.005   5.224   5.881
 5083SOL    HW320652   2.916   5.345   5.897
 5083SOL    MW420653   2.987   5.301   5.920
 5084SOL     OW20654   2.256   5.464   6.499
 5084SOL    HW220655   2.260   5.375   6.534
 5084SOL    HW320656   2.282   5.455   6.408
 5084SOL    MW420657   2.259   5.452   6.491
 5085SOL     OW20658   2.333   4.187   6.376
 5085SOL    HW220659   2.404   4.135   6.339
 5085SOL    HW320660   2.319   4.152   6.463
 5085SOL    MW420661   2.341   4.176   6.383
 5086SOL     OW20662   2.649   5.280   6.452
 5086SOL    HW220663   2.577   5.217   6.465
 5086SOL    HW320664   2.610   5.365   6.470
 5086SOL    MW420665   2.633   5.283   6.455
 5087SOL     OW20666   2.969   4.128   6.100
 5087SOL    HW220667   2.991   4.065   6.032
 5087SOL    HW320668   2.874   4.120   6.111
 5087SOL    MW420669   2.959   4.119   6.092
 5088SOL     OW20670   2.054   3.818   6.032
 5088SOL    HW220671   2.125   3.839   5.971
 5088SOL    HW320672   2.008   3.746   5.990
 5088SOL    MW420673   2.058   3.812   6.018
 5089SOL     OW20674   3.623   5.192   6.132
 5089SOL    HW220675   3.593   5.125   6.193
 5089SOL    HW320676   3.717   5.198   6.146
 5089SOL    MW420677   3.631   5.184   6.142
 5090SOL     OW20678   3.179   4.869   6.062
 5090SOL    HW220679   3.151   4.955   6.095
 5090SOL    HW320680   3.207   4.885   5.972
 5090SOL    MW420681   3.179   4.883   6.054
 5091SOL     OW20682   2.841   3.789   6.115
 5091SOL    HW220683   2.878   3.848   6.180
 5091SOL    HW320684   2.818   3.845   6.041
 5091SOL    MW420685   2.842   3.804   6.114
 5092SOL     OW20686   3.694   4.671   6.537
 5092SOL    HW220687   3.685   4.703   6.448
 5092SOL    HW320688   3.647   4.587   6.537
 5092SOL    MW420689   3.687   4.664   6.527
 5093SOL     OW20690   3.606   4.602   6.238
 5093SOL    HW220691   3.700   4.591   6.226
 5093SOL    HW320692   3.582   4.674   6.179
 5093SOL    MW420693   3.616   4.610   6.229
 5094SOL     OW20694   2.262   4.480   6.011
 5094SOL    HW220695   2.262   4.575   5.996
 5094SOL    HW320696   2.339   4.464   6.065
 5094SOL    MW420697   2.272   4.491   6.016
 5095SOL     OW20698   2.021   4.211   6.300
 5095SOL    HW220699   2.083   4.218   6.373
 5095SOL    HW320700   2.021   4.118   6.277
 5095SOL    MW420701   2.029   4.200   6.307
 5096SOL     OW20702   3.568   5.551   5.832
 5096SOL    HW220703   3.635   5.584   5.772
 5096SOL    HW320704   3.525   5.630   5.866
 5096SOL    MW420705   3.570   5.566   5.828
 5097SOL     OW20706   1.890   4.783   5.758
 5097SOL    HW220707   1.859   4.848   5.821
 5097SOL    HW320708   1.839   4.705   5.777
 5097SOL    MW420709   1.880   4.780   5.768
 5098SOL     OW20710   3.334   4.534   6.350
 5098SOL    HW220711   3.414   4.549   6.299
 5098SOL    HW320712   3.327   4.439   6.356
 5098SOL    MW420713   3.343   4.523   6.345
 5099SOL     OW20714   2.474   5.583   5.700
 5099SOL    HW220715   2.379   5.583   5.692
 5099SOL    HW320716   2.490   5.529   5.778
 5099SOL    MW420717   2.464   5.577   5.709
 5100SOL     OW20718   3.319   4.403   5.615
 5100SOL    HW220719   3.247   4.379   5.557
 5100SOL    HW320720   3.385   4.440   5.557
 5100SOL    MW420721   3.318   4.405   5.600
 5101SOL     OW20722   2.453   5.135   6.296
 5101SOL    HW220723   2.518   5.068   6.317
 5101SOL    HW320724   2.505   5.212   6.273
 5101SOL    MW420725   2.468   5.137   6.295
 5102SOL     OW20726   2.714   4.300   6.426
 5102SOL    HW220727   2.654   4.318   6.498
 5102SOL    HW320728   2.748   4.212   6.445
 5102SOL    MW420729   2.710   4.290   6.439
 5103SOL     OW20730   2.939   4.883   6.445
 5103SOL    HW220731   3.031   4.864   6.463
 5103SOL    HW320732   2.912   4.813   6.385
 5103SOL    MW420733   2.947   4.871   6.439
 5104SOL     OW20734   2.732   4.703   5.800
 5104SOL    HW220735   2.718   4.615   5.765
 5104SOL    HW320736   2.683   4.760   5.741
 5104SOL    MW420737   2.724   4.698   5.788
 5105SOL     OW20738   3.451   3.909   5.902
 5105SOL    HW220739   3.444   3.913   5.997
 5105SOL    HW320740   3.463   4.000   5.875
 5105SOL    MW420741   3.452   3.922   5.910
 5106SOL     OW20742   2.740   4.472   6.016
 5106SOL    HW220743   2.720   4.458   5.923
 5106SOL    HW320744   2.833   4.451   6.023
 5106SOL    MW420745   2.750   4.467   6.005
 5107SOL     OW20746   2.723   5.430   6.054
 5107SOL    HW220747   2.781   5.501   6.081
 5107SOL    HW320748   2.746   5.358   6.112
 5107SOL    MW420749   2.734   5.430   6.065
 5108SOL     OW20750   3.603   4.928   6.363
 5108SOL    HW220751   3.582   4.874   6.286
 5108SOL    HW320752   3.699   4.926   6.367
 5108SOL    MW420753   3.612   4.921   6.352
 5109SOL     OW20754   2.179   3.862   5.789
 5109SOL    HW220755   2.108   3.917   5.757
 5109SOL    HW320756   2.221   3.828   5.710
 5109SOL    MW420757   2.175   3.864   5.775
 5110SOL     OW20758   1.935   3.961   5.638
 5110SOL    HW220759   1.902   4.040   5.682
 5110SOL    HW320760   1.990   3.994   5.567
 5110SOL    MW420761   1.938   3.975   5.635
 5111SOL     OW20762   1.969   5.218   5.827
 5111SOL    HW220763   1.986   5.302   5.869
 5111SOL    HW320764   2.004   5.227   5.739
 5111SOL    MW420765   1.974   5.231   5.821
 5112SOL     OW20766   3.241   5.307   6.044
 5112SOL    HW220767   3.304   5.297   5.973
 5112SOL    HW320768   3.158   5.327   5.999
 5112SOL    MW420769   3.238   5.308   6.029
 5113SOL     OW20770   3.604   6.444   0.257
 5113SOL    HW220771   3.645   6.386   0.322
 5113SOL    HW320772   3.511   6.436   0.274
 5113SOL    MW420773   3.598   6.436   0.267
 5114SOL     OW20774   3.470   6.376   1.252
 5114SOL    HW220775   3.425   6.443   1.303
 5114SOL    HW320776   3.558   6.412   1.238
 5114SOL    MW420777   3.476   6.389   1.256
 5115SOL     OW20778   2.398   6.627   0.486
 5115SOL    HW220779   2.488   6.602   0.470
 5115SOL    HW320780   2.394   6.720   0.463
 5115SOL    MW420781   2.410   6.636   0.481
 5116SOL     OW20782   3.450   6.770   1.233
 5116SOL    HW220783   3.371   6.735   1.191
 5116SOL    HW320784   3.477   6.842   1.177
 5116SOL    MW420785   3.443   6.775   1.220
 5117SOL     OW20786   2.682   6.083   0.499
 5117SOL    HW220787   2.657   6.171   0.527
 5117SOL    HW320788   2.679   6.086   0.403
 5117SOL    MW420789   2.678   6.095   0.491
 5118SOL     OW20790   2.124   6.111   0.427
 5118SOL    HW220791   2.156   6.199   0.409
 5118SOL    HW320792   2.112   6.109   0.522
 5118SOL    MW420793   2.127   6.123   0.439
 5119SOL     OW20794   2.202   6.524   1.328
 5119SOL    HW220795   2.265   6.471   1.279
 5119SOL    HW320796   2.183   6.598   1.271
 5119SOL    MW420797   2.208   6.526   1.315
 5120SOL     OW20798   2.523   5.866   0.514
 5120SOL    HW220799   2.581   5.942   0.516
 5120SOL    HW320800   2.458   5.887   0.447
 5120SOL    MW420801   2.522   5.878   0.505
 5121SOL     OW20802   2.610   6.793   0.689
 5121SOL    HW220803   2.690   6.796   0.741
 5121SOL    HW320804   2.638   6.760   0.603
 5121SOL    MW420805   2.624   6.789   0.684
 5122SOL     OW20806   2.635   7.134   1.592
 5122SOL    HW220807   2.719   7.160   1.631
 5122SOL    HW320808   2.659   7.078   1.518
 5122SOL    MW420809   2.649   7.130   1.587
 5123SOL     OW20810   2.387   6.297   0.680
 5123SOL    HW220811   2.372   6.217   0.731
 5123SOL    HW320812   2.469   6.332   0.714
 5123SOL    MW420813   2.395   6.289   0.692
 5124SOL     OW20814   2.724   6.983   1.365
 5124SOL    HW220815   2.688   7.049   1.305
 5124SOL    HW320816   2.652   6.921   1.378
 5124SOL    MW420817   2.710   6.983   1.359
 5125SOL     OW20818   2.529   6.123   1.057
 5125SOL    HW220819   2.435   6.119   1.075
 5125SOL    HW320820   2.559   6.032   1.066
 5125SOL    MW420821   2.520   6.111   1.060
 5126SOL     OW20822   2.275   6.537   0.961
 5126SOL    HW220823   2.230   6.544   0.877
 5126SOL    HW320824   2.255   6.620   1.005
 5126SOL    MW420825   2.267   6.549   0.955
 5127SOL     OW20826   1.972   7.383   0.836
 5127SOL    HW220827   2.061   7.375   0.871
 5127SOL    HW320828   1.936   7.295   0.841
 5127SOL    MW420829   1.979   7.370   0.841
 5128SOL     OW20830   3.237   6.775   0.205
 5128SOL    HW220831   3.155   6.811   0.171
 5128SOL    HW320832   3.305   6.818   0.154
 5128SOL    MW420833   3.235   6.785   0.193
 5129SOL     OW20834   2.236   6.910   0.871
 5129SOL    HW220835   2.212   6.963   0.947
 5129SOL    HW320836   2.292   6.968   0.819
 5129SOL    MW420837   2.240   6.925   0.874
 5130SOL     OW20838   2.798   6.554   0.681
 5130SOL    HW220839   2.712   6.541   0.721
 5130SOL    HW320840   2.851   6.481   0.713
 5130SOL    MW420841   2.794   6.543   0.690
 5131SOL     OW20842   2.206   7.206   1.466
 5131SOL    HW220843   2.114   7.182   1.451
 5131SOL    HW320844   2.250   7.123   1.483
 5131SOL    MW420845   2.200   7.191   1.465
 5132SOL     OW20846   2.789   6.916   0.398
 5132SOL    HW220847   2.766   6.978   0.466
 5132SOL    HW320848   2.746   6.834   0.424
 5132SOL    MW420849   2.781   6.912   0.409
 5133SOL     OW20850   3.662   5.917   0.854
 5133SOL    HW220851   3.599   5.897   0.923
 5133SOL    HW320852   3.652   5.846   0.791
 5133SOL    MW420853   3.652   5.904   0.855
 5134SOL     OW20854   2.286   5.889   0.366
 5134SOL    HW220855   2.260   5.851   0.282
 5134SOL    HW320856   2.223   5.959   0.382
 5134SOL    MW420857   2.275   5.892   0.357
 5135SOL     OW20858   2.121   6.850   0.403
 5135SOL    HW220859   2.069   6.918   0.359
 5135SOL    HW320860   2.118   6.776   0.343
 5135SOL    MW420861   2.113   6.849   0.390
 5136SOL     OW20862   3.718   6.086   0.156
 5136SOL    HW220863   3.627   6.088   0.184
 5136SOL    HW320864   3.763   6.148   0.214
 5136SOL    MW420865   3.711   6.094   0.166
 5137SOL     OW20866   3.463   6.689   0.506
 5137SOL    HW220867   3.373   6.689   0.541
 5137SOL    HW320868   3.456   6.735   0.423
 5137SOL    MW420869   3.450   6.695   0.500
 5138SOL     OW20870   3.263   6.324   1.578
 5138SOL    HW220871   3.332   6.262   1.555
 5138SOL    HW320872   3.188   6.298   1.525
 5138SOL    MW420873   3.263   6.311   1.569
 5139SOL     OW20874   2.004   7.204   1.130
 5139SOL    HW220875   1.987   7.150   1.207
 5139SOL    HW320876   1.992   7.294   1.160
 5139SOL    MW420877   2.001   7.208   1.144
 5140SOL     OW20878   2.999   6.711   1.570
 5140SOL    HW220879   2.984   6.804   1.555
 5140SOL    HW320880   3.094   6.701   1.570
 5140SOL    MW420881   3.008   6.721   1.567
 5141SOL     OW20882   2.795   6.135   1.771
 5141SOL    HW220883   2.885   6.136   1.738
 5141SOL    HW320884   2.754   6.060   1.729
 5141SOL    MW420885   2.801   6.125   1.762
 5142SOL     OW20886   3.370   6.667   0.898
 5142SOL    HW220887   3.373   6.601   0.829
 5142SOL    HW320888   3.455   6.710   0.894
 5142SOL    MW420889   3.382   6.663   0.889
 5143SOL     OW20890   2.990   6.270   0.467
 5143SOL    HW220891   3.016   6.294   0.378
 5143SOL    HW320892   2.972   6.177   0.463
 5143SOL    MW420893   2.992   6.262   0.454
 5144SOL     OW20894   3.655   6.890   0.318
 5144SOL    HW220895   3.611   6.931   0.393
 5144SOL    HW320896   3.712   6.958   0.283
 5144SOL    MW420897   3.657   6.904   0.323
 5145SOL     OW20898   2.575   5.939   1.721
 5145SOL    HW220899   2.585   5.865   1.661
 5145SOL    HW320900   2.611   5.908   1.804
 5145SOL    MW420901   2.581   5.925   1.723
 5146SOL     OW20902   2.311   7.306   0.636
 5146SOL    HW220903   2.343   7.394   0.614
 5146SOL    HW320904   2.264   7.278   0.558
 5146SOL    MW420905   2.310   7.314   0.623
 5147SOL     OW20906   3.695   5.668   0.685
 5147SOL    HW220907   3.749   5.619   0.747
 5147SOL    HW320908   3.638   5.602   0.646
 5147SOL    MW420909   3.695   5.652   0.687
 5148SOL     OW20910   2.027   7.366   0.213
 5148SOL    HW220911   2.056   7.456   0.205
 5148SOL    HW320912   1.977   7.349   0.134
 5148SOL    MW420913   2.025   7.374   0.202
 5149SOL     OW20914   2.814   5.621   1.098
 5149SOL    HW220915   2.773   5.699   1.060
 5149SOL    HW320916   2.908   5.639   1.093
 5149SOL    MW420917   2.820   5.633   1.093
 5150SOL     OW20918   2.829   6.299   0.128
 5150SOL    HW220919   2.831   6.246   0.049
 5150SOL    HW320920   2.917   6.336   0.134
 5150SOL    MW420921   2.841   6.298   0.117
 5151SOL     OW20922   3.443   6.225   0.464
 5151SOL    HW220923   3.482   6.225   0.551
 5151SOL    HW320924   3.384   6.301   0.464
 5151SOL    MW420925   3.440   6.236   0.475
 5152SOL     OW20926   2.760   6.592   1.593
 5152SOL    HW220927   2.737   6.572   1.683
 5152SOL    HW320928   2.845   6.636   1.598
 5152SOL    MW420929   2.767   6.595   1.605
 5153SOL     OW20930   2.840   5.729   1.353
 5153SOL    HW220931   2.846   5.691   1.266
 5153SOL    HW320932   2.829   5.823   1.338
 5153SOL    MW420933   2.841   5.737   1.341
 5154SOL     OW20934   2.929   6.218   1.187
 5154SOL    HW220935   3.004   6.247   1.134
 5154SOL    HW320936   2.861   6.283   1.171
 5154SOL    MW420937   2.930   6.230   1.177
 5155SOL     OW20938   3.479   6.186   1.464
 5155SOL    HW220939   3.460   6.095   1.443
 5155SOL    HW320940   3.457   6.235   1.385
 5155SOL    MW420941   3.474   6.179   1.451
 5156SOL     OW20942   2.926   5.924   1.570
 5156SOL    HW220943   2.892   5.963   1.489
 5156SOL    HW320944   2.904   5.832   1.563
 5156SOL    MW420945   2.919   5.917   1.560
 5157SOL     OW20946   3.335   6.738   1.646
 5157SOL    HW220947   3.417   6.779   1.676
 5157SOL    HW320948   3.298   6.700   1.726
 5157SOL    MW420949   3.341   6.739   1.661
 5158SOL     OW20950   3.630   6.111   0.630
 5158SOL    HW220951   3.719   6.080   0.647
 5158SOL    HW320952   3.573   6.051   0.678
 5158SOL    MW420953   3.633   6.099   0.639
 5159SOL     OW20954   2.056   5.825   0.659
 5159SOL    HW220955   2.047   5.765   0.585
 5159SOL    HW320956   1.989   5.796   0.722
 5159SOL    MW420957   2.046   5.812   0.657
 5160SOL     OW20958   2.999   6.918   0.220
 5160SOL    HW220959   2.949   6.920   0.302
 5160SOL    HW320960   2.933   6.936   0.152
 5160SOL    MW420961   2.985   6.920   0.222
 5161SOL     OW20962   2.003   5.998   1.022
 5161SOL    HW220963   1.975   6.089   1.031
 5161SOL    HW320964   1.940   5.959   0.961
 5161SOL    MW420965   1.990   6.004   1.016
 5162SOL     OW20966   2.462   7.336   0.328
 5162SOL    HW220967   2.383   7.294   0.361
 5162SOL    HW320968   2.528   7.319   0.395
 5162SOL    MW420969   2.461   7.328   0.341
 5163SOL     OW20970   3.590   6.856   1.725
 5163SOL    HW220971   3.640   6.782   1.757
 5163SOL    HW320972   3.536   6.883   1.800
 5163SOL    MW420973   3.590   6.850   1.738
 5164SOL     OW20974   2.598   6.751   0.035
 5164SOL    HW220975   2.520   6.697   0.022
 5164SOL    HW320976   2.569   6.824   0.088
 5164SOL    MW420977   2.584   6.753   0.040
 5165SOL     OW20978   3.724   6.491   1.227
 5165SOL    HW220979   3.740   6.529   1.140
 5165SOL    HW320980   3.758   6.557   1.288
 5165SOL    MW420981   3.731   6.504   1.223
 5166SOL     OW20982   3.516   7.200   0.896
 5166SOL    HW220983   3.545   7.267   0.957
 5166SOL    HW320984   3.497   7.124   0.951
 5166SOL    MW420985   3.518   7.200   0.911
 5167SOL     OW20986   1.987   6.273   1.192
 5167SOL    HW220987   2.049   6.303   1.258
 5167SOL    HW320988   1.921   6.342   1.186
 5167SOL    MW420989   1.986   6.286   1.199
 5168SOL     OW20990   3.403   6.941   0.045
 5168SOL    HW220991   3.350   6.990  -0.019
 5168SOL    HW320992   3.434   7.007   0.106
 5168SOL    MW420993   3.401   6.955   0.043
 5169SOL     OW20994   2.628   5.830   0.100
 5169SOL    HW220995   2.576   5.750   0.088
 5169SOL    HW320996   2.715   5.807   0.068
 5169SOL    MW420997   2.631   5.816   0.094
 5170SOL     OW20998   2.082   7.382   1.644
 5170SOL    HW220999   2.056   7.450   1.582
 5170SOL    HW321000   2.130   7.319   1.592
 5170SOL    MW421001   2.084   7.382   1.630
 5171SOL     OW21002   2.134   6.701   1.151
 5171SOL    HW221003   2.187   6.776   1.176
 5171SOL    HW321004   2.053   6.739   1.117
 5171SOL    MW421005   2.130   6.716   1.151
 5172SOL     OW21006   2.674   6.605   1.139
 5172SOL    HW221007   2.702   6.514   1.151
 5172SOL    HW321008   2.603   6.599   1.075
 5172SOL    MW421009   2.667   6.593   1.134
 5173SOL     OW21010   1.989   6.470   0.557
 5173SOL    HW221011   2.080   6.485   0.584
 5173SOL    HW321012   1.992   6.391   0.503
 5173SOL    MW421013   2.001   6.462   0.555
 5174SOL     OW21014   2.225   6.178   1.811
 5174SOL    HW221015   2.172   6.258   1.818
 5174SOL    HW321016   2.295   6.190   1.876
 5174SOL    MW421017   2.227   6.191   1.819
 5175SOL     OW21018   2.611   5.728   1.518
 5175SOL    HW221019   2.588   5.636   1.520
 5175SOL    HW321020   2.697   5.730   1.475
 5175SOL    MW421021   2.618   5.718   1.514
 5176SOL     OW21022   2.295   6.252   1.557
 5176SOL    HW221023   2.375   6.302   1.543
 5176SOL    HW321024   2.286   6.246   1.652
 5176SOL    MW421025   2.304   6.258   1.567
 5177SOL     OW21026   3.272   5.777   1.828
 5177SOL    HW221027   3.328   5.704   1.854
 5177SOL    HW321028   3.242   5.815   1.910
 5177SOL    MW421029   3.276   5.772   1.841
 5178SOL     OW21030   1.997   7.082   0.596
 5178SOL    HW221031   1.969   7.121   0.678
 5178SOL    HW321032   2.017   6.991   0.618
 5178SOL    MW421033   1.995   7.074   0.609
 5179SOL     OW21034   2.830   7.125   0.631
 5179SOL    HW221035   2.913   7.079   0.615
 5179SOL    HW321036   2.820   7.124   0.727
 5179SOL    MW421037   2.840   7.118   0.641
 5180SOL     OW21038   3.662   6.270   0.945
 5180SOL    HW221039   3.751   6.300   0.927
 5180SOL    HW321040   3.642   6.210   0.874
 5180SOL    MW421041   3.671   6.267   0.934
 5181SOL     OW21042   3.513   6.449   1.825
 5181SOL    HW221043   3.568   6.373   1.806
 5181SOL    HW321044   3.515   6.457   1.920
 5181SOL    MW421045   3.521   6.440   1.833
 5182SOL     OW21046   2.563   7.182   0.036
 5182SOL    HW221047   2.503   7.251   0.006
 5182SOL    HW321048   2.508   7.124   0.089
 5182SOL    MW421049   2.547   7.184   0.038
 5183SOL     OW21050   3.001   5.827   0.259
 5183SOL    HW221051   2.934   5.803   0.196
 5183SOL    HW321052   3.066   5.876   0.208
 5183SOL    MW421053   3.001   5.829   0.244
 5184SOL     OW21054   2.808   6.011   1.344
 5184SOL    HW221055   2.727   6.052   1.372
 5184SOL    HW321056   2.855   6.079   1.296
 5184SOL    MW421057   2.803   6.026   1.342
 5185SOL     OW21058   3.068   6.349   0.967
 5185SOL    HW221059   3.081   6.443   0.977
 5185SOL    HW321060   3.029   6.339   0.881
 5185SOL    MW421061   3.064   6.360   0.957
 5186SOL     OW21062   2.520   6.544   0.771
 5186SOL    HW221063   2.431   6.535   0.804
 5186SOL    HW321064   2.524   6.634   0.739
 5186SOL    MW421065   2.509   6.555   0.771
 5187SOL     OW21066   3.319   6.127   0.766
 5187SOL    HW221067   3.264   6.048   0.765
 5187SOL    HW321068   3.301   6.168   0.850
 5187SOL    MW421069   3.309   6.122   0.775
 5188SOL     OW21070   2.290   5.814   1.583
 5188SOL    HW221071   2.211   5.832   1.635
 5188SOL    HW321072   2.285   5.876   1.510
 5188SOL    MW421073   2.280   5.824   1.580
 5189SOL     OW21074   2.938   6.331   0.723
 5189SOL    HW221075   2.875   6.263   0.747
 5189SOL    HW321076   2.958   6.312   0.631
 5189SOL    MW421077   2.932   6.318   0.715
 5190SOL     OW21078   2.194   7.226   0.425
 5190SOL    HW221079   2.155   7.273   0.351
 5190SOL    HW321080   2.128   7.161   0.450
 5190SOL    MW421081   2.181   7.224   0.419
 5191SOL     OW21082   2.686   6.635   0.449
 5191SOL    HW221083   2.688   6.609   0.356
 5191SOL    HW321084   2.744   6.572   0.492
 5191SOL    MW421085   2.694   6.624   0.443
 5192SOL     OW21086   3.196   5.879   0.782
 5192SOL    HW221087   3.224   5.811   0.843
 5192SOL    HW321088   3.110   5.850   0.752
 5192SOL    MW421089   3.189   5.866   0.786
 5193SOL     OW21090   2.001   6.813   0.716
 5193SOL    HW221091   2.065   6.845   0.779
 5193SOL    HW321092   2.050   6.749   0.664
 5193SOL    MW421093   2.016   6.809   0.717
 5194SOL     OW21094   2.501   6.889   1.698
 5194SOL    HW221095   2.549   6.972   1.685
 5194SOL    HW321096   2.558   6.837   1.754
 5194SOL    MW421097   2.515   6.893   1.704
 5195SOL     OW21098   2.077   7.131   1.838
 5195SOL    HW221099   2.133   7.055   1.853
 5195SOL    HW321100   2.026   7.109   1.760
 5195SOL    MW421101   2.077   7.118   1.829
 5196SOL     OW21102   3.176   5.983   0.117
 5196SOL    HW221103   3.149   6.049   0.053
 5196SOL    HW321104   3.246   6.026   0.167
 5196SOL    MW421105   3.181   5.996   0.114
 5197SOL     OW21106   2.844   5.688   0.054
 5197SOL    HW221107   2.900   5.680  -0.024
 5197SOL    HW321108   2.821   5.598   0.076
 5197SOL    MW421109   2.849   5.675   0.047
 5198SOL     OW21110   3.349   6.539   0.259
 5198SOL    HW221111   3.316   6.628   0.249
 5198SOL    HW321112   3.314   6.510   0.344
 5198SOL    MW421113   3.339   6.548   0.270
 5199SOL     OW21114   2.962   6.968   1.447
 5199SOL    HW221115   2.873   6.974   1.415
 5199SOL    HW321116   3.006   7.047   1.415
 5199SOL    MW421117   2.957   6.978   1.439
 5200SOL     OW21118   2.255   5.636   1.789
 5200SOL    HW221119   2.183   5.601   1.737
 5200SOL    HW321120   2.313   5.677   1.724
 5200SOL    MW421121   2.253   5.637   1.774
 5201SOL     OW21122   2.279   7.126   1.088
 5201SOL    HW221123   2.324   7.188   1.145
 5201SOL    HW321124   2.186   7.145   1.101
 5201SOL    MW421125   2.272   7.136   1.095
 5202SOL     OW21126   3.719   6.655   1.442
 5202SOL    HW221127   3.634   6.668   1.401
 5202SOL    HW321128   3.699   6.619   1.529
 5202SOL    MW421129   3.706   6.651   1.447
 5203SOL     OW21130   2.343   6.577   0.051
 5203SOL    HW221131   2.266   6.590   0.107
 5203SOL    HW321132   2.307   6.541  -0.030
 5203SOL    MW421133   2.329   6.573   0.048
 5204SOL     OW21134   2.996   6.550   0.294
 5204SOL    HW221135   2.906   6.571   0.269
 5204SOL    HW321136   3.023   6.623   0.350
 5204SOL    MW421137   2.988   6.562   0.297
 5205SOL     OW21138   2.496   6.899   0.986
 5205SOL    HW221139   2.489   6.878   1.080
 5205SOL    HW321140   2.414   6.867   0.949
 5205SOL    MW421141   2.484   6.893   0.993
 5206SOL     OW21142   3.360   5.909   1.388
 5206SOL    HW221143   3.307   5.911   1.468
 5206SOL    HW321144   3.345   5.822   1.351
 5206SOL    MW421145   3.352   5.899   1.393
 5207SOL     OW21146   3.696   5.833   1.261
 5207SOL    HW221147   3.677   5.900   1.196
 5207SOL    HW321148   3.753   5.771   1.216
 5207SOL    MW421149   3.700   5.834   1.247
 5208SOL     OW21150   1.942   6.991   1.649
 5208SOL    HW221151   1.986   6.924   1.595
 5208SOL    HW321152   1.857   6.953   1.669
 5208SOL    MW421153   1.937   6.977   1.645
 5209SOL     OW21154   2.625   5.666   0.701
 5209SOL    HW221155   2.554   5.727   0.683
 5209SOL    HW321156   2.676   5.663   0.620
 5209SOL    MW421157   2.621   5.672   0.688
 5210SOL     OW21158   2.383   6.906   0.450
 5210SOL    HW221159   2.376   6.938   0.540
 5210SOL    HW321160   2.293   6.890   0.422
 5210SOL    MW421161   2.371   6.908   0.457
 5211SOL     OW21162   2.585   6.323   1.831
 5211SOL    HW221163   2.655   6.265   1.803
 5211SOL    HW321164   2.528   6.268   1.886
 5211SOL    MW421165   2.587   6.310   1.835
 5212SOL     OW21166   3.372   6.535   1.464
 5212SOL    HW221167   3.377   6.588   1.544
 5212SOL    HW321168   3.334   6.452   1.492
 5212SOL    MW421169   3.368   6.530   1.479
 5213SOL     OW21170   3.012   5.670   1.710
 5213SOL    HW221171   3.007   5.577   1.691
 5213SOL    HW321172   3.095   5.681   1.756
 5213SOL    MW421173   3.020   5.659   1.714
 5214SOL     OW21174   2.386   6.190   0.164
 5214SOL    HW221175   2.352   6.246   0.234
 5214SOL    HW321176   2.457   6.140   0.204
 5214SOL    MW421177   2.392   6.191   0.178
 5215SOL     OW21178   3.482   6.941   0.986
 5215SOL    HW221179   3.517   6.923   0.899
 5215SOL    HW321180   3.387   6.942   0.973
 5215SOL    MW421181   3.474   6.938   0.973
 5216SOL     OW21182   2.911   6.589   1.355
 5216SOL    HW221183   2.954   6.624   1.433
 5216SOL    HW321184   2.894   6.666   1.301
 5216SOL    MW421185   2.914   6.604   1.358
 5217SOL     OW21186   3.442   6.076   0.228
 5217SOL    HW221187   3.434   6.147   0.165
 5217SOL    HW321188   3.460   6.120   0.311
 5217SOL    MW421189   3.443   6.090   0.230
 5218SOL     OW21190   2.302   5.731   0.657
 5218SOL    HW221191   2.352   5.774   0.588
 5218SOL    HW321192   2.217   5.775   0.657
 5218SOL    MW421193   2.299   5.744   0.648
 5219SOL     OW21194   2.061   6.793   1.517
 5219SOL    HW221195   2.089   6.746   1.595
 5219SOL    HW321196   1.982   6.748   1.488
 5219SOL    MW421197   2.054   6.782   1.523
 5220SOL     OW21198   2.569   6.120   1.484
 5220SOL    HW221199   2.541   6.208   1.508
 5220SOL    HW321200   2.538   6.064   1.555
 5220SOL    MW421201   2.561   6.123   1.496
 5221SOL     OW21202   3.111   6.338   0.203
 5221SOL    HW221203   3.158   6.356   0.122
 5221SOL    HW321204   3.077   6.422   0.231
 5221SOL    MW421205   3.113   6.352   0.196
 5222SOL     OW21206   2.224   6.516   0.697
 5222SOL    HW221207   2.282   6.572   0.645
 5222SOL    HW321208   2.268   6.431   0.699
 5222SOL    MW421209   2.237   6.513   0.690
 5223SOL     OW21210   3.364   5.868   0.534
 5223SOL    HW221211   3.286   5.818   0.559
 5223SOL    HW321212   3.335   5.959   0.534
 5223SOL    MW421213   3.350   5.872   0.537
 5224SOL     OW21214   2.950   5.830   0.693
 5224SOL    HW221215   2.970   5.905   0.637
 5224SOL    HW321216   2.930   5.869   0.778
 5224SOL    MW421217   2.951   5.846   0.697
 5225SOL     OW21218   2.846   7.080   0.025
 5225SOL    HW221219   2.873   7.158  -0.023
 5225SOL    HW321220   2.753   7.095   0.044
 5225SOL    MW421221   2.837   7.093   0.021
 5226SOL     OW21222   3.710   6.603   1.712
 5226SOL    HW221223   3.623   6.583   1.748
 5226SOL    HW321224   3.764   6.529   1.737
 5226SOL    MW421225   3.705   6.592   1.720
 5227SOL     OW21226   1.931   7.116   0.869
 5227SOL    HW221227   1.963   7.120   0.960
 5227SOL    HW321228   1.836   7.124   0.877
 5227SOL    MW421229   1.923   7.119   0.882
 5228SOL     OW21230   1.886   6.242   0.416
 5228SOL    HW221231   1.826   6.214   0.486
 5228SOL    HW321232   1.960   6.182   0.422
 5228SOL    MW421233   1.888   6.231   0.425
 5229SOL     OW21234   3.054   6.973   0.576
 5229SOL    HW221235   3.077   6.924   0.654
 5229SOL    HW321236   3.135   7.015   0.548
 5229SOL    MW421237   3.067   6.973   0.583
 5230SOL     OW21238   2.312   5.981   1.305
 5230SOL    HW221239   2.345   6.062   1.345
 5230SOL    HW321240   2.285   6.007   1.217
 5230SOL    MW421241   2.311   5.995   1.299
 5231SOL     OW21242   2.266   5.948   1.041
 5231SOL    HW221243   2.296   5.862   1.012
 5231SOL    HW321244   2.171   5.941   1.044
 5231SOL    MW421245   2.258   5.937   1.039
 5232SOL     OW21246   3.095   6.157   1.732
 5232SOL    HW221247   3.147   6.092   1.685
 5232SOL    HW321248   3.053   6.208   1.662
 5232SOL    MW421249   3.096   6.154   1.715
 5233SOL     OW21250   3.194   5.952   1.593
 5233SOL    HW221251   3.101   5.936   1.580
 5233SOL    HW321252   3.220   5.890   1.661
 5233SOL    MW421253   3.184   5.942   1.600
 5234SOL     OW21254   2.409   5.726   0.932
 5234SOL    HW221255   2.419   5.635   0.958
 5234SOL    HW321256   2.365   5.722   0.847
 5234SOL    MW421257   2.405   5.714   0.924
 5235SOL     OW21258   2.503   7.341   1.478
 5235SOL    HW221259   2.420   7.326   1.523
 5235SOL    HW321260   2.562   7.274   1.513
 5235SOL    MW421261   2.501   7.331   1.488
 5236SOL     OW21262   3.560   6.048   1.103
 5236SOL    HW221263   3.493   6.081   1.163
 5236SOL    HW321264   3.603   6.126   1.069
 5236SOL    MW421265   3.558   6.063   1.107
 5237SOL     OW21266   3.738   6.768   1.073
 5237SOL    HW221267   3.731   6.708   0.998
 5237SOL    HW321268   3.664   6.828   1.062
 5237SOL    MW421269   3.728   6.768   1.062
 5238SOL     OW21270   3.120   6.630   0.991
 5238SOL    HW221271   3.134   6.602   1.082
 5238SOL    HW321272   3.206   6.661   0.963
 5238SOL    MW421273   3.133   6.631   1.000
 5239SOL     OW21274   3.203   6.125   1.270
 5239SOL    HW221275   3.224   6.126   1.177
 5239SOL    HW321276   3.248   6.047   1.303
 5239SOL    MW421277   3.210   6.115   1.262
 5240SOL     OW21278   3.696   6.256   1.812
 5240SOL    HW221279   3.733   6.201   1.881
 5240SOL    HW321280   3.721   6.213   1.730
 5240SOL    MW421281   3.703   6.244   1.811
 5241SOL     OW21282   3.243   6.554   1.863
 5241SOL    HW221283   3.309   6.502   1.817
 5241SOL    HW321284   3.263   6.541   1.956
 5241SOL    MW421285   3.254   6.545   1.870
 5242SOL     OW21286   3.194   5.640   0.212
 5242SOL    HW221287   3.268   5.684   0.255
 5242SOL    HW321288   3.118   5.694   0.234
 5242SOL    MW421289   3.194   5.652   0.220
 5243SOL     OW21290   3.254   6.415   0.490
 5243SOL    HW221291   3.169   6.385   0.460
 5243SOL    HW321292   3.246   6.422   0.585
 5243SOL    MW421293   3.242   6.413   0.499
 5244SOL     OW21294   2.330   6.878   1.221
 5244SOL    HW221295   2.342   6.905   1.312
 5244SOL    HW321296   2.311   6.959   1.174
 5244SOL    MW421297   2.329   6.893   1.226
 5245SOL     OW21298   2.614   5.858   1.044
 5245SOL    HW221299   2.587   5.860   1.135
 5245SOL    HW321300   2.544   5.810   0.999
 5245SOL    MW421301   2.602   5.854   1.051
 5246SOL     OW21302   2.468   7.350   1.206
 5246SOL    HW221303   2.520   7.427   1.183
 5246SOL    HW321304   2.477   7.342   1.301
 5246SOL    MW421305   2.477   7.357   1.217
 5247SOL     OW21306   3.370   6.935   1.438
 5247SOL    HW221307   3.355   6.864   1.501
 5247SOL    HW321308   3.416   6.893   1.366
 5247SOL    MW421309   3.376   6.919   1.438
 5248SOL     OW21310   2.624   6.709   1.367
 5248SOL    HW221311   2.683   6.655   1.420
 5248SOL    HW321312   2.639   6.681   1.277
 5248SOL    MW421313   2.634   6.698   1.363
 5249SOL     OW21314   2.627   6.081   0.216
 5249SOL    HW221315   2.700   6.130   0.179
 5249SOL    HW321316   2.643   5.990   0.190
 5249SOL    MW421317   2.639   6.076   0.209
 5250SOL     OW21318   3.095   5.677   1.130
 5250SOL    HW221319   3.150   5.686   1.052
 5250SOL    HW321320   3.150   5.711   1.201
 5250SOL    MW421321   3.109   5.682   1.129
 5251SOL     OW21322   2.102   6.590   0.314
 5251SOL    HW221323   2.039   6.606   0.243
 5251SOL    HW321324   2.049   6.553   0.385
 5251SOL    MW421325   2.087   6.587   0.314
 5252SOL     OW21326   2.458   6.944   0.173
 5252SOL    HW221327   2.473   6.920   0.265
 5252SOL    HW321328   2.366   6.922   0.157
 5252SOL    MW421329   2.448   6.937   0.183
 5253SOL     OW21330   2.256   7.333   0.894
 5253SOL    HW221331   2.260   7.244   0.929
 5253SOL    HW321332   2.282   7.324   0.803
 5253SOL    MW421333   2.259   7.321   0.886
 5254SOL     OW21334   2.873   6.811   1.137
 5254SOL    HW221335   2.805   6.745   1.153
 5254SOL    HW321336   2.891   6.805   1.044
 5254SOL    MW421337   2.866   6.802   1.128
 5255SOL     OW21338   1.962   7.086   1.388
 5255SOL    HW221339   1.952   7.044   1.474
 5255SOL    HW321340   1.883   7.139   1.378
 5255SOL    MW421341   1.951   7.087   1.399
 5256SOL     OW21342   2.866   5.950   0.958
 5256SOL    HW221343   2.796   5.902   1.003
 5256SOL    HW321344   2.898   6.013   1.022
 5256SOL    MW421345   2.861   5.952   0.972
 5257SOL     OW21346   2.517   6.386   1.578
 5257SOL    HW221347   2.510   6.481   1.566
 5257SOL    HW321348   2.526   6.375   1.673
 5257SOL    MW421349   2.518   6.398   1.588
 5258SOL     OW21350   2.238   6.901   1.836
 5258SOL    HW221351   2.310   6.903   1.773
 5258SOL    HW321352   2.208   6.810   1.835
 5258SOL    MW421353   2.243   6.890   1.828
 5259SOL     OW21354   3.322   5.664   1.303
 5259SOL    HW221355   3.393   5.610   1.267
 5259SOL    HW321356   3.321   5.643   1.396
 5259SOL    MW421357   3.331   5.655   1.311
 5260SOL     OW21358   2.333   6.056   0.771
 5260SOL    HW221359   2.404   6.004   0.734
 5260SOL    HW321360   2.319   6.021   0.858
 5260SOL    MW421361   2.341   6.045   0.778
 5261SOL     OW21362   1.888   7.391   1.843
 5261SOL    HW221363   1.938   7.369   1.765
 5261SOL    HW321364   1.896   7.486   1.851
 5261SOL    MW421365   1.896   7.400   1.834
 5262SOL     OW21366   2.649   7.149   0.847
 5262SOL    HW221367   2.577   7.086   0.860
 5262SOL    HW321368   2.610   7.234   0.865
 5262SOL    MW421369   2.633   7.152   0.850
 5263SOL     OW21370   2.969   5.997   0.495
 5263SOL    HW221371   2.991   5.934   0.427
 5263SOL    HW321372   2.874   5.989   0.506
 5263SOL    MW421373   2.959   5.988   0.487
 5264SOL     OW21374   2.054   5.687   0.427
 5264SOL    HW221375   2.125   5.708   0.366
 5264SOL    HW321376   2.008   5.615   0.385
 5264SOL    MW421377   2.058   5.681   0.413
 5265SOL     OW21378   1.885   6.154   1.570
 5265SOL    HW221379   1.949   6.220   1.545
 5265SOL    HW321380   1.804   6.181   1.527
 5265SOL    MW421381   1.883   6.166   1.562
 5266SOL     OW21382   3.623   7.061   0.527
 5266SOL    HW221383   3.593   6.994   0.588
 5266SOL    HW321384   3.717   7.067   0.541
 5266SOL    MW421385   3.631   7.053   0.537
 5267SOL     OW21386   3.179   6.738   0.457
 5267SOL    HW221387   3.151   6.824   0.490
 5267SOL    HW321388   3.207   6.754   0.367
 5267SOL    MW421389   3.179   6.752   0.449
 5268SOL     OW21390   2.841   5.658   0.510
 5268SOL    HW221391   2.878   5.717   0.575
 5268SOL    HW321392   2.818   5.714   0.436
 5268SOL    MW421393   2.842   5.673   0.509
 5269SOL     OW21394   3.694   6.540   0.932
 5269SOL    HW221395   3.685   6.572   0.843
 5269SOL    HW321396   3.647   6.456   0.932
 5269SOL    MW421397   3.687   6.533   0.922
 5270SOL     OW21398   2.070   6.380   1.511
 5270SOL    HW221399   2.091   6.449   1.449
 5270SOL    HW321400   2.150   6.327   1.516
 5270SOL    MW421401   2.083   6.381   1.505
 5271SOL     OW21402   3.606   6.471   0.633
 5271SOL    HW221403   3.700   6.460   0.621
 5271SOL    HW321404   3.582   6.543   0.574
 5271SOL    MW421405   3.616   6.479   0.624
 5272SOL     OW21406   2.055   6.395   1.778
 5272SOL    HW221407   1.981   6.339   1.804
 5272SOL    HW321408   2.050   6.398   1.683
 5272SOL    MW421409   2.044   6.388   1.768
 5273SOL     OW21410   2.221   5.682   1.228
 5273SOL    HW221411   2.264   5.766   1.248
 5273SOL    HW321412   2.294   5.620   1.221
 5273SOL    MW421413   2.236   5.685   1.229
 5274SOL     OW21414   2.262   6.349   0.406
 5274SOL    HW221415   2.262   6.444   0.391
 5274SOL    HW321416   2.339   6.333   0.460
 5274SOL    MW421417   2.272   6.360   0.411
 5275SOL     OW21418   3.038   6.208   1.470
 5275SOL    HW221419   3.074   6.181   1.386
 5275SOL    HW321420   2.951   6.242   1.449
 5275SOL    MW421421   3.032   6.209   1.457
 5276SOL     OW21422   2.021   6.080   0.695
 5276SOL    HW221423   2.083   6.087   0.768
 5276SOL    HW321424   2.021   5.987   0.672
 5276SOL    MW421425   2.029   6.069   0.702
 5277SOL     OW21426   2.703   6.341   1.179
 5277SOL    HW221427   2.661   6.259   1.155
 5277SOL    HW321428   2.704   6.340   1.275
 5277SOL    MW421429   2.696   6.330   1.188
 5278SOL     OW21430   2.507   5.811   1.284
 5278SOL    HW221431   2.438   5.874   1.305
 5278SOL    HW321432   2.534   5.775   1.369
 5278SOL    MW421433   2.501   5.814   1.297
 5279SOL     OW21434   1.890   6.652   0.153
 5279SOL    HW221435   1.859   6.717   0.216
 5279SOL    HW321436   1.839   6.574   0.172
 5279SOL    MW421437   1.880   6.649   0.163
 5280SOL     OW21438   3.302   5.664   0.901
 5280SOL    HW221439   3.390   5.673   0.938
 5280SOL    HW321440   3.312   5.605   0.827
 5280SOL    MW421441   3.316   5.658   0.895
 5281SOL     OW21442   3.334   6.403   0.745
 5281SOL    HW221443   3.414   6.418   0.694
 5281SOL    HW321444   3.327   6.308   0.751
 5281SOL    MW421445   3.343   6.392   0.740
 5282SOL     OW21446   2.784   6.329   1.442
 5282SOL    HW221447   2.853   6.396   1.439
 5282SOL    HW321448   2.717   6.367   1.498
 5282SOL    MW421449   2.785   6.342   1.449
 5283SOL     OW21450   2.202   6.629   1.690
 5283SOL    HW221451   2.156   6.545   1.692
 5283SOL    HW321452   2.259   6.623   1.614
 5283SOL    MW421453   2.204   6.617   1.682
 5284SOL     OW21454   3.319   6.272   0.011
 5284SOL    HW221455   3.247   6.248  -0.047
 5284SOL    HW321456   3.385   6.309  -0.047
 5284SOL    MW421457   3.318   6.274  -0.004
 5285SOL     OW21458   2.453   7.004   0.691
 5285SOL    HW221459   2.518   6.937   0.712
 5285SOL    HW321460   2.505   7.081   0.668
 5285SOL    MW421461   2.468   7.006   0.690
 5286SOL     OW21462   2.714   6.169   0.821
 5286SOL    HW221463   2.654   6.187   0.893
 5286SOL    HW321464   2.748   6.081   0.840
 5286SOL    MW421465   2.710   6.159   0.834
 5287SOL     OW21466   3.655   5.668   1.490
 5287SOL    HW221467   3.576   5.714   1.518
 5287SOL    HW321468   3.690   5.722   1.419
 5287SOL    MW421469   3.649   5.681   1.484
 5288SOL     OW21470   2.939   6.752   0.840
 5288SOL    HW221471   3.031   6.733   0.858
 5288SOL    HW321472   2.912   6.682   0.780
 5288SOL    MW421473   2.947   6.740   0.834
 5289SOL     OW21474   2.732   6.572   0.195
 5289SOL    HW221475   2.718   6.484   0.160
 5289SOL    HW321476   2.683   6.629   0.136
 5289SOL    MW421477   2.724   6.567   0.183
 5290SOL     OW21478   3.213   6.990   0.936
 5290SOL    HW221479   3.186   7.074   0.901
 5290SOL    HW321480   3.173   6.985   1.023
 5290SOL    MW421481   3.206   6.999   0.942
 5291SOL     OW21482   3.132   6.938   1.204
 5291SOL    HW221483   3.143   6.905   1.293
 5291SOL    HW321484   3.051   6.897   1.173
 5291SOL    MW421485   3.122   6.930   1.210
 5292SOL     OW21486   2.145   6.296   0.974
 5292SOL    HW221487   2.095   6.295   1.055
 5292SOL    HW321488   2.165   6.388   0.958
 5292SOL    MW421489   2.141   6.308   0.982
 5293SOL     OW21490   3.212   7.060   1.736
 5293SOL    HW221491   3.212   7.154   1.752
 5293SOL    HW321492   3.257   7.050   1.652
 5293SOL    MW421493   3.218   7.070   1.727
 5294SOL     OW21494   3.451   5.778   0.297
 5294SOL    HW221495   3.444   5.782   0.392
 5294SOL    HW321496   3.463   5.869   0.270
 5294SOL    MW421497   3.452   5.791   0.305
 5295SOL     OW21498   2.740   6.341   0.411
 5295SOL    HW221499   2.720   6.327   0.318
 5295SOL    HW321500   2.833   6.320   0.418
 5295SOL    MW421501   2.750   6.336   0.400
 5296SOL     OW21502   2.067   5.964   1.715
 5296SOL    HW221503   2.024   6.023   1.652
 5296SOL    HW321504   2.135   6.019   1.755
 5296SOL    MW421505   2.071   5.979   1.712
 5297SOL     OW21506   3.179   6.584   1.260
 5297SOL    HW221507   3.242   6.581   1.333
 5297SOL    HW321508   3.095   6.602   1.302
 5297SOL    MW421509   3.175   6.586   1.275
 5298SOL     OW21510   3.518   5.761   1.039
 5298SOL    HW221511   3.563   5.679   1.058
 5298SOL    HW321512   3.538   5.817   1.115
 5298SOL    MW421513   3.528   5.757   1.051
 5299SOL     OW21514   1.966   5.604   1.138
 5299SOL    HW221515   1.957   5.605   1.043
 5299SOL    HW321516   2.060   5.616   1.153
 5299SOL    MW421517   1.978   5.607   1.129
 5300SOL     OW21518   3.603   6.797   0.758
 5300SOL    HW221519   3.582   6.743   0.681
 5300SOL    HW321520   3.699   6.795   0.762
 5300SOL    MW421521   3.612   6.790   0.747
 5301SOL     OW21522   2.295   6.942   1.501
 5301SOL    HW221523   2.216   6.892   1.524
 5301SOL    HW321524   2.365   6.901   1.551
 5301SOL    MW421525   2.293   6.930   1.511
 5302SOL     OW21526   2.179   5.731   0.184
 5302SOL    HW221527   2.108   5.786   0.152
 5302SOL    HW321528   2.221   5.697   0.105
 5302SOL    MW421529   2.175   5.733   0.170
 5303SOL     OW21530   3.303   6.228   1.020
 5303SOL    HW221531   3.226   6.274   0.986
 5303SOL    HW321532   3.360   6.297   1.054
 5303SOL    MW421533   3.300   6.243   1.020
 5304SOL     OW21534   1.935   5.830   0.033
 5304SOL    HW221535   1.902   5.909   0.077
 5304SOL    HW321536   1.990   5.863  -0.038
 5304SOL    MW421537   1.938   5.844   0.030
 5305SOL     OW21538   1.969   7.087   0.222
 5305SOL    HW221539   1.986   7.171   0.264
 5305SOL    HW321540   2.004   7.096   0.134
 5305SOL    MW421541   1.974   7.100   0.216
 5306SOL     OW21542   3.241   7.176   0.439
 5306SOL    HW221543   3.304   7.166   0.368
 5306SOL    HW321544   3.158   7.196   0.394
 5306SOL    MW421545   3.238   7.177   0.424
 5307SOL     OW21546   3.604   6.444   2.125
 5307SOL    HW221547   3.645   6.386   2.190
 5307SOL    HW321548   3.511   6.436   2.142
 5307SOL    MW421549   3.598   6.436   2.135
 5308SOL     OW21550   3.470   6.376   3.120
 5308SOL    HW221551   3.425   6.443   3.171
 5308SOL    HW321552   3.558   6.412   3.106
 5308SOL    MW421553   3.476   6.389   3.124
 5309SOL     OW21554   2.398   6.627   2.354
 5309SOL    HW221555   2.488   6.602   2.338
 5309SOL    HW321556   2.394   6.720   2.331
 5309SOL    MW421557   2.410   6.636   2.349
 5310SOL     OW21558   3.450   6.770   3.101
 5310SOL    HW221559   3.371   6.735   3.059
 5310SOL    HW321560   3.477   6.842   3.045
 5310SOL    MW421561   3.443   6.775   3.088
 5311SOL     OW21562   2.682   6.083   2.367
 5311SOL    HW221563   2.657   6.171   2.395
 5311SOL    HW321564   2.679   6.086   2.271
 5311SOL    MW421565   2.678   6.095   2.359
 5312SOL     OW21566   2.124   6.111   2.295
 5312SOL    HW221567   2.156   6.199   2.277
 5312SOL    HW321568   2.112   6.109   2.390
 5312SOL    MW421569   2.127   6.123   2.307
 5313SOL     OW21570   2.202   6.524   3.196
 5313SOL    HW221571   2.265   6.471   3.147
 5313SOL    HW321572   2.183   6.598   3.139
 5313SOL    MW421573   2.208   6.526   3.183
 5314SOL     OW21574   2.523   5.866   2.382
 5314SOL    HW221575   2.581   5.942   2.384
 5314SOL    HW321576   2.458   5.887   2.315
 5314SOL    MW421577   2.522   5.878   2.373
 5315SOL     OW21578   2.610   6.793   2.557
 5315SOL    HW221579   2.690   6.796   2.609
 5315SOL    HW321580   2.638   6.760   2.471
 5315SOL    MW421581   2.624   6.789   2.552
 5316SOL     OW21582   2.635   7.134   3.460
 5316SOL    HW221583   2.719   7.160   3.499
 5316SOL    HW321584   2.659   7.078   3.386
 5316SOL    MW421585   2.649   7.130   3.455
 5317SOL     OW21586   2.387   6.297   2.548
 5317SOL    HW221587   2.372   6.217   2.599
 5317SOL    HW321588   2.469   6.332   2.582
 5317SOL    MW421589   2.395   6.289   2.560
 5318SOL     OW21590   2.724   6.983   3.233
 5318SOL    HW221591   2.688   7.049   3.173
 5318SOL    HW321592   2.652   6.921   3.246
 5318SOL    MW421593   2.710   6.983   3.227
 5319SOL     OW21594   2.529   6.123   2.925
 5319SOL    HW221595   2.435   6.119   2.943
 5319SOL    HW321596   2.559   6.032   2.934
 5319SOL    MW421597   2.520   6.111   2.928
 5320SOL     OW21598   2.275   6.537   2.829
 5320SOL    HW221599   2.230   6.544   2.745
 5320SOL    HW321600   2.255   6.620   2.873
 5320SOL    MW421601   2.267   6.549   2.823
 5321SOL     OW21602   1.972   7.383   2.704
 5321SOL    HW221603   2.061   7.375   2.739
 5321SOL    HW321604   1.936   7.295   2.709
 5321SOL    MW421605   1.979   7.370   2.709
 5322SOL     OW21606   3.237   6.775   2.073
 5322SOL    HW221607   3.155   6.811   2.039
 5322SOL    HW321608   3.305   6.818   2.022
 5322SOL    MW421609   3.235   6.785   2.061
 5323SOL     OW21610   2.236   6.910   2.739
 5323SOL    HW221611   2.212   6.963   2.815
 5323SOL    HW321612   2.292   6.968   2.687
 5323SOL    MW421613   2.240   6.925   2.742
 5324SOL     OW21614   2.798   6.554   2.549
 5324SOL    HW221615   2.712   6.541   2.589
 5324SOL    HW321616   2.851   6.481   2.581
 5324SOL    MW421617   2.794   6.543   2.558
 5325SOL     OW21618   2.206   7.206   3.334
 5325SOL    HW221619   2.114   7.182   3.319
 5325SOL    HW321620   2.250   7.123   3.351
 5325SOL    MW421621   2.200   7.191   3.333
 5326SOL     OW21622   2.789   6.916   2.266
 5326SOL    HW221623   2.766   6.978   2.334
 5326SOL    HW321624   2.746   6.834   2.292
 5326SOL    MW421625   2.781   6.912   2.277
 5327SOL     OW21626   3.662   5.917   2.722
 5327SOL    HW221627   3.599   5.897   2.791
 5327SOL    HW321628   3.652   5.846   2.659
 5327SOL    MW421629   3.652   5.904   2.723
 5328SOL     OW21630   2.286   5.889   2.234
 5328SOL    HW221631   2.260   5.851   2.150
 5328SOL    HW321632   2.223   5.959   2.250
 5328SOL    MW421633   2.275   5.892   2.225
 5329SOL     OW21634   2.121   6.850   2.271
 5329SOL    HW221635   2.069   6.918   2.227
 5329SOL    HW321636   2.118   6.776   2.211
 5329SOL    MW421637   2.113   6.849   2.258
 5330SOL     OW21638   3.718   6.086   2.024
 5330SOL    HW221639   3.627   6.088   2.052
 5330SOL    HW321640   3.763   6.148   2.082
 5330SOL    MW421641   3.711   6.094   2.034
 5331SOL     OW21642   3.463   6.689   2.374
 5331SOL    HW221643   3.373   6.689   2.409
 5331SOL    HW321644   3.456   6.735   2.291
 5331SOL    MW421645   3.450   6.695   2.368
 5332SOL     OW21646   3.263   6.324   3.446
 5332SOL    HW221647   3.332   6.262   3.423
 5332SOL    HW321648   3.188   6.298   3.393
 5332SOL    MW421649   3.263   6.311   3.437
 5333SOL     OW21650   2.004   7.204   2.998
 5333SOL    HW221651   1.987   7.150   3.075
 5333SOL    HW321652   1.992   7.294   3.028
 5333SOL    MW421653   2.001   7.208   3.012
 5334SOL     OW21654   2.999   6.711   3.438
 5334SOL    HW221655   2.984   6.804   3.423
 5334SOL    HW321656   3.094   6.701   3.438
 5334SOL    MW421657   3.008   6.721   3.435
 5335SOL     OW21658   2.795   6.135   3.639
 5335SOL    HW221659   2.885   6.136   3.606
 5335SOL    HW321660   2.754   6.060   3.597
 5335SOL    MW421661   2.801   6.125   3.630
 5336SOL     OW21662   3.370   6.667   2.766
 5336SOL    HW221663   3.373   6.601   2.697
 5336SOL    HW321664   3.455   6.710   2.762
 5336SOL    MW421665   3.382   6.663   2.757
 5337SOL     OW21666   2.990   6.270   2.335
 5337SOL    HW221667   3.016   6.294   2.246
 5337SOL    HW321668   2.972   6.177   2.331
 5337SOL    MW421669   2.992   6.262   2.322
 5338SOL     OW21670   3.655   6.890   2.186
 5338SOL    HW221671   3.611   6.931   2.261
 5338SOL    HW321672   3.712   6.958   2.151
 5338SOL    MW421673   3.657   6.904   2.191
 5339SOL     OW21674   2.575   5.939   3.589
 5339SOL    HW221675   2.585   5.865   3.529
 5339SOL    HW321676   2.611   5.908   3.672
 5339SOL    MW421677   2.581   5.925   3.591
 5340SOL     OW21678   2.311   7.306   2.504
 5340SOL    HW221679   2.343   7.394   2.482
 5340SOL    HW321680   2.264   7.278   2.426
 5340SOL    MW421681   2.310   7.314   2.491
 5341SOL     OW21682   3.695   5.668   2.553
 5341SOL    HW221683   3.749   5.619   2.615
 5341SOL    HW321684   3.638   5.602   2.514
 5341SOL    MW421685   3.695   5.652   2.555
 5342SOL     OW21686   2.027   7.366   2.081
 5342SOL    HW221687   2.056   7.456   2.073
 5342SOL    HW321688   1.977   7.349   2.002
 5342SOL    MW421689   2.025   7.374   2.070
 5343SOL     OW21690   2.814   5.621   2.966
 5343SOL    HW221691   2.773   5.699   2.928
 5343SOL    HW321692   2.908   5.639   2.961
 5343SOL    MW421693   2.820   5.633   2.961
 5344SOL     OW21694   2.829   6.299   1.996
 5344SOL    HW221695   2.831   6.246   1.917
 5344SOL    HW321696   2.917   6.336   2.002
 5344SOL    MW421697   2.841   6.298   1.985
 5345SOL     OW21698   3.443   6.225   2.332
 5345SOL    HW221699   3.482   6.225   2.419
 5345SOL    HW321700   3.384   6.301   2.332
 5345SOL    MW421701   3.440   6.236   2.343
 5346SOL     OW21702   2.760   6.592   3.461
 5346SOL    HW221703   2.737   6.572   3.551
 5346SOL    HW321704   2.845   6.636   3.466
 5346SOL    MW421705   2.767   6.595   3.473
 5347SOL     OW21706   2.840   5.729   3.221
 5347SOL    HW221707   2.846   5.691   3.134
 5347SOL    HW321708   2.829   5.823   3.206
 5347SOL    MW421709   2.841   5.737   3.209
 5348SOL     OW21710   2.929   6.218   3.055
 5348SOL    HW221711   3.004   6.247   3.002
 5348SOL    HW321712   2.861   6.283   3.039
 5348SOL    MW421713   2.930   6.230   3.045
 5349SOL     OW21714   2.926   5.924   3.438
 5349SOL    HW221715   2.892   5.963   3.357
 5349SOL    HW321716   2.904   5.832   3.431
 5349SOL    MW421717   2.919   5.917   3.428
 5350SOL     OW21718   3.335   6.738   3.514
 5350SOL    HW221719   3.417   6.779   3.544
 5350SOL    HW321720   3.298   6.700   3.594
 5350SOL    MW421721   3.341   6.739   3.529
 5351SOL     OW21722   3.630   6.111   2.498
 5351SOL    HW221723   3.719   6.080   2.515
 5351SOL    HW321724   3.573   6.051   2.546
 5351SOL    MW421725   3.633   6.099   2.507
 5352SOL     OW21726   2.056   5.825   2.527
 5352SOL    HW221727   2.047   5.765   2.453
 5352SOL    HW321728   1.989   5.796   2.590
 5352SOL    MW421729   2.046   5.812   2.525
 5353SOL     OW21730   2.999   6.918   2.088
 5353SOL    HW221731   2.949   6.920   2.170
 5353SOL    HW321732   2.933   6.936   2.020
 5353SOL    MW421733   2.985   6.920   2.090
 5354SOL     OW21734   2.003   5.998   2.890
 5354SOL    HW221735   1.975   6.089   2.899
 5354SOL    HW321736   1.940   5.959   2.829
 5354SOL    MW421737   1.990   6.004   2.884
 5355SOL     OW21738   2.462   7.336   2.196
 5355SOL    HW221739   2.383   7.294   2.229
 5355SOL    HW321740   2.528   7.319   2.263
 5355SOL    MW421741   2.461   7.328   2.209
 5356SOL     OW21742   3.590   6.856   3.593
 5356SOL    HW221743   3.640   6.782   3.625
 5356SOL    HW321744   3.536   6.883   3.668
 5356SOL    MW421745   3.590   6.850   3.606
 5357SOL     OW21746   2.598   6.751   1.903
 5357SOL    HW221747   2.520   6.697   1.890
 5357SOL    HW321748   2.569   6.824   1.956
 5357SOL    MW421749   2.584   6.753   1.908
 5358SOL     OW21750   3.724   6.491   3.095
 5358SOL    HW221751   3.740   6.529   3.008
 5358SOL    HW321752   3.758   6.557   3.156
 5358SOL    MW421753   3.731   6.504   3.091
 5359SOL     OW21754   3.516   7.200   2.764
 5359SOL    HW221755   3.545   7.267   2.825
 5359SOL    HW321756   3.497   7.124   2.819
 5359SOL    MW421757   3.518   7.200   2.779
 5360SOL     OW21758   1.987   6.273   3.060
 5360SOL    HW221759   2.049   6.303   3.126
 5360SOL    HW321760   1.921   6.342   3.054
 5360SOL    MW421761   1.986   6.286   3.067
 5361SOL     OW21762   3.403   6.941   1.913
 5361SOL    HW221763   3.350   6.990   1.849
 5361SOL    HW321764   3.434   7.007   1.974
 5361SOL    MW421765   3.401   6.955   1.911
 5362SOL     OW21766   2.628   5.830   1.968
 5362SOL    HW221767   2.576   5.750   1.956
 5362SOL    HW321768   2.715   5.807   1.936
 5362SOL    MW421769   2.631   5.816   1.962
 5363SOL     OW21770   2.082   7.382   3.512
 5363SOL    HW221771   2.056   7.450   3.450
 5363SOL    HW321772   2.130   7.319   3.460
 5363SOL    MW421773   2.084   7.382   3.498
 5364SOL     OW21774   2.134   6.701   3.019
 5364SOL    HW221775   2.187   6.776   3.044
 5364SOL    HW321776   2.053   6.739   2.985
 5364SOL    MW421777   2.130   6.716   3.019
 5365SOL     OW21778   2.674   6.605   3.007
 5365SOL    HW221779   2.702   6.514   3.019
 5365SOL    HW321780   2.603   6.599   2.943
 5365SOL    MW421781   2.667   6.593   3.002
 5366SOL     OW21782   1.989   6.470   2.425
 5366SOL    HW221783   2.080   6.485   2.452
 5366SOL    HW321784   1.992   6.391   2.371
 5366SOL    MW421785   2.001   6.462   2.423
 5367SOL     OW21786   2.225   6.178   3.679
 5367SOL    HW221787   2.172   6.258   3.686
 5367SOL    HW321788   2.295   6.190   3.744
 5367SOL    MW421789   2.227   6.191   3.687
 5368SOL     OW21790   2.611   5.728   3.386
 5368SOL    HW221791   2.588   5.636   3.388
 5368SOL    HW321792   2.697   5.730   3.343
 5368SOL    MW421793   2.618   5.718   3.382
 5369SOL     OW21794   2.295   6.252   3.425
 5369SOL    HW221795   2.375   6.302   3.411
 5369SOL    HW321796   2.286   6.246   3.520
 5369SOL    MW421797   2.304   6.258   3.435
 5370SOL     OW21798   1.997   7.082   2.464
 5370SOL    HW221799   1.969   7.121   2.546
 5370SOL    HW321800   2.017   6.991   2.486
 5370SOL    MW421801   1.995   7.074   2.477
 5371SOL     OW21802   2.830   7.125   2.499
 5371SOL    HW221803   2.913   7.079   2.483
 5371SOL    HW321804   2.820   7.124   2.595
 5371SOL    MW421805   2.840   7.118   2.509
 5372SOL     OW21806   3.662   6.270   2.813
 5372SOL    HW221807   3.751   6.300   2.795
 5372SOL    HW321808   3.642   6.210   2.742
 5372SOL    MW421809   3.671   6.267   2.802
 5373SOL     OW21810   3.513   6.449   3.693
 5373SOL    HW221811   3.568   6.373   3.674
 5373SOL    HW321812   3.515   6.457   3.788
 5373SOL    MW421813   3.521   6.440   3.701
 5374SOL     OW21814   2.563   7.182   1.904
 5374SOL    HW221815   2.503   7.251   1.874
 5374SOL    HW321816   2.508   7.124   1.957
 5374SOL    MW421817   2.547   7.184   1.906
 5375SOL     OW21818   3.001   5.827   2.127
 5375SOL    HW221819   2.934   5.803   2.064
 5375SOL    HW321820   3.066   5.876   2.076
 5375SOL    MW421821   3.001   5.829   2.112
 5376SOL     OW21822   2.808   6.011   3.212
 5376SOL    HW221823   2.727   6.052   3.240
 5376SOL    HW321824   2.855   6.079   3.164
 5376SOL    MW421825   2.803   6.026   3.210
 5377SOL     OW21826   3.068   6.349   2.835
 5377SOL    HW221827   3.081   6.443   2.845
 5377SOL    HW321828   3.029   6.339   2.749
 5377SOL    MW421829   3.064   6.360   2.825
 5378SOL     OW21830   2.520   6.544   2.639
 5378SOL    HW221831   2.431   6.535   2.672
 5378SOL    HW321832   2.524   6.634   2.607
 5378SOL    MW421833   2.509   6.555   2.639
 5379SOL     OW21834   3.319   6.127   2.634
 5379SOL    HW221835   3.264   6.048   2.633
 5379SOL    HW321836   3.301   6.168   2.718
 5379SOL    MW421837   3.309   6.122   2.643
 5380SOL     OW21838   2.290   5.814   3.451
 5380SOL    HW221839   2.211   5.832   3.503
 5380SOL    HW321840   2.285   5.876   3.378
 5380SOL    MW421841   2.280   5.824   3.448
 5381SOL     OW21842   2.938   6.331   2.591
 5381SOL    HW221843   2.875   6.263   2.615
 5381SOL    HW321844   2.958   6.312   2.499
 5381SOL    MW421845   2.932   6.318   2.583
 5382SOL     OW21846   2.194   7.226   2.293
 5382SOL    HW221847   2.155   7.273   2.219
 5382SOL    HW321848   2.128   7.161   2.318
 5382SOL    MW421849   2.181   7.224   2.287
 5383SOL     OW21850   2.686   6.635   2.317
 5383SOL    HW221851   2.688   6.609   2.224
 5383SOL    HW321852   2.744   6.572   2.360
 5383SOL    MW421853   2.694   6.624   2.311
 5384SOL     OW21854   3.196   5.879   2.650
 5384SOL    HW221855   3.224   5.811   2.711
 5384SOL    HW321856   3.110   5.850   2.620
 5384SOL    MW421857   3.189   5.866   2.654
 5385SOL     OW21858   2.001   6.813   2.584
 5385SOL    HW221859   2.065   6.845   2.647
 5385SOL    HW321860   2.050   6.749   2.532
 5385SOL    MW421861   2.016   6.809   2.585
 5386SOL     OW21862   2.501   6.889   3.566
 5386SOL    HW221863   2.549   6.972   3.553
 5386SOL    HW321864   2.558   6.837   3.622
 5386SOL    MW421865   2.515   6.893   3.572
 5387SOL     OW21866   2.077   7.131   3.706
 5387SOL    HW221867   2.133   7.055   3.721
 5387SOL    HW321868   2.026   7.109   3.628
 5387SOL    MW421869   2.077   7.118   3.697
 5388SOL     OW21870   3.176   5.983   1.985
 5388SOL    HW221871   3.149   6.049   1.921
 5388SOL    HW321872   3.246   6.026   2.035
 5388SOL    MW421873   3.181   5.996   1.982
 5389SOL     OW21874   2.844   5.688   1.922
 5389SOL    HW221875   2.900   5.680   1.844
 5389SOL    HW321876   2.821   5.598   1.944
 5389SOL    MW421877   2.849   5.675   1.915
 5390SOL     OW21878   3.349   6.539   2.127
 5390SOL    HW221879   3.316   6.628   2.117
 5390SOL    HW321880   3.314   6.510   2.212
 5390SOL    MW421881   3.339   6.548   2.138
 5391SOL     OW21882   2.962   6.968   3.315
 5391SOL    HW221883   2.873   6.974   3.283
 5391SOL    HW321884   3.006   7.047   3.283
 5391SOL    MW421885   2.957   6.978   3.307
 5392SOL     OW21886   2.255   5.636   3.657
 5392SOL    HW221887   2.183   5.601   3.605
 5392SOL    HW321888   2.313   5.677   3.592
 5392SOL    MW421889   2.253   5.637   3.642
 5393SOL     OW21890   2.279   7.126   2.956
 5393SOL    HW221891   2.324   7.188   3.013
 5393SOL    HW321892   2.186   7.145   2.969
 5393SOL    MW421893   2.272   7.136   2.963
 5394SOL     OW21894   3.719   6.655   3.310
 5394SOL    HW221895   3.634   6.668   3.269
 5394SOL    HW321896   3.699   6.619   3.397
 5394SOL    MW421897   3.706   6.651   3.315
 5395SOL     OW21898   2.343   6.577   1.919
 5395SOL    HW221899   2.266   6.590   1.975
 5395SOL    HW321900   2.307   6.541   1.838
 5395SOL    MW421901   2.329   6.573   1.916
 5396SOL     OW21902   2.996   6.550   2.162
 5396SOL    HW221903   2.906   6.571   2.137
 5396SOL    HW321904   3.023   6.623   2.218
 5396SOL    MW421905   2.988   6.562   2.165
 5397SOL     OW21906   2.496   6.899   2.854
 5397SOL    HW221907   2.489   6.878   2.948
 5397SOL    HW321908   2.414   6.867   2.817
 5397SOL    MW421909   2.484   6.893   2.861
 5398SOL     OW21910   1.942   6.991   3.517
 5398SOL    HW221911   1.986   6.924   3.463
 5398SOL    HW321912   1.857   6.953   3.537
 5398SOL    MW421913   1.937   6.977   3.513
 5399SOL     OW21914   2.625   5.666   2.569
 5399SOL    HW221915   2.554   5.727   2.551
 5399SOL    HW321916   2.676   5.663   2.488
 5399SOL    MW421917   2.621   5.672   2.556
 5400SOL     OW21918   2.383   6.906   2.318
 5400SOL    HW221919   2.376   6.938   2.408
 5400SOL    HW321920   2.293   6.890   2.290
 5400SOL    MW421921   2.371   6.908   2.325
 5401SOL     OW21922   2.585   6.323   3.699
 5401SOL    HW221923   2.655   6.265   3.671
 5401SOL    HW321924   2.528   6.268   3.754
 5401SOL    MW421925   2.587   6.310   3.703
 5402SOL     OW21926   3.372   6.535   3.332
 5402SOL    HW221927   3.377   6.588   3.412
 5402SOL    HW321928   3.334   6.452   3.360
 5402SOL    MW421929   3.368   6.530   3.347
 5403SOL     OW21930   2.386   6.190   2.032
 5403SOL    HW221931   2.352   6.246   2.102
 5403SOL    HW321932   2.457   6.140   2.072
 5403SOL    MW421933   2.392   6.191   2.046
 5404SOL     OW21934   3.482   6.941   2.854
 5404SOL    HW221935   3.517   6.923   2.767
 5404SOL    HW321936   3.387   6.942   2.841
 5404SOL    MW421937   3.474   6.938   2.841
 5405SOL     OW21938   2.911   6.589   3.223
 5405SOL    HW221939   2.954   6.624   3.301
 5405SOL    HW321940   2.894   6.666   3.169
 5405SOL    MW421941   2.914   6.604   3.226
 5406SOL     OW21942   3.442   6.076   2.096
 5406SOL    HW221943   3.434   6.147   2.033
 5406SOL    HW321944   3.460   6.120   2.179
 5406SOL    MW421945   3.443   6.090   2.098
 5407SOL     OW21946   2.302   5.731   2.525
 5407SOL    HW221947   2.352   5.774   2.456
 5407SOL    HW321948   2.217   5.775   2.525
 5407SOL    MW421949   2.299   5.744   2.516
 5408SOL     OW21950   2.569   6.120   3.352
 5408SOL    HW221951   2.541   6.208   3.376
 5408SOL    HW321952   2.538   6.064   3.423
 5408SOL    MW421953   2.561   6.123   3.364
 5409SOL     OW21954   3.111   6.338   2.071
 5409SOL    HW221955   3.158   6.356   1.990
 5409SOL    HW321956   3.077   6.422   2.099
 5409SOL    MW421957   3.113   6.352   2.064
 5410SOL     OW21958   2.224   6.516   2.565
 5410SOL    HW221959   2.282   6.572   2.513
 5410SOL    HW321960   2.268   6.431   2.567
 5410SOL    MW421961   2.237   6.513   2.558
 5411SOL     OW21962   3.364   5.868   2.402
 5411SOL    HW221963   3.286   5.818   2.427
 5411SOL    HW321964   3.335   5.959   2.402
 5411SOL    MW421965   3.350   5.872   2.405
 5412SOL     OW21966   2.950   5.830   2.561
 5412SOL    HW221967   2.970   5.905   2.505
 5412SOL    HW321968   2.930   5.869   2.646
 5412SOL    MW421969   2.951   5.846   2.565
 5413SOL     OW21970   3.710   6.603   3.580
 5413SOL    HW221971   3.623   6.583   3.616
 5413SOL    HW321972   3.764   6.529   3.605
 5413SOL    MW421973   3.705   6.592   3.588
 5414SOL     OW21974   1.931   7.116   2.737
 5414SOL    HW221975   1.963   7.120   2.828
 5414SOL    HW321976   1.836   7.124   2.745
 5414SOL    MW421977   1.923   7.119   2.750
 5415SOL     OW21978   1.886   6.242   2.284
 5415SOL    HW221979   1.826   6.214   2.354
 5415SOL    HW321980   1.960   6.182   2.290
 5415SOL    MW421981   1.888   6.231   2.293
 5416SOL     OW21982   3.054   6.973   2.444
 5416SOL    HW221983   3.077   6.924   2.522
 5416SOL    HW321984   3.135   7.015   2.416
 5416SOL    MW421985   3.067   6.973   2.451
 5417SOL     OW21986   2.312   5.981   3.173
 5417SOL    HW221987   2.345   6.062   3.213
 5417SOL    HW321988   2.285   6.007   3.085
 5417SOL    MW421989   2.311   5.995   3.167
 5418SOL     OW21990   2.266   5.948   2.909
 5418SOL    HW221991   2.296   5.862   2.880
 5418SOL    HW321992   2.171   5.941   2.912
 5418SOL    MW421993   2.258   5.937   2.907
 5419SOL     OW21994   2.409   5.726   2.800
 5419SOL    HW221995   2.419   5.635   2.826
 5419SOL    HW321996   2.365   5.722   2.715
 5419SOL    MW421997   2.405   5.714   2.792
 5420SOL     OW21998   2.503   7.341   3.346
 5420SOL    HW221999   2.420   7.326   3.391
 5420SOL    HW322000   2.562   7.274   3.381
 5420SOL    MW422001   2.501   7.331   3.356
 5421SOL     OW22002   3.560   6.048   2.971
 5421SOL    HW222003   3.493   6.081   3.031
 5421SOL    HW322004   3.603   6.126   2.937
 5421SOL    MW422005   3.558   6.063   2.975
 5422SOL     OW22006   3.738   6.768   2.941
 5422SOL    HW222007   3.731   6.708   2.866
 5422SOL    HW322008   3.664   6.828   2.930
 5422SOL    MW422009   3.728   6.768   2.930
 5423SOL     OW22010   3.120   6.630   2.859
 5423SOL    HW222011   3.134   6.602   2.950
 5423SOL    HW322012   3.206   6.661   2.831
 5423SOL    MW422013   3.133   6.631   2.868
 5424SOL     OW22014   3.203   6.125   3.138
 5424SOL    HW222015   3.224   6.126   3.045
 5424SOL    HW322016   3.248   6.047   3.171
 5424SOL    MW422017   3.210   6.115   3.130
 5425SOL     OW22018   3.696   6.256   3.680
 5425SOL    HW222019   3.733   6.201   3.749
 5425SOL    HW322020   3.721   6.213   3.598
 5425SOL    MW422021   3.703   6.244   3.679
 5426SOL     OW22022   3.243   6.554   3.731
 5426SOL    HW222023   3.309   6.502   3.685
 5426SOL    HW322024   3.263   6.541   3.824
 5426SOL    MW422025   3.254   6.545   3.738
 5427SOL     OW22026   3.194   5.640   2.080
 5427SOL    HW222027   3.268   5.684   2.123
 5427SOL    HW322028   3.118   5.694   2.102
 5427SOL    MW422029   3.194   5.652   2.088
 5428SOL     OW22030   3.254   6.415   2.358
 5428SOL    HW222031   3.169   6.385   2.328
 5428SOL    HW322032   3.246   6.422   2.453
 5428SOL    MW422033   3.242   6.413   2.367
 5429SOL     OW22034   2.330   6.878   3.089
 5429SOL    HW222035   2.342   6.905   3.180
 5429SOL    HW322036   2.311   6.959   3.042
 5429SOL    MW422037   2.329   6.893   3.094
 5430SOL     OW22038   2.614   5.858   2.912
 5430SOL    HW222039   2.587   5.860   3.003
 5430SOL    HW322040   2.544   5.810   2.867
 5430SOL    MW422041   2.602   5.854   2.919
 5431SOL     OW22042   2.468   7.350   3.074
 5431SOL    HW222043   2.520   7.427   3.051
 5431SOL    HW322044   2.477   7.342   3.169
 5431SOL    MW422045   2.477   7.357   3.085
 5432SOL     OW22046   3.370   6.935   3.306
 5432SOL    HW222047   3.355   6.864   3.369
 5432SOL    HW322048   3.416   6.893   3.234
 5432SOL    MW422049   3.376   6.919   3.306
 5433SOL     OW22050   2.444   6.666   3.423
 5433SOL    HW222051   2.481   6.671   3.335
 5433SOL    HW322052   2.483   6.739   3.470
 5433SOL    MW422053   2.454   6.676   3.418
 5434SOL     OW22054   2.624   6.709   3.235
 5434SOL    HW222055   2.683   6.655   3.288
 5434SOL    HW322056   2.639   6.681   3.145
 5434SOL    MW422057   2.634   6.698   3.231
 5435SOL     OW22058   2.627   6.081   2.084
 5435SOL    HW222059   2.700   6.130   2.047
 5435SOL    HW322060   2.643   5.990   2.058
 5435SOL    MW422061   2.639   6.076   2.077
 5436SOL     OW22062   3.095   5.677   2.998
 5436SOL    HW222063   3.150   5.686   2.920
 5436SOL    HW322064   3.150   5.711   3.069
 5436SOL    MW422065   3.109   5.682   2.997
 5437SOL     OW22066   2.102   6.590   2.182
 5437SOL    HW222067   2.039   6.606   2.111
 5437SOL    HW322068   2.049   6.553   2.253
 5437SOL    MW422069   2.087   6.587   2.182
 5438SOL     OW22070   2.458   6.944   2.041
 5438SOL    HW222071   2.473   6.920   2.133
 5438SOL    HW322072   2.366   6.922   2.025
 5438SOL    MW422073   2.448   6.937   2.051
 5439SOL     OW22074   2.256   7.333   2.762
 5439SOL    HW222075   2.260   7.244   2.797
 5439SOL    HW322076   2.282   7.324   2.671
 5439SOL    MW422077   2.259   7.321   2.754
 5440SOL     OW22078   2.873   6.811   3.005
 5440SOL    HW222079   2.805   6.745   3.021
 5440SOL    HW322080   2.891   6.805   2.912
 5440SOL    MW422081   2.866   6.802   2.996
 5441SOL     OW22082   1.962   7.086   3.256
 5441SOL    HW222083   1.952   7.044   3.342
 5441SOL    HW322084   1.883   7.139   3.246
 5441SOL    MW422085   1.951   7.087   3.267
 5442SOL     OW22086   2.866   5.950   2.826
 5442SOL    HW222087   2.796   5.902   2.871
 5442SOL    HW322088   2.898   6.013   2.890
 5442SOL    MW422089   2.861   5.952   2.840
 5443SOL     OW22090   2.517   6.386   3.446
 5443SOL    HW222091   2.510   6.481   3.434
 5443SOL    HW322092   2.526   6.375   3.541
 5443SOL    MW422093   2.518   6.398   3.456
 5444SOL     OW22094   2.238   6.901   3.704
 5444SOL    HW222095   2.310   6.903   3.641
 5444SOL    HW322096   2.208   6.810   3.703
 5444SOL    MW422097   2.243   6.890   3.696
 5445SOL     OW22098   3.322   5.664   3.171
 5445SOL    HW222099   3.393   5.610   3.135
 5445SOL    HW322100   3.321   5.643   3.264
 5445SOL    MW422101   3.331   5.655   3.179
 5446SOL     OW22102   2.333   6.056   2.639
 5446SOL    HW222103   2.404   6.004   2.602
 5446SOL    HW322104   2.319   6.021   2.726
 5446SOL    MW422105   2.341   6.045   2.646
 5447SOL     OW22106   1.888   7.391   3.711
 5447SOL    HW222107   1.938   7.369   3.633
 5447SOL    HW322108   1.896   7.486   3.719
 5447SOL    MW422109   1.896   7.400   3.702
 5448SOL     OW22110   2.649   7.149   2.715
 5448SOL    HW222111   2.577   7.086   2.728
 5448SOL    HW322112   2.610   7.234   2.733
 5448SOL    MW422113   2.633   7.152   2.718
 5449SOL     OW22114   2.969   5.997   2.363
 5449SOL    HW222115   2.991   5.934   2.295
 5449SOL    HW322116   2.874   5.989   2.374
 5449SOL    MW422117   2.959   5.988   2.355
 5450SOL     OW22118   2.054   5.687   2.295
 5450SOL    HW222119   2.125   5.708   2.234
 5450SOL    HW322120   2.008   5.615   2.253
 5450SOL    MW422121   2.058   5.681   2.281
 5451SOL     OW22122   1.885   6.154   3.438
 5451SOL    HW222123   1.949   6.220   3.413
 5451SOL    HW322124   1.804   6.181   3.395
 5451SOL    MW422125   1.883   6.166   3.430
 5452SOL     OW22126   3.623   7.061   2.395
 5452SOL    HW222127   3.593   6.994   2.456
 5452SOL    HW322128   3.717   7.067   2.409
 5452SOL    MW422129   3.631   7.053   2.405
 5453SOL     OW22130   3.179   6.738   2.325
 5453SOL    HW222131   3.151   6.824   2.358
 5453SOL    HW322132   3.207   6.754   2.235
 5453SOL    MW422133   3.179   6.752   2.317
 5454SOL     OW22134   2.841   5.658   2.378
 5454SOL    HW222135   2.878   5.717   2.443
 5454SOL    HW322136   2.818   5.714   2.304
 5454SOL    MW422137   2.842   5.673   2.377
 5455SOL     OW22138   3.694   6.540   2.800
 5455SOL    HW222139   3.685   6.572   2.711
 5455SOL    HW322140   3.647   6.456   2.800
 5455SOL    MW422141   3.687   6.533   2.790
 5456SOL     OW22142   2.070   6.380   3.379
 5456SOL    HW222143   2.091   6.449   3.317
 5456SOL    HW322144   2.150   6.327   3.384
 5456SOL    MW422145   2.083   6.381   3.373
 5457SOL     OW22146   3.606   6.471   2.501
 5457SOL    HW222147   3.700   6.460   2.489
 5457SOL    HW322148   3.582   6.543   2.442
 5457SOL    MW422149   3.616   6.479   2.492
 5458SOL     OW22150   2.055   6.395   3.646
 5458SOL    HW222151   1.981   6.339   3.672
 5458SOL    HW322152   2.050   6.398   3.551
 5458SOL    MW422153   2.044   6.388   3.636
 5459SOL     OW22154   2.221   5.682   3.096
 5459SOL    HW222155   2.264   5.766   3.116
 5459SOL    HW322156   2.294   5.620   3.089
 5459SOL    MW422157   2.236   5.685   3.097
 5460SOL     OW22158   2.262   6.349   2.274
 5460SOL    HW222159   2.262   6.444   2.259
 5460SOL    HW322160   2.339   6.333   2.328
 5460SOL    MW422161   2.272   6.360   2.279
 5461SOL     OW22162   3.038   6.208   3.338
 5461SOL    HW222163   3.074   6.181   3.254
 5461SOL    HW322164   2.951   6.242   3.317
 5461SOL    MW422165   3.032   6.209   3.325
 5462SOL     OW22166   2.021   6.080   2.563
 5462SOL    HW222167   2.083   6.087   2.636
 5462SOL    HW322168   2.021   5.987   2.540
 5462SOL    MW422169   2.029   6.069   2.570
 5463SOL     OW22170   2.703   6.341   3.047
 5463SOL    HW222171   2.661   6.259   3.023
 5463SOL    HW322172   2.704   6.340   3.143
 5463SOL    MW422173   2.696   6.330   3.056
 5464SOL     OW22174   2.507   5.811   3.152
 5464SOL    HW222175   2.438   5.874   3.173
 5464SOL    HW322176   2.534   5.775   3.237
 5464SOL    MW422177   2.501   5.814   3.165
 5465SOL     OW22178   1.890   6.652   2.021
 5465SOL    HW222179   1.859   6.717   2.084
 5465SOL    HW322180   1.839   6.574   2.040
 5465SOL    MW422181   1.880   6.649   2.031
 5466SOL     OW22182   3.302   5.664   2.769
 5466SOL    HW222183   3.390   5.673   2.806
 5466SOL    HW322184   3.312   5.605   2.695
 5466SOL    MW422185   3.316   5.658   2.763
 5467SOL     OW22186   3.334   6.403   2.613
 5467SOL    HW222187   3.414   6.418   2.562
 5467SOL    HW322188   3.327   6.308   2.619
 5467SOL    MW422189   3.343   6.392   2.608
 5468SOL     OW22190   2.784   6.329   3.310
 5468SOL    HW222191   2.853   6.396   3.307
 5468SOL    HW322192   2.717   6.367   3.366
 5468SOL    MW422193   2.785   6.342   3.317
 5469SOL     OW22194   2.202   6.629   3.558
 5469SOL    HW222195   2.156   6.545   3.560
 5469SOL    HW322196   2.259   6.623   3.482
 5469SOL    MW422197   2.204   6.617   3.550
 5470SOL     OW22198   3.319   6.272   1.879
 5470SOL    HW222199   3.247   6.248   1.821
 5470SOL    HW322200   3.385   6.309   1.821
 5470SOL    MW422201   3.318   6.274   1.864
 5471SOL     OW22202   2.453   7.004   2.559
 5471SOL    HW222203   2.518   6.937   2.580
 5471SOL    HW322204   2.505   7.081   2.536
 5471SOL    MW422205   2.468   7.006   2.558
 5472SOL     OW22206   2.714   6.169   2.689
 5472SOL    HW222207   2.654   6.187   2.761
 5472SOL    HW322208   2.748   6.081   2.708
 5472SOL    MW422209   2.710   6.159   2.702
 5473SOL     OW22210   2.939   6.752   2.708
 5473SOL    HW222211   3.031   6.733   2.726
 5473SOL    HW322212   2.912   6.682   2.648
 5473SOL    MW422213   2.947   6.740   2.702
 5474SOL     OW22214   2.732   6.572   2.063
 5474SOL    HW222215   2.718   6.484   2.028
 5474SOL    HW322216   2.683   6.629   2.004
 5474SOL    MW422217   2.724   6.567   2.051
 5475SOL     OW22218   3.213   6.990   2.804
 5475SOL    HW222219   3.186   7.074   2.769
 5475SOL    HW322220   3.173   6.985   2.891
 5475SOL    MW422221   3.206   6.999   2.810
 5476SOL     OW22222   3.132   6.938   3.072
 5476SOL    HW222223   3.143   6.905   3.161
 5476SOL    HW322224   3.051   6.897   3.041
 5476SOL    MW422225   3.122   6.930   3.078
 5477SOL     OW22226   2.145   6.296   2.842
 5477SOL    HW222227   2.095   6.295   2.923
 5477SOL    HW322228   2.165   6.388   2.826
 5477SOL    MW422229   2.141   6.308   2.850
 5478SOL     OW22230   3.212   7.060   3.604
 5478SOL    HW222231   3.212   7.154   3.620
 5478SOL    HW322232   3.257   7.050   3.520
 5478SOL    MW422233   3.218   7.070   3.595
 5479SOL     OW22234   3.451   5.778   2.165
 5479SOL    HW222235   3.444   5.782   2.260
 5479SOL    HW322236   3.463   5.869   2.138
 5479SOL    MW422237   3.452   5.791   2.173
 5480SOL     OW22238   2.740   6.341   2.279
 5480SOL    HW222239   2.720   6.327   2.186
 5480SOL    HW322240   2.833   6.320   2.286
 5480SOL    MW422241   2.750   6.336   2.268
 5481SOL     OW22242   2.067   5.964   3.583
 5481SOL    HW222243   2.024   6.023   3.520
 5481SOL    HW322244   2.135   6.019   3.623
 5481SOL    MW422245   2.071   5.979   3.580
 5482SOL     OW22246   3.179   6.584   3.128
 5482SOL    HW222247   3.242   6.581   3.201
 5482SOL    HW322248   3.095   6.602   3.170
 5482SOL    MW422249   3.175   6.586   3.143
 5483SOL     OW22250   3.518   5.761   2.907
 5483SOL    HW222251   3.563   5.679   2.926
 5483SOL    HW322252   3.538   5.817   2.983
 5483SOL    MW422253   3.528   5.757   2.919
 5484SOL     OW22254   1.966   5.604   3.006
 5484SOL    HW222255   1.957   5.605   2.911
 5484SOL    HW322256   2.060   5.616   3.021
 5484SOL    MW422257   1.978   5.607   2.997
 5485SOL     OW22258   3.603   6.797   2.626
 5485SOL    HW222259   3.582   6.743   2.549
 5485SOL    HW322260   3.699   6.795   2.630
 5485SOL    MW422261   3.612   6.790   2.615
 5486SOL     OW22262   2.295   6.942   3.369
 5486SOL    HW222263   2.216   6.892   3.392
 5486SOL    HW322264   2.365   6.901   3.419
 5486SOL    MW422265   2.293   6.930   3.379
 5487SOL     OW22266   2.179   5.731   2.052
 5487SOL    HW222267   2.108   5.786   2.020
 5487SOL    HW322268   2.221   5.697   1.973
 5487SOL    MW422269   2.175   5.733   2.038
 5488SOL     OW22270   3.303   6.228   2.888
 5488SOL    HW222271   3.226   6.274   2.854
 5488SOL    HW322272   3.360   6.297   2.922
 5488SOL    MW422273   3.300   6.243   2.888
 5489SOL     OW22274   1.935   5.830   1.901
 5489SOL    HW222275   1.902   5.909   1.945
 5489SOL    HW322276   1.990   5.863   1.830
 5489SOL    MW422277   1.938   5.844   1.898
 5490SOL     OW22278   1.969   7.087   2.090
 5490SOL    HW222279   1.986   7.171   2.132
 5490SOL    HW322280   2.004   7.096   2.002
 5490SOL    MW422281   1.974   7.100   2.084
 5491SOL     OW22282   3.241   7.176   2.307
 5491SOL    HW222283   3.304   7.166   2.236
 5491SOL    HW322284   3.158   7.196   2.262
 5491SOL    MW422285   3.238   7.177   2.292
 5492SOL     OW22286   3.604   6.444   3.993
 5492SOL    HW222287   3.645   6.386   4.058
 5492SOL    HW322288   3.511   6.436   4.010
 5492SOL    MW422289   3.598   6.436   4.003
 5493SOL     OW22290   3.470   6.376   4.988
 5493SOL    HW222291   3.425   6.443   5.039
 5493SOL    HW322292   3.558   6.412   4.974
 5493SOL    MW422293   3.476   6.389   4.992
 5494SOL     OW22294   2.398   6.627   4.222
 5494SOL    HW222295   2.488   6.602   4.206
 5494SOL    HW322296   2.394   6.720   4.199
 5494SOL    MW422297   2.410   6.636   4.217
 5495SOL     OW22298   3.450   6.770   4.969
 5495SOL    HW222299   3.371   6.735   4.927
 5495SOL    HW322300   3.477   6.842   4.913
 5495SOL    MW422301   3.443   6.775   4.956
 5496SOL     OW22302   2.124   6.111   4.163
 5496SOL    HW222303   2.156   6.199   4.145
 5496SOL    HW322304   2.112   6.109   4.258
 5496SOL    MW422305   2.127   6.123   4.175
 5497SOL     OW22306   2.202   6.524   5.064
 5497SOL    HW222307   2.265   6.471   5.015
 5497SOL    HW322308   2.183   6.598   5.007
 5497SOL    MW422309   2.208   6.526   5.051
 5498SOL     OW22310   2.610   6.793   4.425
 5498SOL    HW222311   2.690   6.796   4.477
 5498SOL    HW322312   2.638   6.760   4.339
 5498SOL    MW422313   2.624   6.789   4.420
 5499SOL     OW22314   2.635   7.134   5.328
 5499SOL    HW222315   2.719   7.160   5.367
 5499SOL    HW322316   2.659   7.078   5.254
 5499SOL    MW422317   2.649   7.130   5.323
 5500SOL     OW22318   2.387   6.297   4.416
 5500SOL    HW222319   2.372   6.217   4.467
 5500SOL    HW322320   2.469   6.332   4.450
 5500SOL    MW422321   2.395   6.289   4.428
 5501SOL     OW22322   2.724   6.983   5.101
 5501SOL    HW222323   2.688   7.049   5.041
 5501SOL    HW322324   2.652   6.921   5.114
 5501SOL    MW422325   2.710   6.983   5.095
 5502SOL     OW22326   2.529   6.123   4.793
 5502SOL    HW222327   2.435   6.119   4.811
 5502SOL    HW322328   2.559   6.032   4.802
 5502SOL    MW422329   2.520   6.111   4.796
 5503SOL     OW22330   2.275   6.537   4.697
 5503SOL    HW222331   2.230   6.544   4.613
 5503SOL    HW322332   2.255   6.620   4.741
 5503SOL    MW422333   2.267   6.549   4.691
 5504SOL     OW22334   1.972   7.383   4.572
 5504SOL    HW222335   2.061   7.375   4.607
 5504SOL    HW322336   1.936   7.295   4.577
 5504SOL    MW422337   1.979   7.370   4.577
 5505SOL     OW22338   3.237   6.775   3.941
 5505SOL    HW222339   3.155   6.811   3.907
 5505SOL    HW322340   3.305   6.818   3.890
 5505SOL    MW422341   3.235   6.785   3.929
 5506SOL     OW22342   2.236   6.910   4.607
 5506SOL    HW222343   2.212   6.963   4.683
 5506SOL    HW322344   2.292   6.968   4.555
 5506SOL    MW422345   2.240   6.925   4.610
 5507SOL     OW22346   2.798   6.554   4.417
 5507SOL    HW222347   2.712   6.541   4.457
 5507SOL    HW322348   2.851   6.481   4.449
 5507SOL    MW422349   2.794   6.543   4.426
 5508SOL     OW22350   2.206   7.206   5.202
 5508SOL    HW222351   2.114   7.182   5.187
 5508SOL    HW322352   2.250   7.123   5.219
 5508SOL    MW422353   2.200   7.191   5.201
 5509SOL     OW22354   2.789   6.916   4.134
 5509SOL    HW222355   2.766   6.978   4.202
 5509SOL    HW322356   2.746   6.834   4.160
 5509SOL    MW422357   2.781   6.912   4.145
 5510SOL     OW22358   3.662   5.917   4.590
 5510SOL    HW222359   3.599   5.897   4.659
 5510SOL    HW322360   3.652   5.846   4.527
 5510SOL    MW422361   3.652   5.904   4.591
 5511SOL     OW22362   2.286   5.889   4.102
 5511SOL    HW222363   2.260   5.851   4.018
 5511SOL    HW322364   2.223   5.959   4.118
 5511SOL    MW422365   2.275   5.892   4.093
 5512SOL     OW22366   2.121   6.850   4.139
 5512SOL    HW222367   2.069   6.918   4.095
 5512SOL    HW322368   2.118   6.776   4.079
 5512SOL    MW422369   2.113   6.849   4.126
 5513SOL     OW22370   3.718   6.086   3.892
 5513SOL    HW222371   3.627   6.088   3.920
 5513SOL    HW322372   3.763   6.148   3.950
 5513SOL    MW422373   3.711   6.094   3.902
 5514SOL     OW22374   3.463   6.689   4.242
 5514SOL    HW222375   3.373   6.689   4.277
 5514SOL    HW322376   3.456   6.735   4.159
 5514SOL    MW422377   3.450   6.695   4.236
 5515SOL     OW22378   3.263   6.324   5.314
 5515SOL    HW222379   3.332   6.262   5.291
 5515SOL    HW322380   3.188   6.298   5.261
 5515SOL    MW422381   3.263   6.311   5.305
 5516SOL     OW22382   2.004   7.204   4.866
 5516SOL    HW222383   1.987   7.150   4.943
 5516SOL    HW322384   1.992   7.294   4.896
 5516SOL    MW422385   2.001   7.208   4.880
 5517SOL     OW22386   2.999   6.711   5.306
 5517SOL    HW222387   2.984   6.804   5.291
 5517SOL    HW322388   3.094   6.701   5.306
 5517SOL    MW422389   3.008   6.721   5.303
 5518SOL     OW22390   2.795   6.135   5.507
 5518SOL    HW222391   2.885   6.136   5.474
 5518SOL    HW322392   2.754   6.060   5.465
 5518SOL    MW422393   2.801   6.125   5.498
 5519SOL     OW22394   3.370   6.667   4.634
 5519SOL    HW222395   3.373   6.601   4.565
 5519SOL    HW322396   3.455   6.710   4.630
 5519SOL    MW422397   3.382   6.663   4.625
 5520SOL     OW22398   3.655   6.890   4.054
 5520SOL    HW222399   3.611   6.931   4.129
 5520SOL    HW322400   3.712   6.958   4.019
 5520SOL    MW422401   3.657   6.904   4.059
 5521SOL     OW22402   2.575   5.939   5.457
 5521SOL    HW222403   2.585   5.865   5.397
 5521SOL    HW322404   2.611   5.908   5.540
 5521SOL    MW422405   2.581   5.925   5.459
 5522SOL     OW22406   2.311   7.306   4.372
 5522SOL    HW222407   2.343   7.394   4.350
 5522SOL    HW322408   2.264   7.278   4.294
 5522SOL    MW422409   2.310   7.314   4.359
 5523SOL     OW22410   3.695   5.668   4.421
 5523SOL    HW222411   3.749   5.619   4.483
 5523SOL    HW322412   3.638   5.602   4.382
 5523SOL    MW422413   3.695   5.652   4.423
 5524SOL     OW22414   2.027   7.366   3.949
 5524SOL    HW222415   2.056   7.456   3.941
 5524SOL    HW322416   1.977   7.349   3.870
 5524SOL    MW422417   2.025   7.374   3.938
 5525SOL     OW22418   2.814   5.621   4.834
 5525SOL    HW222419   2.773   5.699   4.796
 5525SOL    HW322420   2.908   5.639   4.829
 5525SOL    MW422421   2.820   5.633   4.829
 5526SOL     OW22422   2.829   6.299   3.864
 5526SOL    HW222423   2.831   6.246   3.785
 5526SOL    HW322424   2.917   6.336   3.870
 5526SOL    MW422425   2.841   6.298   3.853
 5527SOL     OW22426   3.443   6.225   4.200
 5527SOL    HW222427   3.482   6.225   4.287
 5527SOL    HW322428   3.384   6.301   4.200
 5527SOL    MW422429   3.440   6.236   4.211
 5528SOL     OW22430   2.760   6.592   5.329
 5528SOL    HW222431   2.737   6.572   5.419
 5528SOL    HW322432   2.845   6.636   5.334
 5528SOL    MW422433   2.767   6.595   5.341
 5529SOL     OW22434   2.840   5.729   5.089
 5529SOL    HW222435   2.846   5.691   5.002
 5529SOL    HW322436   2.829   5.823   5.074
 5529SOL    MW422437   2.841   5.737   5.077
 5530SOL     OW22438   2.929   6.218   4.923
 5530SOL    HW222439   3.004   6.247   4.870
 5530SOL    HW322440   2.861   6.283   4.907
 5530SOL    MW422441   2.930   6.230   4.913
 5531SOL     OW22442   3.479   6.186   5.200
 5531SOL    HW222443   3.460   6.095   5.179
 5531SOL    HW322444   3.457   6.235   5.121
 5531SOL    MW422445   3.474   6.179   5.187
 5532SOL     OW22446   2.926   5.924   5.306
 5532SOL    HW222447   2.892   5.963   5.225
 5532SOL    HW322448   2.904   5.832   5.299
 5532SOL    MW422449   2.919   5.917   5.296
 5533SOL     OW22450   3.335   6.738   5.382
 5533SOL    HW222451   3.417   6.779   5.412
 5533SOL    HW322452   3.298   6.700   5.462
 5533SOL    MW422453   3.341   6.739   5.397
 5534SOL     OW22454   3.630   6.111   4.366
 5534SOL    HW222455   3.719   6.080   4.383
 5534SOL    HW322456   3.573   6.051   4.414
 5534SOL    MW422457   3.633   6.099   4.375
 5535SOL     OW22458   2.056   5.825   4.395
 5535SOL    HW222459   2.047   5.765   4.321
 5535SOL    HW322460   1.989   5.796   4.458
 5535SOL    MW422461   2.046   5.812   4.393
 5536SOL     OW22462   2.999   6.918   3.956
 5536SOL    HW222463   2.949   6.920   4.038
 5536SOL    HW322464   2.933   6.936   3.888
 5536SOL    MW422465   2.985   6.920   3.958
 5537SOL     OW22466   2.003   5.998   4.758
 5537SOL    HW222467   1.975   6.089   4.767
 5537SOL    HW322468   1.940   5.959   4.697
 5537SOL    MW422469   1.990   6.004   4.752
 5538SOL     OW22470   2.462   7.336   4.064
 5538SOL    HW222471   2.383   7.294   4.097
 5538SOL    HW322472   2.528   7.319   4.131
 5538SOL    MW422473   2.461   7.328   4.077
 5539SOL     OW22474   3.590   6.856   5.461
 5539SOL    HW222475   3.640   6.782   5.493
 5539SOL    HW322476   3.536   6.883   5.536
 5539SOL    MW422477   3.590   6.850   5.474
 5540SOL     OW22478   2.598   6.751   3.771
 5540SOL    HW222479   2.520   6.697   3.758
 5540SOL    HW322480   2.569   6.824   3.824
 5540SOL    MW422481   2.584   6.753   3.776
 5541SOL     OW22482   3.724   6.491   4.963
 5541SOL    HW222483   3.740   6.529   4.876
 5541SOL    HW322484   3.758   6.557   5.024
 5541SOL    MW422485   3.731   6.504   4.959
 5542SOL     OW22486   3.516   7.200   4.632
 5542SOL    HW222487   3.545   7.267   4.693
 5542SOL    HW322488   3.497   7.124   4.687
 5542SOL    MW422489   3.518   7.200   4.647
 5543SOL     OW22490   1.987   6.273   4.928
 5543SOL    HW222491   2.049   6.303   4.994
 5543SOL    HW322492   1.921   6.342   4.922
 5543SOL    MW422493   1.986   6.286   4.935
 5544SOL     OW22494   3.403   6.941   3.781
 5544SOL    HW222495   3.350   6.990   3.717
 5544SOL    HW322496   3.434   7.007   3.842
 5544SOL    MW422497   3.401   6.955   3.779
 5545SOL     OW22498   2.628   5.830   3.836
 5545SOL    HW222499   2.576   5.750   3.824
 5545SOL    HW322500   2.715   5.807   3.804
 5545SOL    MW422501   2.631   5.816   3.830
 5546SOL     OW22502   2.082   7.382   5.380
 5546SOL    HW222503   2.056   7.450   5.318
 5546SOL    HW322504   2.130   7.319   5.328
 5546SOL    MW422505   2.084   7.382   5.366
 5547SOL     OW22506   2.134   6.701   4.887
 5547SOL    HW222507   2.187   6.776   4.912
 5547SOL    HW322508   2.053   6.739   4.853
 5547SOL    MW422509   2.130   6.716   4.887
 5548SOL     OW22510   2.674   6.605   4.875
 5548SOL    HW222511   2.702   6.514   4.887
 5548SOL    HW322512   2.603   6.599   4.811
 5548SOL    MW422513   2.667   6.593   4.870
 5549SOL     OW22514   1.989   6.470   4.293
 5549SOL    HW222515   2.080   6.485   4.320
 5549SOL    HW322516   1.992   6.391   4.239
 5549SOL    MW422517   2.001   6.462   4.291
 5550SOL     OW22518   2.225   6.178   5.547
 5550SOL    HW222519   2.172   6.258   5.554
 5550SOL    HW322520   2.295   6.190   5.612
 5550SOL    MW422521   2.227   6.191   5.555
 5551SOL     OW22522   2.611   5.728   5.254
 5551SOL    HW222523   2.588   5.636   5.256
 5551SOL    HW322524   2.697   5.730   5.211
 5551SOL    MW422525   2.618   5.718   5.250
 5552SOL     OW22526   2.295   6.252   5.293
 5552SOL    HW222527   2.375   6.302   5.279
 5552SOL    HW322528   2.286   6.246   5.388
 5552SOL    MW422529   2.304   6.258   5.303
 5553SOL     OW22530   3.272   5.777   5.564
 5553SOL    HW222531   3.328   5.704   5.590
 5553SOL    HW322532   3.242   5.815   5.646
 5553SOL    MW422533   3.276   5.772   5.577
 5554SOL     OW22534   1.997   7.082   4.332
 5554SOL    HW222535   1.969   7.121   4.414
 5554SOL    HW322536   2.017   6.991   4.354
 5554SOL    MW422537   1.995   7.074   4.345
 5555SOL     OW22538   2.830   7.125   4.367
 5555SOL    HW222539   2.913   7.079   4.351
 5555SOL    HW322540   2.820   7.124   4.463
 5555SOL    MW422541   2.840   7.118   4.377
 5556SOL     OW22542   3.662   6.270   4.681
 5556SOL    HW222543   3.751   6.300   4.663
 5556SOL    HW322544   3.642   6.210   4.610
 5556SOL    MW422545   3.671   6.267   4.670
 5557SOL     OW22546   3.513   6.449   5.561
 5557SOL    HW222547   3.568   6.373   5.542
 5557SOL    HW322548   3.515   6.457   5.656
 5557SOL    MW422549   3.521   6.440   5.569
 5558SOL     OW22550   2.563   7.182   3.772
 5558SOL    HW222551   2.503   7.251   3.742
 5558SOL    HW322552   2.508   7.124   3.825
 5558SOL    MW422553   2.547   7.184   3.774
 5559SOL     OW22554   2.808   6.011   5.080
 5559SOL    HW222555   2.727   6.052   5.108
 5559SOL    HW322556   2.855   6.079   5.032
 5559SOL    MW422557   2.803   6.026   5.078
 5560SOL     OW22558   3.068   6.349   4.703
 5560SOL    HW222559   3.081   6.443   4.713
 5560SOL    HW322560   3.029   6.339   4.617
 5560SOL    MW422561   3.064   6.360   4.693
 5561SOL     OW22562   2.520   6.544   4.507
 5561SOL    HW222563   2.431   6.535   4.540
 5561SOL    HW322564   2.524   6.634   4.475
 5561SOL    MW422565   2.509   6.555   4.507
 5562SOL     OW22566   3.319   6.127   4.502
 5562SOL    HW222567   3.264   6.048   4.501
 5562SOL    HW322568   3.301   6.168   4.586
 5562SOL    MW422569   3.309   6.122   4.511
 5563SOL     OW22570   2.290   5.814   5.319
 5563SOL    HW222571   2.211   5.832   5.371
 5563SOL    HW322572   2.285   5.876   5.246
 5563SOL    MW422573   2.280   5.824   5.316
 5564SOL     OW22574   2.194   7.226   4.161
 5564SOL    HW222575   2.155   7.273   4.087
 5564SOL    HW322576   2.128   7.161   4.186
 5564SOL    MW422577   2.181   7.224   4.155
 5565SOL     OW22578   2.686   6.635   4.185
 5565SOL    HW222579   2.688   6.609   4.092
 5565SOL    HW322580   2.744   6.572   4.228
 5565SOL    MW422581   2.694   6.624   4.179
 5566SOL     OW22582   3.196   5.879   4.518
 5566SOL    HW222583   3.224   5.811   4.579
 5566SOL    HW322584   3.110   5.850   4.488
 5566SOL    MW422585   3.189   5.866   4.522
 5567SOL     OW22586   2.001   6.813   4.452
 5567SOL    HW222587   2.065   6.845   4.515
 5567SOL    HW322588   2.050   6.749   4.400
 5567SOL    MW422589   2.016   6.809   4.453
 5568SOL     OW22590   2.501   6.889   5.434
 5568SOL    HW222591   2.549   6.972   5.421
 5568SOL    HW322592   2.558   6.837   5.490
 5568SOL    MW422593   2.515   6.893   5.440
 5569SOL     OW22594   2.077   7.131   5.574
 5569SOL    HW222595   2.133   7.055   5.589
 5569SOL    HW322596   2.026   7.109   5.496
 5569SOL    MW422597   2.077   7.118   5.565
 5570SOL     OW22598   3.176   5.983   3.853
 5570SOL    HW222599   3.149   6.049   3.789
 5570SOL    HW322600   3.246   6.026   3.903
 5570SOL    MW422601   3.181   5.996   3.850
 5571SOL     OW22602   3.349   6.539   3.995
 5571SOL    HW222603   3.316   6.628   3.985
 5571SOL    HW322604   3.314   6.510   4.080
 5571SOL    MW422605   3.339   6.548   4.006
 5572SOL     OW22606   2.962   6.968   5.183
 5572SOL    HW222607   2.873   6.974   5.151
 5572SOL    HW322608   3.006   7.047   5.151
 5572SOL    MW422609   2.957   6.978   5.175
 5573SOL     OW22610   2.255   5.636   5.525
 5573SOL    HW222611   2.183   5.601   5.473
 5573SOL    HW322612   2.313   5.677   5.460
 5573SOL    MW422613   2.253   5.637   5.510
 5574SOL     OW22614   2.279   7.126   4.824
 5574SOL    HW222615   2.324   7.188   4.881
 5574SOL    HW322616   2.186   7.145   4.837
 5574SOL    MW422617   2.272   7.136   4.831
 5575SOL     OW22618   3.719   6.655   5.178
 5575SOL    HW222619   3.634   6.668   5.137
 5575SOL    HW322620   3.699   6.619   5.265
 5575SOL    MW422621   3.706   6.651   5.183
 5576SOL     OW22622   2.343   6.577   3.787
 5576SOL    HW222623   2.266   6.590   3.843
 5576SOL    HW322624   2.307   6.541   3.706
 5576SOL    MW422625   2.329   6.573   3.784
 5577SOL     OW22626   2.496   6.899   4.722
 5577SOL    HW222627   2.489   6.878   4.816
 5577SOL    HW322628   2.414   6.867   4.685
 5577SOL    MW422629   2.484   6.893   4.729
 5578SOL     OW22630   3.360   5.909   5.124
 5578SOL    HW222631   3.307   5.911   5.204
 5578SOL    HW322632   3.345   5.822   5.087
 5578SOL    MW422633   3.352   5.899   5.129
 5579SOL     OW22634   3.696   5.833   4.997
 5579SOL    HW222635   3.677   5.900   4.932
 5579SOL    HW322636   3.753   5.771   4.952
 5579SOL    MW422637   3.700   5.834   4.983
 5580SOL     OW22638   1.942   6.991   5.385
 5580SOL    HW222639   1.986   6.924   5.331
 5580SOL    HW322640   1.857   6.953   5.405
 5580SOL    MW422641   1.937   6.977   5.381
 5581SOL     OW22642   2.383   6.906   4.186
 5581SOL    HW222643   2.376   6.938   4.276
 5581SOL    HW322644   2.293   6.890   4.158
 5581SOL    MW422645   2.371   6.908   4.193
 5582SOL     OW22646   2.585   6.323   5.567
 5582SOL    HW222647   2.655   6.265   5.539
 5582SOL    HW322648   2.528   6.268   5.622
 5582SOL    MW422649   2.587   6.310   5.571
 5583SOL     OW22650   3.372   6.535   5.200
 5583SOL    HW222651   3.377   6.588   5.280
 5583SOL    HW322652   3.334   6.452   5.228
 5583SOL    MW422653   3.368   6.530   5.215
 5584SOL     OW22654   3.012   5.670   5.446
 5584SOL    HW222655   3.007   5.577   5.427
 5584SOL    HW322656   3.095   5.681   5.492
 5584SOL    MW422657   3.020   5.659   5.450
 5585SOL     OW22658   2.386   6.190   3.900
 5585SOL    HW222659   2.352   6.246   3.970
 5585SOL    HW322660   2.457   6.140   3.940
 5585SOL    MW422661   2.392   6.191   3.914
 5586SOL     OW22662   3.482   6.941   4.722
 5586SOL    HW222663   3.517   6.923   4.635
 5586SOL    HW322664   3.387   6.942   4.709
 5586SOL    MW422665   3.474   6.938   4.709
 5587SOL     OW22666   2.911   6.589   5.091
 5587SOL    HW222667   2.954   6.624   5.169
 5587SOL    HW322668   2.894   6.666   5.037
 5587SOL    MW422669   2.914   6.604   5.094
 5588SOL     OW22670   3.442   6.076   3.964
 5588SOL    HW222671   3.434   6.147   3.901
 5588SOL    HW322672   3.460   6.120   4.047
 5588SOL    MW422673   3.443   6.090   3.966
 5589SOL     OW22674   2.061   6.793   5.253
 5589SOL    HW222675   2.089   6.746   5.331
 5589SOL    HW322676   1.982   6.748   5.224
 5589SOL    MW422677   2.054   6.782   5.259
 5590SOL     OW22678   2.569   6.120   5.220
 5590SOL    HW222679   2.541   6.208   5.244
 5590SOL    HW322680   2.538   6.064   5.291
 5590SOL    MW422681   2.561   6.123   5.232
 5591SOL     OW22682   2.224   6.516   4.433
 5591SOL    HW222683   2.282   6.572   4.381
 5591SOL    HW322684   2.268   6.431   4.435
 5591SOL    MW422685   2.237   6.513   4.426
 5592SOL     OW22686   3.364   5.868   4.270
 5592SOL    HW222687   3.286   5.818   4.295
 5592SOL    HW322688   3.335   5.959   4.270
 5592SOL    MW422689   3.350   5.872   4.273
 5593SOL     OW22690   3.710   6.603   5.448
 5593SOL    HW222691   3.623   6.583   5.484
 5593SOL    HW322692   3.764   6.529   5.473
 5593SOL    MW422693   3.705   6.592   5.456
 5594SOL     OW22694   1.931   7.116   4.605
 5594SOL    HW222695   1.963   7.120   4.696
 5594SOL    HW322696   1.836   7.124   4.613
 5594SOL    MW422697   1.923   7.119   4.618
 5595SOL     OW22698   1.886   6.242   4.152
 5595SOL    HW222699   1.826   6.214   4.222
 5595SOL    HW322700   1.960   6.182   4.158
 5595SOL    MW422701   1.888   6.231   4.161
 5596SOL     OW22702   3.054   6.973   4.312
 5596SOL    HW222703   3.077   6.924   4.390
 5596SOL    HW322704   3.135   7.015   4.284
 5596SOL    MW422705   3.067   6.973   4.319
 5597SOL     OW22706   2.312   5.981   5.041
 5597SOL    HW222707   2.345   6.062   5.081
 5597SOL    HW322708   2.285   6.007   4.953
 5597SOL    MW422709   2.311   5.995   5.035
 5598SOL     OW22710   2.266   5.948   4.777
 5598SOL    HW222711   2.296   5.862   4.748
 5598SOL    HW322712   2.171   5.941   4.780
 5598SOL    MW422713   2.258   5.937   4.775
 5599SOL     OW22714   3.095   6.157   5.468
 5599SOL    HW222715   3.147   6.092   5.421
 5599SOL    HW322716   3.053   6.208   5.398
 5599SOL    MW422717   3.096   6.154   5.451
 5600SOL     OW22718   3.194   5.952   5.329
 5600SOL    HW222719   3.101   5.936   5.316
 5600SOL    HW322720   3.220   5.890   5.397
 5600SOL    MW422721   3.184   5.942   5.336
 5601SOL     OW22722   2.503   7.341   5.214
 5601SOL    HW222723   2.420   7.326   5.259
 5601SOL    HW322724   2.562   7.274   5.249
 5601SOL    MW422725   2.501   7.331   5.224
 5602SOL     OW22726   3.560   6.048   4.839
 5602SOL    HW222727   3.493   6.081   4.899
 5602SOL    HW322728   3.603   6.126   4.805
 5602SOL    MW422729   3.558   6.063   4.843
 5603SOL     OW22730   3.738   6.768   4.809
 5603SOL    HW222731   3.731   6.708   4.734
 5603SOL    HW322732   3.664   6.828   4.798
 5603SOL    MW422733   3.728   6.768   4.798
 5604SOL     OW22734   3.120   6.630   4.727
 5604SOL    HW222735   3.134   6.602   4.818
 5604SOL    HW322736   3.206   6.661   4.699
 5604SOL    MW422737   3.133   6.631   4.736
 5605SOL     OW22738   3.203   6.125   5.006
 5605SOL    HW222739   3.224   6.126   4.913
 5605SOL    HW322740   3.248   6.047   5.039
 5605SOL    MW422741   3.210   6.115   4.998
 5606SOL     OW22742   3.696   6.256   5.548
 5606SOL    HW222743   3.733   6.201   5.617
 5606SOL    HW322744   3.721   6.213   5.466
 5606SOL    MW422745   3.703   6.244   5.547
 5607SOL     OW22746   3.243   6.554   5.600
 5607SOL    HW222747   3.309   6.502   5.554
 5607SOL    HW322748   3.263   6.541   5.693
 5607SOL    MW422749   3.254   6.545   5.607
 5608SOL     OW22750   2.330   6.878   4.957
 5608SOL    HW222751   2.342   6.905   5.048
 5608SOL    HW322752   2.311   6.959   4.910
 5608SOL    MW422753   2.329   6.893   4.962
 5609SOL     OW22754   2.468   7.350   4.942
 5609SOL    HW222755   2.520   7.427   4.919
 5609SOL    HW322756   2.477   7.342   5.037
 5609SOL    MW422757   2.477   7.357   4.953
 5610SOL     OW22758   3.370   6.935   5.174
 5610SOL    HW222759   3.355   6.864   5.237
 5610SOL    HW322760   3.416   6.893   5.102
 5610SOL    MW422761   3.376   6.919   5.174
 5611SOL     OW22762   2.444   6.666   5.291
 5611SOL    HW222763   2.481   6.671   5.203
 5611SOL    HW322764   2.483   6.739   5.338
 5611SOL    MW422765   2.454   6.676   5.286
 5612SOL     OW22766   2.624   6.709   5.103
 5612SOL    HW222767   2.683   6.655   5.156
 5612SOL    HW322768   2.639   6.681   5.013
 5612SOL    MW422769   2.634   6.698   5.099
 5613SOL     OW22770   2.627   6.081   3.952
 5613SOL    HW222771   2.700   6.130   3.915
 5613SOL    HW322772   2.643   5.990   3.926
 5613SOL    MW422773   2.639   6.076   3.945
 5614SOL     OW22774   3.095   5.677   4.866
 5614SOL    HW222775   3.150   5.686   4.788
 5614SOL    HW322776   3.150   5.711   4.937
 5614SOL    MW422777   3.109   5.682   4.865
 5615SOL     OW22778   2.102   6.590   4.050
 5615SOL    HW222779   2.039   6.606   3.979
 5615SOL    HW322780   2.049   6.553   4.121
 5615SOL    MW422781   2.087   6.587   4.050
 5616SOL     OW22782   2.458   6.944   3.909
 5616SOL    HW222783   2.473   6.920   4.001
 5616SOL    HW322784   2.366   6.922   3.893
 5616SOL    MW422785   2.448   6.937   3.919
 5617SOL     OW22786   2.256   7.333   4.630
 5617SOL    HW222787   2.260   7.244   4.665
 5617SOL    HW322788   2.282   7.324   4.539
 5617SOL    MW422789   2.259   7.321   4.622
 5618SOL     OW22790   2.873   6.811   4.873
 5618SOL    HW222791   2.805   6.745   4.889
 5618SOL    HW322792   2.891   6.805   4.780
 5618SOL    MW422793   2.866   6.802   4.864
 5619SOL     OW22794   1.962   7.086   5.124
 5619SOL    HW222795   1.952   7.044   5.210
 5619SOL    HW322796   1.883   7.139   5.114
 5619SOL    MW422797   1.951   7.087   5.135
 5620SOL     OW22798   2.866   5.950   4.694
 5620SOL    HW222799   2.796   5.902   4.739
 5620SOL    HW322800   2.898   6.013   4.758
 5620SOL    MW422801   2.861   5.952   4.708
 5621SOL     OW22802   2.517   6.386   5.314
 5621SOL    HW222803   2.510   6.481   5.302
 5621SOL    HW322804   2.526   6.375   5.409
 5621SOL    MW422805   2.518   6.398   5.324
 5622SOL     OW22806   2.238   6.901   5.572
 5622SOL    HW222807   2.310   6.903   5.509
 5622SOL    HW322808   2.208   6.810   5.571
 5622SOL    MW422809   2.243   6.890   5.564
 5623SOL     OW22810   3.322   5.664   5.039
 5623SOL    HW222811   3.393   5.610   5.003
 5623SOL    HW322812   3.321   5.643   5.132
 5623SOL    MW422813   3.331   5.655   5.047
 5624SOL     OW22814   1.888   7.391   5.579
 5624SOL    HW222815   1.938   7.369   5.501
 5624SOL    HW322816   1.896   7.486   5.587
 5624SOL    MW422817   1.896   7.400   5.570
 5625SOL     OW22818   2.649   7.149   4.583
 5625SOL    HW222819   2.577   7.086   4.596
 5625SOL    HW322820   2.610   7.234   4.601
 5625SOL    MW422821   2.633   7.152   4.586
 5626SOL     OW22822   2.054   5.687   4.163
 5626SOL    HW222823   2.125   5.708   4.102
 5626SOL    HW322824   2.008   5.615   4.121
 5626SOL    MW422825   2.058   5.681   4.149
 5627SOL     OW22826   1.885   6.154   5.306
 5627SOL    HW222827   1.949   6.220   5.281
 5627SOL    HW322828   1.804   6.181   5.263
 5627SOL    MW422829   1.883   6.166   5.298
 5628SOL     OW22830   3.623   7.061   4.263
 5628SOL    HW222831   3.593   6.994   4.324
 5628SOL    HW322832   3.717   7.067   4.277
 5628SOL    MW422833   3.631   7.053   4.273
 5629SOL     OW22834   3.694   6.540   4.668
 5629SOL    HW222835   3.685   6.572   4.579
 5629SOL    HW322836   3.647   6.456   4.668
 5629SOL    MW422837   3.687   6.533   4.658
 5630SOL     OW22838   2.070   6.380   5.247
 5630SOL    HW222839   2.091   6.449   5.185
 5630SOL    HW322840   2.150   6.327   5.252
 5630SOL    MW422841   2.083   6.381   5.241
 5631SOL     OW22842   3.606   6.471   4.369
 5631SOL    HW222843   3.700   6.460   4.357
 5631SOL    HW322844   3.582   6.543   4.310
 5631SOL    MW422845   3.616   6.479   4.360
 5632SOL     OW22846   2.055   6.395   5.514
 5632SOL    HW222847   1.981   6.339   5.540
 5632SOL    HW322848   2.050   6.398   5.419
 5632SOL    MW422849   2.044   6.388   5.504
 5633SOL     OW22850   2.262   6.349   4.142
 5633SOL    HW222851   2.262   6.444   4.127
 5633SOL    HW322852   2.339   6.333   4.196
 5633SOL    MW422853   2.272   6.360   4.147
 5634SOL     OW22854   3.038   6.208   5.206
 5634SOL    HW222855   3.074   6.181   5.122
 5634SOL    HW322856   2.951   6.242   5.185
 5634SOL    MW422857   3.032   6.209   5.193
 5635SOL     OW22858   2.021   6.080   4.431
 5635SOL    HW222859   2.083   6.087   4.504
 5635SOL    HW322860   2.021   5.987   4.408
 5635SOL    MW422861   2.029   6.069   4.438
 5636SOL     OW22862   2.703   6.341   4.915
 5636SOL    HW222863   2.661   6.259   4.891
 5636SOL    HW322864   2.704   6.340   5.011
 5636SOL    MW422865   2.696   6.330   4.924
 5637SOL     OW22866   1.890   6.652   3.889
 5637SOL    HW222867   1.859   6.717   3.952
 5637SOL    HW322868   1.839   6.574   3.908
 5637SOL    MW422869   1.880   6.649   3.899
 5638SOL     OW22870   3.334   6.403   4.481
 5638SOL    HW222871   3.414   6.418   4.430
 5638SOL    HW322872   3.327   6.308   4.487
 5638SOL    MW422873   3.343   6.392   4.476
 5639SOL     OW22874   2.784   6.329   5.178
 5639SOL    HW222875   2.853   6.396   5.175
 5639SOL    HW322876   2.717   6.367   5.234
 5639SOL    MW422877   2.785   6.342   5.185
 5640SOL     OW22878   2.202   6.629   5.426
 5640SOL    HW222879   2.156   6.545   5.428
 5640SOL    HW322880   2.259   6.623   5.350
 5640SOL    MW422881   2.204   6.617   5.418
 5641SOL     OW22882   3.319   6.272   3.747
 5641SOL    HW222883   3.247   6.248   3.689
 5641SOL    HW322884   3.385   6.309   3.689
 5641SOL    MW422885   3.318   6.274   3.732
 5642SOL     OW22886   2.453   7.004   4.427
 5642SOL    HW222887   2.518   6.937   4.448
 5642SOL    HW322888   2.505   7.081   4.404
 5642SOL    MW422889   2.468   7.006   4.426
 5643SOL     OW22890   2.714   6.169   4.557
 5643SOL    HW222891   2.654   6.187   4.629
 5643SOL    HW322892   2.748   6.081   4.576
 5643SOL    MW422893   2.710   6.159   4.570
 5644SOL     OW22894   3.655   5.668   5.226
 5644SOL    HW222895   3.576   5.714   5.254
 5644SOL    HW322896   3.690   5.722   5.155
 5644SOL    MW422897   3.649   5.681   5.220
 5645SOL     OW22898   2.939   6.752   4.576
 5645SOL    HW222899   3.031   6.733   4.594
 5645SOL    HW322900   2.912   6.682   4.516
 5645SOL    MW422901   2.947   6.740   4.570
 5646SOL     OW22902   2.732   6.572   3.931
 5646SOL    HW222903   2.718   6.484   3.896
 5646SOL    HW322904   2.683   6.629   3.872
 5646SOL    MW422905   2.724   6.567   3.919
 5647SOL     OW22906   3.213   6.990   4.672
 5647SOL    HW222907   3.186   7.074   4.637
 5647SOL    HW322908   3.173   6.985   4.759
 5647SOL    MW422909   3.206   6.999   4.678
 5648SOL     OW22910   3.132   6.938   4.940
 5648SOL    HW222911   3.143   6.905   5.029
 5648SOL    HW322912   3.051   6.897   4.909
 5648SOL    MW422913   3.122   6.930   4.946
 5649SOL     OW22914   2.145   6.296   4.710
 5649SOL    HW222915   2.095   6.295   4.791
 5649SOL    HW322916   2.165   6.388   4.694
 5649SOL    MW422917   2.141   6.308   4.718
 5650SOL     OW22918   3.212   7.060   5.472
 5650SOL    HW222919   3.212   7.154   5.488
 5650SOL    HW322920   3.257   7.050   5.388
 5650SOL    MW422921   3.218   7.070   5.463
 5651SOL     OW22922   2.067   5.964   5.451
 5651SOL    HW222923   2.024   6.023   5.388
 5651SOL    HW322924   2.135   6.019   5.491
 5651SOL    MW422925   2.071   5.979   5.448
 5652SOL     OW22926   3.179   6.584   4.996
 5652SOL    HW222927   3.242   6.581   5.069
 5652SOL    HW322928   3.095   6.602   5.038
 5652SOL    MW422929   3.175   6.586   5.011
 5653SOL     OW22930   3.518   5.761   4.775
 5653SOL    HW222931   3.563   5.679   4.794
 5653SOL    HW322932   3.538   5.817   4.851
 5653SOL    MW422933   3.528   5.757   4.787
 5654SOL     OW22934   1.966   5.604   4.874
 5654SOL    HW222935   1.957   5.605   4.779
 5654SOL    HW322936   2.060   5.616   4.889
 5654SOL    MW422937   1.978   5.607   4.865
 5655SOL     OW22938   3.603   6.797   4.494
 5655SOL    HW222939   3.582   6.743   4.417
 5655SOL    HW322940   3.699   6.795   4.498
 5655SOL    MW422941   3.612   6.790   4.483
 5656SOL     OW22942   2.295   6.942   5.237
 5656SOL    HW222943   2.216   6.892   5.260
 5656SOL    HW322944   2.365   6.901   5.287
 5656SOL    MW422945   2.293   6.930   5.247
 5657SOL     OW22946   2.179   5.731   3.920
 5657SOL    HW222947   2.108   5.786   3.888
 5657SOL    HW322948   2.221   5.697   3.841
 5657SOL    MW422949   2.175   5.733   3.906
 5658SOL     OW22950   3.303   6.228   4.756
 5658SOL    HW222951   3.226   6.274   4.722
 5658SOL    HW322952   3.360   6.297   4.790
 5658SOL    MW422953   3.300   6.243   4.756
 5659SOL     OW22954   1.935   5.830   3.769
 5659SOL    HW222955   1.902   5.909   3.813
 5659SOL    HW322956   1.990   5.863   3.698
 5659SOL    MW422957   1.938   5.844   3.766
 5660SOL     OW22958   1.969   7.087   3.958
 5660SOL    HW222959   1.986   7.171   4.000
 5660SOL    HW322960   2.004   7.096   3.870
 5660SOL    MW422961   1.974   7.100   3.952
 5661SOL     OW22962   3.241   7.176   4.175
 5661SOL    HW222963   3.304   7.166   4.104
 5661SOL    HW322964   3.158   7.196   4.130
 5661SOL    MW422965   3.238   7.177   4.160
 5662SOL     OW22966   3.604   6.444   5.862
 5662SOL    HW222967   3.645   6.386   5.927
 5662SOL    HW322968   3.511   6.436   5.879
 5662SOL    MW422969   3.598   6.436   5.872
 5663SOL     OW22970   2.398   6.627   6.091
 5663SOL    HW222971   2.488   6.602   6.075
 5663SOL    HW322972   2.394   6.720   6.068
 5663SOL    MW422973   2.410   6.636   6.086
 5664SOL     OW22974   2.682   6.083   6.104
 5664SOL    HW222975   2.657   6.171   6.132
 5664SOL    HW322976   2.679   6.086   6.008
 5664SOL    MW422977   2.678   6.095   6.096
 5665SOL     OW22978   2.124   6.111   6.032
 5665SOL    HW222979   2.156   6.199   6.014
 5665SOL    HW322980   2.112   6.109   6.127
 5665SOL    MW422981   2.127   6.123   6.044
 5666SOL     OW22982   2.523   5.866   6.119
 5666SOL    HW222983   2.581   5.942   6.121
 5666SOL    HW322984   2.458   5.887   6.052
 5666SOL    MW422985   2.522   5.878   6.110
 5667SOL     OW22986   2.610   6.793   6.294
 5667SOL    HW222987   2.690   6.796   6.346
 5667SOL    HW322988   2.638   6.760   6.208
 5667SOL    MW422989   2.624   6.789   6.289
 5668SOL     OW22990   2.387   6.297   6.285
 5668SOL    HW222991   2.372   6.217   6.336
 5668SOL    HW322992   2.469   6.332   6.319
 5668SOL    MW422993   2.395   6.289   6.297
 5669SOL     OW22994   1.972   7.383   6.441
 5669SOL    HW222995   2.061   7.375   6.476
 5669SOL    HW322996   1.936   7.295   6.446
 5669SOL    MW422997   1.979   7.370   6.446
 5670SOL     OW22998   3.237   6.775   5.810
 5670SOL    HW222999   3.155   6.811   5.776
 5670SOL    HW323000   3.305   6.818   5.759
 5670SOL    MW423001   3.235   6.785   5.798
 5671SOL     OW23002   2.236   6.910   6.476
 5671SOL    HW223003   2.212   6.963   6.552
 5671SOL    HW323004   2.292   6.968   6.424
 5671SOL    MW423005   2.240   6.925   6.479
 5672SOL     OW23006   2.798   6.554   6.286
 5672SOL    HW223007   2.712   6.541   6.326
 5672SOL    HW323008   2.851   6.481   6.318
 5672SOL    MW423009   2.794   6.543   6.295
 5673SOL     OW23010   2.789   6.916   6.003
 5673SOL    HW223011   2.766   6.978   6.071
 5673SOL    HW323012   2.746   6.834   6.029
 5673SOL    MW423013   2.781   6.912   6.014
 5674SOL     OW23014   3.662   5.917   6.459
 5674SOL    HW223015   3.599   5.897   6.528
 5674SOL    HW323016   3.652   5.846   6.396
 5674SOL    MW423017   3.652   5.904   6.460
 5675SOL     OW23018   2.286   5.889   5.971
 5675SOL    HW223019   2.260   5.851   5.887
 5675SOL    HW323020   2.223   5.959   5.987
 5675SOL    MW423021   2.275   5.892   5.962
 5676SOL     OW23022   2.121   6.850   6.008
 5676SOL    HW223023   2.069   6.918   5.964
 5676SOL    HW323024   2.118   6.776   5.948
 5676SOL    MW423025   2.113   6.849   5.995
 5677SOL     OW23026   3.718   6.086   5.761
 5677SOL    HW223027   3.627   6.088   5.789
 5677SOL    HW323028   3.763   6.148   5.819
 5677SOL    MW423029   3.711   6.094   5.771
 5678SOL     OW23030   3.463   6.689   6.111
 5678SOL    HW223031   3.373   6.689   6.146
 5678SOL    HW323032   3.456   6.735   6.028
 5678SOL    MW423033   3.450   6.695   6.105
 5679SOL     OW23034   3.370   6.667   6.503
 5679SOL    HW223035   3.373   6.601   6.434
 5679SOL    HW323036   3.455   6.710   6.499
 5679SOL    MW423037   3.382   6.663   6.494
 5680SOL     OW23038   2.990   6.270   6.072
 5680SOL    HW223039   3.016   6.294   5.983
 5680SOL    HW323040   2.972   6.177   6.068
 5680SOL    MW423041   2.992   6.262   6.059
 5681SOL     OW23042   3.655   6.890   5.923
 5681SOL    HW223043   3.611   6.931   5.998
 5681SOL    HW323044   3.712   6.958   5.888
 5681SOL    MW423045   3.657   6.904   5.928
 5682SOL     OW23046   2.311   7.306   6.241
 5682SOL    HW223047   2.343   7.394   6.219
 5682SOL    HW323048   2.264   7.278   6.163
 5682SOL    MW423049   2.310   7.314   6.228
 5683SOL     OW23050   3.695   5.668   6.290
 5683SOL    HW223051   3.749   5.619   6.352
 5683SOL    HW323052   3.638   5.602   6.251
 5683SOL    MW423053   3.695   5.652   6.292
 5684SOL     OW23054   2.027   7.366   5.818
 5684SOL    HW223055   2.056   7.456   5.810
 5684SOL    HW323056   1.977   7.349   5.739
 5684SOL    MW423057   2.025   7.374   5.807
 5685SOL     OW23058   2.829   6.299   5.733
 5685SOL    HW223059   2.831   6.246   5.654
 5685SOL    HW323060   2.917   6.336   5.739
 5685SOL    MW423061   2.841   6.298   5.722
 5686SOL     OW23062   3.443   6.225   6.069
 5686SOL    HW223063   3.482   6.225   6.156
 5686SOL    HW323064   3.384   6.301   6.069
 5686SOL    MW423065   3.440   6.236   6.080
 5687SOL     OW23066   3.630   6.111   6.235
 5687SOL    HW223067   3.719   6.080   6.252
 5687SOL    HW323068   3.573   6.051   6.283
 5687SOL    MW423069   3.633   6.099   6.244
 5688SOL     OW23070   2.056   5.825   6.264
 5688SOL    HW223071   2.047   5.765   6.190
 5688SOL    HW323072   1.989   5.796   6.327
 5688SOL    MW423073   2.046   5.812   6.262
 5689SOL     OW23074   2.999   6.918   5.825
 5689SOL    HW223075   2.949   6.920   5.907
 5689SOL    HW323076   2.933   6.936   5.757
 5689SOL    MW423077   2.985   6.920   5.827
 5690SOL     OW23078   2.462   7.336   5.933
 5690SOL    HW223079   2.383   7.294   5.966
 5690SOL    HW323080   2.528   7.319   6.000
 5690SOL    MW423081   2.461   7.328   5.946
 5691SOL     OW23082   2.598   6.751   5.640
 5691SOL    HW223083   2.520   6.697   5.627
 5691SOL    HW323084   2.569   6.824   5.693
 5691SOL    MW423085   2.584   6.753   5.645
 5692SOL     OW23086   3.403   6.941   5.650
 5692SOL    HW223087   3.350   6.990   5.586
 5692SOL    HW323088   3.434   7.007   5.711
 5692SOL    MW423089   3.401   6.955   5.648
 5693SOL     OW23090   2.628   5.830   5.705
 5693SOL    HW223091   2.576   5.750   5.693
 5693SOL    HW323092   2.715   5.807   5.673
 5693SOL    MW423093   2.631   5.816   5.699
 5694SOL     OW23094   1.989   6.470   6.162
 5694SOL    HW223095   2.080   6.485   6.189
 5694SOL    HW323096   1.992   6.391   6.108
 5694SOL    MW423097   2.001   6.462   6.160
 5695SOL     OW23098   1.997   7.082   6.201
 5695SOL    HW223099   1.969   7.121   6.283
 5695SOL    HW323100   2.017   6.991   6.223
 5695SOL    MW423101   1.995   7.074   6.214
 5696SOL     OW23102   2.830   7.125   6.236
 5696SOL    HW223103   2.913   7.079   6.220
 5696SOL    HW323104   2.820   7.124   6.332
 5696SOL    MW423105   2.840   7.118   6.246
 5697SOL     OW23106   2.563   7.182   5.641
 5697SOL    HW223107   2.503   7.251   5.611
 5697SOL    HW323108   2.508   7.124   5.694
 5697SOL    MW423109   2.547   7.184   5.643
 5698SOL     OW23110   3.001   5.827   5.864
 5698SOL    HW223111   2.934   5.803   5.801
 5698SOL    HW323112   3.066   5.876   5.813
 5698SOL    MW423113   3.001   5.829   5.849
 5699SOL     OW23114   2.520   6.544   6.376
 5699SOL    HW223115   2.431   6.535   6.409
 5699SOL    HW323116   2.524   6.634   6.344
 5699SOL    MW423117   2.509   6.555   6.376
 5700SOL     OW23118   3.319   6.127   6.371
 5700SOL    HW223119   3.264   6.048   6.370
 5700SOL    HW323120   3.301   6.168   6.455
 5700SOL    MW423121   3.309   6.122   6.380
 5701SOL     OW23122   2.938   6.331   6.328
 5701SOL    HW223123   2.875   6.263   6.352
 5701SOL    HW323124   2.958   6.312   6.236
 5701SOL    MW423125   2.932   6.318   6.320
 5702SOL     OW23126   2.194   7.226   6.030
 5702SOL    HW223127   2.155   7.273   5.956
 5702SOL    HW323128   2.128   7.161   6.055
 5702SOL    MW423129   2.181   7.224   6.024
 5703SOL     OW23130   2.686   6.635   6.054
 5703SOL    HW223131   2.688   6.609   5.961
 5703SOL    HW323132   2.744   6.572   6.097
 5703SOL    MW423133   2.694   6.624   6.048
 5704SOL     OW23134   3.196   5.879   6.387
 5704SOL    HW223135   3.224   5.811   6.448
 5704SOL    HW323136   3.110   5.850   6.357
 5704SOL    MW423137   3.189   5.866   6.391
 5705SOL     OW23138   2.001   6.813   6.321
 5705SOL    HW223139   2.065   6.845   6.384
 5705SOL    HW323140   2.050   6.749   6.269
 5705SOL    MW423141   2.016   6.809   6.322
 5706SOL     OW23142   3.176   5.983   5.722
 5706SOL    HW223143   3.149   6.049   5.658
 5706SOL    HW323144   3.246   6.026   5.772
 5706SOL    MW423145   3.181   5.996   5.719
 5707SOL     OW23146   2.844   5.688   5.659
 5707SOL    HW223147   2.900   5.680   5.581
 5707SOL    HW323148   2.821   5.598   5.681
 5707SOL    MW423149   2.849   5.675   5.652
 5708SOL     OW23150   3.349   6.539   5.864
 5708SOL    HW223151   3.316   6.628   5.854
 5708SOL    HW323152   3.314   6.510   5.949
 5708SOL    MW423153   3.339   6.548   5.875
 5709SOL     OW23154   2.343   6.577   5.656
 5709SOL    HW223155   2.266   6.590   5.712
 5709SOL    HW323156   2.307   6.541   5.575
 5709SOL    MW423157   2.329   6.573   5.653
 5710SOL     OW23158   2.996   6.550   5.899
 5710SOL    HW223159   2.906   6.571   5.874
 5710SOL    HW323160   3.023   6.623   5.955
 5710SOL    MW423161   2.988   6.562   5.902
 5711SOL     OW23162   2.625   5.666   6.306
 5711SOL    HW223163   2.554   5.727   6.288
 5711SOL    HW323164   2.676   5.663   6.225
 5711SOL    MW423165   2.621   5.672   6.293
 5712SOL     OW23166   2.383   6.906   6.055
 5712SOL    HW223167   2.376   6.938   6.145
 5712SOL    HW323168   2.293   6.890   6.027
 5712SOL    MW423169   2.371   6.908   6.062
 5713SOL     OW23170   2.386   6.190   5.769
 5713SOL    HW223171   2.352   6.246   5.839
 5713SOL    HW323172   2.457   6.140   5.809
 5713SOL    MW423173   2.392   6.191   5.783
 5714SOL     OW23174   3.442   6.076   5.833
 5714SOL    HW223175   3.434   6.147   5.770
 5714SOL    HW323176   3.460   6.120   5.916
 5714SOL    MW423177   3.443   6.090   5.835
 5715SOL     OW23178   2.302   5.731   6.262
 5715SOL    HW223179   2.352   5.774   6.193
 5715SOL    HW323180   2.217   5.775   6.262
 5715SOL    MW423181   2.299   5.744   6.253
 5716SOL     OW23182   3.111   6.338   5.808
 5716SOL    HW223183   3.158   6.356   5.727
 5716SOL    HW323184   3.077   6.422   5.836
 5716SOL    MW423185   3.113   6.352   5.801
 5717SOL     OW23186   2.224   6.516   6.302
 5717SOL    HW223187   2.282   6.572   6.250
 5717SOL    HW323188   2.268   6.431   6.304
 5717SOL    MW423189   2.237   6.513   6.295
 5718SOL     OW23190   3.364   5.868   6.139
 5718SOL    HW223191   3.286   5.818   6.164
 5718SOL    HW323192   3.335   5.959   6.139
 5718SOL    MW423193   3.350   5.872   6.142
 5719SOL     OW23194   2.950   5.830   6.298
 5719SOL    HW223195   2.970   5.905   6.242
 5719SOL    HW323196   2.930   5.869   6.383
 5719SOL    MW423197   2.951   5.846   6.302
 5720SOL     OW23198   1.886   6.242   6.021
 5720SOL    HW223199   1.826   6.214   6.091
 5720SOL    HW323200   1.960   6.182   6.027
 5720SOL    MW423201   1.888   6.231   6.030
 5721SOL     OW23202   3.054   6.973   6.181
 5721SOL    HW223203   3.077   6.924   6.259
 5721SOL    HW323204   3.135   7.015   6.153
 5721SOL    MW423205   3.067   6.973   6.188
 5722SOL     OW23206   2.409   5.726   6.537
 5722SOL    HW223207   2.419   5.635   6.563
 5722SOL    HW323208   2.365   5.722   6.452
 5722SOL    MW423209   2.405   5.714   6.529
 5723SOL     OW23210   3.194   5.640   5.817
 5723SOL    HW223211   3.268   5.684   5.860
 5723SOL    HW323212   3.118   5.694   5.839
 5723SOL    MW423213   3.194   5.652   5.825
 5724SOL     OW23214   3.254   6.415   6.095
 5724SOL    HW223215   3.169   6.385   6.065
 5724SOL    HW323216   3.246   6.422   6.190
 5724SOL    MW423217   3.242   6.413   6.104
 5725SOL     OW23218   2.627   6.081   5.821
 5725SOL    HW223219   2.700   6.130   5.784
 5725SOL    HW323220   2.643   5.990   5.795
 5725SOL    MW423221   2.639   6.076   5.814
 5726SOL     OW23222   2.102   6.590   5.919
 5726SOL    HW223223   2.039   6.606   5.848
 5726SOL    HW323224   2.049   6.553   5.990
 5726SOL    MW423225   2.087   6.587   5.919
 5727SOL     OW23226   2.458   6.944   5.778
 5727SOL    HW223227   2.473   6.920   5.870
 5727SOL    HW323228   2.366   6.922   5.762
 5727SOL    MW423229   2.448   6.937   5.788
 5728SOL     OW23230   2.256   7.333   6.499
 5728SOL    HW223231   2.260   7.244   6.534
 5728SOL    HW323232   2.282   7.324   6.408
 5728SOL    MW423233   2.259   7.321   6.491
 5729SOL     OW23234   2.333   6.056   6.376
 5729SOL    HW223235   2.404   6.004   6.339
 5729SOL    HW323236   2.319   6.021   6.463
 5729SOL    MW423237   2.341   6.045   6.383
 5730SOL     OW23238   2.649   7.149   6.452
 5730SOL    HW223239   2.577   7.086   6.465
 5730SOL    HW323240   2.610   7.234   6.470
 5730SOL    MW423241   2.633   7.152   6.455
 5731SOL     OW23242   2.969   5.997   6.100
 5731SOL    HW223243   2.991   5.934   6.032
 5731SOL    HW323244   2.874   5.989   6.111
 5731SOL    MW423245   2.959   5.988   6.092
 5732SOL     OW23246   2.054   5.687   6.032
 5732SOL    HW223247   2.125   5.708   5.971
 5732SOL    HW323248   2.008   5.615   5.990
 5732SOL    MW423249   2.058   5.681   6.018
 5733SOL     OW23250   3.623   7.061   6.132
 5733SOL    HW223251   3.593   6.994   6.193
 5733SOL    HW323252   3.717   7.067   6.146
 5733SOL    MW423253   3.631   7.053   6.142
 5734SOL     OW23254   3.179   6.738   6.062
 5734SOL    HW223255   3.151   6.824   6.095
 5734SOL    HW323256   3.207   6.754   5.972
 5734SOL    MW423257   3.179   6.752   6.054
 5735SOL     OW23258   2.841   5.658   6.115
 5735SOL    HW223259   2.878   5.717   6.180
 5735SOL    HW323260   2.818   5.714   6.041
 5735SOL    MW423261   2.842   5.673   6.114
 5736SOL     OW23262   3.694   6.540   6.537
 5736SOL    HW223263   3.685   6.572   6.448
 5736SOL    HW323264   3.647   6.456   6.537
 5736SOL    MW423265   3.687   6.533   6.527
 5737SOL     OW23266   3.606   6.471   6.238
 5737SOL    HW223267   3.700   6.460   6.226
 5737SOL    HW323268   3.582   6.543   6.179
 5737SOL    MW423269   3.616   6.479   6.229
 5738SOL     OW23270   2.262   6.349   6.011
 5738SOL    HW223271   2.262   6.444   5.996
 5738SOL    HW323272   2.339   6.333   6.065
 5738SOL    MW423273   2.272   6.360   6.016
 5739SOL     OW23274   2.021   6.080   6.300
 5739SOL    HW223275   2.083   6.087   6.373
 5739SOL    HW323276   2.021   5.987   6.277
 5739SOL    MW423277   2.029   6.069   6.307
 5740SOL     OW23278   1.890   6.652   5.758
 5740SOL    HW223279   1.859   6.717   5.821
 5740SOL    HW323280   1.839   6.574   5.777
 5740SOL    MW423281   1.880   6.649   5.768
 5741SOL     OW23282   3.302   5.664   6.506
 5741SOL    HW223283   3.390   5.673   6.543
 5741SOL    HW323284   3.312   5.605   6.432
 5741SOL    MW423285   3.316   5.658   6.500
 5742SOL     OW23286   3.334   6.403   6.350
 5742SOL    HW223287   3.414   6.418   6.299
 5742SOL    HW323288   3.327   6.308   6.356
 5742SOL    MW423289   3.343   6.392   6.345
 5743SOL     OW23290   3.319   6.272   5.615
 5743SOL    HW223291   3.247   6.248   5.557
 5743SOL    HW323292   3.385   6.309   5.557
 5743SOL    MW423293   3.318   6.274   5.600
 5744SOL     OW23294   2.453   7.004   6.296
 5744SOL    HW223295   2.518   6.937   6.317
 5744SOL    HW323296   2.505   7.081   6.273
 5744SOL    MW423297   2.468   7.006   6.295
 5745SOL     OW23298   2.714   6.169   6.426
 5745SOL    HW223299   2.654   6.187   6.498
 5745SOL    HW323300   2.748   6.081   6.445
 5745SOL    MW423301   2.710   6.159   6.439
 5746SOL     OW23302   2.939   6.752   6.445
 5746SOL    HW223303   3.031   6.733   6.463
 5746SOL    HW323304   2.912   6.682   6.385
 5746SOL    MW423305   2.947   6.740   6.439
 5747SOL     OW23306   2.732   6.572   5.800
 5747SOL    HW223307   2.718   6.484   5.765
 5747SOL    HW323308   2.683   6.629   5.741
 5747SOL    MW423309   2.724   6.567   5.788
 5748SOL     OW23310   3.451   5.778   5.902
 5748SOL    HW223311   3.444   5.782   5.997
 5748SOL    HW323312   3.463   5.869   5.875
 5748SOL    MW423313   3.452   5.791   5.910
 5749SOL     OW23314   2.740   6.341   6.016
 5749SOL    HW223315   2.720   6.327   5.923
 5749SOL    HW323316   2.833   6.320   6.023
 5749SOL    MW423317   2.750   6.336   6.005
 5750SOL     OW23318   3.603   6.797   6.363
 5750SOL    HW223319   3.582   6.743   6.286
 5750SOL    HW323320   3.699   6.795   6.367
 5750SOL    MW423321   3.612   6.790   6.352
 5751SOL     OW23322   2.179   5.731   5.789
 5751SOL    HW223323   2.108   5.786   5.757
 5751SOL    HW323324   2.221   5.697   5.710
 5751SOL    MW423325   2.175   5.733   5.775
 5752SOL     OW23326   1.935   5.830   5.638
 5752SOL    HW223327   1.902   5.909   5.682
 5752SOL    HW323328   1.990   5.863   5.567
 5752SOL    MW423329   1.938   5.844   5.635
 5753SOL     OW23330   1.969   7.087   5.827
 5753SOL    HW223331   1.986   7.171   5.869
 5753SOL    HW323332   2.004   7.096   5.739
 5753SOL    MW423333   1.974   7.100   5.821
 5754SOL     OW23334   3.241   7.176   6.044
 5754SOL    HW223335   3.304   7.166   5.973
 5754SOL    HW323336   3.158   7.196   5.999
 5754SOL    MW423337   3.238   7.177   6.029
 5755SOL     OW23338   5.338   0.771   1.252
 5755SOL    HW223339   5.293   0.838   1.303
 5755SOL    HW323340   5.426   0.807   1.238
 5755SOL    MW423341   5.344   0.784   1.256
 5756SOL     OW23342   4.266   1.022   0.486
 5756SOL    HW223343   4.356   0.997   0.470
 5756SOL    HW323344   4.262   1.115   0.463
 5756SOL    MW423345   4.278   1.031   0.481
 5757SOL     OW23346   5.382   1.725   0.628
 5757SOL    HW223347   5.394   1.671   0.706
 5757SOL    HW323348   5.419   1.673   0.557
 5757SOL    MW423349   5.388   1.710   0.629
 5758SOL     OW23350   4.761   1.610   1.629
 5758SOL    HW223351   4.802   1.646   1.550
 5758SOL    HW323352   4.796   1.521   1.636
 5758SOL    MW423353   4.772   1.603   1.620
 5759SOL     OW23354   5.318   1.165   1.233
 5759SOL    HW223355   5.239   1.130   1.191
 5759SOL    HW323356   5.345   1.237   1.177
 5759SOL    MW423357   5.311   1.170   1.220
 5760SOL     OW23358   4.550   0.478   0.499
 5760SOL    HW223359   4.525   0.566   0.527
 5760SOL    HW323360   4.547   0.481   0.403
 5760SOL    MW423361   4.546   0.490   0.491
 5761SOL     OW23362   3.992   0.506   0.427
 5761SOL    HW223363   4.024   0.594   0.409
 5761SOL    HW323364   3.980   0.504   0.522
 5761SOL    MW423365   3.995   0.518   0.439
 5762SOL     OW23366   4.070   0.919   1.328
 5762SOL    HW223367   4.133   0.866   1.279
 5762SOL    HW323368   4.051   0.993   1.271
 5762SOL    MW423369   4.076   0.921   1.315
 5763SOL     OW23370   4.391   0.261   0.514
 5763SOL    HW223371   4.449   0.337   0.516
 5763SOL    HW323372   4.326   0.282   0.447
 5763SOL    MW423373   4.390   0.273   0.505
 5764SOL     OW23374   4.478   1.188   0.689
 5764SOL    HW223375   4.558   1.191   0.741
 5764SOL    HW323376   4.506   1.155   0.603
 5764SOL    MW423377   4.492   1.184   0.684
 5765SOL     OW23378   4.503   1.529   1.592
 5765SOL    HW223379   4.587   1.555   1.631
 5765SOL    HW323380   4.527   1.473   1.518
 5765SOL    MW423381   4.517   1.525   1.587
 5766SOL     OW23382   4.255   0.692   0.680
 5766SOL    HW223383   4.240   0.612   0.731
 5766SOL    HW323384   4.337   0.727   0.714
 5766SOL    MW423385   4.263   0.684   0.692
 5767SOL     OW23386   4.592   1.378   1.365
 5767SOL    HW223387   4.556   1.444   1.305
 5767SOL    HW323388   4.520   1.316   1.378
 5767SOL    MW423389   4.578   1.378   1.359
 5768SOL     OW23390   4.397   0.518   1.057
 5768SOL    HW223391   4.303   0.514   1.075
 5768SOL    HW323392   4.427   0.427   1.066
 5768SOL    MW423393   4.388   0.506   1.060
 5769SOL     OW23394   4.143   0.932   0.961
 5769SOL    HW223395   4.098   0.939   0.877
 5769SOL    HW323396   4.123   1.015   1.005
 5769SOL    MW423397   4.135   0.944   0.955
 5770SOL     OW23398   3.840   1.778   0.836
 5770SOL    HW223399   3.929   1.770   0.871
 5770SOL    HW323400   3.804   1.690   0.841
 5770SOL    MW423401   3.847   1.765   0.841
 5771SOL     OW23402   4.104   1.305   0.871
 5771SOL    HW223403   4.080   1.358   0.947
 5771SOL    HW323404   4.160   1.363   0.819
 5771SOL    MW423405   4.108   1.320   0.874
 5772SOL     OW23406   4.666   0.949   0.681
 5772SOL    HW223407   4.580   0.936   0.721
 5772SOL    HW323408   4.719   0.876   0.713
 5772SOL    MW423409   4.662   0.938   0.690
 5773SOL     OW23410   4.074   1.601   1.466
 5773SOL    HW223411   3.982   1.577   1.451
 5773SOL    HW323412   4.118   1.518   1.483
 5773SOL    MW423413   4.068   1.586   1.465
 5774SOL     OW23414   4.657   1.311   0.398
 5774SOL    HW223415   4.634   1.373   0.466
 5774SOL    HW323416   4.614   1.229   0.424
 5774SOL    MW423417   4.649   1.307   0.409
 5775SOL     OW23418   5.586   0.481   0.156
 5775SOL    HW223419   5.495   0.483   0.184
 5775SOL    HW323420   5.631   0.543   0.214
 5775SOL    MW423421   5.579   0.489   0.166
 5776SOL     OW23422   5.331   1.084   0.506
 5776SOL    HW223423   5.241   1.084   0.541
 5776SOL    HW323424   5.324   1.130   0.423
 5776SOL    MW423425   5.318   1.090   0.500
 5777SOL     OW23426   5.131   0.719   1.578
 5777SOL    HW223427   5.200   0.657   1.555
 5777SOL    HW323428   5.056   0.693   1.525
 5777SOL    MW423429   5.131   0.706   1.569
 5778SOL     OW23430   3.872   1.599   1.130
 5778SOL    HW223431   3.855   1.545   1.207
 5778SOL    HW323432   3.860   1.689   1.160
 5778SOL    MW423433   3.869   1.603   1.144
 5779SOL     OW23434   4.663   0.530   1.771
 5779SOL    HW223435   4.753   0.531   1.738
 5779SOL    HW323436   4.622   0.455   1.729
 5779SOL    MW423437   4.669   0.520   1.762
 5780SOL     OW23438   5.238   1.062   0.898
 5780SOL    HW223439   5.241   0.996   0.829
 5780SOL    HW323440   5.323   1.105   0.894
 5780SOL    MW423441   5.250   1.058   0.889
 5781SOL     OW23442   4.858   0.665   0.467
 5781SOL    HW223443   4.884   0.689   0.378
 5781SOL    HW323444   4.840   0.572   0.463
 5781SOL    MW423445   4.860   0.657   0.454
 5782SOL     OW23446   4.443   0.334   1.721
 5782SOL    HW223447   4.453   0.260   1.661
 5782SOL    HW323448   4.479   0.303   1.804
 5782SOL    MW423449   4.449   0.320   1.723
 5783SOL     OW23450   4.179   1.701   0.636
 5783SOL    HW223451   4.211   1.789   0.614
 5783SOL    HW323452   4.132   1.673   0.558
 5783SOL    MW423453   4.178   1.709   0.623
 5784SOL     OW23454   4.682   0.016   1.098
 5784SOL    HW223455   4.641   0.094   1.060
 5784SOL    HW323456   4.776   0.034   1.093
 5784SOL    MW423457   4.688   0.028   1.093
 5785SOL     OW23458   5.311   0.620   0.464
 5785SOL    HW223459   5.350   0.620   0.551
 5785SOL    HW323460   5.252   0.696   0.464
 5785SOL    MW423461   5.308   0.631   0.475
 5786SOL     OW23462   4.628   0.987   1.593
 5786SOL    HW223463   4.605   0.967   1.683
 5786SOL    HW323464   4.713   1.031   1.598
 5786SOL    MW423465   4.635   0.990   1.605
 5787SOL     OW23466   4.708   0.124   1.353
 5787SOL    HW223467   4.714   0.086   1.266
 5787SOL    HW323468   4.697   0.218   1.338
 5787SOL    MW423469   4.709   0.132   1.341
 5788SOL     OW23470   4.797   0.613   1.187
 5788SOL    HW223471   4.872   0.642   1.134
 5788SOL    HW323472   4.729   0.678   1.171
 5788SOL    MW423473   4.798   0.625   1.177
 5789SOL     OW23474   5.347   0.581   1.464
 5789SOL    HW223475   5.328   0.490   1.443
 5789SOL    HW323476   5.325   0.630   1.385
 5789SOL    MW423477   5.342   0.574   1.451
 5790SOL     OW23478   5.489   1.675   1.368
 5790SOL    HW223479   5.417   1.637   1.419
 5790SOL    HW323480   5.506   1.760   1.409
 5790SOL    MW423481   5.483   1.680   1.380
 5791SOL     OW23482   4.794   0.319   1.570
 5791SOL    HW223483   4.760   0.358   1.489
 5791SOL    HW323484   4.772   0.227   1.563
 5791SOL    MW423485   4.787   0.312   1.560
 5792SOL     OW23486   5.203   1.133   1.646
 5792SOL    HW223487   5.285   1.174   1.676
 5792SOL    HW323488   5.166   1.095   1.726
 5792SOL    MW423489   5.209   1.134   1.661
 5793SOL     OW23490   5.498   0.506   0.630
 5793SOL    HW223491   5.587   0.475   0.647
 5793SOL    HW323492   5.441   0.446   0.678
 5793SOL    MW423493   5.501   0.494   0.639
 5794SOL     OW23494   3.924   0.220   0.659
 5794SOL    HW223495   3.915   0.160   0.585
 5794SOL    HW323496   3.857   0.191   0.722
 5794SOL    MW423497   3.914   0.207   0.657
 5795SOL     OW23498   3.871   0.393   1.022
 5795SOL    HW223499   3.843   0.484   1.031
 5795SOL    HW323500   3.808   0.354   0.961
 5795SOL    MW423501   3.858   0.399   1.016
 5796SOL     OW23502   4.330   1.731   0.328
 5796SOL    HW223503   4.251   1.689   0.361
 5796SOL    HW323504   4.396   1.714   0.395
 5796SOL    MW423505   4.329   1.723   0.341
 5797SOL     OW23506   5.458   1.251   1.725
 5797SOL    HW223507   5.508   1.177   1.757
 5797SOL    HW323508   5.404   1.278   1.800
 5797SOL    MW423509   5.458   1.245   1.738
 5798SOL     OW23510   5.592   0.886   1.227
 5798SOL    HW223511   5.608   0.924   1.140
 5798SOL    HW323512   5.626   0.952   1.288
 5798SOL    MW423513   5.599   0.899   1.223
 5799SOL     OW23514   5.384   1.595   0.896
 5799SOL    HW223515   5.413   1.662   0.957
 5799SOL    HW323516   5.365   1.519   0.951
 5799SOL    MW423517   5.386   1.595   0.911
 5800SOL     OW23518   3.855   0.668   1.192
 5800SOL    HW223519   3.917   0.698   1.258
 5800SOL    HW323520   3.789   0.737   1.186
 5800SOL    MW423521   3.854   0.681   1.199
 5801SOL     OW23522   3.950   1.777   1.644
 5801SOL    HW223523   3.924   1.845   1.582
 5801SOL    HW323524   3.998   1.714   1.592
 5801SOL    MW423525   3.952   1.777   1.630
 5802SOL     OW23526   4.002   1.096   1.151
 5802SOL    HW223527   4.055   1.171   1.176
 5802SOL    HW323528   3.921   1.134   1.117
 5802SOL    MW423529   3.998   1.111   1.151
 5803SOL     OW23530   4.542   1.000   1.139
 5803SOL    HW223531   4.570   0.909   1.151
 5803SOL    HW323532   4.471   0.994   1.075
 5803SOL    MW423533   4.535   0.988   1.134
 5804SOL     OW23534   3.857   0.865   0.557
 5804SOL    HW223535   3.948   0.880   0.584
 5804SOL    HW323536   3.860   0.786   0.503
 5804SOL    MW423537   3.869   0.857   0.555
 5805SOL     OW23538   4.093   0.573   1.811
 5805SOL    HW223539   4.040   0.653   1.818
 5805SOL    HW323540   4.163   0.585   1.876
 5805SOL    MW423541   4.095   0.586   1.819
 5806SOL     OW23542   4.163   0.647   1.557
 5806SOL    HW223543   4.243   0.697   1.543
 5806SOL    HW323544   4.154   0.641   1.652
 5806SOL    MW423545   4.172   0.653   1.567
 5807SOL     OW23546   4.484   1.797   0.931
 5807SOL    HW223547   4.573   1.812   0.961
 5807SOL    HW323548   4.479   1.844   0.847
 5807SOL    MW423549   4.494   1.805   0.924
 5808SOL     OW23550   3.865   1.477   0.596
 5808SOL    HW223551   3.837   1.516   0.678
 5808SOL    HW323552   3.885   1.386   0.618
 5808SOL    MW423553   3.863   1.469   0.609
 5809SOL     OW23554   4.698   1.520   0.631
 5809SOL    HW223555   4.781   1.474   0.615
 5809SOL    HW323556   4.688   1.519   0.727
 5809SOL    MW423557   4.708   1.513   0.641
 5810SOL     OW23558   5.530   0.665   0.945
 5810SOL    HW223559   5.619   0.695   0.927
 5810SOL    HW323560   5.510   0.605   0.874
 5810SOL    MW423561   5.539   0.662   0.934
 5811SOL     OW23562   5.381   0.844   1.825
 5811SOL    HW223563   5.436   0.768   1.806
 5811SOL    HW323564   5.383   0.852   1.920
 5811SOL    MW423565   5.389   0.835   1.833
 5812SOL     OW23566   4.676   0.406   1.344
 5812SOL    HW223567   4.595   0.447   1.372
 5812SOL    HW323568   4.723   0.474   1.296
 5812SOL    MW423569   4.671   0.421   1.342
 5813SOL     OW23570   4.936   0.744   0.967
 5813SOL    HW223571   4.949   0.838   0.977
 5813SOL    HW323572   4.897   0.734   0.881
 5813SOL    MW423573   4.932   0.755   0.957
 5814SOL     OW23574   4.388   0.939   0.771
 5814SOL    HW223575   4.299   0.930   0.804
 5814SOL    HW323576   4.392   1.029   0.739
 5814SOL    MW423577   4.377   0.950   0.771
 5815SOL     OW23578   5.187   0.522   0.766
 5815SOL    HW223579   5.132   0.443   0.765
 5815SOL    HW323580   5.169   0.563   0.850
 5815SOL    MW423581   5.177   0.517   0.775
 5816SOL     OW23582   4.158   0.209   1.583
 5816SOL    HW223583   4.079   0.227   1.635
 5816SOL    HW323584   4.153   0.271   1.510
 5816SOL    MW423585   4.148   0.219   1.580
 5817SOL     OW23586   4.806   0.726   0.723
 5817SOL    HW223587   4.743   0.658   0.747
 5817SOL    HW323588   4.826   0.707   0.631
 5817SOL    MW423589   4.800   0.713   0.715
 5818SOL     OW23590   4.062   1.621   0.425
 5818SOL    HW223591   4.023   1.668   0.351
 5818SOL    HW323592   3.996   1.556   0.450
 5818SOL    MW423593   4.049   1.619   0.419
 5819SOL     OW23594   4.554   1.030   0.449
 5819SOL    HW223595   4.556   1.004   0.356
 5819SOL    HW323596   4.612   0.967   0.492
 5819SOL    MW423597   4.562   1.019   0.443
 5820SOL     OW23598   5.107   1.590   1.221
 5820SOL    HW223599   5.032   1.636   1.259
 5820SOL    HW323600   5.089   1.497   1.238
 5820SOL    MW423601   5.096   1.584   1.229
 5821SOL     OW23602   5.111   1.798   0.651
 5821SOL    HW223603   5.054   1.751   0.590
 5821SOL    HW323604   5.197   1.759   0.638
 5821SOL    MW423605   5.114   1.789   0.641
 5822SOL     OW23606   3.869   1.208   0.716
 5822SOL    HW223607   3.933   1.240   0.779
 5822SOL    HW323608   3.918   1.144   0.664
 5822SOL    MW423609   3.884   1.204   0.717
 5823SOL     OW23610   4.369   1.284   1.698
 5823SOL    HW223611   4.417   1.367   1.685
 5823SOL    HW323612   4.426   1.232   1.754
 5823SOL    MW423613   4.383   1.288   1.704
 5824SOL     OW23614   3.945   1.526   1.838
 5824SOL    HW223615   4.001   1.450   1.853
 5824SOL    HW323616   3.894   1.504   1.760
 5824SOL    MW423617   3.945   1.513   1.829
 5825SOL     OW23618   5.217   0.934   0.259
 5825SOL    HW223619   5.184   1.023   0.249
 5825SOL    HW323620   5.182   0.905   0.344
 5825SOL    MW423621   5.207   0.943   0.270
 5826SOL     OW23622   4.830   1.363   1.447
 5826SOL    HW223623   4.741   1.369   1.415
 5826SOL    HW323624   4.874   1.442   1.415
 5826SOL    MW423625   4.825   1.373   1.439
 5827SOL     OW23626   4.123   0.031   1.789
 5827SOL    HW223627   4.051  -0.004   1.737
 5827SOL    HW323628   4.181   0.072   1.724
 5827SOL    MW423629   4.121   0.032   1.774
 5828SOL     OW23630   4.147   1.521   1.088
 5828SOL    HW223631   4.192   1.583   1.145
 5828SOL    HW323632   4.054   1.540   1.101
 5828SOL    MW423633   4.140   1.531   1.095
 5829SOL     OW23634   5.587   1.050   1.442
 5829SOL    HW223635   5.502   1.063   1.401
 5829SOL    HW323636   5.567   1.014   1.529
 5829SOL    MW423637   5.574   1.046   1.447
 5830SOL     OW23638   4.569   1.589   1.196
 5830SOL    HW223639   4.593   1.578   1.105
 5830SOL    HW323640   4.492   1.646   1.194
 5830SOL    MW423641   4.561   1.594   1.185
 5831SOL     OW23642   4.864   0.945   0.294
 5831SOL    HW223643   4.774   0.966   0.269
 5831SOL    HW323644   4.891   1.018   0.350
 5831SOL    MW423645   4.856   0.957   0.297
 5832SOL     OW23646   4.364   1.294   0.986
 5832SOL    HW223647   4.357   1.273   1.080
 5832SOL    HW323648   4.282   1.262   0.949
 5832SOL    MW423649   4.352   1.288   0.993
 5833SOL     OW23650   5.228   0.304   1.388
 5833SOL    HW223651   5.175   0.306   1.468
 5833SOL    HW323652   5.213   0.217   1.351
 5833SOL    MW423653   5.220   0.294   1.393
 5834SOL     OW23654   3.810   1.386   1.649
 5834SOL    HW223655   3.854   1.319   1.595
 5834SOL    HW323656   3.725   1.348   1.669
 5834SOL    MW423657   3.805   1.372   1.645
 5835SOL     OW23658   4.493   0.061   0.701
 5835SOL    HW223659   4.422   0.122   0.683
 5835SOL    HW323660   4.544   0.058   0.620
 5835SOL    MW423661   4.489   0.067   0.688
 5836SOL     OW23662   4.251   1.301   0.450
 5836SOL    HW223663   4.244   1.333   0.540
 5836SOL    HW323664   4.161   1.285   0.422
 5836SOL    MW423665   4.239   1.303   0.457
 5837SOL     OW23666   4.846   1.694   1.359
 5837SOL    HW223667   4.766   1.679   1.309
 5837SOL    HW323668   4.853   1.789   1.366
 5837SOL    MW423669   4.837   1.705   1.353
 5838SOL     OW23670   4.960   1.659   0.849
 5838SOL    HW223671   5.007   1.732   0.808
 5838SOL    HW323672   4.881   1.698   0.885
 5838SOL    MW423673   4.955   1.674   0.848
 5839SOL     OW23674   5.368   1.754   1.124
 5839SOL    HW223675   5.411   1.724   1.204
 5839SOL    HW323676   5.287   1.702   1.121
 5839SOL    MW423677   5.363   1.743   1.134
 5840SOL     OW23678   4.453   0.718   1.831
 5840SOL    HW223679   4.523   0.660   1.803
 5840SOL    HW323680   4.396   0.663   1.886
 5840SOL    MW423681   4.455   0.705   1.835
 5841SOL     OW23682   5.240   0.930   1.464
 5841SOL    HW223683   5.245   0.983   1.544
 5841SOL    HW323684   5.202   0.847   1.492
 5841SOL    MW423685   5.236   0.925   1.479
 5842SOL     OW23686   4.880   0.065   1.710
 5842SOL    HW223687   4.875  -0.028   1.691
 5842SOL    HW323688   4.963   0.076   1.756
 5842SOL    MW423689   4.888   0.054   1.714
 5843SOL     OW23690   5.350   1.336   0.986
 5843SOL    HW223691   5.385   1.318   0.899
 5843SOL    HW323692   5.255   1.337   0.973
 5843SOL    MW423693   5.342   1.333   0.973
 5844SOL     OW23694   4.779   0.984   1.355
 5844SOL    HW223695   4.822   1.019   1.433
 5844SOL    HW323696   4.762   1.061   1.301
 5844SOL    MW423697   4.782   0.999   1.358
 5845SOL     OW23698   4.170   0.126   0.657
 5845SOL    HW223699   4.220   0.169   0.588
 5845SOL    HW323700   4.085   0.170   0.657
 5845SOL    MW423701   4.167   0.139   0.648
 5846SOL     OW23702   3.929   1.188   1.517
 5846SOL    HW223703   3.957   1.141   1.595
 5846SOL    HW323704   3.850   1.143   1.488
 5846SOL    MW423705   3.922   1.177   1.523
 5847SOL     OW23706   4.437   0.515   1.484
 5847SOL    HW223707   4.409   0.603   1.508
 5847SOL    HW323708   4.406   0.459   1.555
 5847SOL    MW423709   4.429   0.518   1.496
 5848SOL     OW23710   4.092   0.911   0.697
 5848SOL    HW223711   4.150   0.967   0.645
 5848SOL    HW323712   4.136   0.826   0.699
 5848SOL    MW423713   4.105   0.908   0.690
 5849SOL     OW23714   5.232   0.263   0.534
 5849SOL    HW223715   5.154   0.213   0.559
 5849SOL    HW323716   5.203   0.354   0.534
 5849SOL    MW423717   5.218   0.267   0.537
 5850SOL     OW23718   4.818   0.225   0.693
 5850SOL    HW223719   4.838   0.300   0.637
 5850SOL    HW323720   4.798   0.264   0.778
 5850SOL    MW423721   4.819   0.241   0.697
 5851SOL     OW23722   5.578   0.998   1.712
 5851SOL    HW223723   5.491   0.978   1.748
 5851SOL    HW323724   5.632   0.924   1.737
 5851SOL    MW423725   5.573   0.987   1.720
 5852SOL     OW23726   3.799   1.511   0.869
 5852SOL    HW223727   3.831   1.515   0.960
 5852SOL    HW323728   3.704   1.519   0.877
 5852SOL    MW423729   3.791   1.514   0.882
 5853SOL     OW23730   3.754   0.637   0.416
 5853SOL    HW223731   3.694   0.609   0.486
 5853SOL    HW323732   3.828   0.577   0.422
 5853SOL    MW423733   3.756   0.626   0.425
 5854SOL     OW23734   5.322   1.849   1.850
 5854SOL    HW223735   5.367   1.773   1.815
 5854SOL    HW323736   5.360   1.862   1.937
 5854SOL    MW423737   5.332   1.842   1.856
 5855SOL     OW23738   4.922   1.368   0.576
 5855SOL    HW223739   4.945   1.319   0.654
 5855SOL    HW323740   5.003   1.410   0.548
 5855SOL    MW423741   4.935   1.368   0.583
 5856SOL     OW23742   4.180   0.376   1.305
 5856SOL    HW223743   4.213   0.457   1.345
 5856SOL    HW323744   4.153   0.402   1.217
 5856SOL    MW423745   4.179   0.390   1.299
 5857SOL     OW23746   4.134   0.343   1.041
 5857SOL    HW223747   4.164   0.257   1.012
 5857SOL    HW323748   4.039   0.336   1.044
 5857SOL    MW423749   4.126   0.332   1.039
 5858SOL     OW23750   4.963   0.552   1.732
 5858SOL    HW223751   5.015   0.487   1.685
 5858SOL    HW323752   4.921   0.603   1.662
 5858SOL    MW423753   4.964   0.549   1.715
 5859SOL     OW23754   5.062   0.347   1.593
 5859SOL    HW223755   4.969   0.331   1.580
 5859SOL    HW323756   5.088   0.285   1.661
 5859SOL    MW423757   5.052   0.337   1.600
 5860SOL     OW23758   4.277   0.121   0.932
 5860SOL    HW223759   4.287   0.030   0.958
 5860SOL    HW323760   4.233   0.117   0.847
 5860SOL    MW423761   4.273   0.109   0.924
 5861SOL     OW23762   4.371   1.736   1.478
 5861SOL    HW223763   4.288   1.721   1.523
 5861SOL    HW323764   4.430   1.669   1.513
 5861SOL    MW423765   4.369   1.726   1.488
 5862SOL     OW23766   5.428   0.443   1.103
 5862SOL    HW223767   5.361   0.476   1.163
 5862SOL    HW323768   5.471   0.521   1.069
 5862SOL    MW423769   5.426   0.458   1.107
 5863SOL     OW23770   5.606   1.163   1.073
 5863SOL    HW223771   5.599   1.103   0.998
 5863SOL    HW323772   5.532   1.223   1.062
 5863SOL    MW423773   5.596   1.163   1.062
 5864SOL     OW23774   4.988   1.025   0.991
 5864SOL    HW223775   5.002   0.997   1.082
 5864SOL    HW323776   5.074   1.056   0.963
 5864SOL    MW423777   5.001   1.026   1.000
 5865SOL     OW23778   5.071   0.520   1.270
 5865SOL    HW223779   5.092   0.521   1.177
 5865SOL    HW323780   5.116   0.442   1.303
 5865SOL    MW423781   5.078   0.510   1.262
 5866SOL     OW23782   5.564   0.651   1.812
 5866SOL    HW223783   5.601   0.596   1.881
 5866SOL    HW323784   5.589   0.608   1.730
 5866SOL    MW423785   5.571   0.639   1.811
 5867SOL     OW23786   5.111   0.949   1.863
 5867SOL    HW223787   5.177   0.897   1.817
 5867SOL    HW323788   5.131   0.936   1.956
 5867SOL    MW423789   5.122   0.940   1.870
 5868SOL     OW23790   5.122   0.810   0.490
 5868SOL    HW223791   5.037   0.780   0.460
 5868SOL    HW323792   5.114   0.817   0.585
 5868SOL    MW423793   5.110   0.808   0.499
 5869SOL     OW23794   4.198   1.273   1.221
 5869SOL    HW223795   4.210   1.300   1.312
 5869SOL    HW323796   4.179   1.354   1.174
 5869SOL    MW423797   4.197   1.288   1.226
 5870SOL     OW23798   4.482   0.253   1.044
 5870SOL    HW223799   4.455   0.255   1.135
 5870SOL    HW323800   4.412   0.205   0.999
 5870SOL    MW423801   4.470   0.249   1.051
 5871SOL     OW23802   4.336   1.745   1.206
 5871SOL    HW223803   4.388   1.822   1.183
 5871SOL    HW323804   4.345   1.737   1.301
 5871SOL    MW423805   4.345   1.752   1.217
 5872SOL     OW23806   5.238   1.330   1.438
 5872SOL    HW223807   5.223   1.259   1.501
 5872SOL    HW323808   5.284   1.288   1.366
 5872SOL    MW423809   5.244   1.314   1.438
 5873SOL     OW23810   4.312   1.061   1.555
 5873SOL    HW223811   4.349   1.066   1.467
 5873SOL    HW323812   4.351   1.134   1.602
 5873SOL    MW423813   4.322   1.071   1.550
 5874SOL     OW23814   4.492   1.104   1.367
 5874SOL    HW223815   4.551   1.050   1.420
 5874SOL    HW323816   4.507   1.076   1.277
 5874SOL    MW423817   4.502   1.093   1.363
 5875SOL     OW23818   5.303   1.593   1.539
 5875SOL    HW223819   5.345   1.578   1.624
 5875SOL    HW323820   5.294   1.506   1.501
 5875SOL    MW423821   5.307   1.581   1.546
 5876SOL     OW23822   4.963   0.072   1.130
 5876SOL    HW223823   5.018   0.081   1.052
 5876SOL    HW323824   5.018   0.106   1.201
 5876SOL    MW423825   4.977   0.077   1.129
 5877SOL     OW23826   4.124   1.728   0.894
 5877SOL    HW223827   4.128   1.639   0.929
 5877SOL    HW323828   4.150   1.719   0.803
 5877SOL    MW423829   4.127   1.716   0.886
 5878SOL     OW23830   4.741   1.206   1.137
 5878SOL    HW223831   4.673   1.140   1.153
 5878SOL    HW323832   4.759   1.200   1.044
 5878SOL    MW423833   4.734   1.197   1.128
 5879SOL     OW23834   3.830   1.481   1.388
 5879SOL    HW223835   3.820   1.439   1.474
 5879SOL    HW323836   3.751   1.534   1.378
 5879SOL    MW423837   3.819   1.482   1.399
 5880SOL     OW23838   4.734   0.345   0.958
 5880SOL    HW223839   4.664   0.297   1.003
 5880SOL    HW323840   4.766   0.408   1.022
 5880SOL    MW423841   4.729   0.347   0.972
 5881SOL     OW23842   4.385   0.781   1.578
 5881SOL    HW223843   4.378   0.876   1.566
 5881SOL    HW323844   4.394   0.770   1.673
 5881SOL    MW423845   4.386   0.793   1.588
 5882SOL     OW23846   4.106   1.296   1.836
 5882SOL    HW223847   4.178   1.298   1.773
 5882SOL    HW323848   4.076   1.205   1.835
 5882SOL    MW423849   4.111   1.285   1.828
 5883SOL     OW23850   5.390   1.589   1.787
 5883SOL    HW223851   5.363   1.586   1.878
 5883SOL    HW323852   5.486   1.593   1.790
 5883SOL    MW423853   5.400   1.589   1.799
 5884SOL     OW23854   4.201   0.451   0.771
 5884SOL    HW223855   4.272   0.399   0.734
 5884SOL    HW323856   4.187   0.416   0.858
 5884SOL    MW423857   4.209   0.440   0.778
 5885SOL     OW23858   3.756   1.786   1.843
 5885SOL    HW223859   3.806   1.764   1.765
 5885SOL    HW323860   3.764   1.881   1.851
 5885SOL    MW423861   3.764   1.795   1.834
 5886SOL     OW23862   4.517   1.544   0.847
 5886SOL    HW223863   4.445   1.481   0.860
 5886SOL    HW323864   4.478   1.629   0.865
 5886SOL    MW423865   4.501   1.547   0.850
 5887SOL     OW23866   3.753   0.549   1.570
 5887SOL    HW223867   3.817   0.615   1.545
 5887SOL    HW323868   3.672   0.576   1.527
 5887SOL    MW423869   3.751   0.561   1.562
 5888SOL     OW23870   5.491   1.456   0.527
 5888SOL    HW223871   5.461   1.389   0.588
 5888SOL    HW323872   5.585   1.462   0.541
 5888SOL    MW423873   5.499   1.448   0.537
 5889SOL     OW23874   5.047   1.133   0.457
 5889SOL    HW223875   5.019   1.219   0.490
 5889SOL    HW323876   5.075   1.149   0.367
 5889SOL    MW423877   5.047   1.147   0.449
 5890SOL     OW23878   4.709   0.053   0.510
 5890SOL    HW223879   4.746   0.112   0.575
 5890SOL    HW323880   4.686   0.109   0.436
 5890SOL    MW423881   4.710   0.068   0.509
 5891SOL     OW23882   5.562   0.935   0.932
 5891SOL    HW223883   5.553   0.967   0.843
 5891SOL    HW323884   5.515   0.851   0.932
 5891SOL    MW423885   5.555   0.928   0.922
 5892SOL     OW23886   3.938   0.775   1.511
 5892SOL    HW223887   3.959   0.844   1.449
 5892SOL    HW323888   4.018   0.722   1.516
 5892SOL    MW423889   3.951   0.776   1.505
 5893SOL     OW23890   5.474   0.866   0.633
 5893SOL    HW223891   5.568   0.855   0.621
 5893SOL    HW323892   5.450   0.938   0.574
 5893SOL    MW423893   5.484   0.874   0.624
 5894SOL     OW23894   3.923   0.790   1.778
 5894SOL    HW223895   3.849   0.734   1.804
 5894SOL    HW323896   3.918   0.793   1.683
 5894SOL    MW423897   3.912   0.783   1.768
 5895SOL     OW23898   4.089   0.077   1.228
 5895SOL    HW223899   4.132   0.161   1.248
 5895SOL    HW323900   4.162   0.015   1.221
 5895SOL    MW423901   4.104   0.080   1.229
 5896SOL     OW23902   4.130   0.744   0.406
 5896SOL    HW223903   4.130   0.839   0.391
 5896SOL    HW323904   4.207   0.728   0.460
 5896SOL    MW423905   4.140   0.755   0.411
 5897SOL     OW23906   4.906   0.603   1.470
 5897SOL    HW223907   4.942   0.576   1.386
 5897SOL    HW323908   4.819   0.637   1.449
 5897SOL    MW423909   4.900   0.604   1.457
 5898SOL     OW23910   3.889   0.475   0.695
 5898SOL    HW223911   3.951   0.482   0.768
 5898SOL    HW323912   3.889   0.382   0.672
 5898SOL    MW423913   3.897   0.464   0.702
 5899SOL     OW23914   4.571   0.736   1.179
 5899SOL    HW223915   4.529   0.654   1.155
 5899SOL    HW323916   4.572   0.735   1.275
 5899SOL    MW423917   4.564   0.725   1.188
 5900SOL     OW23918   5.242   1.869   1.578
 5900SOL    HW223919   5.245   1.775   1.561
 5900SOL    HW323920   5.265   1.877   1.670
 5900SOL    MW423921   5.245   1.857   1.588
 5901SOL     OW23922   4.375   0.206   1.284
 5901SOL    HW223923   4.306   0.269   1.305
 5901SOL    HW323924   4.402   0.170   1.369
 5901SOL    MW423925   4.369   0.209   1.297
 5902SOL     OW23926   5.202   0.798   0.745
 5902SOL    HW223927   5.282   0.813   0.694
 5902SOL    HW323928   5.195   0.703   0.751
 5902SOL    MW423929   5.211   0.787   0.740
 5903SOL     OW23930   4.652   0.724   1.442
 5903SOL    HW223931   4.721   0.791   1.439
 5903SOL    HW323932   4.585   0.762   1.498
 5903SOL    MW423933   4.653   0.737   1.449
 5904SOL     OW23934   4.070   1.024   1.690
 5904SOL    HW223935   4.024   0.940   1.692
 5904SOL    HW323936   4.127   1.018   1.614
 5904SOL    MW423937   4.072   1.012   1.682
 5905SOL     OW23938   4.321   1.399   0.691
 5905SOL    HW223939   4.386   1.332   0.712
 5905SOL    HW323940   4.373   1.476   0.668
 5905SOL    MW423941   4.336   1.401   0.690
 5906SOL     OW23942   4.582   0.564   0.821
 5906SOL    HW223943   4.522   0.582   0.893
 5906SOL    HW323944   4.616   0.476   0.840
 5906SOL    MW423945   4.578   0.554   0.834
 5907SOL     OW23946   4.807   1.147   0.840
 5907SOL    HW223947   4.899   1.128   0.858
 5907SOL    HW323948   4.780   1.077   0.780
 5907SOL    MW423949   4.815   1.135   0.834
 5908SOL     OW23950   4.600   0.967   0.195
 5908SOL    HW223951   4.586   0.879   0.160
 5908SOL    HW323952   4.551   1.024   0.136
 5908SOL    MW423953   4.592   0.962   0.183
 5909SOL     OW23954   5.081   1.385   0.936
 5909SOL    HW223955   5.054   1.469   0.901
 5909SOL    HW323956   5.041   1.380   1.023
 5909SOL    MW423957   5.074   1.394   0.942
 5910SOL     OW23958   5.000   1.333   1.204
 5910SOL    HW223959   5.011   1.300   1.293
 5910SOL    HW323960   4.919   1.292   1.173
 5910SOL    MW423961   4.990   1.325   1.210
 5911SOL     OW23962   4.013   0.691   0.974
 5911SOL    HW223963   3.963   0.690   1.055
 5911SOL    HW323964   4.033   0.783   0.958
 5911SOL    MW423965   4.009   0.703   0.982
 5912SOL     OW23966   5.080   1.455   1.736
 5912SOL    HW223967   5.080   1.549   1.752
 5912SOL    HW323968   5.125   1.445   1.652
 5912SOL    MW423969   5.086   1.465   1.727
 5913SOL     OW23970   4.608   0.736   0.411
 5913SOL    HW223971   4.588   0.722   0.318
 5913SOL    HW323972   4.701   0.715   0.418
 5913SOL    MW423973   4.618   0.731   0.400
 5914SOL     OW23974   3.935   0.359   1.715
 5914SOL    HW223975   3.892   0.418   1.652
 5914SOL    HW323976   4.003   0.414   1.755
 5914SOL    MW423977   3.939   0.374   1.712
 5915SOL     OW23978   5.047   0.979   1.260
 5915SOL    HW223979   5.110   0.976   1.333
 5915SOL    HW323980   4.963   0.997   1.302
 5915SOL    MW423981   5.043   0.981   1.275
 5916SOL     OW23982   4.591   1.694   0.449
 5916SOL    HW223983   4.649   1.765   0.476
 5916SOL    HW323984   4.614   1.622   0.507
 5916SOL    MW423985   4.602   1.694   0.460
 5917SOL     OW23986   3.834  -0.001   1.138
 5917SOL    HW223987   3.825   0.000   1.043
 5917SOL    HW323988   3.928   0.011   1.153
 5917SOL    MW423989   3.846   0.002   1.129
 5918SOL     OW23990   5.471   1.192   0.758
 5918SOL    HW223991   5.450   1.138   0.681
 5918SOL    HW323992   5.567   1.190   0.762
 5918SOL    MW423993   5.480   1.185   0.747
 5919SOL     OW23994   4.163   1.337   1.501
 5919SOL    HW223995   4.084   1.287   1.524
 5919SOL    HW323996   4.233   1.296   1.551
 5919SOL    MW423997   4.161   1.325   1.511
 5920SOL     OW23998   5.171   0.623   1.020
 5920SOL    HW223999   5.094   0.669   0.986
 5920SOL    HW324000   5.228   0.692   1.054
 5920SOL    MW424001   5.168   0.638   1.020
 5921SOL     OW24002   3.837   1.482   0.222
 5921SOL    HW224003   3.854   1.566   0.264
 5921SOL    HW324004   3.872   1.491   0.134
 5921SOL    MW424005   3.842   1.495   0.216
 5922SOL     OW24006   5.109   1.571   0.439
 5922SOL    HW224007   5.172   1.561   0.368
 5922SOL    HW324008   5.026   1.591   0.394
 5922SOL    MW424009   5.106   1.572   0.424
 5923SOL     OW24010   5.472   0.839   2.125
 5923SOL    HW224011   5.513   0.781   2.190
 5923SOL    HW324012   5.379   0.831   2.142
 5923SOL    MW424013   5.466   0.831   2.135
 5924SOL     OW24014   5.338   0.771   3.120
 5924SOL    HW224015   5.293   0.838   3.171
 5924SOL    HW324016   5.426   0.807   3.106
 5924SOL    MW424017   5.344   0.784   3.124
 5925SOL     OW24018   4.266   1.022   2.354
 5925SOL    HW224019   4.356   0.997   2.338
 5925SOL    HW324020   4.262   1.115   2.331
 5925SOL    MW424021   4.278   1.031   2.349
 5926SOL     OW24022   5.382   1.725   2.496
 5926SOL    HW224023   5.394   1.671   2.574
 5926SOL    HW324024   5.419   1.673   2.425
 5926SOL    MW424025   5.388   1.710   2.497
 5927SOL     OW24026   4.761   1.610   3.497
 5927SOL    HW224027   4.802   1.646   3.418
 5927SOL    HW324028   4.796   1.521   3.504
 5927SOL    MW424029   4.772   1.603   3.488
 5928SOL     OW24030   5.318   1.165   3.101
 5928SOL    HW224031   5.239   1.130   3.059
 5928SOL    HW324032   5.345   1.237   3.045
 5928SOL    MW424033   5.311   1.170   3.088
 5929SOL     OW24034   4.550   0.478   2.367
 5929SOL    HW224035   4.525   0.566   2.395
 5929SOL    HW324036   4.547   0.481   2.271
 5929SOL    MW424037   4.546   0.490   2.359
 5930SOL     OW24038   3.992   0.506   2.295
 5930SOL    HW224039   4.024   0.594   2.277
 5930SOL    HW324040   3.980   0.504   2.390
 5930SOL    MW424041   3.995   0.518   2.307
 5931SOL     OW24042   4.070   0.919   3.196
 5931SOL    HW224043   4.133   0.866   3.147
 5931SOL    HW324044   4.051   0.993   3.139
 5931SOL    MW424045   4.076   0.921   3.183
 5932SOL     OW24046   4.391   0.261   2.382
 5932SOL    HW224047   4.449   0.337   2.384
 5932SOL    HW324048   4.326   0.282   2.315
 5932SOL    MW424049   4.390   0.273   2.373
 5933SOL     OW24050   4.478   1.188   2.557
 5933SOL    HW224051   4.558   1.191   2.609
 5933SOL    HW324052   4.506   1.155   2.471
 5933SOL    MW424053   4.492   1.184   2.552
 5934SOL     OW24054   4.503   1.529   3.460
 5934SOL    HW224055   4.587   1.555   3.499
 5934SOL    HW324056   4.527   1.473   3.386
 5934SOL    MW424057   4.517   1.525   3.455
 5935SOL     OW24058   4.255   0.692   2.548
 5935SOL    HW224059   4.240   0.612   2.599
 5935SOL    HW324060   4.337   0.727   2.582
 5935SOL    MW424061   4.263   0.684   2.560
 5936SOL     OW24062   4.592   1.378   3.233
 5936SOL    HW224063   4.556   1.444   3.173
 5936SOL    HW324064   4.520   1.316   3.246
 5936SOL    MW424065   4.578   1.378   3.227
 5937SOL     OW24066   4.397   0.518   2.925
 5937SOL    HW224067   4.303   0.514   2.943
 5937SOL    HW324068   4.427   0.427   2.934
 5937SOL    MW424069   4.388   0.506   2.928
 5938SOL     OW24070   4.143   0.932   2.829
 5938SOL    HW224071   4.098   0.939   2.745
 5938SOL    HW324072   4.123   1.015   2.873
 5938SOL    MW424073   4.135   0.944   2.823
 5939SOL     OW24074   3.840   1.778   2.704
 5939SOL    HW224075   3.929   1.770   2.739
 5939SOL    HW324076   3.804   1.690   2.709
 5939SOL    MW424077   3.847   1.765   2.709
 5940SOL     OW24078   5.105   1.170   2.073
 5940SOL    HW224079   5.023   1.206   2.039
 5940SOL    HW324080   5.173   1.213   2.022
 5940SOL    MW424081   5.103   1.180   2.061
 5941SOL     OW24082   4.104   1.305   2.739
 5941SOL    HW224083   4.080   1.358   2.815
 5941SOL    HW324084   4.160   1.363   2.687
 5941SOL    MW424085   4.108   1.320   2.742
 5942SOL     OW24086   4.666   0.949   2.549
 5942SOL    HW224087   4.580   0.936   2.589
 5942SOL    HW324088   4.719   0.876   2.581
 5942SOL    MW424089   4.662   0.938   2.558
 5943SOL     OW24090   4.074   1.601   3.334
 5943SOL    HW224091   3.982   1.577   3.319
 5943SOL    HW324092   4.118   1.518   3.351
 5943SOL    MW424093   4.068   1.586   3.333
 5944SOL     OW24094   4.657   1.311   2.266
 5944SOL    HW224095   4.634   1.373   2.334
 5944SOL    HW324096   4.614   1.229   2.292
 5944SOL    MW424097   4.649   1.307   2.277
 5945SOL     OW24098   4.154   0.284   2.234
 5945SOL    HW224099   4.128   0.246   2.150
 5945SOL    HW324100   4.091   0.354   2.250
 5945SOL    MW424101   4.143   0.287   2.225
 5946SOL     OW24102   3.989   1.245   2.271
 5946SOL    HW224103   3.937   1.313   2.227
 5946SOL    HW324104   3.986   1.171   2.211
 5946SOL    MW424105   3.981   1.244   2.258
 5947SOL     OW24106   4.651   1.708   2.049
 5947SOL    HW224107   4.606   1.724   2.132
 5947SOL    HW324108   4.582   1.673   1.991
 5947SOL    MW424109   4.637   1.705   2.051
 5948SOL     OW24110   5.586   0.481   2.024
 5948SOL    HW224111   5.495   0.483   2.052
 5948SOL    HW324112   5.631   0.543   2.082
 5948SOL    MW424113   5.579   0.489   2.034
 5949SOL     OW24114   5.331   1.084   2.374
 5949SOL    HW224115   5.241   1.084   2.409
 5949SOL    HW324116   5.324   1.130   2.291
 5949SOL    MW424117   5.318   1.090   2.368
 5950SOL     OW24118   5.131   0.719   3.446
 5950SOL    HW224119   5.200   0.657   3.423
 5950SOL    HW324120   5.056   0.693   3.393
 5950SOL    MW424121   5.131   0.706   3.437
 5951SOL     OW24122   3.872   1.599   2.998
 5951SOL    HW224123   3.855   1.545   3.075
 5951SOL    HW324124   3.860   1.689   3.028
 5951SOL    MW424125   3.869   1.603   3.012
 5952SOL     OW24126   4.867   1.106   3.438
 5952SOL    HW224127   4.852   1.199   3.423
 5952SOL    HW324128   4.962   1.096   3.438
 5952SOL    MW424129   4.876   1.116   3.435
 5953SOL     OW24130   4.663   0.530   3.639
 5953SOL    HW224131   4.753   0.531   3.606
 5953SOL    HW324132   4.622   0.455   3.597
 5953SOL    MW424133   4.669   0.520   3.630
 5954SOL     OW24134   5.238   1.062   2.766
 5954SOL    HW224135   5.241   0.996   2.697
 5954SOL    HW324136   5.323   1.105   2.762
 5954SOL    MW424137   5.250   1.058   2.757
 5955SOL     OW24138   4.858   0.665   2.335
 5955SOL    HW224139   4.884   0.689   2.246
 5955SOL    HW324140   4.840   0.572   2.331
 5955SOL    MW424141   4.860   0.657   2.322
 5956SOL     OW24142   5.523   1.285   2.186
 5956SOL    HW224143   5.479   1.326   2.261
 5956SOL    HW324144   5.580   1.353   2.151
 5956SOL    MW424145   5.525   1.299   2.191
 5957SOL     OW24146   4.443   0.334   3.589
 5957SOL    HW224147   4.453   0.260   3.529
 5957SOL    HW324148   4.479   0.303   3.672
 5957SOL    MW424149   4.449   0.320   3.591
 5958SOL     OW24150   4.179   1.701   2.504
 5958SOL    HW224151   4.211   1.789   2.482
 5958SOL    HW324152   4.132   1.673   2.426
 5958SOL    MW424153   4.178   1.709   2.491
 5959SOL     OW24154   3.895   1.761   2.081
 5959SOL    HW224155   3.924   1.851   2.073
 5959SOL    HW324156   3.845   1.744   2.002
 5959SOL    MW424157   3.893   1.769   2.070
 5960SOL     OW24158   4.682   0.016   2.966
 5960SOL    HW224159   4.641   0.094   2.928
 5960SOL    HW324160   4.776   0.034   2.961
 5960SOL    MW424161   4.688   0.028   2.961
 5961SOL     OW24162   5.299   1.569   2.052
 5961SOL    HW224163   5.347   1.638   2.098
 5961SOL    HW324164   5.220   1.613   2.021
 5961SOL    MW424165   5.294   1.583   2.055
 5962SOL     OW24166   4.697   0.694   1.996
 5962SOL    HW224167   4.699   0.641   1.917
 5962SOL    HW324168   4.785   0.731   2.002
 5962SOL    MW424169   4.709   0.693   1.985
 5963SOL     OW24170   5.311   0.620   2.332
 5963SOL    HW224171   5.350   0.620   2.419
 5963SOL    HW324172   5.252   0.696   2.332
 5963SOL    MW424173   5.308   0.631   2.343
 5964SOL     OW24174   4.628   0.987   3.461
 5964SOL    HW224175   4.605   0.967   3.551
 5964SOL    HW324176   4.713   1.031   3.466
 5964SOL    MW424177   4.635   0.990   3.473
 5965SOL     OW24178   4.708   0.124   3.221
 5965SOL    HW224179   4.714   0.086   3.134
 5965SOL    HW324180   4.697   0.218   3.206
 5965SOL    MW424181   4.709   0.132   3.209
 5966SOL     OW24182   4.797   0.613   3.055
 5966SOL    HW224183   4.872   0.642   3.002
 5966SOL    HW324184   4.729   0.678   3.039
 5966SOL    MW424185   4.798   0.625   3.045
 5967SOL     OW24186   5.347   0.581   3.332
 5967SOL    HW224187   5.328   0.490   3.311
 5967SOL    HW324188   5.325   0.630   3.253
 5967SOL    MW424189   5.342   0.574   3.319
 5968SOL     OW24190   5.489   1.675   3.236
 5968SOL    HW224191   5.417   1.637   3.287
 5968SOL    HW324192   5.506   1.760   3.277
 5968SOL    MW424193   5.483   1.680   3.248
 5969SOL     OW24194   4.794   0.319   3.438
 5969SOL    HW224195   4.760   0.358   3.357
 5969SOL    HW324196   4.772   0.227   3.431
 5969SOL    MW424197   4.787   0.312   3.428
 5970SOL     OW24198   5.203   1.133   3.514
 5970SOL    HW224199   5.285   1.174   3.544
 5970SOL    HW324200   5.166   1.095   3.594
 5970SOL    MW424201   5.209   1.134   3.529
 5971SOL     OW24202   5.498   0.506   2.498
 5971SOL    HW224203   5.587   0.475   2.515
 5971SOL    HW324204   5.441   0.446   2.546
 5971SOL    MW424205   5.501   0.494   2.507
 5972SOL     OW24206   3.924   0.220   2.527
 5972SOL    HW224207   3.915   0.160   2.453
 5972SOL    HW324208   3.857   0.191   2.590
 5972SOL    MW424209   3.914   0.207   2.525
 5973SOL     OW24210   4.867   1.313   2.088
 5973SOL    HW224211   4.817   1.315   2.170
 5973SOL    HW324212   4.801   1.331   2.020
 5973SOL    MW424213   4.853   1.315   2.090
 5974SOL     OW24214   3.871   0.393   2.890
 5974SOL    HW224215   3.843   0.484   2.899
 5974SOL    HW324216   3.808   0.354   2.829
 5974SOL    MW424217   3.858   0.399   2.884
 5975SOL     OW24218   4.330   1.731   2.196
 5975SOL    HW224219   4.251   1.689   2.229
 5975SOL    HW324220   4.396   1.714   2.263
 5975SOL    MW424221   4.329   1.723   2.209
 5976SOL     OW24222   5.458   1.251   3.593
 5976SOL    HW224223   5.508   1.177   3.625
 5976SOL    HW324224   5.404   1.278   3.668
 5976SOL    MW424225   5.458   1.245   3.606
 5977SOL     OW24226   4.466   1.146   1.903
 5977SOL    HW224227   4.388   1.092   1.890
 5977SOL    HW324228   4.437   1.219   1.956
 5977SOL    MW424229   4.452   1.148   1.908
 5978SOL     OW24230   5.592   0.886   3.095
 5978SOL    HW224231   5.608   0.924   3.008
 5978SOL    HW324232   5.626   0.952   3.156
 5978SOL    MW424233   5.599   0.899   3.091
 5979SOL     OW24234   5.384   1.595   2.764
 5979SOL    HW224235   5.413   1.662   2.825
 5979SOL    HW324236   5.365   1.519   2.819
 5979SOL    MW424237   5.386   1.595   2.779
 5980SOL     OW24238   5.047   1.662   1.971
 5980SOL    HW224239   4.973   1.625   2.021
 5980SOL    HW324240   5.055   1.752   2.004
 5980SOL    MW424241   5.038   1.669   1.983
 5981SOL     OW24242   3.855   0.668   3.060
 5981SOL    HW224243   3.917   0.698   3.126
 5981SOL    HW324244   3.789   0.737   3.054
 5981SOL    MW424245   3.854   0.681   3.067
 5982SOL     OW24246   5.271   1.336   1.913
 5982SOL    HW224247   5.218   1.385   1.849
 5982SOL    HW324248   5.302   1.402   1.974
 5982SOL    MW424249   5.269   1.350   1.911
 5983SOL     OW24250   4.496   0.225   1.968
 5983SOL    HW224251   4.444   0.145   1.956
 5983SOL    HW324252   4.583   0.202   1.936
 5983SOL    MW424253   4.499   0.211   1.962
 5984SOL     OW24254   3.950   1.777   3.512
 5984SOL    HW224255   3.924   1.845   3.450
 5984SOL    HW324256   3.998   1.714   3.460
 5984SOL    MW424257   3.952   1.777   3.498
 5985SOL     OW24258   4.002   1.096   3.019
 5985SOL    HW224259   4.055   1.171   3.044
 5985SOL    HW324260   3.921   1.134   2.985
 5985SOL    MW424261   3.998   1.111   3.019
 5986SOL     OW24262   4.542   1.000   3.007
 5986SOL    HW224263   4.570   0.909   3.019
 5986SOL    HW324264   4.471   0.994   2.943
 5986SOL    MW424265   4.535   0.988   3.002
 5987SOL     OW24266   3.857   0.865   2.425
 5987SOL    HW224267   3.948   0.880   2.452
 5987SOL    HW324268   3.860   0.786   2.371
 5987SOL    MW424269   3.869   0.857   2.423
 5988SOL     OW24270   4.093   0.573   3.679
 5988SOL    HW224271   4.040   0.653   3.686
 5988SOL    HW324272   4.163   0.585   3.744
 5988SOL    MW424273   4.095   0.586   3.687
 5989SOL     OW24274   4.479   0.123   3.386
 5989SOL    HW224275   4.456   0.031   3.388
 5989SOL    HW324276   4.565   0.125   3.343
 5989SOL    MW424277   4.486   0.113   3.382
 5990SOL     OW24278   4.163   0.647   3.425
 5990SOL    HW224279   4.243   0.697   3.411
 5990SOL    HW324280   4.154   0.641   3.520
 5990SOL    MW424281   4.172   0.653   3.435
 5991SOL     OW24282   4.484   1.797   2.799
 5991SOL    HW224283   4.573   1.812   2.829
 5991SOL    HW324284   4.479   1.844   2.715
 5991SOL    MW424285   4.494   1.805   2.792
 5992SOL     OW24286   3.865   1.477   2.464
 5992SOL    HW224287   3.837   1.516   2.546
 5992SOL    HW324288   3.885   1.386   2.486
 5992SOL    MW424289   3.863   1.469   2.477
 5993SOL     OW24290   4.698   1.520   2.499
 5993SOL    HW224291   4.781   1.474   2.483
 5993SOL    HW324292   4.688   1.519   2.595
 5993SOL    MW424293   4.708   1.513   2.509
 5994SOL     OW24294   5.530   0.665   2.813
 5994SOL    HW224295   5.619   0.695   2.795
 5994SOL    HW324296   5.510   0.605   2.742
 5994SOL    MW424297   5.539   0.662   2.802
 5995SOL     OW24298   5.381   0.844   3.693
 5995SOL    HW224299   5.436   0.768   3.674
 5995SOL    HW324300   5.383   0.852   3.788
 5995SOL    MW424301   5.389   0.835   3.701
 5996SOL     OW24302   4.431   1.577   1.904
 5996SOL    HW224303   4.371   1.646   1.874
 5996SOL    HW324304   4.376   1.519   1.957
 5996SOL    MW424305   4.415   1.579   1.906
 5997SOL     OW24306   4.869   0.222   2.127
 5997SOL    HW224307   4.802   0.198   2.064
 5997SOL    HW324308   4.934   0.271   2.076
 5997SOL    MW424309   4.869   0.224   2.112
 5998SOL     OW24310   4.676   0.406   3.212
 5998SOL    HW224311   4.595   0.447   3.240
 5998SOL    HW324312   4.723   0.474   3.164
 5998SOL    MW424313   4.671   0.421   3.210
 5999SOL     OW24314   4.936   0.744   2.835
 5999SOL    HW224315   4.949   0.838   2.845
 5999SOL    HW324316   4.897   0.734   2.749
 5999SOL    MW424317   4.932   0.755   2.825
 6000SOL     OW24318   4.388   0.939   2.639
 6000SOL    HW224319   4.299   0.930   2.672
 6000SOL    HW324320   4.392   1.029   2.607
 6000SOL    MW424321   4.377   0.950   2.639
 6001SOL     OW24322   5.187   0.522   2.634
 6001SOL    HW224323   5.132   0.443   2.633
 6001SOL    HW324324   5.169   0.563   2.718
 6001SOL    MW424325   5.177   0.517   2.643
 6002SOL     OW24326   4.158   0.209   3.451
 6002SOL    HW224327   4.079   0.227   3.503
 6002SOL    HW324328   4.153   0.271   3.378
 6002SOL    MW424329   4.148   0.219   3.448
 6003SOL     OW24330   4.806   0.726   2.591
 6003SOL    HW224331   4.743   0.658   2.615
 6003SOL    HW324332   4.826   0.707   2.499
 6003SOL    MW424333   4.800   0.713   2.583
 6004SOL     OW24334   4.062   1.621   2.293
 6004SOL    HW224335   4.023   1.668   2.219
 6004SOL    HW324336   3.996   1.556   2.318
 6004SOL    MW424337   4.049   1.619   2.287
 6005SOL     OW24338   4.554   1.030   2.317
 6005SOL    HW224339   4.556   1.004   2.224
 6005SOL    HW324340   4.612   0.967   2.360
 6005SOL    MW424341   4.562   1.019   2.311
 6006SOL     OW24342   5.107   1.590   3.089
 6006SOL    HW224343   5.032   1.636   3.127
 6006SOL    HW324344   5.089   1.497   3.106
 6006SOL    MW424345   5.096   1.584   3.097
 6007SOL     OW24346   5.111   1.798   2.519
 6007SOL    HW224347   5.054   1.751   2.458
 6007SOL    HW324348   5.197   1.759   2.506
 6007SOL    MW424349   5.114   1.789   2.509
 6008SOL     OW24350   3.869   1.208   2.584
 6008SOL    HW224351   3.933   1.240   2.647
 6008SOL    HW324352   3.918   1.144   2.532
 6008SOL    MW424353   3.884   1.204   2.585
 6009SOL     OW24354   4.369   1.284   3.566
 6009SOL    HW224355   4.417   1.367   3.553
 6009SOL    HW324356   4.426   1.232   3.622
 6009SOL    MW424357   4.383   1.288   3.572
 6010SOL     OW24358   3.945   1.526   3.706
 6010SOL    HW224359   4.001   1.450   3.721
 6010SOL    HW324360   3.894   1.504   3.628
 6010SOL    MW424361   3.945   1.513   3.697
 6011SOL     OW24362   5.044   0.378   1.985
 6011SOL    HW224363   5.017   0.444   1.921
 6011SOL    HW324364   5.114   0.421   2.035
 6011SOL    MW424365   5.049   0.391   1.982
 6012SOL     OW24366   4.712   0.083   1.922
 6012SOL    HW224367   4.768   0.075   1.844
 6012SOL    HW324368   4.689  -0.007   1.944
 6012SOL    MW424369   4.717   0.070   1.915
 6013SOL     OW24370   5.217   0.934   2.127
 6013SOL    HW224371   5.184   1.023   2.117
 6013SOL    HW324372   5.182   0.905   2.212
 6013SOL    MW424373   5.207   0.943   2.138
 6014SOL     OW24374   4.830   1.363   3.315
 6014SOL    HW224375   4.741   1.369   3.283
 6014SOL    HW324376   4.874   1.442   3.283
 6014SOL    MW424377   4.825   1.373   3.307
 6015SOL     OW24378   4.123   0.031   3.657
 6015SOL    HW224379   4.051  -0.004   3.605
 6015SOL    HW324380   4.181   0.072   3.592
 6015SOL    MW424381   4.121   0.032   3.642
 6016SOL     OW24382   4.147   1.521   2.956
 6016SOL    HW224383   4.192   1.583   3.013
 6016SOL    HW324384   4.054   1.540   2.969
 6016SOL    MW424385   4.140   1.531   2.963
 6017SOL     OW24386   5.587   1.050   3.310
 6017SOL    HW224387   5.502   1.063   3.269
 6017SOL    HW324388   5.567   1.014   3.397
 6017SOL    MW424389   5.574   1.046   3.315
 6018SOL     OW24390   4.569   1.589   3.064
 6018SOL    HW224391   4.593   1.578   2.973
 6018SOL    HW324392   4.492   1.646   3.062
 6018SOL    MW424393   4.561   1.594   3.053
 6019SOL     OW24394   4.211   0.972   1.919
 6019SOL    HW224395   4.134   0.985   1.975
 6019SOL    HW324396   4.175   0.936   1.838
 6019SOL    MW424397   4.197   0.968   1.916
 6020SOL     OW24398   4.864   0.945   2.162
 6020SOL    HW224399   4.774   0.966   2.137
 6020SOL    HW324400   4.891   1.018   2.218
 6020SOL    MW424401   4.856   0.957   2.165
 6021SOL     OW24402   4.364   1.294   2.854
 6021SOL    HW224403   4.357   1.273   2.948
 6021SOL    HW324404   4.282   1.262   2.817
 6021SOL    MW424405   4.352   1.288   2.861
 6022SOL     OW24406   5.228   0.304   3.256
 6022SOL    HW224407   5.175   0.306   3.336
 6022SOL    HW324408   5.213   0.217   3.219
 6022SOL    MW424409   5.220   0.294   3.261
 6023SOL     OW24410   3.810   1.386   3.517
 6023SOL    HW224411   3.854   1.319   3.463
 6023SOL    HW324412   3.725   1.348   3.537
 6023SOL    MW424413   3.805   1.372   3.513
 6024SOL     OW24414   4.493   0.061   2.569
 6024SOL    HW224415   4.422   0.122   2.551
 6024SOL    HW324416   4.544   0.058   2.488
 6024SOL    MW424417   4.489   0.067   2.556
 6025SOL     OW24418   4.846   1.694   3.227
 6025SOL    HW224419   4.766   1.679   3.177
 6025SOL    HW324420   4.853   1.789   3.234
 6025SOL    MW424421   4.837   1.705   3.221
 6026SOL     OW24422   4.960   1.659   2.717
 6026SOL    HW224423   5.007   1.732   2.676
 6026SOL    HW324424   4.881   1.698   2.753
 6026SOL    MW424425   4.955   1.674   2.716
 6027SOL     OW24426   5.368   1.754   2.992
 6027SOL    HW224427   5.411   1.724   3.072
 6027SOL    HW324428   5.287   1.702   2.989
 6027SOL    MW424429   5.363   1.743   3.002
 6028SOL     OW24430   4.453   0.718   3.699
 6028SOL    HW224431   4.523   0.660   3.671
 6028SOL    HW324432   4.396   0.663   3.754
 6028SOL    MW424433   4.455   0.705   3.703
 6029SOL     OW24434   5.240   0.930   3.332
 6029SOL    HW224435   5.245   0.983   3.412
 6029SOL    HW324436   5.202   0.847   3.360
 6029SOL    MW424437   5.236   0.925   3.347
 6030SOL     OW24438   4.880   0.065   3.578
 6030SOL    HW224439   4.875  -0.028   3.559
 6030SOL    HW324440   4.963   0.076   3.624
 6030SOL    MW424441   4.888   0.054   3.582
 6031SOL     OW24442   4.254   0.585   2.032
 6031SOL    HW224443   4.220   0.641   2.102
 6031SOL    HW324444   4.325   0.535   2.072
 6031SOL    MW424445   4.260   0.586   2.046
 6032SOL     OW24446   5.350   1.336   2.854
 6032SOL    HW224447   5.385   1.318   2.767
 6032SOL    HW324448   5.255   1.337   2.841
 6032SOL    MW424449   5.342   1.333   2.841
 6033SOL     OW24450   4.779   0.984   3.223
 6033SOL    HW224451   4.822   1.019   3.301
 6033SOL    HW324452   4.762   1.061   3.169
 6033SOL    MW424453   4.782   0.999   3.226
 6034SOL     OW24454   5.310   0.471   2.096
 6034SOL    HW224455   5.302   0.542   2.033
 6034SOL    HW324456   5.328   0.515   2.179
 6034SOL    MW424457   5.311   0.485   2.098
 6035SOL     OW24458   4.170   0.126   2.525
 6035SOL    HW224459   4.220   0.169   2.456
 6035SOL    HW324460   4.085   0.170   2.525
 6035SOL    MW424461   4.167   0.139   2.516
 6036SOL     OW24462   3.929   1.188   3.385
 6036SOL    HW224463   3.957   1.141   3.463
 6036SOL    HW324464   3.850   1.143   3.356
 6036SOL    MW424465   3.922   1.177   3.391
 6037SOL     OW24466   4.437   0.515   3.352
 6037SOL    HW224467   4.409   0.603   3.376
 6037SOL    HW324468   4.406   0.459   3.423
 6037SOL    MW424469   4.429   0.518   3.364
 6038SOL     OW24470   4.979   0.733   2.071
 6038SOL    HW224471   5.026   0.751   1.990
 6038SOL    HW324472   4.945   0.817   2.099
 6038SOL    MW424473   4.981   0.747   2.064
 6039SOL     OW24474   4.092   0.911   2.565
 6039SOL    HW224475   4.150   0.967   2.513
 6039SOL    HW324476   4.136   0.826   2.567
 6039SOL    MW424477   4.105   0.908   2.558
 6040SOL     OW24478   5.232   0.263   2.402
 6040SOL    HW224479   5.154   0.213   2.427
 6040SOL    HW324480   5.203   0.354   2.402
 6040SOL    MW424481   5.218   0.267   2.405
 6041SOL     OW24482   4.818   0.225   2.561
 6041SOL    HW224483   4.838   0.300   2.505
 6041SOL    HW324484   4.798   0.264   2.646
 6041SOL    MW424485   4.819   0.241   2.565
 6042SOL     OW24486   4.714   1.475   1.893
 6042SOL    HW224487   4.741   1.553   1.845
 6042SOL    HW324488   4.621   1.490   1.912
 6042SOL    MW424489   4.705   1.488   1.889
 6043SOL     OW24490   5.578   0.998   3.580
 6043SOL    HW224491   5.491   0.978   3.616
 6043SOL    HW324492   5.632   0.924   3.605
 6043SOL    MW424493   5.573   0.987   3.588
 6044SOL     OW24494   3.799   1.511   2.737
 6044SOL    HW224495   3.831   1.515   2.828
 6044SOL    HW324496   3.704   1.519   2.745
 6044SOL    MW424497   3.791   1.514   2.750
 6045SOL     OW24498   3.754   0.637   2.284
 6045SOL    HW224499   3.694   0.609   2.354
 6045SOL    HW324500   3.828   0.577   2.290
 6045SOL    MW424501   3.756   0.626   2.293
 6046SOL     OW24502   5.322   1.849   3.718
 6046SOL    HW224503   5.367   1.773   3.683
 6046SOL    HW324504   5.360   1.862   3.805
 6046SOL    MW424505   5.332   1.842   3.724
 6047SOL     OW24506   4.922   1.368   2.444
 6047SOL    HW224507   4.945   1.319   2.522
 6047SOL    HW324508   5.003   1.410   2.416
 6047SOL    MW424509   4.935   1.368   2.451
 6048SOL     OW24510   4.180   0.376   3.173
 6048SOL    HW224511   4.213   0.457   3.213
 6048SOL    HW324512   4.153   0.402   3.085
 6048SOL    MW424513   4.179   0.390   3.167
 6049SOL     OW24514   4.134   0.343   2.909
 6049SOL    HW224515   4.164   0.257   2.880
 6049SOL    HW324516   4.039   0.336   2.912
 6049SOL    MW424517   4.126   0.332   2.907
 6050SOL     OW24518   4.963   0.552   3.600
 6050SOL    HW224519   5.015   0.487   3.553
 6050SOL    HW324520   4.921   0.603   3.530
 6050SOL    MW424521   4.964   0.549   3.583
 6051SOL     OW24522   5.062   0.347   3.461
 6051SOL    HW224523   4.969   0.331   3.448
 6051SOL    HW324524   5.088   0.285   3.529
 6051SOL    MW424525   5.052   0.337   3.468
 6052SOL     OW24526   4.277   0.121   2.800
 6052SOL    HW224527   4.287   0.030   2.826
 6052SOL    HW324528   4.233   0.117   2.715
 6052SOL    MW424529   4.273   0.109   2.792
 6053SOL     OW24530   4.371   1.736   3.346
 6053SOL    HW224531   4.288   1.721   3.391
 6053SOL    HW324532   4.430   1.669   3.381
 6053SOL    MW424533   4.369   1.726   3.356
 6054SOL     OW24534   5.428   0.443   2.971
 6054SOL    HW224535   5.361   0.476   3.031
 6054SOL    HW324536   5.471   0.521   2.937
 6054SOL    MW424537   5.426   0.458   2.975
 6055SOL     OW24538   5.606   1.163   2.941
 6055SOL    HW224539   5.599   1.103   2.866
 6055SOL    HW324540   5.532   1.223   2.930
 6055SOL    MW424541   5.596   1.163   2.930
 6056SOL     OW24542   4.988   1.025   2.859
 6056SOL    HW224543   5.002   0.997   2.950
 6056SOL    HW324544   5.074   1.056   2.831
 6056SOL    MW424545   5.001   1.026   2.868
 6057SOL     OW24546   5.071   0.520   3.138
 6057SOL    HW224547   5.092   0.521   3.045
 6057SOL    HW324548   5.116   0.442   3.171
 6057SOL    MW424549   5.078   0.510   3.130
 6058SOL     OW24550   5.564   0.651   3.680
 6058SOL    HW224551   5.601   0.596   3.749
 6058SOL    HW324552   5.589   0.608   3.598
 6058SOL    MW424553   5.571   0.639   3.679
 6059SOL     OW24554   5.111   0.949   3.731
 6059SOL    HW224555   5.177   0.897   3.685
 6059SOL    HW324556   5.131   0.936   3.824
 6059SOL    MW424557   5.122   0.940   3.738
 6060SOL     OW24558   5.122   0.810   2.358
 6060SOL    HW224559   5.037   0.780   2.328
 6060SOL    HW324560   5.114   0.817   2.453
 6060SOL    MW424561   5.110   0.808   2.367
 6061SOL     OW24562   4.198   1.273   3.089
 6061SOL    HW224563   4.210   1.300   3.180
 6061SOL    HW324564   4.179   1.354   3.042
 6061SOL    MW424565   4.197   1.288   3.094
 6062SOL     OW24566   4.482   0.253   2.912
 6062SOL    HW224567   4.455   0.255   3.003
 6062SOL    HW324568   4.412   0.205   2.867
 6062SOL    MW424569   4.470   0.249   2.919
 6063SOL     OW24570   4.336   1.745   3.074
 6063SOL    HW224571   4.388   1.822   3.051
 6063SOL    HW324572   4.345   1.737   3.169
 6063SOL    MW424573   4.345   1.752   3.085
 6064SOL     OW24574   5.238   1.330   3.306
 6064SOL    HW224575   5.223   1.259   3.369
 6064SOL    HW324576   5.284   1.288   3.234
 6064SOL    MW424577   5.244   1.314   3.306
 6065SOL     OW24578   4.312   1.061   3.423
 6065SOL    HW224579   4.349   1.066   3.335
 6065SOL    HW324580   4.351   1.134   3.470
 6065SOL    MW424581   4.322   1.071   3.418
 6066SOL     OW24582   4.492   1.104   3.235
 6066SOL    HW224583   4.551   1.050   3.288
 6066SOL    HW324584   4.507   1.076   3.145
 6066SOL    MW424585   4.502   1.093   3.231
 6067SOL     OW24586   4.495   0.476   2.084
 6067SOL    HW224587   4.568   0.525   2.047
 6067SOL    HW324588   4.511   0.385   2.058
 6067SOL    MW424589   4.507   0.471   2.077
 6068SOL     OW24590   5.303   1.593   3.407
 6068SOL    HW224591   5.345   1.578   3.492
 6068SOL    HW324592   5.294   1.506   3.369
 6068SOL    MW424593   5.307   1.581   3.414
 6069SOL     OW24594   4.963   0.072   2.998
 6069SOL    HW224595   5.018   0.081   2.920
 6069SOL    HW324596   5.018   0.106   3.069
 6069SOL    MW424597   4.977   0.077   2.997
 6070SOL     OW24598   3.970   0.985   2.182
 6070SOL    HW224599   3.907   1.001   2.111
 6070SOL    HW324600   3.917   0.948   2.253
 6070SOL    MW424601   3.955   0.982   2.182
 6071SOL     OW24602   4.326   1.339   2.041
 6071SOL    HW224603   4.341   1.315   2.133
 6071SOL    HW324604   4.234   1.317   2.025
 6071SOL    MW424605   4.316   1.332   2.051
 6072SOL     OW24606   4.865   1.570   2.193
 6072SOL    HW224607   4.873   1.488   2.144
 6072SOL    HW324608   4.784   1.609   2.160
 6072SOL    MW424609   4.855   1.565   2.183
 6073SOL     OW24610   4.124   1.728   2.762
 6073SOL    HW224611   4.128   1.639   2.797
 6073SOL    HW324612   4.150   1.719   2.671
 6073SOL    MW424613   4.127   1.716   2.754
 6074SOL     OW24614   4.741   1.206   3.005
 6074SOL    HW224615   4.673   1.140   3.021
 6074SOL    HW324616   4.759   1.200   2.912
 6074SOL    MW424617   4.734   1.197   2.996
 6075SOL     OW24618   3.830   1.481   3.256
 6075SOL    HW224619   3.820   1.439   3.342
 6075SOL    HW324620   3.751   1.534   3.246
 6075SOL    MW424621   3.819   1.482   3.267
 6076SOL     OW24622   4.734   0.345   2.826
 6076SOL    HW224623   4.664   0.297   2.871
 6076SOL    HW324624   4.766   0.408   2.890
 6076SOL    MW424625   4.729   0.347   2.840
 6077SOL     OW24626   4.385   0.781   3.446
 6077SOL    HW224627   4.378   0.876   3.434
 6077SOL    HW324628   4.394   0.770   3.541
 6077SOL    MW424629   4.386   0.793   3.456
 6078SOL     OW24630   4.106   1.296   3.704
 6078SOL    HW224631   4.178   1.298   3.641
 6078SOL    HW324632   4.076   1.205   3.703
 6078SOL    MW424633   4.111   1.285   3.696
 6079SOL     OW24634   5.390   1.589   3.655
 6079SOL    HW224635   5.363   1.586   3.746
 6079SOL    HW324636   5.486   1.593   3.658
 6079SOL    MW424637   5.400   1.589   3.667
 6080SOL     OW24638   4.201   0.451   2.639
 6080SOL    HW224639   4.272   0.399   2.602
 6080SOL    HW324640   4.187   0.416   2.726
 6080SOL    MW424641   4.209   0.440   2.646
 6081SOL     OW24642   3.756   1.786   3.711
 6081SOL    HW224643   3.806   1.764   3.633
 6081SOL    HW324644   3.764   1.881   3.719
 6081SOL    MW424645   3.764   1.795   3.702
 6082SOL     OW24646   4.517   1.544   2.715
 6082SOL    HW224647   4.445   1.481   2.728
 6082SOL    HW324648   4.478   1.629   2.733
 6082SOL    MW424649   4.501   1.547   2.718
 6083SOL     OW24650   4.837   0.392   2.363
 6083SOL    HW224651   4.859   0.329   2.295
 6083SOL    HW324652   4.742   0.384   2.374
 6083SOL    MW424653   4.827   0.383   2.355
 6084SOL     OW24654   3.922   0.082   2.295
 6084SOL    HW224655   3.993   0.103   2.234
 6084SOL    HW324656   3.876   0.010   2.253
 6084SOL    MW424657   3.926   0.076   2.281
 6085SOL     OW24658   3.753   0.549   3.438
 6085SOL    HW224659   3.817   0.615   3.413
 6085SOL    HW324660   3.672   0.576   3.395
 6085SOL    MW424661   3.751   0.561   3.430
 6086SOL     OW24662   5.491   1.456   2.395
 6086SOL    HW224663   5.461   1.389   2.456
 6086SOL    HW324664   5.585   1.462   2.409
 6086SOL    MW424665   5.499   1.448   2.405
 6087SOL     OW24666   5.047   1.133   2.325
 6087SOL    HW224667   5.019   1.219   2.358
 6087SOL    HW324668   5.075   1.149   2.235
 6087SOL    MW424669   5.047   1.147   2.317
 6088SOL     OW24670   4.709   0.053   2.378
 6088SOL    HW224671   4.746   0.112   2.443
 6088SOL    HW324672   4.686   0.109   2.304
 6088SOL    MW424673   4.710   0.068   2.377
 6089SOL     OW24674   5.562   0.935   2.800
 6089SOL    HW224675   5.553   0.967   2.711
 6089SOL    HW324676   5.515   0.851   2.800
 6089SOL    MW424677   5.555   0.928   2.790
 6090SOL     OW24678   3.938   0.775   3.379
 6090SOL    HW224679   3.959   0.844   3.317
 6090SOL    HW324680   4.018   0.722   3.384
 6090SOL    MW424681   3.951   0.776   3.373
 6091SOL     OW24682   5.474   0.866   2.501
 6091SOL    HW224683   5.568   0.855   2.489
 6091SOL    HW324684   5.450   0.938   2.442
 6091SOL    MW424685   5.484   0.874   2.492
 6092SOL     OW24686   3.923   0.790   3.646
 6092SOL    HW224687   3.849   0.734   3.672
 6092SOL    HW324688   3.918   0.793   3.551
 6092SOL    MW424689   3.912   0.783   3.636
 6093SOL     OW24690   4.089   0.077   3.096
 6093SOL    HW224691   4.132   0.161   3.116
 6093SOL    HW324692   4.162   0.015   3.089
 6093SOL    MW424693   4.104   0.080   3.097
 6094SOL     OW24694   4.130   0.744   2.274
 6094SOL    HW224695   4.130   0.839   2.259
 6094SOL    HW324696   4.207   0.728   2.328
 6094SOL    MW424697   4.140   0.755   2.279
 6095SOL     OW24698   4.906   0.603   3.338
 6095SOL    HW224699   4.942   0.576   3.254
 6095SOL    HW324700   4.819   0.637   3.317
 6095SOL    MW424701   4.900   0.604   3.325
 6096SOL     OW24702   3.889   0.475   2.563
 6096SOL    HW224703   3.951   0.482   2.636
 6096SOL    HW324704   3.889   0.382   2.540
 6096SOL    MW424705   3.897   0.464   2.570
 6097SOL     OW24706   5.436   1.815   2.095
 6097SOL    HW224707   5.503   1.848   2.035
 6097SOL    HW324708   5.393   1.894   2.129
 6097SOL    MW424709   5.438   1.830   2.091
 6098SOL     OW24710   4.571   0.736   3.047
 6098SOL    HW224711   4.529   0.654   3.023
 6098SOL    HW324712   4.572   0.735   3.143
 6098SOL    MW424713   4.564   0.725   3.056
 6099SOL     OW24714   5.242   1.869   3.446
 6099SOL    HW224715   5.245   1.775   3.429
 6099SOL    HW324716   5.265   1.877   3.538
 6099SOL    MW424717   5.245   1.857   3.456
 6100SOL     OW24718   4.375   0.206   3.152
 6100SOL    HW224719   4.306   0.269   3.173
 6100SOL    HW324720   4.402   0.170   3.237
 6100SOL    MW424721   4.369   0.209   3.165
 6101SOL     OW24722   3.758   1.047   2.021
 6101SOL    HW224723   3.727   1.112   2.084
 6101SOL    HW324724   3.707   0.969   2.040
 6101SOL    MW424725   3.748   1.044   2.031
 6102SOL     OW24726   5.202   0.798   2.613
 6102SOL    HW224727   5.282   0.813   2.562
 6102SOL    HW324728   5.195   0.703   2.619
 6102SOL    MW424729   5.211   0.787   2.608
 6103SOL     OW24730   4.342   1.847   1.963
 6103SOL    HW224731   4.247   1.847   1.955
 6103SOL    HW324732   4.358   1.793   2.041
 6103SOL    MW424733   4.332   1.841   1.972
 6104SOL     OW24734   4.652   0.724   3.310
 6104SOL    HW224735   4.721   0.791   3.307
 6104SOL    HW324736   4.585   0.762   3.366
 6104SOL    MW424737   4.653   0.737   3.317
 6105SOL     OW24738   4.070   1.024   3.558
 6105SOL    HW224739   4.024   0.940   3.560
 6105SOL    HW324740   4.127   1.018   3.482
 6105SOL    MW424741   4.072   1.012   3.550
 6106SOL     OW24742   5.187   0.667   1.879
 6106SOL    HW224743   5.115   0.643   1.821
 6106SOL    HW324744   5.253   0.704   1.821
 6106SOL    MW424745   5.186   0.669   1.864
 6107SOL     OW24746   4.321   1.399   2.559
 6107SOL    HW224747   4.386   1.332   2.580
 6107SOL    HW324748   4.373   1.476   2.536
 6107SOL    MW424749   4.336   1.401   2.558
 6108SOL     OW24750   4.582   0.564   2.689
 6108SOL    HW224751   4.522   0.582   2.761
 6108SOL    HW324752   4.616   0.476   2.708
 6108SOL    MW424753   4.578   0.554   2.702
 6109SOL     OW24754   4.807   1.147   2.708
 6109SOL    HW224755   4.899   1.128   2.726
 6109SOL    HW324756   4.780   1.077   2.648
 6109SOL    MW424757   4.815   1.135   2.702
 6110SOL     OW24758   4.600   0.967   2.063
 6110SOL    HW224759   4.586   0.879   2.028
 6110SOL    HW324760   4.551   1.024   2.004
 6110SOL    MW424761   4.592   0.962   2.051
 6111SOL     OW24762   5.081   1.385   2.804
 6111SOL    HW224763   5.054   1.469   2.769
 6111SOL    HW324764   5.041   1.380   2.891
 6111SOL    MW424765   5.074   1.394   2.810
 6112SOL     OW24766   5.000   1.333   3.072
 6112SOL    HW224767   5.011   1.300   3.161
 6112SOL    HW324768   4.919   1.292   3.041
 6112SOL    MW424769   4.990   1.325   3.078
 6113SOL     OW24770   4.013   0.691   2.842
 6113SOL    HW224771   3.963   0.690   2.923
 6113SOL    HW324772   4.033   0.783   2.826
 6113SOL    MW424773   4.009   0.703   2.850
 6114SOL     OW24774   5.080   1.455   3.604
 6114SOL    HW224775   5.080   1.549   3.620
 6114SOL    HW324776   5.125   1.445   3.520
 6114SOL    MW424777   5.086   1.465   3.595
 6115SOL     OW24778   4.608   0.736   2.279
 6115SOL    HW224779   4.588   0.722   2.186
 6115SOL    HW324780   4.701   0.715   2.286
 6115SOL    MW424781   4.618   0.731   2.268
 6116SOL     OW24782   3.935   0.359   3.583
 6116SOL    HW224783   3.892   0.418   3.520
 6116SOL    HW324784   4.003   0.414   3.623
 6116SOL    MW424785   3.939   0.374   3.580
 6117SOL     OW24786   5.047   0.979   3.128
 6117SOL    HW224787   5.110   0.976   3.201
 6117SOL    HW324788   4.963   0.997   3.170
 6117SOL    MW424789   5.043   0.981   3.143
 6118SOL     OW24790   4.591   1.694   2.317
 6118SOL    HW224791   4.649   1.765   2.344
 6118SOL    HW324792   4.614   1.622   2.375
 6118SOL    MW424793   4.602   1.694   2.328
 6119SOL     OW24794   3.834  -0.001   3.006
 6119SOL    HW224795   3.825   0.000   2.911
 6119SOL    HW324796   3.928   0.011   3.021
 6119SOL    MW424797   3.846   0.002   2.997
 6120SOL     OW24798   5.471   1.192   2.626
 6120SOL    HW224799   5.450   1.138   2.549
 6120SOL    HW324800   5.567   1.190   2.630
 6120SOL    MW424801   5.480   1.185   2.615
 6121SOL     OW24802   4.163   1.337   3.369
 6121SOL    HW224803   4.084   1.287   3.392
 6121SOL    HW324804   4.233   1.296   3.419
 6121SOL    MW424805   4.161   1.325   3.379
 6122SOL     OW24806   4.047   0.126   2.052
 6122SOL    HW224807   3.976   0.181   2.020
 6122SOL    HW324808   4.089   0.092   1.973
 6122SOL    MW424809   4.043   0.128   2.038
 6123SOL     OW24810   5.171   0.623   2.888
 6123SOL    HW224811   5.094   0.669   2.854
 6123SOL    HW324812   5.228   0.692   2.922
 6123SOL    MW424813   5.168   0.638   2.888
 6124SOL     OW24814   3.803   0.225   1.901
 6124SOL    HW224815   3.770   0.304   1.945
 6124SOL    HW324816   3.858   0.258   1.830
 6124SOL    MW424817   3.806   0.239   1.898
 6125SOL     OW24818   3.837   1.482   2.090
 6125SOL    HW224819   3.854   1.566   2.132
 6125SOL    HW324820   3.872   1.491   2.002
 6125SOL    MW424821   3.842   1.495   2.084
 6126SOL     OW24822   5.109   1.571   2.307
 6126SOL    HW224823   5.172   1.561   2.236
 6126SOL    HW324824   5.026   1.591   2.262
 6126SOL    MW424825   5.106   1.572   2.292
 6127SOL     OW24826   5.472   0.839   3.993
 6127SOL    HW224827   5.513   0.781   4.058
 6127SOL    HW324828   5.379   0.831   4.010
 6127SOL    MW424829   5.466   0.831   4.003
 6128SOL     OW24830   5.338   0.771   4.988
 6128SOL    HW224831   5.293   0.838   5.039
 6128SOL    HW324832   5.426   0.807   4.974
 6128SOL    MW424833   5.344   0.784   4.992
 6129SOL     OW24834   4.266   1.022   4.222
 6129SOL    HW224835   4.356   0.997   4.206
 6129SOL    HW324836   4.262   1.115   4.199
 6129SOL    MW424837   4.278   1.031   4.217
 6130SOL     OW24838   5.382   1.725   4.364
 6130SOL    HW224839   5.394   1.671   4.442
 6130SOL    HW324840   5.419   1.673   4.293
 6130SOL    MW424841   5.388   1.710   4.365
 6131SOL     OW24842   4.761   1.610   5.365
 6131SOL    HW224843   4.802   1.646   5.286
 6131SOL    HW324844   4.796   1.521   5.372
 6131SOL    MW424845   4.772   1.603   5.356
 6132SOL     OW24846   5.318   1.165   4.969
 6132SOL    HW224847   5.239   1.130   4.927
 6132SOL    HW324848   5.345   1.237   4.913
 6132SOL    MW424849   5.311   1.170   4.956
 6133SOL     OW24850   4.550   0.478   4.235
 6133SOL    HW224851   4.525   0.566   4.263
 6133SOL    HW324852   4.547   0.481   4.139
 6133SOL    MW424853   4.546   0.490   4.227
 6134SOL     OW24854   3.992   0.506   4.163
 6134SOL    HW224855   4.024   0.594   4.145
 6134SOL    HW324856   3.980   0.504   4.258
 6134SOL    MW424857   3.995   0.518   4.175
 6135SOL     OW24858   4.070   0.919   5.064
 6135SOL    HW224859   4.133   0.866   5.015
 6135SOL    HW324860   4.051   0.993   5.007
 6135SOL    MW424861   4.076   0.921   5.051
 6136SOL     OW24862   4.391   0.261   4.250
 6136SOL    HW224863   4.449   0.337   4.252
 6136SOL    HW324864   4.326   0.282   4.183
 6136SOL    MW424865   4.390   0.273   4.241
 6137SOL     OW24866   4.478   1.188   4.425
 6137SOL    HW224867   4.558   1.191   4.477
 6137SOL    HW324868   4.506   1.155   4.339
 6137SOL    MW424869   4.492   1.184   4.420
 6138SOL     OW24870   4.503   1.529   5.328
 6138SOL    HW224871   4.587   1.555   5.367
 6138SOL    HW324872   4.527   1.473   5.254
 6138SOL    MW424873   4.517   1.525   5.323
 6139SOL     OW24874   4.255   0.692   4.416
 6139SOL    HW224875   4.240   0.612   4.467
 6139SOL    HW324876   4.337   0.727   4.450
 6139SOL    MW424877   4.263   0.684   4.428
 6140SOL     OW24878   4.592   1.378   5.101
 6140SOL    HW224879   4.556   1.444   5.041
 6140SOL    HW324880   4.520   1.316   5.114
 6140SOL    MW424881   4.578   1.378   5.095
 6141SOL     OW24882   4.397   0.518   4.793
 6141SOL    HW224883   4.303   0.514   4.811
 6141SOL    HW324884   4.427   0.427   4.802
 6141SOL    MW424885   4.388   0.506   4.796
 6142SOL     OW24886   4.143   0.932   4.697
 6142SOL    HW224887   4.098   0.939   4.613
 6142SOL    HW324888   4.123   1.015   4.741
 6142SOL    MW424889   4.135   0.944   4.691
 6143SOL     OW24890   3.840   1.778   4.572
 6143SOL    HW224891   3.929   1.770   4.607
 6143SOL    HW324892   3.804   1.690   4.577
 6143SOL    MW424893   3.847   1.765   4.577
 6144SOL     OW24894   5.105   1.170   3.941
 6144SOL    HW224895   5.023   1.206   3.907
 6144SOL    HW324896   5.173   1.213   3.890
 6144SOL    MW424897   5.103   1.180   3.929
 6145SOL     OW24898   4.104   1.305   4.607
 6145SOL    HW224899   4.080   1.358   4.683
 6145SOL    HW324900   4.160   1.363   4.555
 6145SOL    MW424901   4.108   1.320   4.610
 6146SOL     OW24902   4.666   0.949   4.417
 6146SOL    HW224903   4.580   0.936   4.457
 6146SOL    HW324904   4.719   0.876   4.449
 6146SOL    MW424905   4.662   0.938   4.426
 6147SOL     OW24906   4.074   1.601   5.202
 6147SOL    HW224907   3.982   1.577   5.187
 6147SOL    HW324908   4.118   1.518   5.219
 6147SOL    MW424909   4.068   1.586   5.201
 6148SOL     OW24910   4.657   1.311   4.134
 6148SOL    HW224911   4.634   1.373   4.202
 6148SOL    HW324912   4.614   1.229   4.160
 6148SOL    MW424913   4.649   1.307   4.145
 6149SOL     OW24914   4.154   0.284   4.102
 6149SOL    HW224915   4.128   0.246   4.018
 6149SOL    HW324916   4.091   0.354   4.118
 6149SOL    MW424917   4.143   0.287   4.093
 6150SOL     OW24918   3.989   1.245   4.139
 6150SOL    HW224919   3.937   1.313   4.095
 6150SOL    HW324920   3.986   1.171   4.079
 6150SOL    MW424921   3.981   1.244   4.126
 6151SOL     OW24922   4.651   1.708   3.917
 6151SOL    HW224923   4.606   1.724   4.000
 6151SOL    HW324924   4.582   1.673   3.859
 6151SOL    MW424925   4.637   1.705   3.919
 6152SOL     OW24926   5.586   0.481   3.892
 6152SOL    HW224927   5.495   0.483   3.920
 6152SOL    HW324928   5.631   0.543   3.950
 6152SOL    MW424929   5.579   0.489   3.902
 6153SOL     OW24930   5.331   1.084   4.242
 6153SOL    HW224931   5.241   1.084   4.277
 6153SOL    HW324932   5.324   1.130   4.159
 6153SOL    MW424933   5.318   1.090   4.236
 6154SOL     OW24934   5.131   0.719   5.314
 6154SOL    HW224935   5.200   0.657   5.291
 6154SOL    HW324936   5.056   0.693   5.261
 6154SOL    MW424937   5.131   0.706   5.305
 6155SOL     OW24938   3.872   1.599   4.866
 6155SOL    HW224939   3.855   1.545   4.943
 6155SOL    HW324940   3.860   1.689   4.896
 6155SOL    MW424941   3.869   1.603   4.880
 6156SOL     OW24942   4.867   1.106   5.306
 6156SOL    HW224943   4.852   1.199   5.291
 6156SOL    HW324944   4.962   1.096   5.306
 6156SOL    MW424945   4.876   1.116   5.303
 6157SOL     OW24946   4.663   0.530   5.507
 6157SOL    HW224947   4.753   0.531   5.474
 6157SOL    HW324948   4.622   0.455   5.465
 6157SOL    MW424949   4.669   0.520   5.498
 6158SOL     OW24950   5.238   1.062   4.634
 6158SOL    HW224951   5.241   0.996   4.565
 6158SOL    HW324952   5.323   1.105   4.630
 6158SOL    MW424953   5.250   1.058   4.625
 6159SOL     OW24954   4.858   0.665   4.203
 6159SOL    HW224955   4.884   0.689   4.114
 6159SOL    HW324956   4.840   0.572   4.199
 6159SOL    MW424957   4.860   0.657   4.190
 6160SOL     OW24958   5.523   1.285   4.054
 6160SOL    HW224959   5.479   1.326   4.129
 6160SOL    HW324960   5.580   1.353   4.019
 6160SOL    MW424961   5.525   1.299   4.059
 6161SOL     OW24962   4.443   0.334   5.457
 6161SOL    HW224963   4.453   0.260   5.397
 6161SOL    HW324964   4.479   0.303   5.540
 6161SOL    MW424965   4.449   0.320   5.459
 6162SOL     OW24966   4.179   1.701   4.372
 6162SOL    HW224967   4.211   1.789   4.350
 6162SOL    HW324968   4.132   1.673   4.294
 6162SOL    MW424969   4.178   1.709   4.359
 6163SOL     OW24970   3.895   1.761   3.949
 6163SOL    HW224971   3.924   1.851   3.941
 6163SOL    HW324972   3.845   1.744   3.870
 6163SOL    MW424973   3.893   1.769   3.938
 6164SOL     OW24974   4.682   0.016   4.834
 6164SOL    HW224975   4.641   0.094   4.796
 6164SOL    HW324976   4.776   0.034   4.829
 6164SOL    MW424977   4.688   0.028   4.829
 6165SOL     OW24978   5.299   1.569   3.920
 6165SOL    HW224979   5.347   1.638   3.966
 6165SOL    HW324980   5.220   1.613   3.889
 6165SOL    MW424981   5.294   1.583   3.923
 6166SOL     OW24982   4.697   0.694   3.864
 6166SOL    HW224983   4.699   0.641   3.785
 6166SOL    HW324984   4.785   0.731   3.870
 6166SOL    MW424985   4.709   0.693   3.853
 6167SOL     OW24986   5.311   0.620   4.200
 6167SOL    HW224987   5.350   0.620   4.287
 6167SOL    HW324988   5.252   0.696   4.200
 6167SOL    MW424989   5.308   0.631   4.211
 6168SOL     OW24990   4.628   0.987   5.329
 6168SOL    HW224991   4.605   0.967   5.419
 6168SOL    HW324992   4.713   1.031   5.334
 6168SOL    MW424993   4.635   0.990   5.341
 6169SOL     OW24994   4.708   0.124   5.089
 6169SOL    HW224995   4.714   0.086   5.002
 6169SOL    HW324996   4.697   0.218   5.074
 6169SOL    MW424997   4.709   0.132   5.077
 6170SOL     OW24998   4.797   0.613   4.923
 6170SOL    HW224999   4.872   0.642   4.870
 6170SOL    HW325000   4.729   0.678   4.907
 6170SOL    MW425001   4.798   0.625   4.913
 6171SOL     OW25002   5.347   0.581   5.200
 6171SOL    HW225003   5.328   0.490   5.179
 6171SOL    HW325004   5.325   0.630   5.121
 6171SOL    MW425005   5.342   0.574   5.187
 6172SOL     OW25006   5.489   1.675   5.104
 6172SOL    HW225007   5.417   1.637   5.155
 6172SOL    HW325008   5.506   1.760   5.145
 6172SOL    MW425009   5.483   1.680   5.116
 6173SOL     OW25010   4.794   0.319   5.306
 6173SOL    HW225011   4.760   0.358   5.225
 6173SOL    HW325012   4.772   0.227   5.299
 6173SOL    MW425013   4.787   0.312   5.296
 6174SOL     OW25014   5.203   1.133   5.382
 6174SOL    HW225015   5.285   1.174   5.412
 6174SOL    HW325016   5.166   1.095   5.462
 6174SOL    MW425017   5.209   1.134   5.397
 6175SOL     OW25018   5.498   0.506   4.366
 6175SOL    HW225019   5.587   0.475   4.383
 6175SOL    HW325020   5.441   0.446   4.414
 6175SOL    MW425021   5.501   0.494   4.375
 6176SOL     OW25022   3.924   0.220   4.395
 6176SOL    HW225023   3.915   0.160   4.321
 6176SOL    HW325024   3.857   0.191   4.458
 6176SOL    MW425025   3.914   0.207   4.393
 6177SOL     OW25026   4.867   1.313   3.956
 6177SOL    HW225027   4.817   1.315   4.038
 6177SOL    HW325028   4.801   1.331   3.888
 6177SOL    MW425029   4.853   1.315   3.958
 6178SOL     OW25030   3.871   0.393   4.758
 6178SOL    HW225031   3.843   0.484   4.767
 6178SOL    HW325032   3.808   0.354   4.697
 6178SOL    MW425033   3.858   0.399   4.752
 6179SOL     OW25034   4.330   1.731   4.064
 6179SOL    HW225035   4.251   1.689   4.097
 6179SOL    HW325036   4.396   1.714   4.131
 6179SOL    MW425037   4.329   1.723   4.077
 6180SOL     OW25038   5.458   1.251   5.461
 6180SOL    HW225039   5.508   1.177   5.493
 6180SOL    HW325040   5.404   1.278   5.536
 6180SOL    MW425041   5.458   1.245   5.474
 6181SOL     OW25042   4.466   1.146   3.771
 6181SOL    HW225043   4.388   1.092   3.758
 6181SOL    HW325044   4.437   1.219   3.824
 6181SOL    MW425045   4.452   1.148   3.776
 6182SOL     OW25046   5.592   0.886   4.963
 6182SOL    HW225047   5.608   0.924   4.876
 6182SOL    HW325048   5.626   0.952   5.024
 6182SOL    MW425049   5.599   0.899   4.959
 6183SOL     OW25050   5.384   1.595   4.632
 6183SOL    HW225051   5.413   1.662   4.693
 6183SOL    HW325052   5.365   1.519   4.687
 6183SOL    MW425053   5.386   1.595   4.647
 6184SOL     OW25054   5.047   1.662   3.839
 6184SOL    HW225055   4.973   1.625   3.889
 6184SOL    HW325056   5.055   1.752   3.872
 6184SOL    MW425057   5.038   1.669   3.851
 6185SOL     OW25058   3.855   0.668   4.928
 6185SOL    HW225059   3.917   0.698   4.994
 6185SOL    HW325060   3.789   0.737   4.922
 6185SOL    MW425061   3.854   0.681   4.935
 6186SOL     OW25062   5.271   1.336   3.781
 6186SOL    HW225063   5.218   1.385   3.717
 6186SOL    HW325064   5.302   1.402   3.842
 6186SOL    MW425065   5.269   1.350   3.779
 6187SOL     OW25066   4.496   0.225   3.836
 6187SOL    HW225067   4.444   0.145   3.824
 6187SOL    HW325068   4.583   0.202   3.804
 6187SOL    MW425069   4.499   0.211   3.830
 6188SOL     OW25070   3.950   1.777   5.380
 6188SOL    HW225071   3.924   1.845   5.318
 6188SOL    HW325072   3.998   1.714   5.328
 6188SOL    MW425073   3.952   1.777   5.366
 6189SOL     OW25074   4.002   1.096   4.887
 6189SOL    HW225075   4.055   1.171   4.912
 6189SOL    HW325076   3.921   1.134   4.853
 6189SOL    MW425077   3.998   1.111   4.887
 6190SOL     OW25078   4.542   1.000   4.875
 6190SOL    HW225079   4.570   0.909   4.887
 6190SOL    HW325080   4.471   0.994   4.811
 6190SOL    MW425081   4.535   0.988   4.870
 6191SOL     OW25082   3.857   0.865   4.293
 6191SOL    HW225083   3.948   0.880   4.320
 6191SOL    HW325084   3.860   0.786   4.239
 6191SOL    MW425085   3.869   0.857   4.291
 6192SOL     OW25086   4.093   0.573   5.547
 6192SOL    HW225087   4.040   0.653   5.554
 6192SOL    HW325088   4.163   0.585   5.612
 6192SOL    MW425089   4.095   0.586   5.555
 6193SOL     OW25090   4.479   0.123   5.254
 6193SOL    HW225091   4.456   0.031   5.256
 6193SOL    HW325092   4.565   0.125   5.211
 6193SOL    MW425093   4.486   0.113   5.250
 6194SOL     OW25094   4.163   0.647   5.293
 6194SOL    HW225095   4.243   0.697   5.279
 6194SOL    HW325096   4.154   0.641   5.388
 6194SOL    MW425097   4.172   0.653   5.303
 6195SOL     OW25098   4.484   1.797   4.667
 6195SOL    HW225099   4.573   1.812   4.697
 6195SOL    HW325100   4.479   1.844   4.583
 6195SOL    MW425101   4.494   1.805   4.660
 6196SOL     OW25102   3.865   1.477   4.332
 6196SOL    HW225103   3.837   1.516   4.414
 6196SOL    HW325104   3.885   1.386   4.354
 6196SOL    MW425105   3.863   1.469   4.345
 6197SOL     OW25106   4.698   1.520   4.367
 6197SOL    HW225107   4.781   1.474   4.351
 6197SOL    HW325108   4.688   1.519   4.463
 6197SOL    MW425109   4.708   1.513   4.377
 6198SOL     OW25110   5.530   0.665   4.681
 6198SOL    HW225111   5.619   0.695   4.663
 6198SOL    HW325112   5.510   0.605   4.610
 6198SOL    MW425113   5.539   0.662   4.670
 6199SOL     OW25114   5.381   0.844   5.561
 6199SOL    HW225115   5.436   0.768   5.542
 6199SOL    HW325116   5.383   0.852   5.656
 6199SOL    MW425117   5.389   0.835   5.569
 6200SOL     OW25118   4.431   1.577   3.772
 6200SOL    HW225119   4.371   1.646   3.742
 6200SOL    HW325120   4.376   1.519   3.825
 6200SOL    MW425121   4.415   1.579   3.774
 6201SOL     OW25122   4.869   0.222   3.995
 6201SOL    HW225123   4.802   0.198   3.932
 6201SOL    HW325124   4.934   0.271   3.944
 6201SOL    MW425125   4.869   0.224   3.980
 6202SOL     OW25126   4.676   0.406   5.080
 6202SOL    HW225127   4.595   0.447   5.108
 6202SOL    HW325128   4.723   0.474   5.032
 6202SOL    MW425129   4.671   0.421   5.078
 6203SOL     OW25130   4.936   0.744   4.703
 6203SOL    HW225131   4.949   0.838   4.713
 6203SOL    HW325132   4.897   0.734   4.617
 6203SOL    MW425133   4.932   0.755   4.693
 6204SOL     OW25134   4.388   0.939   4.507
 6204SOL    HW225135   4.299   0.930   4.540
 6204SOL    HW325136   4.392   1.029   4.475
 6204SOL    MW425137   4.377   0.950   4.507
 6205SOL     OW25138   5.187   0.522   4.502
 6205SOL    HW225139   5.132   0.443   4.501
 6205SOL    HW325140   5.169   0.563   4.586
 6205SOL    MW425141   5.177   0.517   4.511
 6206SOL     OW25142   4.158   0.209   5.319
 6206SOL    HW225143   4.079   0.227   5.371
 6206SOL    HW325144   4.153   0.271   5.246
 6206SOL    MW425145   4.148   0.219   5.316
 6207SOL     OW25146   4.806   0.726   4.459
 6207SOL    HW225147   4.743   0.658   4.483
 6207SOL    HW325148   4.826   0.707   4.367
 6207SOL    MW425149   4.800   0.713   4.451
 6208SOL     OW25150   4.062   1.621   4.161
 6208SOL    HW225151   4.023   1.668   4.087
 6208SOL    HW325152   3.996   1.556   4.186
 6208SOL    MW425153   4.049   1.619   4.155
 6209SOL     OW25154   4.554   1.030   4.185
 6209SOL    HW225155   4.556   1.004   4.092
 6209SOL    HW325156   4.612   0.967   4.228
 6209SOL    MW425157   4.562   1.019   4.179
 6210SOL     OW25158   5.107   1.590   4.957
 6210SOL    HW225159   5.032   1.636   4.995
 6210SOL    HW325160   5.089   1.497   4.974
 6210SOL    MW425161   5.096   1.584   4.965
 6211SOL     OW25162   5.111   1.798   4.387
 6211SOL    HW225163   5.054   1.751   4.326
 6211SOL    HW325164   5.197   1.759   4.374
 6211SOL    MW425165   5.114   1.789   4.377
 6212SOL     OW25166   3.869   1.208   4.452
 6212SOL    HW225167   3.933   1.240   4.515
 6212SOL    HW325168   3.918   1.144   4.400
 6212SOL    MW425169   3.884   1.204   4.453
 6213SOL     OW25170   4.369   1.284   5.434
 6213SOL    HW225171   4.417   1.367   5.421
 6213SOL    HW325172   4.426   1.232   5.490
 6213SOL    MW425173   4.383   1.288   5.440
 6214SOL     OW25174   3.945   1.526   5.574
 6214SOL    HW225175   4.001   1.450   5.589
 6214SOL    HW325176   3.894   1.504   5.496
 6214SOL    MW425177   3.945   1.513   5.565
 6215SOL     OW25178   4.712   0.083   3.790
 6215SOL    HW225179   4.768   0.075   3.712
 6215SOL    HW325180   4.689  -0.007   3.812
 6215SOL    MW425181   4.717   0.070   3.783
 6216SOL     OW25182   5.217   0.934   3.995
 6216SOL    HW225183   5.184   1.023   3.985
 6216SOL    HW325184   5.182   0.905   4.080
 6216SOL    MW425185   5.207   0.943   4.006
 6217SOL     OW25186   4.830   1.363   5.183
 6217SOL    HW225187   4.741   1.369   5.151
 6217SOL    HW325188   4.874   1.442   5.151
 6217SOL    MW425189   4.825   1.373   5.175
 6218SOL     OW25190   4.123   0.031   5.525
 6218SOL    HW225191   4.051  -0.004   5.473
 6218SOL    HW325192   4.181   0.072   5.460
 6218SOL    MW425193   4.121   0.032   5.510
 6219SOL     OW25194   4.147   1.521   4.824
 6219SOL    HW225195   4.192   1.583   4.881
 6219SOL    HW325196   4.054   1.540   4.837
 6219SOL    MW425197   4.140   1.531   4.831
 6220SOL     OW25198   5.587   1.050   5.178
 6220SOL    HW225199   5.502   1.063   5.137
 6220SOL    HW325200   5.567   1.014   5.265
 6220SOL    MW425201   5.574   1.046   5.183
 6221SOL     OW25202   4.569   1.589   4.932
 6221SOL    HW225203   4.593   1.578   4.841
 6221SOL    HW325204   4.492   1.646   4.930
 6221SOL    MW425205   4.561   1.594   4.921
 6222SOL     OW25206   4.211   0.972   3.787
 6222SOL    HW225207   4.134   0.985   3.843
 6222SOL    HW325208   4.175   0.936   3.706
 6222SOL    MW425209   4.197   0.968   3.784
 6223SOL     OW25210   4.864   0.945   4.030
 6223SOL    HW225211   4.774   0.966   4.005
 6223SOL    HW325212   4.891   1.018   4.086
 6223SOL    MW425213   4.856   0.957   4.033
 6224SOL     OW25214   4.364   1.294   4.722
 6224SOL    HW225215   4.357   1.273   4.816
 6224SOL    HW325216   4.282   1.262   4.685
 6224SOL    MW425217   4.352   1.288   4.729
 6225SOL     OW25218   5.228   0.304   5.124
 6225SOL    HW225219   5.175   0.306   5.204
 6225SOL    HW325220   5.213   0.217   5.087
 6225SOL    MW425221   5.220   0.294   5.129
 6226SOL     OW25222   3.810   1.386   5.385
 6226SOL    HW225223   3.854   1.319   5.331
 6226SOL    HW325224   3.725   1.348   5.405
 6226SOL    MW425225   3.805   1.372   5.381
 6227SOL     OW25226   4.493   0.061   4.437
 6227SOL    HW225227   4.422   0.122   4.419
 6227SOL    HW325228   4.544   0.058   4.356
 6227SOL    MW425229   4.489   0.067   4.424
 6228SOL     OW25230   4.251   1.301   4.186
 6228SOL    HW225231   4.244   1.333   4.276
 6228SOL    HW325232   4.161   1.285   4.158
 6228SOL    MW425233   4.239   1.303   4.193
 6229SOL     OW25234   4.846   1.694   5.095
 6229SOL    HW225235   4.766   1.679   5.045
 6229SOL    HW325236   4.853   1.789   5.102
 6229SOL    MW425237   4.837   1.705   5.089
 6230SOL     OW25238   4.960   1.659   4.585
 6230SOL    HW225239   5.007   1.732   4.544
 6230SOL    HW325240   4.881   1.698   4.621
 6230SOL    MW425241   4.955   1.674   4.584
 6231SOL     OW25242   5.368   1.754   4.860
 6231SOL    HW225243   5.411   1.724   4.940
 6231SOL    HW325244   5.287   1.702   4.857
 6231SOL    MW425245   5.363   1.743   4.870
 6232SOL     OW25246   4.453   0.718   5.567
 6232SOL    HW225247   4.523   0.660   5.539
 6232SOL    HW325248   4.396   0.663   5.622
 6232SOL    MW425249   4.455   0.705   5.571
 6233SOL     OW25250   5.240   0.930   5.200
 6233SOL    HW225251   5.245   0.983   5.280
 6233SOL    HW325252   5.202   0.847   5.228
 6233SOL    MW425253   5.236   0.925   5.215
 6234SOL     OW25254   4.880   0.065   5.446
 6234SOL    HW225255   4.875  -0.028   5.427
 6234SOL    HW325256   4.963   0.076   5.492
 6234SOL    MW425257   4.888   0.054   5.450
 6235SOL     OW25258   4.254   0.585   3.900
 6235SOL    HW225259   4.220   0.641   3.970
 6235SOL    HW325260   4.325   0.535   3.940
 6235SOL    MW425261   4.260   0.586   3.914
 6236SOL     OW25262   5.350   1.336   4.722
 6236SOL    HW225263   5.385   1.318   4.635
 6236SOL    HW325264   5.255   1.337   4.709
 6236SOL    MW425265   5.342   1.333   4.709
 6237SOL     OW25266   4.779   0.984   5.091
 6237SOL    HW225267   4.822   1.019   5.169
 6237SOL    HW325268   4.762   1.061   5.037
 6237SOL    MW425269   4.782   0.999   5.094
 6238SOL     OW25270   5.310   0.471   3.964
 6238SOL    HW225271   5.302   0.542   3.901
 6238SOL    HW325272   5.328   0.515   4.047
 6238SOL    MW425273   5.311   0.485   3.966
 6239SOL     OW25274   4.170   0.126   4.393
 6239SOL    HW225275   4.220   0.169   4.324
 6239SOL    HW325276   4.085   0.170   4.393
 6239SOL    MW425277   4.167   0.139   4.384
 6240SOL     OW25278   3.929   1.188   5.253
 6240SOL    HW225279   3.957   1.141   5.331
 6240SOL    HW325280   3.850   1.143   5.224
 6240SOL    MW425281   3.922   1.177   5.259
 6241SOL     OW25282   4.437   0.515   5.220
 6241SOL    HW225283   4.409   0.603   5.244
 6241SOL    HW325284   4.406   0.459   5.291
 6241SOL    MW425285   4.429   0.518   5.232
 6242SOL     OW25286   4.979   0.733   3.939
 6242SOL    HW225287   5.026   0.751   3.858
 6242SOL    HW325288   4.945   0.817   3.967
 6242SOL    MW425289   4.981   0.747   3.932
 6243SOL     OW25290   4.092   0.911   4.433
 6243SOL    HW225291   4.150   0.967   4.381
 6243SOL    HW325292   4.136   0.826   4.435
 6243SOL    MW425293   4.105   0.908   4.426
 6244SOL     OW25294   5.232   0.263   4.270
 6244SOL    HW225295   5.154   0.213   4.295
 6244SOL    HW325296   5.203   0.354   4.270
 6244SOL    MW425297   5.218   0.267   4.273
 6245SOL     OW25298   4.818   0.225   4.429
 6245SOL    HW225299   4.838   0.300   4.373
 6245SOL    HW325300   4.798   0.264   4.514
 6245SOL    MW425301   4.819   0.241   4.433
 6246SOL     OW25302   4.714   1.475   3.761
 6246SOL    HW225303   4.741   1.553   3.713
 6246SOL    HW325304   4.621   1.490   3.780
 6246SOL    MW425305   4.705   1.488   3.757
 6247SOL     OW25306   5.578   0.998   5.448
 6247SOL    HW225307   5.491   0.978   5.484
 6247SOL    HW325308   5.632   0.924   5.473
 6247SOL    MW425309   5.573   0.987   5.456
 6248SOL     OW25310   3.799   1.511   4.605
 6248SOL    HW225311   3.831   1.515   4.696
 6248SOL    HW325312   3.704   1.519   4.613
 6248SOL    MW425313   3.791   1.514   4.618
 6249SOL     OW25314   3.754   0.637   4.152
 6249SOL    HW225315   3.694   0.609   4.222
 6249SOL    HW325316   3.828   0.577   4.158
 6249SOL    MW425317   3.756   0.626   4.161
 6250SOL     OW25318   5.322   1.849   5.586
 6250SOL    HW225319   5.367   1.773   5.551
 6250SOL    HW325320   5.360   1.862   5.673
 6250SOL    MW425321   5.332   1.842   5.592
 6251SOL     OW25322   4.922   1.368   4.312
 6251SOL    HW225323   4.945   1.319   4.390
 6251SOL    HW325324   5.003   1.410   4.284
 6251SOL    MW425325   4.935   1.368   4.319
 6252SOL     OW25326   4.180   0.376   5.041
 6252SOL    HW225327   4.213   0.457   5.081
 6252SOL    HW325328   4.153   0.402   4.953
 6252SOL    MW425329   4.179   0.390   5.035
 6253SOL     OW25330   4.134   0.343   4.777
 6253SOL    HW225331   4.164   0.257   4.748
 6253SOL    HW325332   4.039   0.336   4.780
 6253SOL    MW425333   4.126   0.332   4.775
 6254SOL     OW25334   4.963   0.552   5.468
 6254SOL    HW225335   5.015   0.487   5.421
 6254SOL    HW325336   4.921   0.603   5.398
 6254SOL    MW425337   4.964   0.549   5.451
 6255SOL     OW25338   5.062   0.347   5.329
 6255SOL    HW225339   4.969   0.331   5.316
 6255SOL    HW325340   5.088   0.285   5.397
 6255SOL    MW425341   5.052   0.337   5.336
 6256SOL     OW25342   4.277   0.121   4.668
 6256SOL    HW225343   4.287   0.030   4.694
 6256SOL    HW325344   4.233   0.117   4.583
 6256SOL    MW425345   4.273   0.109   4.660
 6257SOL     OW25346   4.371   1.736   5.214
 6257SOL    HW225347   4.288   1.721   5.259
 6257SOL    HW325348   4.430   1.669   5.249
 6257SOL    MW425349   4.369   1.726   5.224
 6258SOL     OW25350   5.428   0.443   4.839
 6258SOL    HW225351   5.361   0.476   4.899
 6258SOL    HW325352   5.471   0.521   4.805
 6258SOL    MW425353   5.426   0.458   4.843
 6259SOL     OW25354   5.606   1.163   4.809
 6259SOL    HW225355   5.599   1.103   4.734
 6259SOL    HW325356   5.532   1.223   4.798
 6259SOL    MW425357   5.596   1.163   4.798
 6260SOL     OW25358   4.988   1.025   4.727
 6260SOL    HW225359   5.002   0.997   4.818
 6260SOL    HW325360   5.074   1.056   4.699
 6260SOL    MW425361   5.001   1.026   4.736
 6261SOL     OW25362   5.071   0.520   5.006
 6261SOL    HW225363   5.092   0.521   4.913
 6261SOL    HW325364   5.116   0.442   5.039
 6261SOL    MW425365   5.078   0.510   4.998
 6262SOL     OW25366   5.564   0.651   5.548
 6262SOL    HW225367   5.601   0.596   5.617
 6262SOL    HW325368   5.589   0.608   5.466
 6262SOL    MW425369   5.571   0.639   5.547
 6263SOL     OW25370   5.111   0.949   5.600
 6263SOL    HW225371   5.177   0.897   5.554
 6263SOL    HW325372   5.131   0.936   5.693
 6263SOL    MW425373   5.122   0.940   5.607
 6264SOL     OW25374   5.122   0.810   4.226
 6264SOL    HW225375   5.037   0.780   4.196
 6264SOL    HW325376   5.114   0.817   4.321
 6264SOL    MW425377   5.110   0.808   4.235
 6265SOL     OW25378   4.198   1.273   4.957
 6265SOL    HW225379   4.210   1.300   5.048
 6265SOL    HW325380   4.179   1.354   4.910
 6265SOL    MW425381   4.197   1.288   4.962
 6266SOL     OW25382   4.482   0.253   4.780
 6266SOL    HW225383   4.455   0.255   4.871
 6266SOL    HW325384   4.412   0.205   4.735
 6266SOL    MW425385   4.470   0.249   4.787
 6267SOL     OW25386   4.336   1.745   4.942
 6267SOL    HW225387   4.388   1.822   4.919
 6267SOL    HW325388   4.345   1.737   5.037
 6267SOL    MW425389   4.345   1.752   4.953
 6268SOL     OW25390   5.238   1.330   5.174
 6268SOL    HW225391   5.223   1.259   5.237
 6268SOL    HW325392   5.284   1.288   5.102
 6268SOL    MW425393   5.244   1.314   5.174
 6269SOL     OW25394   4.312   1.061   5.291
 6269SOL    HW225395   4.349   1.066   5.203
 6269SOL    HW325396   4.351   1.134   5.338
 6269SOL    MW425397   4.322   1.071   5.286
 6270SOL     OW25398   4.492   1.104   5.103
 6270SOL    HW225399   4.551   1.050   5.156
 6270SOL    HW325400   4.507   1.076   5.013
 6270SOL    MW425401   4.502   1.093   5.099
 6271SOL     OW25402   4.495   0.476   3.952
 6271SOL    HW225403   4.568   0.525   3.915
 6271SOL    HW325404   4.511   0.385   3.926
 6271SOL    MW425405   4.507   0.471   3.945
 6272SOL     OW25406   5.303   1.593   5.275
 6272SOL    HW225407   5.345   1.578   5.360
 6272SOL    HW325408   5.294   1.506   5.237
 6272SOL    MW425409   5.307   1.581   5.282
 6273SOL     OW25410   4.963   0.072   4.866
 6273SOL    HW225411   5.018   0.081   4.788
 6273SOL    HW325412   5.018   0.106   4.937
 6273SOL    MW425413   4.977   0.077   4.865
 6274SOL     OW25414   3.970   0.985   4.050
 6274SOL    HW225415   3.907   1.001   3.979
 6274SOL    HW325416   3.917   0.948   4.121
 6274SOL    MW425417   3.955   0.982   4.050
 6275SOL     OW25418   4.326   1.339   3.909
 6275SOL    HW225419   4.341   1.315   4.001
 6275SOL    HW325420   4.234   1.317   3.893
 6275SOL    MW425421   4.316   1.332   3.919
 6276SOL     OW25422   4.865   1.570   4.061
 6276SOL    HW225423   4.873   1.488   4.012
 6276SOL    HW325424   4.784   1.609   4.028
 6276SOL    MW425425   4.855   1.565   4.051
 6277SOL     OW25426   4.124   1.728   4.630
 6277SOL    HW225427   4.128   1.639   4.665
 6277SOL    HW325428   4.150   1.719   4.539
 6277SOL    MW425429   4.127   1.716   4.622
 6278SOL     OW25430   4.741   1.206   4.873
 6278SOL    HW225431   4.673   1.140   4.889
 6278SOL    HW325432   4.759   1.200   4.780
 6278SOL    MW425433   4.734   1.197   4.864
 6279SOL     OW25434   3.830   1.481   5.124
 6279SOL    HW225435   3.820   1.439   5.210
 6279SOL    HW325436   3.751   1.534   5.114
 6279SOL    MW425437   3.819   1.482   5.135
 6280SOL     OW25438   4.734   0.345   4.694
 6280SOL    HW225439   4.664   0.297   4.739
 6280SOL    HW325440   4.766   0.408   4.758
 6280SOL    MW425441   4.729   0.347   4.708
 6281SOL     OW25442   4.385   0.781   5.314
 6281SOL    HW225443   4.378   0.876   5.302
 6281SOL    HW325444   4.394   0.770   5.409
 6281SOL    MW425445   4.386   0.793   5.324
 6282SOL     OW25446   4.106   1.296   5.572
 6282SOL    HW225447   4.178   1.298   5.509
 6282SOL    HW325448   4.076   1.205   5.571
 6282SOL    MW425449   4.111   1.285   5.564
 6283SOL     OW25450   5.390   1.589   5.523
 6283SOL    HW225451   5.363   1.586   5.614
 6283SOL    HW325452   5.486   1.593   5.526
 6283SOL    MW425453   5.400   1.589   5.535
 6284SOL     OW25454   4.201   0.451   4.507
 6284SOL    HW225455   4.272   0.399   4.470
 6284SOL    HW325456   4.187   0.416   4.594
 6284SOL    MW425457   4.209   0.440   4.514
 6285SOL     OW25458   3.756   1.786   5.579
 6285SOL    HW225459   3.806   1.764   5.501
 6285SOL    HW325460   3.764   1.881   5.587
 6285SOL    MW425461   3.764   1.795   5.570
 6286SOL     OW25462   4.517   1.544   4.583
 6286SOL    HW225463   4.445   1.481   4.596
 6286SOL    HW325464   4.478   1.629   4.601
 6286SOL    MW425465   4.501   1.547   4.586
 6287SOL     OW25466   4.837   0.392   4.231
 6287SOL    HW225467   4.859   0.329   4.163
 6287SOL    HW325468   4.742   0.384   4.242
 6287SOL    MW425469   4.827   0.383   4.223
 6288SOL     OW25470   3.922   0.082   4.163
 6288SOL    HW225471   3.993   0.103   4.102
 6288SOL    HW325472   3.876   0.010   4.121
 6288SOL    MW425473   3.926   0.076   4.149
 6289SOL     OW25474   3.753   0.549   5.306
 6289SOL    HW225475   3.817   0.615   5.281
 6289SOL    HW325476   3.672   0.576   5.263
 6289SOL    MW425477   3.751   0.561   5.298
 6290SOL     OW25478   5.491   1.456   4.263
 6290SOL    HW225479   5.461   1.389   4.324
 6290SOL    HW325480   5.585   1.462   4.277
 6290SOL    MW425481   5.499   1.448   4.273
 6291SOL     OW25482   5.047   1.133   4.193
 6291SOL    HW225483   5.019   1.219   4.226
 6291SOL    HW325484   5.075   1.149   4.103
 6291SOL    MW425485   5.047   1.147   4.185
 6292SOL     OW25486   4.709   0.053   4.246
 6292SOL    HW225487   4.746   0.112   4.311
 6292SOL    HW325488   4.686   0.109   4.172
 6292SOL    MW425489   4.710   0.068   4.245
 6293SOL     OW25490   5.562   0.935   4.668
 6293SOL    HW225491   5.553   0.967   4.579
 6293SOL    HW325492   5.515   0.851   4.668
 6293SOL    MW425493   5.555   0.928   4.658
 6294SOL     OW25494   3.938   0.775   5.247
 6294SOL    HW225495   3.959   0.844   5.185
 6294SOL    HW325496   4.018   0.722   5.252
 6294SOL    MW425497   3.951   0.776   5.241
 6295SOL     OW25498   5.474   0.866   4.369
 6295SOL    HW225499   5.568   0.855   4.357
 6295SOL    HW325500   5.450   0.938   4.310
 6295SOL    MW425501   5.484   0.874   4.360
 6296SOL     OW25502   3.923   0.790   5.514
 6296SOL    HW225503   3.849   0.734   5.540
 6296SOL    HW325504   3.918   0.793   5.419
 6296SOL    MW425505   3.912   0.783   5.504
 6297SOL     OW25506   4.089   0.077   4.964
 6297SOL    HW225507   4.132   0.161   4.984
 6297SOL    HW325508   4.162   0.015   4.957
 6297SOL    MW425509   4.104   0.080   4.965
 6298SOL     OW25510   4.130   0.744   4.142
 6298SOL    HW225511   4.130   0.839   4.127
 6298SOL    HW325512   4.207   0.728   4.196
 6298SOL    MW425513   4.140   0.755   4.147
 6299SOL     OW25514   4.906   0.603   5.206
 6299SOL    HW225515   4.942   0.576   5.122
 6299SOL    HW325516   4.819   0.637   5.185
 6299SOL    MW425517   4.900   0.604   5.193
 6300SOL     OW25518   3.889   0.475   4.431
 6300SOL    HW225519   3.951   0.482   4.504
 6300SOL    HW325520   3.889   0.382   4.408
 6300SOL    MW425521   3.897   0.464   4.438
 6301SOL     OW25522   5.436   1.815   3.963
 6301SOL    HW225523   5.503   1.848   3.903
 6301SOL    HW325524   5.393   1.894   3.997
 6301SOL    MW425525   5.438   1.830   3.959
 6302SOL     OW25526   4.571   0.736   4.915
 6302SOL    HW225527   4.529   0.654   4.891
 6302SOL    HW325528   4.572   0.735   5.011
 6302SOL    MW425529   4.564   0.725   4.924
 6303SOL     OW25530   5.242   1.869   5.314
 6303SOL    HW225531   5.245   1.775   5.297
 6303SOL    HW325532   5.265   1.877   5.406
 6303SOL    MW425533   5.245   1.857   5.324
 6304SOL     OW25534   4.375   0.206   5.020
 6304SOL    HW225535   4.306   0.269   5.041
 6304SOL    HW325536   4.402   0.170   5.105
 6304SOL    MW425537   4.369   0.209   5.033
 6305SOL     OW25538   3.758   1.047   3.889
 6305SOL    HW225539   3.727   1.112   3.952
 6305SOL    HW325540   3.707   0.969   3.908
 6305SOL    MW425541   3.748   1.044   3.899
 6306SOL     OW25542   5.202   0.798   4.481
 6306SOL    HW225543   5.282   0.813   4.430
 6306SOL    HW325544   5.195   0.703   4.487
 6306SOL    MW425545   5.211   0.787   4.476
 6307SOL     OW25546   4.342   1.847   3.831
 6307SOL    HW225547   4.247   1.847   3.823
 6307SOL    HW325548   4.358   1.793   3.909
 6307SOL    MW425549   4.332   1.841   3.840
 6308SOL     OW25550   4.652   0.724   5.178
 6308SOL    HW225551   4.721   0.791   5.175
 6308SOL    HW325552   4.585   0.762   5.234
 6308SOL    MW425553   4.653   0.737   5.185
 6309SOL     OW25554   4.070   1.024   5.426
 6309SOL    HW225555   4.024   0.940   5.428
 6309SOL    HW325556   4.127   1.018   5.350
 6309SOL    MW425557   4.072   1.012   5.418
 6310SOL     OW25558   5.187   0.667   3.747
 6310SOL    HW225559   5.115   0.643   3.689
 6310SOL    HW325560   5.253   0.704   3.689
 6310SOL    MW425561   5.186   0.669   3.732
 6311SOL     OW25562   4.321   1.399   4.427
 6311SOL    HW225563   4.386   1.332   4.448
 6311SOL    HW325564   4.373   1.476   4.404
 6311SOL    MW425565   4.336   1.401   4.426
 6312SOL     OW25566   4.582   0.564   4.557
 6312SOL    HW225567   4.522   0.582   4.629
 6312SOL    HW325568   4.616   0.476   4.576
 6312SOL    MW425569   4.578   0.554   4.570
 6313SOL     OW25570   4.807   1.147   4.576
 6313SOL    HW225571   4.899   1.128   4.594
 6313SOL    HW325572   4.780   1.077   4.516
 6313SOL    MW425573   4.815   1.135   4.570
 6314SOL     OW25574   4.600   0.967   3.931
 6314SOL    HW225575   4.586   0.879   3.896
 6314SOL    HW325576   4.551   1.024   3.872
 6314SOL    MW425577   4.592   0.962   3.919
 6315SOL     OW25578   5.081   1.385   4.672
 6315SOL    HW225579   5.054   1.469   4.637
 6315SOL    HW325580   5.041   1.380   4.759
 6315SOL    MW425581   5.074   1.394   4.678
 6316SOL     OW25582   5.000   1.333   4.940
 6316SOL    HW225583   5.011   1.300   5.029
 6316SOL    HW325584   4.919   1.292   4.909
 6316SOL    MW425585   4.990   1.325   4.946
 6317SOL     OW25586   4.013   0.691   4.710
 6317SOL    HW225587   3.963   0.690   4.791
 6317SOL    HW325588   4.033   0.783   4.694
 6317SOL    MW425589   4.009   0.703   4.718
 6318SOL     OW25590   5.080   1.455   5.472
 6318SOL    HW225591   5.080   1.549   5.488
 6318SOL    HW325592   5.125   1.445   5.388
 6318SOL    MW425593   5.086   1.465   5.463
 6319SOL     OW25594   4.608   0.736   4.147
 6319SOL    HW225595   4.588   0.722   4.054
 6319SOL    HW325596   4.701   0.715   4.154
 6319SOL    MW425597   4.618   0.731   4.136
 6320SOL     OW25598   3.935   0.359   5.451
 6320SOL    HW225599   3.892   0.418   5.388
 6320SOL    HW325600   4.003   0.414   5.491
 6320SOL    MW425601   3.939   0.374   5.448
 6321SOL     OW25602   5.047   0.979   4.996
 6321SOL    HW225603   5.110   0.976   5.069
 6321SOL    HW325604   4.963   0.997   5.038
 6321SOL    MW425605   5.043   0.981   5.011
 6322SOL     OW25606   4.591   1.694   4.185
 6322SOL    HW225607   4.649   1.765   4.212
 6322SOL    HW325608   4.614   1.622   4.243
 6322SOL    MW425609   4.602   1.694   4.196
 6323SOL     OW25610   3.834  -0.001   4.874
 6323SOL    HW225611   3.825   0.000   4.779
 6323SOL    HW325612   3.928   0.011   4.889
 6323SOL    MW425613   3.846   0.002   4.865
 6324SOL     OW25614   5.471   1.192   4.494
 6324SOL    HW225615   5.450   1.138   4.417
 6324SOL    HW325616   5.567   1.190   4.498
 6324SOL    MW425617   5.480   1.185   4.483
 6325SOL     OW25618   4.163   1.337   5.237
 6325SOL    HW225619   4.084   1.287   5.260
 6325SOL    HW325620   4.233   1.296   5.287
 6325SOL    MW425621   4.161   1.325   5.247
 6326SOL     OW25622   4.047   0.126   3.920
 6326SOL    HW225623   3.976   0.181   3.888
 6326SOL    HW325624   4.089   0.092   3.841
 6326SOL    MW425625   4.043   0.128   3.906
 6327SOL     OW25626   5.171   0.623   4.756
 6327SOL    HW225627   5.094   0.669   4.722
 6327SOL    HW325628   5.228   0.692   4.790
 6327SOL    MW425629   5.168   0.638   4.756
 6328SOL     OW25630   3.803   0.225   3.769
 6328SOL    HW225631   3.770   0.304   3.813
 6328SOL    HW325632   3.858   0.258   3.698
 6328SOL    MW425633   3.806   0.239   3.766
 6329SOL     OW25634   3.837   1.482   3.958
 6329SOL    HW225635   3.854   1.566   4.000
 6329SOL    HW325636   3.872   1.491   3.870
 6329SOL    MW425637   3.842   1.495   3.952
 6330SOL     OW25638   5.109   1.571   4.175
 6330SOL    HW225639   5.172   1.561   4.104
 6330SOL    HW325640   5.026   1.591   4.130
 6330SOL    MW425641   5.106   1.572   4.160
 6331SOL     OW25642   5.472   0.839   5.862
 6331SOL    HW225643   5.513   0.781   5.927
 6331SOL    HW325644   5.379   0.831   5.879
 6331SOL    MW425645   5.466   0.831   5.872
 6332SOL     OW25646   4.266   1.022   6.091
 6332SOL    HW225647   4.356   0.997   6.075
 6332SOL    HW325648   4.262   1.115   6.068
 6332SOL    MW425649   4.278   1.031   6.086
 6333SOL     OW25650   3.992   0.506   6.032
 6333SOL    HW225651   4.024   0.594   6.014
 6333SOL    HW325652   3.980   0.504   6.127
 6333SOL    MW425653   3.995   0.518   6.044
 6334SOL     OW25654   4.666   0.949   6.286
 6334SOL    HW225655   4.580   0.936   6.326
 6334SOL    HW325656   4.719   0.876   6.318
 6334SOL    MW425657   4.662   0.938   6.295
 6335SOL     OW25658   4.657   1.311   6.003
 6335SOL    HW225659   4.634   1.373   6.071
 6335SOL    HW325660   4.614   1.229   6.029
 6335SOL    MW425661   4.649   1.307   6.014
 6336SOL     OW25662   4.154   0.284   5.971
 6336SOL    HW225663   4.128   0.246   5.887
 6336SOL    HW325664   4.091   0.354   5.987
 6336SOL    MW425665   4.143   0.287   5.962
 6337SOL     OW25666   3.989   1.245   6.008
 6337SOL    HW225667   3.937   1.313   5.964
 6337SOL    HW325668   3.986   1.171   5.948
 6337SOL    MW425669   3.981   1.244   5.995
 6338SOL     OW25670   4.651   1.708   5.786
 6338SOL    HW225671   4.606   1.724   5.869
 6338SOL    HW325672   4.582   1.673   5.728
 6338SOL    MW425673   4.637   1.705   5.788
 6339SOL     OW25674   5.586   0.481   5.761
 6339SOL    HW225675   5.495   0.483   5.789
 6339SOL    HW325676   5.631   0.543   5.819
 6339SOL    MW425677   5.579   0.489   5.771
 6340SOL     OW25678   5.331   1.084   6.111
 6340SOL    HW225679   5.241   1.084   6.146
 6340SOL    HW325680   5.324   1.130   6.028
 6340SOL    MW425681   5.318   1.090   6.105
 6341SOL     OW25682   4.858   0.665   6.072
 6341SOL    HW225683   4.884   0.689   5.983
 6341SOL    HW325684   4.840   0.572   6.068
 6341SOL    MW425685   4.860   0.657   6.059
 6342SOL     OW25686   5.523   1.285   5.923
 6342SOL    HW225687   5.479   1.326   5.998
 6342SOL    HW325688   5.580   1.353   5.888
 6342SOL    MW425689   5.525   1.299   5.928
 6343SOL     OW25690   4.179   1.701   6.241
 6343SOL    HW225691   4.211   1.789   6.219
 6343SOL    HW325692   4.132   1.673   6.163
 6343SOL    MW425693   4.178   1.709   6.228
 6344SOL     OW25694   3.895   1.761   5.818
 6344SOL    HW225695   3.924   1.851   5.810
 6344SOL    HW325696   3.845   1.744   5.739
 6344SOL    MW425697   3.893   1.769   5.807
 6345SOL     OW25698   5.299   1.569   5.789
 6345SOL    HW225699   5.347   1.638   5.835
 6345SOL    HW325700   5.220   1.613   5.758
 6345SOL    MW425701   5.294   1.583   5.792
 6346SOL     OW25702   4.697   0.694   5.733
 6346SOL    HW225703   4.699   0.641   5.654
 6346SOL    HW325704   4.785   0.731   5.739
 6346SOL    MW425705   4.709   0.693   5.722
 6347SOL     OW25706   5.311   0.620   6.069
 6347SOL    HW225707   5.350   0.620   6.156
 6347SOL    HW325708   5.252   0.696   6.069
 6347SOL    MW425709   5.308   0.631   6.080
 6348SOL     OW25710   4.867   1.313   5.825
 6348SOL    HW225711   4.817   1.315   5.907
 6348SOL    HW325712   4.801   1.331   5.757
 6348SOL    MW425713   4.853   1.315   5.827
 6349SOL     OW25714   4.330   1.731   5.933
 6349SOL    HW225715   4.251   1.689   5.966
 6349SOL    HW325716   4.396   1.714   6.000
 6349SOL    MW425717   4.329   1.723   5.946
 6350SOL     OW25718   4.466   1.146   5.640
 6350SOL    HW225719   4.388   1.092   5.627
 6350SOL    HW325720   4.437   1.219   5.693
 6350SOL    MW425721   4.452   1.148   5.645
 6351SOL     OW25722   5.047   1.662   5.708
 6351SOL    HW225723   4.973   1.625   5.758
 6351SOL    HW325724   5.055   1.752   5.741
 6351SOL    MW425725   5.038   1.669   5.720
 6352SOL     OW25726   5.271   1.336   5.650
 6352SOL    HW225727   5.218   1.385   5.586
 6352SOL    HW325728   5.302   1.402   5.711
 6352SOL    MW425729   5.269   1.350   5.648
 6353SOL     OW25730   4.496   0.225   5.705
 6353SOL    HW225731   4.444   0.145   5.693
 6353SOL    HW325732   4.583   0.202   5.673
 6353SOL    MW425733   4.499   0.211   5.699
 6354SOL     OW25734   3.865   1.477   6.201
 6354SOL    HW225735   3.837   1.516   6.283
 6354SOL    HW325736   3.885   1.386   6.223
 6354SOL    MW425737   3.863   1.469   6.214
 6355SOL     OW25738   4.698   1.520   6.236
 6355SOL    HW225739   4.781   1.474   6.220
 6355SOL    HW325740   4.688   1.519   6.332
 6355SOL    MW425741   4.708   1.513   6.246
 6356SOL     OW25742   4.431   1.577   5.641
 6356SOL    HW225743   4.371   1.646   5.611
 6356SOL    HW325744   4.376   1.519   5.694
 6356SOL    MW425745   4.415   1.579   5.643
 6357SOL     OW25746   4.869   0.222   5.864
 6357SOL    HW225747   4.802   0.198   5.801
 6357SOL    HW325748   4.934   0.271   5.813
 6357SOL    MW425749   4.869   0.224   5.849
 6358SOL     OW25750   4.062   1.621   6.030
 6358SOL    HW225751   4.023   1.668   5.956
 6358SOL    HW325752   3.996   1.556   6.055
 6358SOL    MW425753   4.049   1.619   6.024
 6359SOL     OW25754   4.554   1.030   6.054
 6359SOL    HW225755   4.556   1.004   5.961
 6359SOL    HW325756   4.612   0.967   6.097
 6359SOL    MW425757   4.562   1.019   6.048
 6360SOL     OW25758   5.044   0.378   5.722
 6360SOL    HW225759   5.017   0.444   5.658
 6360SOL    HW325760   5.114   0.421   5.772
 6360SOL    MW425761   5.049   0.391   5.719
 6361SOL     OW25762   4.712   0.083   5.659
 6361SOL    HW225763   4.768   0.075   5.581
 6361SOL    HW325764   4.689  -0.007   5.681
 6361SOL    MW425765   4.717   0.070   5.652
 6362SOL     OW25766   5.217   0.934   5.864
 6362SOL    HW225767   5.184   1.023   5.854
 6362SOL    HW325768   5.182   0.905   5.949
 6362SOL    MW425769   5.207   0.943   5.875
 6363SOL     OW25770   4.211   0.972   5.656
 6363SOL    HW225771   4.134   0.985   5.712
 6363SOL    HW325772   4.175   0.936   5.575
 6363SOL    MW425773   4.197   0.968   5.653
 6364SOL     OW25774   4.864   0.945   5.899
 6364SOL    HW225775   4.774   0.966   5.874
 6364SOL    HW325776   4.891   1.018   5.955
 6364SOL    MW425777   4.856   0.957   5.902
 6365SOL     OW25778   4.251   1.301   6.055
 6365SOL    HW225779   4.244   1.333   6.145
 6365SOL    HW325780   4.161   1.285   6.027
 6365SOL    MW425781   4.239   1.303   6.062
 6366SOL     OW25782   4.254   0.585   5.769
 6366SOL    HW225783   4.220   0.641   5.839
 6366SOL    HW325784   4.325   0.535   5.809
 6366SOL    MW425785   4.260   0.586   5.783
 6367SOL     OW25786   5.310   0.471   5.833
 6367SOL    HW225787   5.302   0.542   5.770
 6367SOL    HW325788   5.328   0.515   5.916
 6367SOL    MW425789   5.311   0.485   5.835
 6368SOL     OW25790   4.170   0.126   6.262
 6368SOL    HW225791   4.220   0.169   6.193
 6368SOL    HW325792   4.085   0.170   6.262
 6368SOL    MW425793   4.167   0.139   6.253
 6369SOL     OW25794   4.979   0.733   5.808
 6369SOL    HW225795   5.026   0.751   5.727
 6369SOL    HW325796   4.945   0.817   5.836
 6369SOL    MW425797   4.981   0.747   5.801
 6370SOL     OW25798   5.232   0.263   6.139
 6370SOL    HW225799   5.154   0.213   6.164
 6370SOL    HW325800   5.203   0.354   6.139
 6370SOL    MW425801   5.218   0.267   6.142
 6371SOL     OW25802   4.714   1.475   5.630
 6371SOL    HW225803   4.741   1.553   5.582
 6371SOL    HW325804   4.621   1.490   5.649
 6371SOL    MW425805   4.705   1.488   5.626
 6372SOL     OW25806   3.754   0.637   6.021
 6372SOL    HW225807   3.694   0.609   6.091
 6372SOL    HW325808   3.828   0.577   6.027
 6372SOL    MW425809   3.756   0.626   6.030
 6373SOL     OW25810   4.922   1.368   6.181
 6373SOL    HW225811   4.945   1.319   6.259
 6373SOL    HW325812   5.003   1.410   6.153
 6373SOL    MW425813   4.935   1.368   6.188
 6374SOL     OW25814   5.122   0.810   6.095
 6374SOL    HW225815   5.037   0.780   6.065
 6374SOL    HW325816   5.114   0.817   6.190
 6374SOL    MW425817   5.110   0.808   6.104
 6375SOL     OW25818   4.495   0.476   5.821
 6375SOL    HW225819   4.568   0.525   5.784
 6375SOL    HW325820   4.511   0.385   5.795
 6375SOL    MW425821   4.507   0.471   5.814
 6376SOL     OW25822   3.970   0.985   5.919
 6376SOL    HW225823   3.907   1.001   5.848
 6376SOL    HW325824   3.917   0.948   5.990
 6376SOL    MW425825   3.955   0.982   5.919
 6377SOL     OW25826   4.326   1.339   5.778
 6377SOL    HW225827   4.341   1.315   5.870
 6377SOL    HW325828   4.234   1.317   5.762
 6377SOL    MW425829   4.316   1.332   5.788
 6378SOL     OW25830   4.865   1.570   5.930
 6378SOL    HW225831   4.873   1.488   5.881
 6378SOL    HW325832   4.784   1.609   5.897
 6378SOL    MW425833   4.855   1.565   5.920
 6379SOL     OW25834   4.837   0.392   6.100
 6379SOL    HW225835   4.859   0.329   6.032
 6379SOL    HW325836   4.742   0.384   6.111
 6379SOL    MW425837   4.827   0.383   6.092
 6380SOL     OW25838   3.922   0.082   6.032
 6380SOL    HW225839   3.993   0.103   5.971
 6380SOL    HW325840   3.876   0.010   5.990
 6380SOL    MW425841   3.926   0.076   6.018
 6381SOL     OW25842   5.491   1.456   6.132
 6381SOL    HW225843   5.461   1.389   6.193
 6381SOL    HW325844   5.585   1.462   6.146
 6381SOL    MW425845   5.499   1.448   6.142
 6382SOL     OW25846   5.047   1.133   6.062
 6382SOL    HW225847   5.019   1.219   6.095
 6382SOL    HW325848   5.075   1.149   5.972
 6382SOL    MW425849   5.047   1.147   6.054
 6383SOL     OW25850   4.709   0.053   6.115
 6383SOL    HW225851   4.746   0.112   6.180
 6383SOL    HW325852   4.686   0.109   6.041
 6383SOL    MW425853   4.710   0.068   6.114
 6384SOL     OW25854   4.130   0.744   6.011
 6384SOL    HW225855   4.130   0.839   5.996
 6384SOL    HW325856   4.207   0.728   6.065
 6384SOL    MW425857   4.140   0.755   6.016
 6385SOL     OW25858   5.436   1.815   5.832
 6385SOL    HW225859   5.503   1.848   5.772
 6385SOL    HW325860   5.393   1.894   5.866
 6385SOL    MW425861   5.438   1.830   5.828
 6386SOL     OW25862   3.758   1.047   5.758
 6386SOL    HW225863   3.727   1.112   5.821
 6386SOL    HW325864   3.707   0.969   5.777
 6386SOL    MW425865   3.748   1.044   5.768
 6387SOL     OW25866   4.342   1.847   5.700
 6387SOL    HW225867   4.247   1.847   5.692
 6387SOL    HW325868   4.358   1.793   5.778
 6387SOL    MW425869   4.332   1.841   5.709
 6388SOL     OW25870   5.187   0.667   5.615
 6388SOL    HW225871   5.115   0.643   5.557
 6388SOL    HW325872   5.253   0.704   5.557
 6388SOL    MW425873   5.186   0.669   5.600
 6389SOL     OW25874   4.582   0.564   6.426
 6389SOL    HW225875   4.522   0.582   6.498
 6389SOL    HW325876   4.616   0.476   6.445
 6389SOL    MW425877   4.578   0.554   6.439
 6390SOL     OW25878   4.600   0.967   5.800
 6390SOL    HW225879   4.586   0.879   5.765
 6390SOL    HW325880   4.551   1.024   5.741
 6390SOL    MW425881   4.592   0.962   5.788
 6391SOL     OW25882   4.608   0.736   6.016
 6391SOL    HW225883   4.588   0.722   5.923
 6391SOL    HW325884   4.701   0.715   6.023
 6391SOL    MW425885   4.618   0.731   6.005
 6392SOL     OW25886   4.591   1.694   6.054
 6392SOL    HW225887   4.649   1.765   6.081
 6392SOL    HW325888   4.614   1.622   6.112
 6392SOL    MW425889   4.602   1.694   6.065
 6393SOL     OW25890   4.047   0.126   5.789
 6393SOL    HW225891   3.976   0.181   5.757
 6393SOL    HW325892   4.089   0.092   5.710
 6393SOL    MW425893   4.043   0.128   5.775
 6394SOL     OW25894   3.803   0.225   5.638
 6394SOL    HW225895   3.770   0.304   5.682
 6394SOL    HW325896   3.858   0.258   5.567
 6394SOL    MW425897   3.806   0.239   5.635
 6395SOL     OW25898   3.837   1.482   5.827
 6395SOL    HW225899   3.854   1.566   5.869
 6395SOL    HW325900   3.872   1.491   5.739
 6395SOL    MW425901   3.842   1.495   5.821
 6396SOL     OW25902   5.109   1.571   6.044
 6396SOL    HW225903   5.172   1.561   5.973
 6396SOL    HW325904   5.026   1.591   5.999
 6396SOL    MW425905   5.106   1.572   6.029
 6397SOL     OW25906   5.338   2.639   1.252
 6397SOL    HW225907   5.293   2.706   1.303
 6397SOL    HW325908   5.426   2.675   1.238
 6397SOL    MW425909   5.344   2.652   1.256
 6398SOL     OW25910   5.382   3.593   0.628
 6398SOL    HW225911   5.394   3.539   0.706
 6398SOL    HW325912   5.419   3.541   0.557
 6398SOL    MW425913   5.388   3.578   0.629
 6399SOL     OW25914   4.761   3.478   1.629
 6399SOL    HW225915   4.802   3.514   1.550
 6399SOL    HW325916   4.796   3.389   1.636
 6399SOL    MW425917   4.772   3.471   1.620
 6400SOL     OW25918   5.318   3.033   1.233
 6400SOL    HW225919   5.239   2.998   1.191
 6400SOL    HW325920   5.345   3.105   1.177
 6400SOL    MW425921   5.311   3.038   1.220
 6401SOL     OW25922   4.550   2.346   0.499
 6401SOL    HW225923   4.525   2.434   0.527
 6401SOL    HW325924   4.547   2.349   0.403
 6401SOL    MW425925   4.546   2.358   0.491
 6402SOL     OW25926   3.992   2.374   0.427
 6402SOL    HW225927   4.024   2.462   0.409
 6402SOL    HW325928   3.980   2.372   0.522
 6402SOL    MW425929   3.995   2.386   0.439
 6403SOL     OW25930   4.070   2.787   1.328
 6403SOL    HW225931   4.133   2.734   1.279
 6403SOL    HW325932   4.051   2.861   1.271
 6403SOL    MW425933   4.076   2.789   1.315
 6404SOL     OW25934   4.391   2.129   0.514
 6404SOL    HW225935   4.449   2.205   0.516
 6404SOL    HW325936   4.326   2.150   0.447
 6404SOL    MW425937   4.390   2.141   0.505
 6405SOL     OW25938   4.478   3.056   0.689
 6405SOL    HW225939   4.558   3.059   0.741
 6405SOL    HW325940   4.506   3.023   0.603
 6405SOL    MW425941   4.492   3.052   0.684
 6406SOL     OW25942   4.503   3.397   1.592
 6406SOL    HW225943   4.587   3.423   1.631
 6406SOL    HW325944   4.527   3.341   1.518
 6406SOL    MW425945   4.517   3.393   1.587
 6407SOL     OW25946   4.255   2.560   0.680
 6407SOL    HW225947   4.240   2.480   0.731
 6407SOL    HW325948   4.337   2.595   0.714
 6407SOL    MW425949   4.263   2.552   0.692
 6408SOL     OW25950   4.592   3.246   1.365
 6408SOL    HW225951   4.556   3.312   1.305
 6408SOL    HW325952   4.520   3.184   1.378
 6408SOL    MW425953   4.578   3.246   1.359
 6409SOL     OW25954   4.397   2.386   1.057
 6409SOL    HW225955   4.303   2.382   1.075
 6409SOL    HW325956   4.427   2.295   1.066
 6409SOL    MW425957   4.388   2.374   1.060
 6410SOL     OW25958   4.143   2.800   0.961
 6410SOL    HW225959   4.098   2.807   0.877
 6410SOL    HW325960   4.123   2.883   1.005
 6410SOL    MW425961   4.135   2.812   0.955
 6411SOL     OW25962   3.840   3.646   0.836
 6411SOL    HW225963   3.929   3.638   0.871
 6411SOL    HW325964   3.804   3.558   0.841
 6411SOL    MW425965   3.847   3.633   0.841
 6412SOL     OW25966   4.104   3.173   0.871
 6412SOL    HW225967   4.080   3.226   0.947
 6412SOL    HW325968   4.160   3.231   0.819
 6412SOL    MW425969   4.108   3.188   0.874
 6413SOL     OW25970   4.666   2.817   0.681
 6413SOL    HW225971   4.580   2.804   0.721
 6413SOL    HW325972   4.719   2.744   0.713
 6413SOL    MW425973   4.662   2.806   0.690
 6414SOL     OW25974   4.074   3.469   1.466
 6414SOL    HW225975   3.982   3.445   1.451
 6414SOL    HW325976   4.118   3.386   1.483
 6414SOL    MW425977   4.068   3.454   1.465
 6415SOL     OW25978   4.657   3.179   0.398
 6415SOL    HW225979   4.634   3.241   0.466
 6415SOL    HW325980   4.614   3.097   0.424
 6415SOL    MW425981   4.649   3.175   0.409
 6416SOL     OW25982   5.530   2.180   0.854
 6416SOL    HW225983   5.467   2.160   0.923
 6416SOL    HW325984   5.520   2.109   0.791
 6416SOL    MW425985   5.520   2.167   0.855
 6417SOL     OW25986   5.331   2.952   0.506
 6417SOL    HW225987   5.241   2.952   0.541
 6417SOL    HW325988   5.324   2.998   0.423
 6417SOL    MW425989   5.318   2.958   0.500
 6418SOL     OW25990   5.131   2.587   1.578
 6418SOL    HW225991   5.200   2.525   1.555
 6418SOL    HW325992   5.056   2.561   1.525
 6418SOL    MW425993   5.131   2.574   1.569
 6419SOL     OW25994   3.872   3.467   1.130
 6419SOL    HW225995   3.855   3.413   1.207
 6419SOL    HW325996   3.860   3.557   1.160
 6419SOL    MW425997   3.869   3.471   1.144
 6420SOL     OW25998   4.867   2.974   1.570
 6420SOL    HW225999   4.852   3.067   1.555
 6420SOL    HW326000   4.962   2.964   1.570
 6420SOL    MW426001   4.876   2.984   1.567
 6421SOL     OW26002   4.663   2.398   1.771
 6421SOL    HW226003   4.753   2.399   1.738
 6421SOL    HW326004   4.622   2.323   1.729
 6421SOL    MW426005   4.669   2.388   1.762
 6422SOL     OW26006   5.238   2.930   0.898
 6422SOL    HW226007   5.241   2.864   0.829
 6422SOL    HW326008   5.323   2.973   0.894
 6422SOL    MW426009   5.250   2.926   0.889
 6423SOL     OW26010   4.858   2.533   0.467
 6423SOL    HW226011   4.884   2.557   0.378
 6423SOL    HW326012   4.840   2.440   0.463
 6423SOL    MW426013   4.860   2.525   0.454
 6424SOL     OW26014   4.443   2.202   1.721
 6424SOL    HW226015   4.453   2.128   1.661
 6424SOL    HW326016   4.479   2.171   1.804
 6424SOL    MW426017   4.449   2.188   1.723
 6425SOL     OW26018   4.179   3.569   0.636
 6425SOL    HW226019   4.211   3.657   0.614
 6425SOL    HW326020   4.132   3.541   0.558
 6425SOL    MW426021   4.178   3.577   0.623
 6426SOL     OW26022   5.563   1.931   0.685
 6426SOL    HW226023   5.617   1.882   0.747
 6426SOL    HW326024   5.506   1.865   0.646
 6426SOL    MW426025   5.563   1.915   0.687
 6427SOL     OW26026   4.682   1.884   1.098
 6427SOL    HW226027   4.641   1.962   1.060
 6427SOL    HW326028   4.776   1.902   1.093
 6427SOL    MW426029   4.688   1.896   1.093
 6428SOL     OW26030   5.311   2.488   0.464
 6428SOL    HW226031   5.350   2.488   0.551
 6428SOL    HW326032   5.252   2.564   0.464
 6428SOL    MW426033   5.308   2.499   0.475
 6429SOL     OW26034   4.628   2.855   1.593
 6429SOL    HW226035   4.605   2.835   1.683
 6429SOL    HW326036   4.713   2.899   1.598
 6429SOL    MW426037   4.635   2.858   1.605
 6430SOL     OW26038   4.708   1.992   1.353
 6430SOL    HW226039   4.714   1.954   1.266
 6430SOL    HW326040   4.697   2.086   1.338
 6430SOL    MW426041   4.709   2.000   1.341
 6431SOL     OW26042   4.797   2.481   1.187
 6431SOL    HW226043   4.872   2.510   1.134
 6431SOL    HW326044   4.729   2.546   1.171
 6431SOL    MW426045   4.798   2.493   1.177
 6432SOL     OW26046   5.347   2.449   1.464
 6432SOL    HW226047   5.328   2.358   1.443
 6432SOL    HW326048   5.325   2.498   1.385
 6432SOL    MW426049   5.342   2.442   1.451
 6433SOL     OW26050   5.489   3.543   1.368
 6433SOL    HW226051   5.417   3.505   1.419
 6433SOL    HW326052   5.506   3.628   1.409
 6433SOL    MW426053   5.483   3.548   1.380
 6434SOL     OW26054   4.794   2.187   1.570
 6434SOL    HW226055   4.760   2.226   1.489
 6434SOL    HW326056   4.772   2.095   1.563
 6434SOL    MW426057   4.787   2.180   1.560
 6435SOL     OW26058   5.203   3.001   1.646
 6435SOL    HW226059   5.285   3.042   1.676
 6435SOL    HW326060   5.166   2.963   1.726
 6435SOL    MW426061   5.209   3.002   1.661
 6436SOL     OW26062   5.498   2.374   0.630
 6436SOL    HW226063   5.587   2.343   0.647
 6436SOL    HW326064   5.441   2.314   0.678
 6436SOL    MW426065   5.501   2.362   0.639
 6437SOL     OW26066   3.924   2.088   0.659
 6437SOL    HW226067   3.915   2.028   0.585
 6437SOL    HW326068   3.857   2.059   0.722
 6437SOL    MW426069   3.914   2.075   0.657
 6438SOL     OW26070   3.871   2.261   1.022
 6438SOL    HW226071   3.843   2.352   1.031
 6438SOL    HW326072   3.808   2.222   0.961
 6438SOL    MW426073   3.858   2.267   1.016
 6439SOL     OW26074   4.330   3.599   0.328
 6439SOL    HW226075   4.251   3.557   0.361
 6439SOL    HW326076   4.396   3.582   0.395
 6439SOL    MW426077   4.329   3.591   0.341
 6440SOL     OW26078   5.458   3.119   1.725
 6440SOL    HW226079   5.508   3.045   1.757
 6440SOL    HW326080   5.404   3.146   1.800
 6440SOL    MW426081   5.458   3.113   1.738
 6441SOL     OW26082   5.592   2.754   1.227
 6441SOL    HW226083   5.608   2.792   1.140
 6441SOL    HW326084   5.626   2.820   1.288
 6441SOL    MW426085   5.599   2.767   1.223
 6442SOL     OW26086   5.384   3.463   0.896
 6442SOL    HW226087   5.413   3.530   0.957
 6442SOL    HW326088   5.365   3.387   0.951
 6442SOL    MW426089   5.386   3.463   0.911
 6443SOL     OW26090   3.855   2.536   1.192
 6443SOL    HW226091   3.917   2.566   1.258
 6443SOL    HW326092   3.789   2.605   1.186
 6443SOL    MW426093   3.854   2.549   1.199
 6444SOL     OW26094   3.950   3.645   1.644
 6444SOL    HW226095   3.924   3.713   1.582
 6444SOL    HW326096   3.998   3.582   1.592
 6444SOL    MW426097   3.952   3.645   1.630
 6445SOL     OW26098   4.002   2.964   1.151
 6445SOL    HW226099   4.055   3.039   1.176
 6445SOL    HW326100   3.921   3.002   1.117
 6445SOL    MW426101   3.998   2.979   1.151
 6446SOL     OW26102   4.542   2.868   1.139
 6446SOL    HW226103   4.570   2.777   1.151
 6446SOL    HW326104   4.471   2.862   1.075
 6446SOL    MW426105   4.535   2.856   1.134
 6447SOL     OW26106   3.857   2.733   0.557
 6447SOL    HW226107   3.948   2.748   0.584
 6447SOL    HW326108   3.860   2.654   0.503
 6447SOL    MW426109   3.869   2.725   0.555
 6448SOL     OW26110   4.093   2.441   1.811
 6448SOL    HW226111   4.040   2.521   1.818
 6448SOL    HW326112   4.163   2.453   1.876
 6448SOL    MW426113   4.095   2.454   1.819
 6449SOL     OW26114   4.479   1.991   1.518
 6449SOL    HW226115   4.456   1.899   1.520
 6449SOL    HW326116   4.565   1.993   1.475
 6449SOL    MW426117   4.486   1.981   1.514
 6450SOL     OW26118   4.163   2.515   1.557
 6450SOL    HW226119   4.243   2.565   1.543
 6450SOL    HW326120   4.154   2.509   1.652
 6450SOL    MW426121   4.172   2.521   1.567
 6451SOL     OW26122   4.484   3.665   0.931
 6451SOL    HW226123   4.573   3.680   0.961
 6451SOL    HW326124   4.479   3.712   0.847
 6451SOL    MW426125   4.494   3.673   0.924
 6452SOL     OW26126   5.140   2.040   1.828
 6452SOL    HW226127   5.196   1.967   1.854
 6452SOL    HW326128   5.110   2.078   1.910
 6452SOL    MW426129   5.144   2.035   1.841
 6453SOL     OW26130   3.865   3.345   0.596
 6453SOL    HW226131   3.837   3.384   0.678
 6453SOL    HW326132   3.885   3.254   0.618
 6453SOL    MW426133   3.863   3.337   0.609
 6454SOL     OW26134   4.698   3.388   0.631
 6454SOL    HW226135   4.781   3.342   0.615
 6454SOL    HW326136   4.688   3.387   0.727
 6454SOL    MW426137   4.708   3.381   0.641
 6455SOL     OW26138   5.530   2.533   0.945
 6455SOL    HW226139   5.619   2.563   0.927
 6455SOL    HW326140   5.510   2.473   0.874
 6455SOL    MW426141   5.539   2.530   0.934
 6456SOL     OW26142   5.381   2.712   1.825
 6456SOL    HW226143   5.436   2.636   1.806
 6456SOL    HW326144   5.383   2.720   1.920
 6456SOL    MW426145   5.389   2.703   1.833
 6457SOL     OW26146   4.676   2.274   1.344
 6457SOL    HW226147   4.595   2.315   1.372
 6457SOL    HW326148   4.723   2.342   1.296
 6457SOL    MW426149   4.671   2.289   1.342
 6458SOL     OW26150   4.936   2.612   0.967
 6458SOL    HW226151   4.949   2.706   0.977
 6458SOL    HW326152   4.897   2.602   0.881
 6458SOL    MW426153   4.932   2.623   0.957
 6459SOL     OW26154   4.388   2.807   0.771
 6459SOL    HW226155   4.299   2.798   0.804
 6459SOL    HW326156   4.392   2.897   0.739
 6459SOL    MW426157   4.377   2.818   0.771
 6460SOL     OW26158   5.187   2.390   0.766
 6460SOL    HW226159   5.132   2.311   0.765
 6460SOL    HW326160   5.169   2.431   0.850
 6460SOL    MW426161   5.177   2.385   0.775
 6461SOL     OW26162   4.158   2.077   1.583
 6461SOL    HW226163   4.079   2.095   1.635
 6461SOL    HW326164   4.153   2.139   1.510
 6461SOL    MW426165   4.148   2.087   1.580
 6462SOL     OW26166   4.806   2.594   0.723
 6462SOL    HW226167   4.743   2.526   0.747
 6462SOL    HW326168   4.826   2.575   0.631
 6462SOL    MW426169   4.800   2.581   0.715
 6463SOL     OW26170   4.062   3.489   0.425
 6463SOL    HW226171   4.023   3.536   0.351
 6463SOL    HW326172   3.996   3.424   0.450
 6463SOL    MW426173   4.049   3.487   0.419
 6464SOL     OW26174   4.554   2.898   0.449
 6464SOL    HW226175   4.556   2.872   0.356
 6464SOL    HW326176   4.612   2.835   0.492
 6464SOL    MW426177   4.562   2.887   0.443
 6465SOL     OW26178   5.107   3.458   1.221
 6465SOL    HW226179   5.032   3.504   1.259
 6465SOL    HW326180   5.089   3.365   1.238
 6465SOL    MW426181   5.096   3.452   1.229
 6466SOL     OW26182   5.111   3.666   0.651
 6466SOL    HW226183   5.054   3.619   0.590
 6466SOL    HW326184   5.197   3.627   0.638
 6466SOL    MW426185   5.114   3.657   0.641
 6467SOL     OW26186   5.064   2.142   0.782
 6467SOL    HW226187   5.092   2.074   0.843
 6467SOL    HW326188   4.978   2.113   0.752
 6467SOL    MW426189   5.057   2.129   0.786
 6468SOL     OW26190   3.869   3.076   0.716
 6468SOL    HW226191   3.933   3.108   0.779
 6468SOL    HW326192   3.918   3.012   0.664
 6468SOL    MW426193   3.884   3.072   0.717
 6469SOL     OW26194   4.369   3.152   1.698
 6469SOL    HW226195   4.417   3.235   1.685
 6469SOL    HW326196   4.426   3.100   1.754
 6469SOL    MW426197   4.383   3.156   1.704
 6470SOL     OW26198   3.945   3.394   1.838
 6470SOL    HW226199   4.001   3.318   1.853
 6470SOL    HW326200   3.894   3.372   1.760
 6470SOL    MW426201   3.945   3.381   1.829
 6471SOL     OW26202   5.217   2.802   0.259
 6471SOL    HW226203   5.184   2.891   0.249
 6471SOL    HW326204   5.182   2.773   0.344
 6471SOL    MW426205   5.207   2.811   0.270
 6472SOL     OW26206   4.830   3.231   1.447
 6472SOL    HW226207   4.741   3.237   1.415
 6472SOL    HW326208   4.874   3.310   1.415
 6472SOL    MW426209   4.825   3.241   1.439
 6473SOL     OW26210   4.123   1.899   1.789
 6473SOL    HW226211   4.051   1.864   1.737
 6473SOL    HW326212   4.181   1.940   1.724
 6473SOL    MW426213   4.121   1.900   1.774
 6474SOL     OW26214   4.147   3.389   1.088
 6474SOL    HW226215   4.192   3.451   1.145
 6474SOL    HW326216   4.054   3.408   1.101
 6474SOL    MW426217   4.140   3.399   1.095
 6475SOL     OW26218   5.587   2.918   1.442
 6475SOL    HW226219   5.502   2.931   1.401
 6475SOL    HW326220   5.567   2.882   1.529
 6475SOL    MW426221   5.574   2.914   1.447
 6476SOL     OW26222   4.569   3.457   1.196
 6476SOL    HW226223   4.593   3.446   1.105
 6476SOL    HW326224   4.492   3.514   1.194
 6476SOL    MW426225   4.561   3.462   1.185
 6477SOL     OW26226   4.864   2.813   0.294
 6477SOL    HW226227   4.774   2.834   0.269
 6477SOL    HW326228   4.891   2.886   0.350
 6477SOL    MW426229   4.856   2.825   0.297
 6478SOL     OW26230   4.364   3.162   0.986
 6478SOL    HW226231   4.357   3.141   1.080
 6478SOL    HW326232   4.282   3.130   0.949
 6478SOL    MW426233   4.352   3.156   0.993
 6479SOL     OW26234   5.228   2.172   1.388
 6479SOL    HW226235   5.175   2.174   1.468
 6479SOL    HW326236   5.213   2.085   1.351
 6479SOL    MW426237   5.220   2.162   1.393
 6480SOL     OW26238   5.564   2.096   1.261
 6480SOL    HW226239   5.545   2.163   1.196
 6480SOL    HW326240   5.621   2.034   1.216
 6480SOL    MW426241   5.568   2.097   1.247
 6481SOL     OW26242   3.810   3.254   1.649
 6481SOL    HW226243   3.854   3.187   1.595
 6481SOL    HW326244   3.725   3.216   1.669
 6481SOL    MW426245   3.805   3.240   1.645
 6482SOL     OW26246   4.493   1.929   0.701
 6482SOL    HW226247   4.422   1.990   0.683
 6482SOL    HW326248   4.544   1.926   0.620
 6482SOL    MW426249   4.489   1.935   0.688
 6483SOL     OW26250   4.251   3.169   0.450
 6483SOL    HW226251   4.244   3.201   0.540
 6483SOL    HW326252   4.161   3.153   0.422
 6483SOL    MW426253   4.239   3.171   0.457
 6484SOL     OW26254   4.846   3.562   1.359
 6484SOL    HW226255   4.766   3.547   1.309
 6484SOL    HW326256   4.853   3.657   1.366
 6484SOL    MW426257   4.837   3.573   1.353
 6485SOL     OW26258   4.960   3.527   0.849
 6485SOL    HW226259   5.007   3.600   0.808
 6485SOL    HW326260   4.881   3.566   0.885
 6485SOL    MW426261   4.955   3.542   0.848
 6486SOL     OW26262   5.368   3.622   1.124
 6486SOL    HW226263   5.411   3.592   1.204
 6486SOL    HW326264   5.287   3.570   1.121
 6486SOL    MW426265   5.363   3.611   1.134
 6487SOL     OW26266   4.453   2.586   1.831
 6487SOL    HW226267   4.523   2.528   1.803
 6487SOL    HW326268   4.396   2.531   1.886
 6487SOL    MW426269   4.455   2.573   1.835
 6488SOL     OW26270   5.240   2.798   1.464
 6488SOL    HW226271   5.245   2.851   1.544
 6488SOL    HW326272   5.202   2.715   1.492
 6488SOL    MW426273   5.236   2.793   1.479
 6489SOL     OW26274   4.880   1.933   1.710
 6489SOL    HW226275   4.875   1.840   1.691
 6489SOL    HW326276   4.963   1.944   1.756
 6489SOL    MW426277   4.888   1.922   1.714
 6490SOL     OW26278   5.350   3.204   0.986
 6490SOL    HW226279   5.385   3.186   0.899
 6490SOL    HW326280   5.255   3.205   0.973
 6490SOL    MW426281   5.342   3.201   0.973
 6491SOL     OW26282   4.779   2.852   1.355
 6491SOL    HW226283   4.822   2.887   1.433
 6491SOL    HW326284   4.762   2.929   1.301
 6491SOL    MW426285   4.782   2.867   1.358
 6492SOL     OW26286   4.170   1.994   0.657
 6492SOL    HW226287   4.220   2.037   0.588
 6492SOL    HW326288   4.085   2.038   0.657
 6492SOL    MW426289   4.167   2.007   0.648
 6493SOL     OW26290   3.929   3.056   1.517
 6493SOL    HW226291   3.957   3.009   1.595
 6493SOL    HW326292   3.850   3.011   1.488
 6493SOL    MW426293   3.922   3.045   1.523
 6494SOL     OW26294   4.437   2.383   1.484
 6494SOL    HW226295   4.409   2.471   1.508
 6494SOL    HW326296   4.406   2.327   1.555
 6494SOL    MW426297   4.429   2.386   1.496
 6495SOL     OW26298   4.092   2.779   0.697
 6495SOL    HW226299   4.150   2.835   0.645
 6495SOL    HW326300   4.136   2.694   0.699
 6495SOL    MW426301   4.105   2.776   0.690
 6496SOL     OW26302   5.232   2.131   0.534
 6496SOL    HW226303   5.154   2.081   0.559
 6496SOL    HW326304   5.203   2.222   0.534
 6496SOL    MW426305   5.218   2.135   0.537
 6497SOL     OW26306   4.818   2.093   0.693
 6497SOL    HW226307   4.838   2.168   0.637
 6497SOL    HW326308   4.798   2.132   0.778
 6497SOL    MW426309   4.819   2.109   0.697
 6498SOL     OW26310   5.578   2.866   1.712
 6498SOL    HW226311   5.491   2.846   1.748
 6498SOL    HW326312   5.632   2.792   1.737
 6498SOL    MW426313   5.573   2.855   1.720
 6499SOL     OW26314   3.799   3.379   0.869
 6499SOL    HW226315   3.831   3.383   0.960
 6499SOL    HW326316   3.704   3.387   0.877
 6499SOL    MW426317   3.791   3.382   0.882
 6500SOL     OW26318   3.754   2.505   0.416
 6500SOL    HW226319   3.694   2.477   0.486
 6500SOL    HW326320   3.828   2.445   0.422
 6500SOL    MW426321   3.756   2.494   0.425
 6501SOL     OW26322   5.322   3.717   1.850
 6501SOL    HW226323   5.367   3.641   1.815
 6501SOL    HW326324   5.360   3.730   1.937
 6501SOL    MW426325   5.332   3.710   1.856
 6502SOL     OW26326   4.922   3.236   0.576
 6502SOL    HW226327   4.945   3.187   0.654
 6502SOL    HW326328   5.003   3.278   0.548
 6502SOL    MW426329   4.935   3.236   0.583
 6503SOL     OW26330   4.180   2.244   1.305
 6503SOL    HW226331   4.213   2.325   1.345
 6503SOL    HW326332   4.153   2.270   1.217
 6503SOL    MW426333   4.179   2.258   1.299
 6504SOL     OW26334   4.134   2.211   1.041
 6504SOL    HW226335   4.164   2.125   1.012
 6504SOL    HW326336   4.039   2.204   1.044
 6504SOL    MW426337   4.126   2.200   1.039
 6505SOL     OW26338   4.963   2.420   1.732
 6505SOL    HW226339   5.015   2.355   1.685
 6505SOL    HW326340   4.921   2.471   1.662
 6505SOL    MW426341   4.964   2.417   1.715
 6506SOL     OW26342   5.062   2.215   1.593
 6506SOL    HW226343   4.969   2.199   1.580
 6506SOL    HW326344   5.088   2.153   1.661
 6506SOL    MW426345   5.052   2.205   1.600
 6507SOL     OW26346   4.277   1.989   0.932
 6507SOL    HW226347   4.287   1.898   0.958
 6507SOL    HW326348   4.233   1.985   0.847
 6507SOL    MW426349   4.273   1.977   0.924
 6508SOL     OW26350   4.371   3.604   1.478
 6508SOL    HW226351   4.288   3.589   1.523
 6508SOL    HW326352   4.430   3.537   1.513
 6508SOL    MW426353   4.369   3.594   1.488
 6509SOL     OW26354   5.428   2.311   1.103
 6509SOL    HW226355   5.361   2.344   1.163
 6509SOL    HW326356   5.471   2.389   1.069
 6509SOL    MW426357   5.426   2.326   1.107
 6510SOL     OW26358   5.606   3.031   1.073
 6510SOL    HW226359   5.599   2.971   0.998
 6510SOL    HW326360   5.532   3.091   1.062
 6510SOL    MW426361   5.596   3.031   1.062
 6511SOL     OW26362   4.988   2.893   0.991
 6511SOL    HW226363   5.002   2.865   1.082
 6511SOL    HW326364   5.074   2.924   0.963
 6511SOL    MW426365   5.001   2.894   1.000
 6512SOL     OW26366   5.071   2.388   1.270
 6512SOL    HW226367   5.092   2.389   1.177
 6512SOL    HW326368   5.116   2.310   1.303
 6512SOL    MW426369   5.078   2.378   1.262
 6513SOL     OW26370   5.564   2.519   1.812
 6513SOL    HW226371   5.601   2.464   1.881
 6513SOL    HW326372   5.589   2.476   1.730
 6513SOL    MW426373   5.571   2.507   1.811
 6514SOL     OW26374   5.111   2.817   1.863
 6514SOL    HW226375   5.177   2.765   1.817
 6514SOL    HW326376   5.131   2.804   1.956
 6514SOL    MW426377   5.122   2.808   1.870
 6515SOL     OW26378   5.122   2.678   0.490
 6515SOL    HW226379   5.037   2.648   0.460
 6515SOL    HW326380   5.114   2.685   0.585
 6515SOL    MW426381   5.110   2.676   0.499
 6516SOL     OW26382   4.198   3.141   1.221
 6516SOL    HW226383   4.210   3.168   1.312
 6516SOL    HW326384   4.179   3.222   1.174
 6516SOL    MW426385   4.197   3.156   1.226
 6517SOL     OW26386   4.482   2.121   1.044
 6517SOL    HW226387   4.455   2.123   1.135
 6517SOL    HW326388   4.412   2.073   0.999
 6517SOL    MW426389   4.470   2.117   1.051
 6518SOL     OW26390   4.336   3.613   1.206
 6518SOL    HW226391   4.388   3.690   1.183
 6518SOL    HW326392   4.345   3.605   1.301
 6518SOL    MW426393   4.345   3.620   1.217
 6519SOL     OW26394   5.238   3.198   1.438
 6519SOL    HW226395   5.223   3.127   1.501
 6519SOL    HW326396   5.284   3.156   1.366
 6519SOL    MW426397   5.244   3.182   1.438
 6520SOL     OW26398   4.312   2.929   1.555
 6520SOL    HW226399   4.349   2.934   1.467
 6520SOL    HW326400   4.351   3.002   1.602
 6520SOL    MW426401   4.322   2.939   1.550
 6521SOL     OW26402   4.492   2.972   1.367
 6521SOL    HW226403   4.551   2.918   1.420
 6521SOL    HW326404   4.507   2.944   1.277
 6521SOL    MW426405   4.502   2.961   1.363
 6522SOL     OW26406   5.303   3.461   1.539
 6522SOL    HW226407   5.345   3.446   1.624
 6522SOL    HW326408   5.294   3.374   1.501
 6522SOL    MW426409   5.307   3.449   1.546
 6523SOL     OW26410   4.963   1.940   1.130
 6523SOL    HW226411   5.018   1.949   1.052
 6523SOL    HW326412   5.018   1.974   1.201
 6523SOL    MW426413   4.977   1.945   1.129
 6524SOL     OW26414   4.124   3.596   0.894
 6524SOL    HW226415   4.128   3.507   0.929
 6524SOL    HW326416   4.150   3.587   0.803
 6524SOL    MW426417   4.127   3.584   0.886
 6525SOL     OW26418   4.741   3.074   1.137
 6525SOL    HW226419   4.673   3.008   1.153
 6525SOL    HW326420   4.759   3.068   1.044
 6525SOL    MW426421   4.734   3.065   1.128
 6526SOL     OW26422   3.830   3.349   1.388
 6526SOL    HW226423   3.820   3.307   1.474
 6526SOL    HW326424   3.751   3.402   1.378
 6526SOL    MW426425   3.819   3.350   1.399
 6527SOL     OW26426   4.734   2.213   0.958
 6527SOL    HW226427   4.664   2.165   1.003
 6527SOL    HW326428   4.766   2.276   1.022
 6527SOL    MW426429   4.729   2.215   0.972
 6528SOL     OW26430   4.385   2.649   1.578
 6528SOL    HW226431   4.378   2.744   1.566
 6528SOL    HW326432   4.394   2.638   1.673
 6528SOL    MW426433   4.386   2.661   1.588
 6529SOL     OW26434   4.106   3.164   1.836
 6529SOL    HW226435   4.178   3.166   1.773
 6529SOL    HW326436   4.076   3.073   1.835
 6529SOL    MW426437   4.111   3.153   1.828
 6530SOL     OW26438   5.190   1.927   1.303
 6530SOL    HW226439   5.261   1.873   1.267
 6530SOL    HW326440   5.189   1.906   1.396
 6530SOL    MW426441   5.199   1.918   1.311
 6531SOL     OW26442   5.390   3.457   1.787
 6531SOL    HW226443   5.363   3.454   1.878
 6531SOL    HW326444   5.486   3.461   1.790
 6531SOL    MW426445   5.400   3.457   1.799
 6532SOL     OW26446   4.201   2.319   0.771
 6532SOL    HW226447   4.272   2.267   0.734
 6532SOL    HW326448   4.187   2.284   0.858
 6532SOL    MW426449   4.209   2.308   0.778
 6533SOL     OW26450   3.756   3.654   1.843
 6533SOL    HW226451   3.806   3.632   1.765
 6533SOL    HW326452   3.764   3.749   1.851
 6533SOL    MW426453   3.764   3.663   1.834
 6534SOL     OW26454   4.517   3.412   0.847
 6534SOL    HW226455   4.445   3.349   0.860
 6534SOL    HW326456   4.478   3.497   0.865
 6534SOL    MW426457   4.501   3.415   0.850
 6535SOL     OW26458   3.753   2.417   1.570
 6535SOL    HW226459   3.817   2.483   1.545
 6535SOL    HW326460   3.672   2.444   1.527
 6535SOL    MW426461   3.751   2.429   1.562
 6536SOL     OW26462   5.491   3.324   0.527
 6536SOL    HW226463   5.461   3.257   0.588
 6536SOL    HW326464   5.585   3.330   0.541
 6536SOL    MW426465   5.499   3.316   0.537
 6537SOL     OW26466   5.047   3.001   0.457
 6537SOL    HW226467   5.019   3.087   0.490
 6537SOL    HW326468   5.075   3.017   0.367
 6537SOL    MW426469   5.047   3.015   0.449
 6538SOL     OW26470   4.709   1.921   0.510
 6538SOL    HW226471   4.746   1.980   0.575
 6538SOL    HW326472   4.686   1.977   0.436
 6538SOL    MW426473   4.710   1.936   0.509
 6539SOL     OW26474   5.562   2.803   0.932
 6539SOL    HW226475   5.553   2.835   0.843
 6539SOL    HW326476   5.515   2.719   0.932
 6539SOL    MW426477   5.555   2.796   0.922
 6540SOL     OW26478   3.938   2.643   1.511
 6540SOL    HW226479   3.959   2.712   1.449
 6540SOL    HW326480   4.018   2.590   1.516
 6540SOL    MW426481   3.951   2.644   1.505
 6541SOL     OW26482   5.474   2.734   0.633
 6541SOL    HW226483   5.568   2.723   0.621
 6541SOL    HW326484   5.450   2.806   0.574
 6541SOL    MW426485   5.484   2.742   0.624
 6542SOL     OW26486   3.923   2.658   1.778
 6542SOL    HW226487   3.849   2.602   1.804
 6542SOL    HW326488   3.918   2.661   1.683
 6542SOL    MW426489   3.912   2.651   1.768
 6543SOL     OW26490   4.089   1.945   1.228
 6543SOL    HW226491   4.132   2.029   1.248
 6543SOL    HW326492   4.162   1.883   1.221
 6543SOL    MW426493   4.104   1.948   1.229
 6544SOL     OW26494   4.130   2.612   0.406
 6544SOL    HW226495   4.130   2.707   0.391
 6544SOL    HW326496   4.207   2.596   0.460
 6544SOL    MW426497   4.140   2.623   0.411
 6545SOL     OW26498   4.906   2.471   1.470
 6545SOL    HW226499   4.942   2.444   1.386
 6545SOL    HW326500   4.819   2.505   1.449
 6545SOL    MW426501   4.900   2.472   1.457
 6546SOL     OW26502   3.889   2.343   0.695
 6546SOL    HW226503   3.951   2.350   0.768
 6546SOL    HW326504   3.889   2.250   0.672
 6546SOL    MW426505   3.897   2.332   0.702
 6547SOL     OW26506   4.571   2.604   1.179
 6547SOL    HW226507   4.529   2.522   1.155
 6547SOL    HW326508   4.572   2.603   1.275
 6547SOL    MW426509   4.564   2.593   1.188
 6548SOL     OW26510   5.242   3.737   1.578
 6548SOL    HW226511   5.245   3.643   1.561
 6548SOL    HW326512   5.265   3.745   1.670
 6548SOL    MW426513   5.245   3.725   1.588
 6549SOL     OW26514   4.375   2.074   1.284
 6549SOL    HW226515   4.306   2.137   1.305
 6549SOL    HW326516   4.402   2.038   1.369
 6549SOL    MW426517   4.369   2.077   1.297
 6550SOL     OW26518   5.170   1.927   0.901
 6550SOL    HW226519   5.258   1.936   0.938
 6550SOL    HW326520   5.180   1.868   0.827
 6550SOL    MW426521   5.184   1.921   0.895
 6551SOL     OW26522   4.652   2.592   1.442
 6551SOL    HW226523   4.721   2.659   1.439
 6551SOL    HW326524   4.585   2.630   1.498
 6551SOL    MW426525   4.653   2.605   1.449
 6552SOL     OW26526   4.070   2.892   1.690
 6552SOL    HW226527   4.024   2.808   1.692
 6552SOL    HW326528   4.127   2.886   1.614
 6552SOL    MW426529   4.072   2.880   1.682
 6553SOL     OW26530   4.321   3.267   0.691
 6553SOL    HW226531   4.386   3.200   0.712
 6553SOL    HW326532   4.373   3.344   0.668
 6553SOL    MW426533   4.336   3.269   0.690
 6554SOL     OW26534   4.582   2.432   0.821
 6554SOL    HW226535   4.522   2.450   0.893
 6554SOL    HW326536   4.616   2.344   0.840
 6554SOL    MW426537   4.578   2.422   0.834
 6555SOL     OW26538   5.523   1.931   1.490
 6555SOL    HW226539   5.444   1.977   1.518
 6555SOL    HW326540   5.558   1.985   1.419
 6555SOL    MW426541   5.517   1.944   1.484
 6556SOL     OW26542   4.807   3.015   0.840
 6556SOL    HW226543   4.899   2.996   0.858
 6556SOL    HW326544   4.780   2.945   0.780
 6556SOL    MW426545   4.815   3.003   0.834
 6557SOL     OW26546   4.600   2.835   0.195
 6557SOL    HW226547   4.586   2.747   0.160
 6557SOL    HW326548   4.551   2.892   0.136
 6557SOL    MW426549   4.592   2.830   0.183
 6558SOL     OW26550   5.081   3.253   0.936
 6558SOL    HW226551   5.054   3.337   0.901
 6558SOL    HW326552   5.041   3.248   1.023
 6558SOL    MW426553   5.074   3.262   0.942
 6559SOL     OW26554   5.000   3.201   1.204
 6559SOL    HW226555   5.011   3.168   1.293
 6559SOL    HW326556   4.919   3.160   1.173
 6559SOL    MW426557   4.990   3.193   1.210
 6560SOL     OW26558   4.013   2.559   0.974
 6560SOL    HW226559   3.963   2.558   1.055
 6560SOL    HW326560   4.033   2.651   0.958
 6560SOL    MW426561   4.009   2.571   0.982
 6561SOL     OW26562   5.080   3.323   1.736
 6561SOL    HW226563   5.080   3.417   1.752
 6561SOL    HW326564   5.125   3.313   1.652
 6561SOL    MW426565   5.086   3.333   1.727
 6562SOL     OW26566   4.608   2.604   0.411
 6562SOL    HW226567   4.588   2.590   0.318
 6562SOL    HW326568   4.701   2.583   0.418
 6562SOL    MW426569   4.618   2.599   0.400
 6563SOL     OW26570   3.935   2.227   1.715
 6563SOL    HW226571   3.892   2.286   1.652
 6563SOL    HW326572   4.003   2.282   1.755
 6563SOL    MW426573   3.939   2.242   1.712
 6564SOL     OW26574   5.047   2.847   1.260
 6564SOL    HW226575   5.110   2.844   1.333
 6564SOL    HW326576   4.963   2.865   1.302
 6564SOL    MW426577   5.043   2.849   1.275
 6565SOL     OW26578   4.591   3.562   0.449
 6565SOL    HW226579   4.649   3.633   0.476
 6565SOL    HW326580   4.614   3.490   0.507
 6565SOL    MW426581   4.602   3.562   0.460
 6566SOL     OW26582   5.386   2.024   1.039
 6566SOL    HW226583   5.431   1.942   1.058
 6566SOL    HW326584   5.406   2.080   1.115
 6566SOL    MW426585   5.396   2.020   1.051
 6567SOL     OW26586   3.834   1.867   1.138
 6567SOL    HW226587   3.825   1.868   1.043
 6567SOL    HW326588   3.928   1.879   1.153
 6567SOL    MW426589   3.846   1.870   1.129
 6568SOL     OW26590   5.471   3.060   0.758
 6568SOL    HW226591   5.450   3.006   0.681
 6568SOL    HW326592   5.567   3.058   0.762
 6568SOL    MW426593   5.480   3.053   0.747
 6569SOL     OW26594   4.163   3.205   1.501
 6569SOL    HW226595   4.084   3.155   1.524
 6569SOL    HW326596   4.233   3.164   1.551
 6569SOL    MW426597   4.161   3.193   1.511
 6570SOL     OW26598   5.171   2.491   1.020
 6570SOL    HW226599   5.094   2.537   0.986
 6570SOL    HW326600   5.228   2.560   1.054
 6570SOL    MW426601   5.168   2.506   1.020
 6571SOL     OW26602   3.837   3.350   0.222
 6571SOL    HW226603   3.854   3.434   0.264
 6571SOL    HW326604   3.872   3.359   0.134
 6571SOL    MW426605   3.842   3.363   0.216
 6572SOL     OW26606   5.109   3.439   0.439
 6572SOL    HW226607   5.172   3.429   0.368
 6572SOL    HW326608   5.026   3.459   0.394
 6572SOL    MW426609   5.106   3.440   0.424
 6573SOL     OW26610   5.472   2.707   2.125
 6573SOL    HW226611   5.513   2.649   2.190
 6573SOL    HW326612   5.379   2.699   2.142
 6573SOL    MW426613   5.466   2.699   2.135
 6574SOL     OW26614   5.338   2.639   3.120
 6574SOL    HW226615   5.293   2.706   3.171
 6574SOL    HW326616   5.426   2.675   3.106
 6574SOL    MW426617   5.344   2.652   3.124
 6575SOL     OW26618   4.266   2.890   2.354
 6575SOL    HW226619   4.356   2.865   2.338
 6575SOL    HW326620   4.262   2.983   2.331
 6575SOL    MW426621   4.278   2.899   2.349
 6576SOL     OW26622   5.382   3.593   2.496
 6576SOL    HW226623   5.394   3.539   2.574
 6576SOL    HW326624   5.419   3.541   2.425
 6576SOL    MW426625   5.388   3.578   2.497
 6577SOL     OW26626   4.761   3.478   3.497
 6577SOL    HW226627   4.802   3.514   3.418
 6577SOL    HW326628   4.796   3.389   3.504
 6577SOL    MW426629   4.772   3.471   3.488
 6578SOL     OW26630   5.318   3.033   3.101
 6578SOL    HW226631   5.239   2.998   3.059
 6578SOL    HW326632   5.345   3.105   3.045
 6578SOL    MW426633   5.311   3.038   3.088
 6579SOL     OW26634   4.550   2.346   2.367
 6579SOL    HW226635   4.525   2.434   2.395
 6579SOL    HW326636   4.547   2.349   2.271
 6579SOL    MW426637   4.546   2.358   2.359
 6580SOL     OW26638   3.992   2.374   2.295
 6580SOL    HW226639   4.024   2.462   2.277
 6580SOL    HW326640   3.980   2.372   2.390
 6580SOL    MW426641   3.995   2.386   2.307
 6581SOL     OW26642   4.070   2.787   3.196
 6581SOL    HW226643   4.133   2.734   3.147
 6581SOL    HW326644   4.051   2.861   3.139
 6581SOL    MW426645   4.076   2.789   3.183
 6582SOL     OW26646   4.391   2.129   2.382
 6582SOL    HW226647   4.449   2.205   2.384
 6582SOL    HW326648   4.326   2.150   2.315
 6582SOL    MW426649   4.390   2.141   2.373
 6583SOL     OW26650   4.478   3.056   2.557
 6583SOL    HW226651   4.558   3.059   2.609
 6583SOL    HW326652   4.506   3.023   2.471
 6583SOL    MW426653   4.492   3.052   2.552
 6584SOL     OW26654   4.503   3.397   3.460
 6584SOL    HW226655   4.587   3.423   3.499
 6584SOL    HW326656   4.527   3.341   3.386
 6584SOL    MW426657   4.517   3.393   3.455
 6585SOL     OW26658   4.255   2.560   2.548
 6585SOL    HW226659   4.240   2.480   2.599
 6585SOL    HW326660   4.337   2.595   2.582
 6585SOL    MW426661   4.263   2.552   2.560
 6586SOL     OW26662   4.592   3.246   3.233
 6586SOL    HW226663   4.556   3.312   3.173
 6586SOL    HW326664   4.520   3.184   3.246
 6586SOL    MW426665   4.578   3.246   3.227
 6587SOL     OW26666   4.397   2.386   2.925
 6587SOL    HW226667   4.303   2.382   2.943
 6587SOL    HW326668   4.427   2.295   2.934
 6587SOL    MW426669   4.388   2.374   2.928
 6588SOL     OW26670   4.143   2.800   2.829
 6588SOL    HW226671   4.098   2.807   2.745
 6588SOL    HW326672   4.123   2.883   2.873
 6588SOL    MW426673   4.135   2.812   2.823
 6589SOL     OW26674   3.840   3.646   2.704
 6589SOL    HW226675   3.929   3.638   2.739
 6589SOL    HW326676   3.804   3.558   2.709
 6589SOL    MW426677   3.847   3.633   2.709
 6590SOL     OW26678   5.105   3.038   2.073
 6590SOL    HW226679   5.023   3.074   2.039
 6590SOL    HW326680   5.173   3.081   2.022
 6590SOL    MW426681   5.103   3.048   2.061
 6591SOL     OW26682   4.104   3.173   2.739
 6591SOL    HW226683   4.080   3.226   2.815
 6591SOL    HW326684   4.160   3.231   2.687
 6591SOL    MW426685   4.108   3.188   2.742
 6592SOL     OW26686   4.666   2.817   2.549
 6592SOL    HW226687   4.580   2.804   2.589
 6592SOL    HW326688   4.719   2.744   2.581
 6592SOL    MW426689   4.662   2.806   2.558
 6593SOL     OW26690   4.074   3.469   3.334
 6593SOL    HW226691   3.982   3.445   3.319
 6593SOL    HW326692   4.118   3.386   3.351
 6593SOL    MW426693   4.068   3.454   3.333
 6594SOL     OW26694   4.657   3.179   2.266
 6594SOL    HW226695   4.634   3.241   2.334
 6594SOL    HW326696   4.614   3.097   2.292
 6594SOL    MW426697   4.649   3.175   2.277
 6595SOL     OW26698   5.530   2.180   2.722
 6595SOL    HW226699   5.467   2.160   2.791
 6595SOL    HW326700   5.520   2.109   2.659
 6595SOL    MW426701   5.520   2.167   2.723
 6596SOL     OW26702   4.154   2.152   2.234
 6596SOL    HW226703   4.128   2.114   2.150
 6596SOL    HW326704   4.091   2.222   2.250
 6596SOL    MW426705   4.143   2.155   2.225
 6597SOL     OW26706   3.989   3.113   2.271
 6597SOL    HW226707   3.937   3.181   2.227
 6597SOL    HW326708   3.986   3.039   2.211
 6597SOL    MW426709   3.981   3.112   2.258
 6598SOL     OW26710   4.651   3.576   2.049
 6598SOL    HW226711   4.606   3.592   2.132
 6598SOL    HW326712   4.582   3.541   1.991
 6598SOL    MW426713   4.637   3.573   2.051
 6599SOL     OW26714   5.586   2.349   2.024
 6599SOL    HW226715   5.495   2.351   2.052
 6599SOL    HW326716   5.631   2.411   2.082
 6599SOL    MW426717   5.579   2.357   2.034
 6600SOL     OW26718   5.331   2.952   2.374
 6600SOL    HW226719   5.241   2.952   2.409
 6600SOL    HW326720   5.324   2.998   2.291
 6600SOL    MW426721   5.318   2.958   2.368
 6601SOL     OW26722   5.131   2.587   3.446
 6601SOL    HW226723   5.200   2.525   3.423
 6601SOL    HW326724   5.056   2.561   3.393
 6601SOL    MW426725   5.131   2.574   3.437
 6602SOL     OW26726   3.872   3.467   2.998
 6602SOL    HW226727   3.855   3.413   3.075
 6602SOL    HW326728   3.860   3.557   3.028
 6602SOL    MW426729   3.869   3.471   3.012
 6603SOL     OW26730   4.867   2.974   3.438
 6603SOL    HW226731   4.852   3.067   3.423
 6603SOL    HW326732   4.962   2.964   3.438
 6603SOL    MW426733   4.876   2.984   3.435
 6604SOL     OW26734   4.663   2.398   3.639
 6604SOL    HW226735   4.753   2.399   3.606
 6604SOL    HW326736   4.622   2.323   3.597
 6604SOL    MW426737   4.669   2.388   3.630
 6605SOL     OW26738   5.238   2.930   2.766
 6605SOL    HW226739   5.241   2.864   2.697
 6605SOL    HW326740   5.323   2.973   2.762
 6605SOL    MW426741   5.250   2.926   2.757
 6606SOL     OW26742   4.858   2.533   2.335
 6606SOL    HW226743   4.884   2.557   2.246
 6606SOL    HW326744   4.840   2.440   2.331
 6606SOL    MW426745   4.860   2.525   2.322
 6607SOL     OW26746   5.523   3.153   2.186
 6607SOL    HW226747   5.479   3.194   2.261
 6607SOL    HW326748   5.580   3.221   2.151
 6607SOL    MW426749   5.525   3.167   2.191
 6608SOL     OW26750   4.443   2.202   3.589
 6608SOL    HW226751   4.453   2.128   3.529
 6608SOL    HW326752   4.479   2.171   3.672
 6608SOL    MW426753   4.449   2.188   3.591
 6609SOL     OW26754   4.179   3.569   2.504
 6609SOL    HW226755   4.211   3.657   2.482
 6609SOL    HW326756   4.132   3.541   2.426
 6609SOL    MW426757   4.178   3.577   2.491
 6610SOL     OW26758   5.563   1.931   2.553
 6610SOL    HW226759   5.617   1.882   2.615
 6610SOL    HW326760   5.506   1.865   2.514
 6610SOL    MW426761   5.563   1.915   2.555
 6611SOL     OW26762   3.895   3.629   2.081
 6611SOL    HW226763   3.924   3.719   2.073
 6611SOL    HW326764   3.845   3.612   2.002
 6611SOL    MW426765   3.893   3.637   2.070
 6612SOL     OW26766   4.682   1.884   2.966
 6612SOL    HW226767   4.641   1.962   2.928
 6612SOL    HW326768   4.776   1.902   2.961
 6612SOL    MW426769   4.688   1.896   2.961
 6613SOL     OW26770   5.299   3.437   2.052
 6613SOL    HW226771   5.347   3.506   2.098
 6613SOL    HW326772   5.220   3.481   2.021
 6613SOL    MW426773   5.294   3.451   2.055
 6614SOL     OW26774   4.697   2.562   1.996
 6614SOL    HW226775   4.699   2.509   1.917
 6614SOL    HW326776   4.785   2.599   2.002
 6614SOL    MW426777   4.709   2.561   1.985
 6615SOL     OW26778   5.311   2.488   2.332
 6615SOL    HW226779   5.350   2.488   2.419
 6615SOL    HW326780   5.252   2.564   2.332
 6615SOL    MW426781   5.308   2.499   2.343
 6616SOL     OW26782   4.628   2.855   3.461
 6616SOL    HW226783   4.605   2.835   3.551
 6616SOL    HW326784   4.713   2.899   3.466
 6616SOL    MW426785   4.635   2.858   3.473
 6617SOL     OW26786   4.708   1.992   3.221
 6617SOL    HW226787   4.714   1.954   3.134
 6617SOL    HW326788   4.697   2.086   3.206
 6617SOL    MW426789   4.709   2.000   3.209
 6618SOL     OW26790   4.797   2.481   3.055
 6618SOL    HW226791   4.872   2.510   3.002
 6618SOL    HW326792   4.729   2.546   3.039
 6618SOL    MW426793   4.798   2.493   3.045
 6619SOL     OW26794   5.347   2.449   3.332
 6619SOL    HW226795   5.328   2.358   3.311
 6619SOL    HW326796   5.325   2.498   3.253
 6619SOL    MW426797   5.342   2.442   3.319
 6620SOL     OW26798   5.489   3.543   3.236
 6620SOL    HW226799   5.417   3.505   3.287
 6620SOL    HW326800   5.506   3.628   3.277
 6620SOL    MW426801   5.483   3.548   3.248
 6621SOL     OW26802   4.794   2.187   3.438
 6621SOL    HW226803   4.760   2.226   3.357
 6621SOL    HW326804   4.772   2.095   3.431
 6621SOL    MW426805   4.787   2.180   3.428
 6622SOL     OW26806   5.203   3.001   3.514
 6622SOL    HW226807   5.285   3.042   3.544
 6622SOL    HW326808   5.166   2.963   3.594
 6622SOL    MW426809   5.209   3.002   3.529
 6623SOL     OW26810   5.498   2.374   2.498
 6623SOL    HW226811   5.587   2.343   2.515
 6623SOL    HW326812   5.441   2.314   2.546
 6623SOL    MW426813   5.501   2.362   2.507
 6624SOL     OW26814   3.924   2.088   2.527
 6624SOL    HW226815   3.915   2.028   2.453
 6624SOL    HW326816   3.857   2.059   2.590
 6624SOL    MW426817   3.914   2.075   2.525
 6625SOL     OW26818   4.867   3.181   2.088
 6625SOL    HW226819   4.817   3.183   2.170
 6625SOL    HW326820   4.801   3.199   2.020
 6625SOL    MW426821   4.853   3.183   2.090
 6626SOL     OW26822   3.871   2.261   2.890
 6626SOL    HW226823   3.843   2.352   2.899
 6626SOL    HW326824   3.808   2.222   2.829
 6626SOL    MW426825   3.858   2.267   2.884
 6627SOL     OW26826   4.330   3.599   2.196
 6627SOL    HW226827   4.251   3.557   2.229
 6627SOL    HW326828   4.396   3.582   2.263
 6627SOL    MW426829   4.329   3.591   2.209
 6628SOL     OW26830   5.458   3.119   3.593
 6628SOL    HW226831   5.508   3.045   3.625
 6628SOL    HW326832   5.404   3.146   3.668
 6628SOL    MW426833   5.458   3.113   3.606
 6629SOL     OW26834   4.466   3.014   1.903
 6629SOL    HW226835   4.388   2.960   1.890
 6629SOL    HW326836   4.437   3.087   1.956
 6629SOL    MW426837   4.452   3.016   1.908
 6630SOL     OW26838   5.592   2.754   3.095
 6630SOL    HW226839   5.608   2.792   3.008
 6630SOL    HW326840   5.626   2.820   3.156
 6630SOL    MW426841   5.599   2.767   3.091
 6631SOL     OW26842   5.384   3.463   2.764
 6631SOL    HW226843   5.413   3.530   2.825
 6631SOL    HW326844   5.365   3.387   2.819
 6631SOL    MW426845   5.386   3.463   2.779
 6632SOL     OW26846   5.047   3.530   1.971
 6632SOL    HW226847   4.973   3.493   2.021
 6632SOL    HW326848   5.055   3.620   2.004
 6632SOL    MW426849   5.038   3.537   1.983
 6633SOL     OW26850   3.855   2.536   3.060
 6633SOL    HW226851   3.917   2.566   3.126
 6633SOL    HW326852   3.789   2.605   3.054
 6633SOL    MW426853   3.854   2.549   3.067
 6634SOL     OW26854   5.271   3.204   1.913
 6634SOL    HW226855   5.218   3.253   1.849
 6634SOL    HW326856   5.302   3.270   1.974
 6634SOL    MW426857   5.269   3.218   1.911
 6635SOL     OW26858   4.496   2.093   1.968
 6635SOL    HW226859   4.444   2.013   1.956
 6635SOL    HW326860   4.583   2.070   1.936
 6635SOL    MW426861   4.499   2.079   1.962
 6636SOL     OW26862   3.950   3.645   3.512
 6636SOL    HW226863   3.924   3.713   3.450
 6636SOL    HW326864   3.998   3.582   3.460
 6636SOL    MW426865   3.952   3.645   3.498
 6637SOL     OW26866   4.002   2.964   3.019
 6637SOL    HW226867   4.055   3.039   3.044
 6637SOL    HW326868   3.921   3.002   2.985
 6637SOL    MW426869   3.998   2.979   3.019
 6638SOL     OW26870   4.542   2.868   3.007
 6638SOL    HW226871   4.570   2.777   3.019
 6638SOL    HW326872   4.471   2.862   2.943
 6638SOL    MW426873   4.535   2.856   3.002
 6639SOL     OW26874   3.857   2.733   2.425
 6639SOL    HW226875   3.948   2.748   2.452
 6639SOL    HW326876   3.860   2.654   2.371
 6639SOL    MW426877   3.869   2.725   2.423
 6640SOL     OW26878   4.093   2.441   3.679
 6640SOL    HW226879   4.040   2.521   3.686
 6640SOL    HW326880   4.163   2.453   3.744
 6640SOL    MW426881   4.095   2.454   3.687
 6641SOL     OW26882   4.479   1.991   3.386
 6641SOL    HW226883   4.456   1.899   3.388
 6641SOL    HW326884   4.565   1.993   3.343
 6641SOL    MW426885   4.486   1.981   3.382
 6642SOL     OW26886   4.163   2.515   3.425
 6642SOL    HW226887   4.243   2.565   3.411
 6642SOL    HW326888   4.154   2.509   3.520
 6642SOL    MW426889   4.172   2.521   3.435
 6643SOL     OW26890   4.484   3.665   2.799
 6643SOL    HW226891   4.573   3.680   2.829
 6643SOL    HW326892   4.479   3.712   2.715
 6643SOL    MW426893   4.494   3.673   2.792
 6644SOL     OW26894   5.140   2.040   3.696
 6644SOL    HW226895   5.196   1.967   3.722
 6644SOL    HW326896   5.110   2.078   3.778
 6644SOL    MW426897   5.144   2.035   3.709
 6645SOL     OW26898   3.865   3.345   2.464
 6645SOL    HW226899   3.837   3.384   2.546
 6645SOL    HW326900   3.885   3.254   2.486
 6645SOL    MW426901   3.863   3.337   2.477
 6646SOL     OW26902   4.698   3.388   2.499
 6646SOL    HW226903   4.781   3.342   2.483
 6646SOL    HW326904   4.688   3.387   2.595
 6646SOL    MW426905   4.708   3.381   2.509
 6647SOL     OW26906   5.530   2.533   2.813
 6647SOL    HW226907   5.619   2.563   2.795
 6647SOL    HW326908   5.510   2.473   2.742
 6647SOL    MW426909   5.539   2.530   2.802
 6648SOL     OW26910   5.381   2.712   3.693
 6648SOL    HW226911   5.436   2.636   3.674
 6648SOL    HW326912   5.383   2.720   3.788
 6648SOL    MW426913   5.389   2.703   3.701
 6649SOL     OW26914   4.431   3.445   1.904
 6649SOL    HW226915   4.371   3.514   1.874
 6649SOL    HW326916   4.376   3.387   1.957
 6649SOL    MW426917   4.415   3.447   1.906
 6650SOL     OW26918   4.869   2.090   2.127
 6650SOL    HW226919   4.802   2.066   2.064
 6650SOL    HW326920   4.934   2.139   2.076
 6650SOL    MW426921   4.869   2.092   2.112
 6651SOL     OW26922   4.676   2.274   3.212
 6651SOL    HW226923   4.595   2.315   3.240
 6651SOL    HW326924   4.723   2.342   3.164
 6651SOL    MW426925   4.671   2.289   3.210
 6652SOL     OW26926   4.936   2.612   2.835
 6652SOL    HW226927   4.949   2.706   2.845
 6652SOL    HW326928   4.897   2.602   2.749
 6652SOL    MW426929   4.932   2.623   2.825
 6653SOL     OW26930   4.388   2.807   2.639
 6653SOL    HW226931   4.299   2.798   2.672
 6653SOL    HW326932   4.392   2.897   2.607
 6653SOL    MW426933   4.377   2.818   2.639
 6654SOL     OW26934   5.187   2.390   2.634
 6654SOL    HW226935   5.132   2.311   2.633
 6654SOL    HW326936   5.169   2.431   2.718
 6654SOL    MW426937   5.177   2.385   2.643
 6655SOL     OW26938   4.158   2.077   3.451
 6655SOL    HW226939   4.079   2.095   3.503
 6655SOL    HW326940   4.153   2.139   3.378
 6655SOL    MW426941   4.148   2.087   3.448
 6656SOL     OW26942   4.806   2.594   2.591
 6656SOL    HW226943   4.743   2.526   2.615
 6656SOL    HW326944   4.826   2.575   2.499
 6656SOL    MW426945   4.800   2.581   2.583
 6657SOL     OW26946   4.062   3.489   2.293
 6657SOL    HW226947   4.023   3.536   2.219
 6657SOL    HW326948   3.996   3.424   2.318
 6657SOL    MW426949   4.049   3.487   2.287
 6658SOL     OW26950   4.554   2.898   2.317
 6658SOL    HW226951   4.556   2.872   2.224
 6658SOL    HW326952   4.612   2.835   2.360
 6658SOL    MW426953   4.562   2.887   2.311
 6659SOL     OW26954   5.107   3.458   3.089
 6659SOL    HW226955   5.032   3.504   3.127
 6659SOL    HW326956   5.089   3.365   3.106
 6659SOL    MW426957   5.096   3.452   3.097
 6660SOL     OW26958   5.111   3.666   2.519
 6660SOL    HW226959   5.054   3.619   2.458
 6660SOL    HW326960   5.197   3.627   2.506
 6660SOL    MW426961   5.114   3.657   2.509
 6661SOL     OW26962   5.064   2.142   2.650
 6661SOL    HW226963   5.092   2.074   2.711
 6661SOL    HW326964   4.978   2.113   2.620
 6661SOL    MW426965   5.057   2.129   2.654
 6662SOL     OW26966   3.869   3.076   2.584
 6662SOL    HW226967   3.933   3.108   2.647
 6662SOL    HW326968   3.918   3.012   2.532
 6662SOL    MW426969   3.884   3.072   2.585
 6663SOL     OW26970   4.369   3.152   3.566
 6663SOL    HW226971   4.417   3.235   3.553
 6663SOL    HW326972   4.426   3.100   3.622
 6663SOL    MW426973   4.383   3.156   3.572
 6664SOL     OW26974   3.945   3.394   3.706
 6664SOL    HW226975   4.001   3.318   3.721
 6664SOL    HW326976   3.894   3.372   3.628
 6664SOL    MW426977   3.945   3.381   3.697
 6665SOL     OW26978   5.044   2.246   1.985
 6665SOL    HW226979   5.017   2.312   1.921
 6665SOL    HW326980   5.114   2.289   2.035
 6665SOL    MW426981   5.049   2.259   1.982
 6666SOL     OW26982   4.712   1.951   1.922
 6666SOL    HW226983   4.768   1.943   1.844
 6666SOL    HW326984   4.689   1.861   1.944
 6666SOL    MW426985   4.717   1.938   1.915
 6667SOL     OW26986   5.217   2.802   2.127
 6667SOL    HW226987   5.184   2.891   2.117
 6667SOL    HW326988   5.182   2.773   2.212
 6667SOL    MW426989   5.207   2.811   2.138
 6668SOL     OW26990   4.830   3.231   3.315
 6668SOL    HW226991   4.741   3.237   3.283
 6668SOL    HW326992   4.874   3.310   3.283
 6668SOL    MW426993   4.825   3.241   3.307
 6669SOL     OW26994   4.123   1.899   3.657
 6669SOL    HW226995   4.051   1.864   3.605
 6669SOL    HW326996   4.181   1.940   3.592
 6669SOL    MW426997   4.121   1.900   3.642
 6670SOL     OW26998   4.147   3.389   2.956
 6670SOL    HW226999   4.192   3.451   3.013
 6670SOL    HW327000   4.054   3.408   2.969
 6670SOL    MW427001   4.140   3.399   2.963
 6671SOL     OW27002   5.587   2.918   3.310
 6671SOL    HW227003   5.502   2.931   3.269
 6671SOL    HW327004   5.567   2.882   3.397
 6671SOL    MW427005   5.574   2.914   3.315
 6672SOL     OW27006   4.569   3.457   3.064
 6672SOL    HW227007   4.593   3.446   2.973
 6672SOL    HW327008   4.492   3.514   3.062
 6672SOL    MW427009   4.561   3.462   3.053
 6673SOL     OW27010   4.211   2.840   1.919
 6673SOL    HW227011   4.134   2.853   1.975
 6673SOL    HW327012   4.175   2.804   1.838
 6673SOL    MW427013   4.197   2.836   1.916
 6674SOL     OW27014   4.864   2.813   2.162
 6674SOL    HW227015   4.774   2.834   2.137
 6674SOL    HW327016   4.891   2.886   2.218
 6674SOL    MW427017   4.856   2.825   2.165
 6675SOL     OW27018   4.364   3.162   2.854
 6675SOL    HW227019   4.357   3.141   2.948
 6675SOL    HW327020   4.282   3.130   2.817
 6675SOL    MW427021   4.352   3.156   2.861
 6676SOL     OW27022   5.228   2.172   3.256
 6676SOL    HW227023   5.175   2.174   3.336
 6676SOL    HW327024   5.213   2.085   3.219
 6676SOL    MW427025   5.220   2.162   3.261
 6677SOL     OW27026   5.564   2.096   3.129
 6677SOL    HW227027   5.545   2.163   3.064
 6677SOL    HW327028   5.621   2.034   3.084
 6677SOL    MW427029   5.568   2.097   3.115
 6678SOL     OW27030   3.810   3.254   3.517
 6678SOL    HW227031   3.854   3.187   3.463
 6678SOL    HW327032   3.725   3.216   3.537
 6678SOL    MW427033   3.805   3.240   3.513
 6679SOL     OW27034   4.493   1.929   2.569
 6679SOL    HW227035   4.422   1.990   2.551
 6679SOL    HW327036   4.544   1.926   2.488
 6679SOL    MW427037   4.489   1.935   2.556
 6680SOL     OW27038   4.251   3.169   2.318
 6680SOL    HW227039   4.244   3.201   2.408
 6680SOL    HW327040   4.161   3.153   2.290
 6680SOL    MW427041   4.239   3.171   2.325
 6681SOL     OW27042   4.846   3.562   3.227
 6681SOL    HW227043   4.766   3.547   3.177
 6681SOL    HW327044   4.853   3.657   3.234
 6681SOL    MW427045   4.837   3.573   3.221
 6682SOL     OW27046   4.960   3.527   2.717
 6682SOL    HW227047   5.007   3.600   2.676
 6682SOL    HW327048   4.881   3.566   2.753
 6682SOL    MW427049   4.955   3.542   2.716
 6683SOL     OW27050   5.368   3.622   2.992
 6683SOL    HW227051   5.411   3.592   3.072
 6683SOL    HW327052   5.287   3.570   2.989
 6683SOL    MW427053   5.363   3.611   3.002
 6684SOL     OW27054   4.453   2.586   3.699
 6684SOL    HW227055   4.523   2.528   3.671
 6684SOL    HW327056   4.396   2.531   3.754
 6684SOL    MW427057   4.455   2.573   3.703
 6685SOL     OW27058   5.240   2.798   3.332
 6685SOL    HW227059   5.245   2.851   3.412
 6685SOL    HW327060   5.202   2.715   3.360
 6685SOL    MW427061   5.236   2.793   3.347
 6686SOL     OW27062   4.880   1.933   3.578
 6686SOL    HW227063   4.875   1.840   3.559
 6686SOL    HW327064   4.963   1.944   3.624
 6686SOL    MW427065   4.888   1.922   3.582
 6687SOL     OW27066   4.254   2.453   2.032
 6687SOL    HW227067   4.220   2.509   2.102
 6687SOL    HW327068   4.325   2.403   2.072
 6687SOL    MW427069   4.260   2.454   2.046
 6688SOL     OW27070   5.350   3.204   2.854
 6688SOL    HW227071   5.385   3.186   2.767
 6688SOL    HW327072   5.255   3.205   2.841
 6688SOL    MW427073   5.342   3.201   2.841
 6689SOL     OW27074   4.779   2.852   3.223
 6689SOL    HW227075   4.822   2.887   3.301
 6689SOL    HW327076   4.762   2.929   3.169
 6689SOL    MW427077   4.782   2.867   3.226
 6690SOL     OW27078   5.310   2.339   2.096
 6690SOL    HW227079   5.302   2.410   2.033
 6690SOL    HW327080   5.328   2.383   2.179
 6690SOL    MW427081   5.311   2.353   2.098
 6691SOL     OW27082   4.170   1.994   2.525
 6691SOL    HW227083   4.220   2.037   2.456
 6691SOL    HW327084   4.085   2.038   2.525
 6691SOL    MW427085   4.167   2.007   2.516
 6692SOL     OW27086   3.929   3.056   3.385
 6692SOL    HW227087   3.957   3.009   3.463
 6692SOL    HW327088   3.850   3.011   3.356
 6692SOL    MW427089   3.922   3.045   3.391
 6693SOL     OW27090   4.437   2.383   3.352
 6693SOL    HW227091   4.409   2.471   3.376
 6693SOL    HW327092   4.406   2.327   3.423
 6693SOL    MW427093   4.429   2.386   3.364
 6694SOL     OW27094   4.979   2.601   2.071
 6694SOL    HW227095   5.026   2.619   1.990
 6694SOL    HW327096   4.945   2.685   2.099
 6694SOL    MW427097   4.981   2.615   2.064
 6695SOL     OW27098   4.092   2.779   2.565
 6695SOL    HW227099   4.150   2.835   2.513
 6695SOL    HW327100   4.136   2.694   2.567
 6695SOL    MW427101   4.105   2.776   2.558
 6696SOL     OW27102   5.232   2.131   2.402
 6696SOL    HW227103   5.154   2.081   2.427
 6696SOL    HW327104   5.203   2.222   2.402
 6696SOL    MW427105   5.218   2.135   2.405
 6697SOL     OW27106   4.818   2.093   2.561
 6697SOL    HW227107   4.838   2.168   2.505
 6697SOL    HW327108   4.798   2.132   2.646
 6697SOL    MW427109   4.819   2.109   2.565
 6698SOL     OW27110   4.714   3.343   1.893
 6698SOL    HW227111   4.741   3.421   1.845
 6698SOL    HW327112   4.621   3.358   1.912
 6698SOL    MW427113   4.705   3.356   1.889
 6699SOL     OW27114   5.578   2.866   3.580
 6699SOL    HW227115   5.491   2.846   3.616
 6699SOL    HW327116   5.632   2.792   3.605
 6699SOL    MW427117   5.573   2.855   3.588
 6700SOL     OW27118   3.799   3.379   2.737
 6700SOL    HW227119   3.831   3.383   2.828
 6700SOL    HW327120   3.704   3.387   2.745
 6700SOL    MW427121   3.791   3.382   2.750
 6701SOL     OW27122   3.754   2.505   2.284
 6701SOL    HW227123   3.694   2.477   2.354
 6701SOL    HW327124   3.828   2.445   2.290
 6701SOL    MW427125   3.756   2.494   2.293
 6702SOL     OW27126   5.322   3.717   3.718
 6702SOL    HW227127   5.367   3.641   3.683
 6702SOL    HW327128   5.360   3.730   3.805
 6702SOL    MW427129   5.332   3.710   3.724
 6703SOL     OW27130   4.922   3.236   2.444
 6703SOL    HW227131   4.945   3.187   2.522
 6703SOL    HW327132   5.003   3.278   2.416
 6703SOL    MW427133   4.935   3.236   2.451
 6704SOL     OW27134   4.180   2.244   3.173
 6704SOL    HW227135   4.213   2.325   3.213
 6704SOL    HW327136   4.153   2.270   3.085
 6704SOL    MW427137   4.179   2.258   3.167
 6705SOL     OW27138   4.134   2.211   2.909
 6705SOL    HW227139   4.164   2.125   2.880
 6705SOL    HW327140   4.039   2.204   2.912
 6705SOL    MW427141   4.126   2.200   2.907
 6706SOL     OW27142   4.963   2.420   3.600
 6706SOL    HW227143   5.015   2.355   3.553
 6706SOL    HW327144   4.921   2.471   3.530
 6706SOL    MW427145   4.964   2.417   3.583
 6707SOL     OW27146   5.062   2.215   3.461
 6707SOL    HW227147   4.969   2.199   3.448
 6707SOL    HW327148   5.088   2.153   3.529
 6707SOL    MW427149   5.052   2.205   3.468
 6708SOL     OW27150   4.277   1.989   2.800
 6708SOL    HW227151   4.287   1.898   2.826
 6708SOL    HW327152   4.233   1.985   2.715
 6708SOL    MW427153   4.273   1.977   2.792
 6709SOL     OW27154   4.371   3.604   3.346
 6709SOL    HW227155   4.288   3.589   3.391
 6709SOL    HW327156   4.430   3.537   3.381
 6709SOL    MW427157   4.369   3.594   3.356
 6710SOL     OW27158   5.428   2.311   2.971
 6710SOL    HW227159   5.361   2.344   3.031
 6710SOL    HW327160   5.471   2.389   2.937
 6710SOL    MW427161   5.426   2.326   2.975
 6711SOL     OW27162   5.606   3.031   2.941
 6711SOL    HW227163   5.599   2.971   2.866
 6711SOL    HW327164   5.532   3.091   2.930
 6711SOL    MW427165   5.596   3.031   2.930
 6712SOL     OW27166   4.988   2.893   2.859
 6712SOL    HW227167   5.002   2.865   2.950
 6712SOL    HW327168   5.074   2.924   2.831
 6712SOL    MW427169   5.001   2.894   2.868
 6713SOL     OW27170   5.071   2.388   3.138
 6713SOL    HW227171   5.092   2.389   3.045
 6713SOL    HW327172   5.116   2.310   3.171
 6713SOL    MW427173   5.078   2.378   3.130
 6714SOL     OW27174   5.564   2.519   3.680
 6714SOL    HW227175   5.601   2.464   3.749
 6714SOL    HW327176   5.589   2.476   3.598
 6714SOL    MW427177   5.571   2.507   3.679
 6715SOL     OW27178   5.111   2.817   3.731
 6715SOL    HW227179   5.177   2.765   3.685
 6715SOL    HW327180   5.131   2.804   3.824
 6715SOL    MW427181   5.122   2.808   3.738
 6716SOL     OW27182   5.062   1.903   2.080
 6716SOL    HW227183   5.136   1.947   2.123
 6716SOL    HW327184   4.986   1.957   2.102
 6716SOL    MW427185   5.062   1.915   2.088
 6717SOL     OW27186   5.122   2.678   2.358
 6717SOL    HW227187   5.037   2.648   2.328
 6717SOL    HW327188   5.114   2.685   2.453
 6717SOL    MW427189   5.110   2.676   2.367
 6718SOL     OW27190   4.198   3.141   3.089
 6718SOL    HW227191   4.210   3.168   3.180
 6718SOL    HW327192   4.179   3.222   3.042
 6718SOL    MW427193   4.197   3.156   3.094
 6719SOL     OW27194   4.482   2.121   2.912
 6719SOL    HW227195   4.455   2.123   3.003
 6719SOL    HW327196   4.412   2.073   2.867
 6719SOL    MW427197   4.470   2.117   2.919
 6720SOL     OW27198   4.336   3.613   3.074
 6720SOL    HW227199   4.388   3.690   3.051
 6720SOL    HW327200   4.345   3.605   3.169
 6720SOL    MW427201   4.345   3.620   3.085
 6721SOL     OW27202   5.238   3.198   3.306
 6721SOL    HW227203   5.223   3.127   3.369
 6721SOL    HW327204   5.284   3.156   3.234
 6721SOL    MW427205   5.244   3.182   3.306
 6722SOL     OW27206   4.312   2.929   3.423
 6722SOL    HW227207   4.349   2.934   3.335
 6722SOL    HW327208   4.351   3.002   3.470
 6722SOL    MW427209   4.322   2.939   3.418
 6723SOL     OW27210   4.492   2.972   3.235
 6723SOL    HW227211   4.551   2.918   3.288
 6723SOL    HW327212   4.507   2.944   3.145
 6723SOL    MW427213   4.502   2.961   3.231
 6724SOL     OW27214   4.495   2.344   2.084
 6724SOL    HW227215   4.568   2.393   2.047
 6724SOL    HW327216   4.511   2.253   2.058
 6724SOL    MW427217   4.507   2.339   2.077
 6725SOL     OW27218   5.303   3.461   3.407
 6725SOL    HW227219   5.345   3.446   3.492
 6725SOL    HW327220   5.294   3.374   3.369
 6725SOL    MW427221   5.307   3.449   3.414
 6726SOL     OW27222   4.963   1.940   2.998
 6726SOL    HW227223   5.018   1.949   2.920
 6726SOL    HW327224   5.018   1.974   3.069
 6726SOL    MW427225   4.977   1.945   2.997
 6727SOL     OW27226   3.970   2.853   2.182
 6727SOL    HW227227   3.907   2.869   2.111
 6727SOL    HW327228   3.917   2.816   2.253
 6727SOL    MW427229   3.955   2.850   2.182
 6728SOL     OW27230   4.326   3.207   2.041
 6728SOL    HW227231   4.341   3.183   2.133
 6728SOL    HW327232   4.234   3.185   2.025
 6728SOL    MW427233   4.316   3.200   2.051
 6729SOL     OW27234   4.865   3.438   2.193
 6729SOL    HW227235   4.873   3.356   2.144
 6729SOL    HW327236   4.784   3.477   2.160
 6729SOL    MW427237   4.855   3.433   2.183
 6730SOL     OW27238   4.124   3.596   2.762
 6730SOL    HW227239   4.128   3.507   2.797
 6730SOL    HW327240   4.150   3.587   2.671
 6730SOL    MW427241   4.127   3.584   2.754
 6731SOL     OW27242   4.741   3.074   3.005
 6731SOL    HW227243   4.673   3.008   3.021
 6731SOL    HW327244   4.759   3.068   2.912
 6731SOL    MW427245   4.734   3.065   2.996
 6732SOL     OW27246   3.830   3.349   3.256
 6732SOL    HW227247   3.820   3.307   3.342
 6732SOL    HW327248   3.751   3.402   3.246
 6732SOL    MW427249   3.819   3.350   3.267
 6733SOL     OW27250   4.734   2.213   2.826
 6733SOL    HW227251   4.664   2.165   2.871
 6733SOL    HW327252   4.766   2.276   2.890
 6733SOL    MW427253   4.729   2.215   2.840
 6734SOL     OW27254   4.385   2.649   3.446
 6734SOL    HW227255   4.378   2.744   3.434
 6734SOL    HW327256   4.394   2.638   3.541
 6734SOL    MW427257   4.386   2.661   3.456
 6735SOL     OW27258   4.106   3.164   3.704
 6735SOL    HW227259   4.178   3.166   3.641
 6735SOL    HW327260   4.076   3.073   3.703
 6735SOL    MW427261   4.111   3.153   3.696
 6736SOL     OW27262   5.190   1.927   3.171
 6736SOL    HW227263   5.261   1.873   3.135
 6736SOL    HW327264   5.189   1.906   3.264
 6736SOL    MW427265   5.199   1.918   3.179
 6737SOL     OW27266   5.390   3.457   3.655
 6737SOL    HW227267   5.363   3.454   3.746
 6737SOL    HW327268   5.486   3.461   3.658
 6737SOL    MW427269   5.400   3.457   3.667
 6738SOL     OW27270   4.201   2.319   2.639
 6738SOL    HW227271   4.272   2.267   2.602
 6738SOL    HW327272   4.187   2.284   2.726
 6738SOL    MW427273   4.209   2.308   2.646
 6739SOL     OW27274   3.756   3.654   3.711
 6739SOL    HW227275   3.806   3.632   3.633
 6739SOL    HW327276   3.764   3.749   3.719
 6739SOL    MW427277   3.764   3.663   3.702
 6740SOL     OW27278   4.517   3.412   2.715
 6740SOL    HW227279   4.445   3.349   2.728
 6740SOL    HW327280   4.478   3.497   2.733
 6740SOL    MW427281   4.501   3.415   2.718
 6741SOL     OW27282   4.837   2.260   2.363
 6741SOL    HW227283   4.859   2.197   2.295
 6741SOL    HW327284   4.742   2.252   2.374
 6741SOL    MW427285   4.827   2.251   2.355
 6742SOL     OW27286   3.922   1.950   2.295
 6742SOL    HW227287   3.993   1.971   2.234
 6742SOL    HW327288   3.876   1.878   2.253
 6742SOL    MW427289   3.926   1.944   2.281
 6743SOL     OW27290   3.753   2.417   3.438
 6743SOL    HW227291   3.817   2.483   3.413
 6743SOL    HW327292   3.672   2.444   3.395
 6743SOL    MW427293   3.751   2.429   3.430
 6744SOL     OW27294   5.491   3.324   2.395
 6744SOL    HW227295   5.461   3.257   2.456
 6744SOL    HW327296   5.585   3.330   2.409
 6744SOL    MW427297   5.499   3.316   2.405
 6745SOL     OW27298   5.047   3.001   2.325
 6745SOL    HW227299   5.019   3.087   2.358
 6745SOL    HW327300   5.075   3.017   2.235
 6745SOL    MW427301   5.047   3.015   2.317
 6746SOL     OW27302   4.709   1.921   2.378
 6746SOL    HW227303   4.746   1.980   2.443
 6746SOL    HW327304   4.686   1.977   2.304
 6746SOL    MW427305   4.710   1.936   2.377
 6747SOL     OW27306   5.562   2.803   2.800
 6747SOL    HW227307   5.553   2.835   2.711
 6747SOL    HW327308   5.515   2.719   2.800
 6747SOL    MW427309   5.555   2.796   2.790
 6748SOL     OW27310   3.938   2.643   3.379
 6748SOL    HW227311   3.959   2.712   3.317
 6748SOL    HW327312   4.018   2.590   3.384
 6748SOL    MW427313   3.951   2.644   3.373
 6749SOL     OW27314   5.474   2.734   2.501
 6749SOL    HW227315   5.568   2.723   2.489
 6749SOL    HW327316   5.450   2.806   2.442
 6749SOL    MW427317   5.484   2.742   2.492
 6750SOL     OW27318   3.923   2.658   3.646
 6750SOL    HW227319   3.849   2.602   3.672
 6750SOL    HW327320   3.918   2.661   3.551
 6750SOL    MW427321   3.912   2.651   3.636
 6751SOL     OW27322   4.089   1.945   3.096
 6751SOL    HW227323   4.132   2.029   3.116
 6751SOL    HW327324   4.162   1.883   3.089
 6751SOL    MW427325   4.104   1.948   3.097
 6752SOL     OW27326   4.130   2.612   2.274
 6752SOL    HW227327   4.130   2.707   2.259
 6752SOL    HW327328   4.207   2.596   2.328
 6752SOL    MW427329   4.140   2.623   2.279
 6753SOL     OW27330   4.906   2.471   3.338
 6753SOL    HW227331   4.942   2.444   3.254
 6753SOL    HW327332   4.819   2.505   3.317
 6753SOL    MW427333   4.900   2.472   3.325
 6754SOL     OW27334   3.889   2.343   2.563
 6754SOL    HW227335   3.951   2.350   2.636
 6754SOL    HW327336   3.889   2.250   2.540
 6754SOL    MW427337   3.897   2.332   2.570
 6755SOL     OW27338   5.436   3.683   2.095
 6755SOL    HW227339   5.503   3.716   2.035
 6755SOL    HW327340   5.393   3.762   2.129
 6755SOL    MW427341   5.438   3.698   2.091
 6756SOL     OW27342   4.571   2.604   3.047
 6756SOL    HW227343   4.529   2.522   3.023
 6756SOL    HW327344   4.572   2.603   3.143
 6756SOL    MW427345   4.564   2.593   3.056
 6757SOL     OW27346   5.242   3.737   3.446
 6757SOL    HW227347   5.245   3.643   3.429
 6757SOL    HW327348   5.265   3.745   3.538
 6757SOL    MW427349   5.245   3.725   3.456
 6758SOL     OW27350   4.375   2.074   3.152
 6758SOL    HW227351   4.306   2.137   3.173
 6758SOL    HW327352   4.402   2.038   3.237
 6758SOL    MW427353   4.369   2.077   3.165
 6759SOL     OW27354   3.758   2.915   2.021
 6759SOL    HW227355   3.727   2.980   2.084
 6759SOL    HW327356   3.707   2.837   2.040
 6759SOL    MW427357   3.748   2.912   2.031
 6760SOL     OW27358   5.170   1.927   2.769
 6760SOL    HW227359   5.258   1.936   2.806
 6760SOL    HW327360   5.180   1.868   2.695
 6760SOL    MW427361   5.184   1.921   2.763
 6761SOL     OW27362   4.342   3.715   1.963
 6761SOL    HW227363   4.247   3.715   1.955
 6761SOL    HW327364   4.358   3.661   2.041
 6761SOL    MW427365   4.332   3.709   1.972
 6762SOL     OW27366   4.652   2.592   3.310
 6762SOL    HW227367   4.721   2.659   3.307
 6762SOL    HW327368   4.585   2.630   3.366
 6762SOL    MW427369   4.653   2.605   3.317
 6763SOL     OW27370   4.070   2.892   3.558
 6763SOL    HW227371   4.024   2.808   3.560
 6763SOL    HW327372   4.127   2.886   3.482
 6763SOL    MW427373   4.072   2.880   3.550
 6764SOL     OW27374   5.187   2.535   1.879
 6764SOL    HW227375   5.115   2.511   1.821
 6764SOL    HW327376   5.253   2.572   1.821
 6764SOL    MW427377   5.186   2.537   1.864
 6765SOL     OW27378   4.321   3.267   2.559
 6765SOL    HW227379   4.386   3.200   2.580
 6765SOL    HW327380   4.373   3.344   2.536
 6765SOL    MW427381   4.336   3.269   2.558
 6766SOL     OW27382   4.582   2.432   2.689
 6766SOL    HW227383   4.522   2.450   2.761
 6766SOL    HW327384   4.616   2.344   2.708
 6766SOL    MW427385   4.578   2.422   2.702
 6767SOL     OW27386   5.523   1.931   3.358
 6767SOL    HW227387   5.444   1.977   3.386
 6767SOL    HW327388   5.558   1.985   3.287
 6767SOL    MW427389   5.517   1.944   3.352
 6768SOL     OW27390   4.807   3.015   2.708
 6768SOL    HW227391   4.899   2.996   2.726
 6768SOL    HW327392   4.780   2.945   2.648
 6768SOL    MW427393   4.815   3.003   2.702
 6769SOL     OW27394   4.600   2.835   2.063
 6769SOL    HW227395   4.586   2.747   2.028
 6769SOL    HW327396   4.551   2.892   2.004
 6769SOL    MW427397   4.592   2.830   2.051
 6770SOL     OW27398   5.081   3.253   2.804
 6770SOL    HW227399   5.054   3.337   2.769
 6770SOL    HW327400   5.041   3.248   2.891
 6770SOL    MW427401   5.074   3.262   2.810
 6771SOL     OW27402   5.000   3.201   3.072
 6771SOL    HW227403   5.011   3.168   3.161
 6771SOL    HW327404   4.919   3.160   3.041
 6771SOL    MW427405   4.990   3.193   3.078
 6772SOL     OW27406   4.013   2.559   2.842
 6772SOL    HW227407   3.963   2.558   2.923
 6772SOL    HW327408   4.033   2.651   2.826
 6772SOL    MW427409   4.009   2.571   2.850
 6773SOL     OW27410   5.080   3.323   3.604
 6773SOL    HW227411   5.080   3.417   3.620
 6773SOL    HW327412   5.125   3.313   3.520
 6773SOL    MW427413   5.086   3.333   3.595
 6774SOL     OW27414   5.319   2.041   2.165
 6774SOL    HW227415   5.312   2.045   2.260
 6774SOL    HW327416   5.331   2.132   2.138
 6774SOL    MW427417   5.320   2.054   2.173
 6775SOL     OW27418   4.608   2.604   2.279
 6775SOL    HW227419   4.588   2.590   2.186
 6775SOL    HW327420   4.701   2.583   2.286
 6775SOL    MW427421   4.618   2.599   2.268
 6776SOL     OW27422   3.935   2.227   3.583
 6776SOL    HW227423   3.892   2.286   3.520
 6776SOL    HW327424   4.003   2.282   3.623
 6776SOL    MW427425   3.939   2.242   3.580
 6777SOL     OW27426   5.047   2.847   3.128
 6777SOL    HW227427   5.110   2.844   3.201
 6777SOL    HW327428   4.963   2.865   3.170
 6777SOL    MW427429   5.043   2.849   3.143
 6778SOL     OW27430   4.591   3.562   2.317
 6778SOL    HW227431   4.649   3.633   2.344
 6778SOL    HW327432   4.614   3.490   2.375
 6778SOL    MW427433   4.602   3.562   2.328
 6779SOL     OW27434   5.386   2.024   2.907
 6779SOL    HW227435   5.431   1.942   2.926
 6779SOL    HW327436   5.406   2.080   2.983
 6779SOL    MW427437   5.396   2.020   2.919
 6780SOL     OW27438   3.834   1.867   3.006
 6780SOL    HW227439   3.825   1.868   2.911
 6780SOL    HW327440   3.928   1.879   3.021
 6780SOL    MW427441   3.846   1.870   2.997
 6781SOL     OW27442   5.471   3.060   2.626
 6781SOL    HW227443   5.450   3.006   2.549
 6781SOL    HW327444   5.567   3.058   2.630
 6781SOL    MW427445   5.480   3.053   2.615
 6782SOL     OW27446   4.163   3.205   3.369
 6782SOL    HW227447   4.084   3.155   3.392
 6782SOL    HW327448   4.233   3.164   3.419
 6782SOL    MW427449   4.161   3.193   3.379
 6783SOL     OW27450   4.047   1.994   2.052
 6783SOL    HW227451   3.976   2.049   2.020
 6783SOL    HW327452   4.089   1.960   1.973
 6783SOL    MW427453   4.043   1.996   2.038
 6784SOL     OW27454   5.171   2.491   2.888
 6784SOL    HW227455   5.094   2.537   2.854
 6784SOL    HW327456   5.228   2.560   2.922
 6784SOL    MW427457   5.168   2.506   2.888
 6785SOL     OW27458   3.803   2.093   1.901
 6785SOL    HW227459   3.770   2.172   1.945
 6785SOL    HW327460   3.858   2.126   1.830
 6785SOL    MW427461   3.806   2.107   1.898
 6786SOL     OW27462   3.837   3.350   2.090
 6786SOL    HW227463   3.854   3.434   2.132
 6786SOL    HW327464   3.872   3.359   2.002
 6786SOL    MW427465   3.842   3.363   2.084
 6787SOL     OW27466   5.109   3.439   2.307
 6787SOL    HW227467   5.172   3.429   2.236
 6787SOL    HW327468   5.026   3.459   2.262
 6787SOL    MW427469   5.106   3.440   2.292
 6788SOL     OW27470   5.472   2.707   3.993
 6788SOL    HW227471   5.513   2.649   4.058
 6788SOL    HW327472   5.379   2.699   4.010
 6788SOL    MW427473   5.466   2.699   4.003
 6789SOL     OW27474   5.338   2.639   4.988
 6789SOL    HW227475   5.293   2.706   5.039
 6789SOL    HW327476   5.426   2.675   4.974
 6789SOL    MW427477   5.344   2.652   4.992
 6790SOL     OW27478   4.266   2.890   4.222
 6790SOL    HW227479   4.356   2.865   4.206
 6790SOL    HW327480   4.262   2.983   4.199
 6790SOL    MW427481   4.278   2.899   4.217
 6791SOL     OW27482   5.382   3.593   4.364
 6791SOL    HW227483   5.394   3.539   4.442
 6791SOL    HW327484   5.419   3.541   4.293
 6791SOL    MW427485   5.388   3.578   4.365
 6792SOL     OW27486   4.761   3.478   5.365
 6792SOL    HW227487   4.802   3.514   5.286
 6792SOL    HW327488   4.796   3.389   5.372
 6792SOL    MW427489   4.772   3.471   5.356
 6793SOL     OW27490   5.318   3.033   4.969
 6793SOL    HW227491   5.239   2.998   4.927
 6793SOL    HW327492   5.345   3.105   4.913
 6793SOL    MW427493   5.311   3.038   4.956
 6794SOL     OW27494   4.550   2.346   4.235
 6794SOL    HW227495   4.525   2.434   4.263
 6794SOL    HW327496   4.547   2.349   4.139
 6794SOL    MW427497   4.546   2.358   4.227
 6795SOL     OW27498   3.992   2.374   4.163
 6795SOL    HW227499   4.024   2.462   4.145
 6795SOL    HW327500   3.980   2.372   4.258
 6795SOL    MW427501   3.995   2.386   4.175
 6796SOL     OW27502   4.070   2.787   5.064
 6796SOL    HW227503   4.133   2.734   5.015
 6796SOL    HW327504   4.051   2.861   5.007
 6796SOL    MW427505   4.076   2.789   5.051
 6797SOL     OW27506   4.391   2.129   4.250
 6797SOL    HW227507   4.449   2.205   4.252
 6797SOL    HW327508   4.326   2.150   4.183
 6797SOL    MW427509   4.390   2.141   4.241
 6798SOL     OW27510   4.478   3.056   4.425
 6798SOL    HW227511   4.558   3.059   4.477
 6798SOL    HW327512   4.506   3.023   4.339
 6798SOL    MW427513   4.492   3.052   4.420
 6799SOL     OW27514   4.503   3.397   5.328
 6799SOL    HW227515   4.587   3.423   5.367
 6799SOL    HW327516   4.527   3.341   5.254
 6799SOL    MW427517   4.517   3.393   5.323
 6800SOL     OW27518   4.255   2.560   4.416
 6800SOL    HW227519   4.240   2.480   4.467
 6800SOL    HW327520   4.337   2.595   4.450
 6800SOL    MW427521   4.263   2.552   4.428
 6801SOL     OW27522   4.592   3.246   5.101
 6801SOL    HW227523   4.556   3.312   5.041
 6801SOL    HW327524   4.520   3.184   5.114
 6801SOL    MW427525   4.578   3.246   5.095
 6802SOL     OW27526   4.397   2.386   4.793
 6802SOL    HW227527   4.303   2.382   4.811
 6802SOL    HW327528   4.427   2.295   4.802
 6802SOL    MW427529   4.388   2.374   4.796
 6803SOL     OW27530   4.143   2.800   4.697
 6803SOL    HW227531   4.098   2.807   4.613
 6803SOL    HW327532   4.123   2.883   4.741
 6803SOL    MW427533   4.135   2.812   4.691
 6804SOL     OW27534   3.840   3.646   4.572
 6804SOL    HW227535   3.929   3.638   4.607
 6804SOL    HW327536   3.804   3.558   4.577
 6804SOL    MW427537   3.847   3.633   4.577
 6805SOL     OW27538   5.105   3.038   3.941
 6805SOL    HW227539   5.023   3.074   3.907
 6805SOL    HW327540   5.173   3.081   3.890
 6805SOL    MW427541   5.103   3.048   3.929
 6806SOL     OW27542   4.104   3.173   4.607
 6806SOL    HW227543   4.080   3.226   4.683
 6806SOL    HW327544   4.160   3.231   4.555
 6806SOL    MW427545   4.108   3.188   4.610
 6807SOL     OW27546   4.666   2.817   4.417
 6807SOL    HW227547   4.580   2.804   4.457
 6807SOL    HW327548   4.719   2.744   4.449
 6807SOL    MW427549   4.662   2.806   4.426
 6808SOL     OW27550   4.074   3.469   5.202
 6808SOL    HW227551   3.982   3.445   5.187
 6808SOL    HW327552   4.118   3.386   5.219
 6808SOL    MW427553   4.068   3.454   5.201
 6809SOL     OW27554   4.657   3.179   4.134
 6809SOL    HW227555   4.634   3.241   4.202
 6809SOL    HW327556   4.614   3.097   4.160
 6809SOL    MW427557   4.649   3.175   4.145
 6810SOL     OW27558   5.530   2.180   4.590
 6810SOL    HW227559   5.467   2.160   4.659
 6810SOL    HW327560   5.520   2.109   4.527
 6810SOL    MW427561   5.520   2.167   4.591
 6811SOL     OW27562   4.154   2.152   4.102
 6811SOL    HW227563   4.128   2.114   4.018
 6811SOL    HW327564   4.091   2.222   4.118
 6811SOL    MW427565   4.143   2.155   4.093
 6812SOL     OW27566   3.989   3.113   4.139
 6812SOL    HW227567   3.937   3.181   4.095
 6812SOL    HW327568   3.986   3.039   4.079
 6812SOL    MW427569   3.981   3.112   4.126
 6813SOL     OW27570   4.651   3.576   3.917
 6813SOL    HW227571   4.606   3.592   4.000
 6813SOL    HW327572   4.582   3.541   3.859
 6813SOL    MW427573   4.637   3.573   3.919
 6814SOL     OW27574   5.586   2.349   3.892
 6814SOL    HW227575   5.495   2.351   3.920
 6814SOL    HW327576   5.631   2.411   3.950
 6814SOL    MW427577   5.579   2.357   3.902
 6815SOL     OW27578   5.331   2.952   4.242
 6815SOL    HW227579   5.241   2.952   4.277
 6815SOL    HW327580   5.324   2.998   4.159
 6815SOL    MW427581   5.318   2.958   4.236
 6816SOL     OW27582   5.131   2.587   5.314
 6816SOL    HW227583   5.200   2.525   5.291
 6816SOL    HW327584   5.056   2.561   5.261
 6816SOL    MW427585   5.131   2.574   5.305
 6817SOL     OW27586   3.872   3.467   4.866
 6817SOL    HW227587   3.855   3.413   4.943
 6817SOL    HW327588   3.860   3.557   4.896
 6817SOL    MW427589   3.869   3.471   4.880
 6818SOL     OW27590   4.867   2.974   5.306
 6818SOL    HW227591   4.852   3.067   5.291
 6818SOL    HW327592   4.962   2.964   5.306
 6818SOL    MW427593   4.876   2.984   5.303
 6819SOL     OW27594   4.663   2.398   5.507
 6819SOL    HW227595   4.753   2.399   5.474
 6819SOL    HW327596   4.622   2.323   5.465
 6819SOL    MW427597   4.669   2.388   5.498
 6820SOL     OW27598   5.238   2.930   4.634
 6820SOL    HW227599   5.241   2.864   4.565
 6820SOL    HW327600   5.323   2.973   4.630
 6820SOL    MW427601   5.250   2.926   4.625
 6821SOL     OW27602   4.858   2.533   4.203
 6821SOL    HW227603   4.884   2.557   4.114
 6821SOL    HW327604   4.840   2.440   4.199
 6821SOL    MW427605   4.860   2.525   4.190
 6822SOL     OW27606   5.523   3.153   4.054
 6822SOL    HW227607   5.479   3.194   4.129
 6822SOL    HW327608   5.580   3.221   4.019
 6822SOL    MW427609   5.525   3.167   4.059
 6823SOL     OW27610   4.443   2.202   5.457
 6823SOL    HW227611   4.453   2.128   5.397
 6823SOL    HW327612   4.479   2.171   5.540
 6823SOL    MW427613   4.449   2.188   5.459
 6824SOL     OW27614   4.179   3.569   4.372
 6824SOL    HW227615   4.211   3.657   4.350
 6824SOL    HW327616   4.132   3.541   4.294
 6824SOL    MW427617   4.178   3.577   4.359
 6825SOL     OW27618   5.563   1.931   4.421
 6825SOL    HW227619   5.617   1.882   4.483
 6825SOL    HW327620   5.506   1.865   4.382
 6825SOL    MW427621   5.563   1.915   4.423
 6826SOL     OW27622   3.895   3.629   3.949
 6826SOL    HW227623   3.924   3.719   3.941
 6826SOL    HW327624   3.845   3.612   3.870
 6826SOL    MW427625   3.893   3.637   3.938
 6827SOL     OW27626   4.682   1.884   4.834
 6827SOL    HW227627   4.641   1.962   4.796
 6827SOL    HW327628   4.776   1.902   4.829
 6827SOL    MW427629   4.688   1.896   4.829
 6828SOL     OW27630   5.299   3.437   3.920
 6828SOL    HW227631   5.347   3.506   3.966
 6828SOL    HW327632   5.220   3.481   3.889
 6828SOL    MW427633   5.294   3.451   3.923
 6829SOL     OW27634   4.697   2.562   3.864
 6829SOL    HW227635   4.699   2.509   3.785
 6829SOL    HW327636   4.785   2.599   3.870
 6829SOL    MW427637   4.709   2.561   3.853
 6830SOL     OW27638   5.311   2.488   4.200
 6830SOL    HW227639   5.350   2.488   4.287
 6830SOL    HW327640   5.252   2.564   4.200
 6830SOL    MW427641   5.308   2.499   4.211
 6831SOL     OW27642   4.628   2.855   5.329
 6831SOL    HW227643   4.605   2.835   5.419
 6831SOL    HW327644   4.713   2.899   5.334
 6831SOL    MW427645   4.635   2.858   5.341
 6832SOL     OW27646   4.708   1.992   5.089
 6832SOL    HW227647   4.714   1.954   5.002
 6832SOL    HW327648   4.697   2.086   5.074
 6832SOL    MW427649   4.709   2.000   5.077
 6833SOL     OW27650   4.797   2.481   4.923
 6833SOL    HW227651   4.872   2.510   4.870
 6833SOL    HW327652   4.729   2.546   4.907
 6833SOL    MW427653   4.798   2.493   4.913
 6834SOL     OW27654   5.347   2.449   5.200
 6834SOL    HW227655   5.328   2.358   5.179
 6834SOL    HW327656   5.325   2.498   5.121
 6834SOL    MW427657   5.342   2.442   5.187
 6835SOL     OW27658   5.489   3.543   5.104
 6835SOL    HW227659   5.417   3.505   5.155
 6835SOL    HW327660   5.506   3.628   5.145
 6835SOL    MW427661   5.483   3.548   5.116
 6836SOL     OW27662   4.794   2.187   5.306
 6836SOL    HW227663   4.760   2.226   5.225
 6836SOL    HW327664   4.772   2.095   5.299
 6836SOL    MW427665   4.787   2.180   5.296
 6837SOL     OW27666   5.203   3.001   5.382
 6837SOL    HW227667   5.285   3.042   5.412
 6837SOL    HW327668   5.166   2.963   5.462
 6837SOL    MW427669   5.209   3.002   5.397
 6838SOL     OW27670   5.498   2.374   4.366
 6838SOL    HW227671   5.587   2.343   4.383
 6838SOL    HW327672   5.441   2.314   4.414
 6838SOL    MW427673   5.501   2.362   4.375
 6839SOL     OW27674   3.924   2.088   4.395
 6839SOL    HW227675   3.915   2.028   4.321
 6839SOL    HW327676   3.857   2.059   4.458
 6839SOL    MW427677   3.914   2.075   4.393
 6840SOL     OW27678   4.867   3.181   3.956
 6840SOL    HW227679   4.817   3.183   4.038
 6840SOL    HW327680   4.801   3.199   3.888
 6840SOL    MW427681   4.853   3.183   3.958
 6841SOL     OW27682   3.871   2.261   4.758
 6841SOL    HW227683   3.843   2.352   4.767
 6841SOL    HW327684   3.808   2.222   4.697
 6841SOL    MW427685   3.858   2.267   4.752
 6842SOL     OW27686   4.330   3.599   4.064
 6842SOL    HW227687   4.251   3.557   4.097
 6842SOL    HW327688   4.396   3.582   4.131
 6842SOL    MW427689   4.329   3.591   4.077
 6843SOL     OW27690   5.458   3.119   5.461
 6843SOL    HW227691   5.508   3.045   5.493
 6843SOL    HW327692   5.404   3.146   5.536
 6843SOL    MW427693   5.458   3.113   5.474
 6844SOL     OW27694   4.466   3.014   3.771
 6844SOL    HW227695   4.388   2.960   3.758
 6844SOL    HW327696   4.437   3.087   3.824
 6844SOL    MW427697   4.452   3.016   3.776
 6845SOL     OW27698   5.592   2.754   4.963
 6845SOL    HW227699   5.608   2.792   4.876
 6845SOL    HW327700   5.626   2.820   5.024
 6845SOL    MW427701   5.599   2.767   4.959
 6846SOL     OW27702   5.384   3.463   4.632
 6846SOL    HW227703   5.413   3.530   4.693
 6846SOL    HW327704   5.365   3.387   4.687
 6846SOL    MW427705   5.386   3.463   4.647
 6847SOL     OW27706   5.047   3.530   3.839
 6847SOL    HW227707   4.973   3.493   3.889
 6847SOL    HW327708   5.055   3.620   3.872
 6847SOL    MW427709   5.038   3.537   3.851
 6848SOL     OW27710   3.855   2.536   4.928
 6848SOL    HW227711   3.917   2.566   4.994
 6848SOL    HW327712   3.789   2.605   4.922
 6848SOL    MW427713   3.854   2.549   4.935
 6849SOL     OW27714   5.271   3.204   3.781
 6849SOL    HW227715   5.218   3.253   3.717
 6849SOL    HW327716   5.302   3.270   3.842
 6849SOL    MW427717   5.269   3.218   3.779
 6850SOL     OW27718   4.496   2.093   3.836
 6850SOL    HW227719   4.444   2.013   3.824
 6850SOL    HW327720   4.583   2.070   3.804
 6850SOL    MW427721   4.499   2.079   3.830
 6851SOL     OW27722   3.950   3.645   5.380
 6851SOL    HW227723   3.924   3.713   5.318
 6851SOL    HW327724   3.998   3.582   5.328
 6851SOL    MW427725   3.952   3.645   5.366
 6852SOL     OW27726   4.002   2.964   4.887
 6852SOL    HW227727   4.055   3.039   4.912
 6852SOL    HW327728   3.921   3.002   4.853
 6852SOL    MW427729   3.998   2.979   4.887
 6853SOL     OW27730   4.542   2.868   4.875
 6853SOL    HW227731   4.570   2.777   4.887
 6853SOL    HW327732   4.471   2.862   4.811
 6853SOL    MW427733   4.535   2.856   4.870
 6854SOL     OW27734   3.857   2.733   4.293
 6854SOL    HW227735   3.948   2.748   4.320
 6854SOL    HW327736   3.860   2.654   4.239
 6854SOL    MW427737   3.869   2.725   4.291
 6855SOL     OW27738   4.093   2.441   5.547
 6855SOL    HW227739   4.040   2.521   5.554
 6855SOL    HW327740   4.163   2.453   5.612
 6855SOL    MW427741   4.095   2.454   5.555
 6856SOL     OW27742   4.479   1.991   5.254
 6856SOL    HW227743   4.456   1.899   5.256
 6856SOL    HW327744   4.565   1.993   5.211
 6856SOL    MW427745   4.486   1.981   5.250
 6857SOL     OW27746   4.163   2.515   5.293
 6857SOL    HW227747   4.243   2.565   5.279
 6857SOL    HW327748   4.154   2.509   5.388
 6857SOL    MW427749   4.172   2.521   5.303
 6858SOL     OW27750   4.484   3.665   4.667
 6858SOL    HW227751   4.573   3.680   4.697
 6858SOL    HW327752   4.479   3.712   4.583
 6858SOL    MW427753   4.494   3.673   4.660
 6859SOL     OW27754   5.140   2.040   5.564
 6859SOL    HW227755   5.196   1.967   5.590
 6859SOL    HW327756   5.110   2.078   5.646
 6859SOL    MW427757   5.144   2.035   5.577
 6860SOL     OW27758   3.865   3.345   4.332
 6860SOL    HW227759   3.837   3.384   4.414
 6860SOL    HW327760   3.885   3.254   4.354
 6860SOL    MW427761   3.863   3.337   4.345
 6861SOL     OW27762   4.698   3.388   4.367
 6861SOL    HW227763   4.781   3.342   4.351
 6861SOL    HW327764   4.688   3.387   4.463
 6861SOL    MW427765   4.708   3.381   4.377
 6862SOL     OW27766   5.530   2.533   4.681
 6862SOL    HW227767   5.619   2.563   4.663
 6862SOL    HW327768   5.510   2.473   4.610
 6862SOL    MW427769   5.539   2.530   4.670
 6863SOL     OW27770   5.381   2.712   5.561
 6863SOL    HW227771   5.436   2.636   5.542
 6863SOL    HW327772   5.383   2.720   5.656
 6863SOL    MW427773   5.389   2.703   5.569
 6864SOL     OW27774   4.431   3.445   3.772
 6864SOL    HW227775   4.371   3.514   3.742
 6864SOL    HW327776   4.376   3.387   3.825
 6864SOL    MW427777   4.415   3.447   3.774
 6865SOL     OW27778   4.869   2.090   3.995
 6865SOL    HW227779   4.802   2.066   3.932
 6865SOL    HW327780   4.934   2.139   3.944
 6865SOL    MW427781   4.869   2.092   3.980
 6866SOL     OW27782   4.676   2.274   5.080
 6866SOL    HW227783   4.595   2.315   5.108
 6866SOL    HW327784   4.723   2.342   5.032
 6866SOL    MW427785   4.671   2.289   5.078
 6867SOL     OW27786   4.936   2.612   4.703
 6867SOL    HW227787   4.949   2.706   4.713
 6867SOL    HW327788   4.897   2.602   4.617
 6867SOL    MW427789   4.932   2.623   4.693
 6868SOL     OW27790   4.388   2.807   4.507
 6868SOL    HW227791   4.299   2.798   4.540
 6868SOL    HW327792   4.392   2.897   4.475
 6868SOL    MW427793   4.377   2.818   4.507
 6869SOL     OW27794   5.187   2.390   4.502
 6869SOL    HW227795   5.132   2.311   4.501
 6869SOL    HW327796   5.169   2.431   4.586
 6869SOL    MW427797   5.177   2.385   4.511
 6870SOL     OW27798   4.158   2.077   5.319
 6870SOL    HW227799   4.079   2.095   5.371
 6870SOL    HW327800   4.153   2.139   5.246
 6870SOL    MW427801   4.148   2.087   5.316
 6871SOL     OW27802   4.806   2.594   4.459
 6871SOL    HW227803   4.743   2.526   4.483
 6871SOL    HW327804   4.826   2.575   4.367
 6871SOL    MW427805   4.800   2.581   4.451
 6872SOL     OW27806   4.062   3.489   4.161
 6872SOL    HW227807   4.023   3.536   4.087
 6872SOL    HW327808   3.996   3.424   4.186
 6872SOL    MW427809   4.049   3.487   4.155
 6873SOL     OW27810   4.554   2.898   4.185
 6873SOL    HW227811   4.556   2.872   4.092
 6873SOL    HW327812   4.612   2.835   4.228
 6873SOL    MW427813   4.562   2.887   4.179
 6874SOL     OW27814   5.107   3.458   4.957
 6874SOL    HW227815   5.032   3.504   4.995
 6874SOL    HW327816   5.089   3.365   4.974
 6874SOL    MW427817   5.096   3.452   4.965
 6875SOL     OW27818   5.111   3.666   4.387
 6875SOL    HW227819   5.054   3.619   4.326
 6875SOL    HW327820   5.197   3.627   4.374
 6875SOL    MW427821   5.114   3.657   4.377
 6876SOL     OW27822   5.064   2.142   4.518
 6876SOL    HW227823   5.092   2.074   4.579
 6876SOL    HW327824   4.978   2.113   4.488
 6876SOL    MW427825   5.057   2.129   4.522
 6877SOL     OW27826   3.869   3.076   4.452
 6877SOL    HW227827   3.933   3.108   4.515
 6877SOL    HW327828   3.918   3.012   4.400
 6877SOL    MW427829   3.884   3.072   4.453
 6878SOL     OW27830   4.369   3.152   5.434
 6878SOL    HW227831   4.417   3.235   5.421
 6878SOL    HW327832   4.426   3.100   5.490
 6878SOL    MW427833   4.383   3.156   5.440
 6879SOL     OW27834   3.945   3.394   5.574
 6879SOL    HW227835   4.001   3.318   5.589
 6879SOL    HW327836   3.894   3.372   5.496
 6879SOL    MW427837   3.945   3.381   5.565
 6880SOL     OW27838   5.044   2.246   3.853
 6880SOL    HW227839   5.017   2.312   3.789
 6880SOL    HW327840   5.114   2.289   3.903
 6880SOL    MW427841   5.049   2.259   3.850
 6881SOL     OW27842   4.712   1.951   3.790
 6881SOL    HW227843   4.768   1.943   3.712
 6881SOL    HW327844   4.689   1.861   3.812
 6881SOL    MW427845   4.717   1.938   3.783
 6882SOL     OW27846   5.217   2.802   3.995
 6882SOL    HW227847   5.184   2.891   3.985
 6882SOL    HW327848   5.182   2.773   4.080
 6882SOL    MW427849   5.207   2.811   4.006
 6883SOL     OW27850   4.830   3.231   5.183
 6883SOL    HW227851   4.741   3.237   5.151
 6883SOL    HW327852   4.874   3.310   5.151
 6883SOL    MW427853   4.825   3.241   5.175
 6884SOL     OW27854   4.123   1.899   5.525
 6884SOL    HW227855   4.051   1.864   5.473
 6884SOL    HW327856   4.181   1.940   5.460
 6884SOL    MW427857   4.121   1.900   5.510
 6885SOL     OW27858   4.147   3.389   4.824
 6885SOL    HW227859   4.192   3.451   4.881
 6885SOL    HW327860   4.054   3.408   4.837
 6885SOL    MW427861   4.140   3.399   4.831
 6886SOL     OW27862   5.587   2.918   5.178
 6886SOL    HW227863   5.502   2.931   5.137
 6886SOL    HW327864   5.567   2.882   5.265
 6886SOL    MW427865   5.574   2.914   5.183
 6887SOL     OW27866   4.569   3.457   4.932
 6887SOL    HW227867   4.593   3.446   4.841
 6887SOL    HW327868   4.492   3.514   4.930
 6887SOL    MW427869   4.561   3.462   4.921
 6888SOL     OW27870   4.211   2.840   3.787
 6888SOL    HW227871   4.134   2.853   3.843
 6888SOL    HW327872   4.175   2.804   3.706
 6888SOL    MW427873   4.197   2.836   3.784
 6889SOL     OW27874   4.864   2.813   4.030
 6889SOL    HW227875   4.774   2.834   4.005
 6889SOL    HW327876   4.891   2.886   4.086
 6889SOL    MW427877   4.856   2.825   4.033
 6890SOL     OW27878   4.364   3.162   4.722
 6890SOL    HW227879   4.357   3.141   4.816
 6890SOL    HW327880   4.282   3.130   4.685
 6890SOL    MW427881   4.352   3.156   4.729
 6891SOL     OW27882   5.228   2.172   5.124
 6891SOL    HW227883   5.175   2.174   5.204
 6891SOL    HW327884   5.213   2.085   5.087
 6891SOL    MW427885   5.220   2.162   5.129
 6892SOL     OW27886   5.564   2.096   4.997
 6892SOL    HW227887   5.545   2.163   4.932
 6892SOL    HW327888   5.621   2.034   4.952
 6892SOL    MW427889   5.568   2.097   4.983
 6893SOL     OW27890   3.810   3.254   5.385
 6893SOL    HW227891   3.854   3.187   5.331
 6893SOL    HW327892   3.725   3.216   5.405
 6893SOL    MW427893   3.805   3.240   5.381
 6894SOL     OW27894   4.493   1.929   4.437
 6894SOL    HW227895   4.422   1.990   4.419
 6894SOL    HW327896   4.544   1.926   4.356
 6894SOL    MW427897   4.489   1.935   4.424
 6895SOL     OW27898   4.251   3.169   4.186
 6895SOL    HW227899   4.244   3.201   4.276
 6895SOL    HW327900   4.161   3.153   4.158
 6895SOL    MW427901   4.239   3.171   4.193
 6896SOL     OW27902   4.846   3.562   5.095
 6896SOL    HW227903   4.766   3.547   5.045
 6896SOL    HW327904   4.853   3.657   5.102
 6896SOL    MW427905   4.837   3.573   5.089
 6897SOL     OW27906   4.960   3.527   4.585
 6897SOL    HW227907   5.007   3.600   4.544
 6897SOL    HW327908   4.881   3.566   4.621
 6897SOL    MW427909   4.955   3.542   4.584
 6898SOL     OW27910   5.368   3.622   4.860
 6898SOL    HW227911   5.411   3.592   4.940
 6898SOL    HW327912   5.287   3.570   4.857
 6898SOL    MW427913   5.363   3.611   4.870
 6899SOL     OW27914   4.453   2.586   5.567
 6899SOL    HW227915   4.523   2.528   5.539
 6899SOL    HW327916   4.396   2.531   5.622
 6899SOL    MW427917   4.455   2.573   5.571
 6900SOL     OW27918   5.240   2.798   5.200
 6900SOL    HW227919   5.245   2.851   5.280
 6900SOL    HW327920   5.202   2.715   5.228
 6900SOL    MW427921   5.236   2.793   5.215
 6901SOL     OW27922   4.880   1.933   5.446
 6901SOL    HW227923   4.875   1.840   5.427
 6901SOL    HW327924   4.963   1.944   5.492
 6901SOL    MW427925   4.888   1.922   5.450
 6902SOL     OW27926   4.254   2.453   3.900
 6902SOL    HW227927   4.220   2.509   3.970
 6902SOL    HW327928   4.325   2.403   3.940
 6902SOL    MW427929   4.260   2.454   3.914
 6903SOL     OW27930   5.350   3.204   4.722
 6903SOL    HW227931   5.385   3.186   4.635
 6903SOL    HW327932   5.255   3.205   4.709
 6903SOL    MW427933   5.342   3.201   4.709
 6904SOL     OW27934   4.779   2.852   5.091
 6904SOL    HW227935   4.822   2.887   5.169
 6904SOL    HW327936   4.762   2.929   5.037
 6904SOL    MW427937   4.782   2.867   5.094
 6905SOL     OW27938   5.310   2.339   3.964
 6905SOL    HW227939   5.302   2.410   3.901
 6905SOL    HW327940   5.328   2.383   4.047
 6905SOL    MW427941   5.311   2.353   3.966
 6906SOL     OW27942   4.170   1.994   4.393
 6906SOL    HW227943   4.220   2.037   4.324
 6906SOL    HW327944   4.085   2.038   4.393
 6906SOL    MW427945   4.167   2.007   4.384
 6907SOL     OW27946   3.929   3.056   5.253
 6907SOL    HW227947   3.957   3.009   5.331
 6907SOL    HW327948   3.850   3.011   5.224
 6907SOL    MW427949   3.922   3.045   5.259
 6908SOL     OW27950   4.437   2.383   5.220
 6908SOL    HW227951   4.409   2.471   5.244
 6908SOL    HW327952   4.406   2.327   5.291
 6908SOL    MW427953   4.429   2.386   5.232
 6909SOL     OW27954   4.979   2.601   3.939
 6909SOL    HW227955   5.026   2.619   3.858
 6909SOL    HW327956   4.945   2.685   3.967
 6909SOL    MW427957   4.981   2.615   3.932
 6910SOL     OW27958   4.092   2.779   4.433
 6910SOL    HW227959   4.150   2.835   4.381
 6910SOL    HW327960   4.136   2.694   4.435
 6910SOL    MW427961   4.105   2.776   4.426
 6911SOL     OW27962   5.232   2.131   4.270
 6911SOL    HW227963   5.154   2.081   4.295
 6911SOL    HW327964   5.203   2.222   4.270
 6911SOL    MW427965   5.218   2.135   4.273
 6912SOL     OW27966   4.818   2.093   4.429
 6912SOL    HW227967   4.838   2.168   4.373
 6912SOL    HW327968   4.798   2.132   4.514
 6912SOL    MW427969   4.819   2.109   4.433
 6913SOL     OW27970   4.714   3.343   3.761
 6913SOL    HW227971   4.741   3.421   3.713
 6913SOL    HW327972   4.621   3.358   3.780
 6913SOL    MW427973   4.705   3.356   3.757
 6914SOL     OW27974   5.578   2.866   5.448
 6914SOL    HW227975   5.491   2.846   5.484
 6914SOL    HW327976   5.632   2.792   5.473
 6914SOL    MW427977   5.573   2.855   5.456
 6915SOL     OW27978   3.799   3.379   4.605
 6915SOL    HW227979   3.831   3.383   4.696
 6915SOL    HW327980   3.704   3.387   4.613
 6915SOL    MW427981   3.791   3.382   4.618
 6916SOL     OW27982   3.754   2.505   4.152
 6916SOL    HW227983   3.694   2.477   4.222
 6916SOL    HW327984   3.828   2.445   4.158
 6916SOL    MW427985   3.756   2.494   4.161
 6917SOL     OW27986   5.322   3.717   5.586
 6917SOL    HW227987   5.367   3.641   5.551
 6917SOL    HW327988   5.360   3.730   5.673
 6917SOL    MW427989   5.332   3.710   5.592
 6918SOL     OW27990   4.922   3.236   4.312
 6918SOL    HW227991   4.945   3.187   4.390
 6918SOL    HW327992   5.003   3.278   4.284
 6918SOL    MW427993   4.935   3.236   4.319
 6919SOL     OW27994   4.180   2.244   5.041
 6919SOL    HW227995   4.213   2.325   5.081
 6919SOL    HW327996   4.153   2.270   4.953
 6919SOL    MW427997   4.179   2.258   5.035
 6920SOL     OW27998   4.134   2.211   4.777
 6920SOL    HW227999   4.164   2.125   4.748
 6920SOL    HW328000   4.039   2.204   4.780
 6920SOL    MW428001   4.126   2.200   4.775
 6921SOL     OW28002   4.963   2.420   5.468
 6921SOL    HW228003   5.015   2.355   5.421
 6921SOL    HW328004   4.921   2.471   5.398
 6921SOL    MW428005   4.964   2.417   5.451
 6922SOL     OW28006   5.062   2.215   5.329
 6922SOL    HW228007   4.969   2.199   5.316
 6922SOL    HW328008   5.088   2.153   5.397
 6922SOL    MW428009   5.052   2.205   5.336
 6923SOL     OW28010   4.277   1.989   4.668
 6923SOL    HW228011   4.287   1.898   4.694
 6923SOL    HW328012   4.233   1.985   4.583
 6923SOL    MW428013   4.273   1.977   4.660
 6924SOL     OW28014   4.371   3.604   5.214
 6924SOL    HW228015   4.288   3.589   5.259
 6924SOL    HW328016   4.430   3.537   5.249
 6924SOL    MW428017   4.369   3.594   5.224
 6925SOL     OW28018   5.428   2.311   4.839
 6925SOL    HW228019   5.361   2.344   4.899
 6925SOL    HW328020   5.471   2.389   4.805
 6925SOL    MW428021   5.426   2.326   4.843
 6926SOL     OW28022   5.606   3.031   4.809
 6926SOL    HW228023   5.599   2.971   4.734
 6926SOL    HW328024   5.532   3.091   4.798
 6926SOL    MW428025   5.596   3.031   4.798
 6927SOL     OW28026   4.988   2.893   4.727
 6927SOL    HW228027   5.002   2.865   4.818
 6927SOL    HW328028   5.074   2.924   4.699
 6927SOL    MW428029   5.001   2.894   4.736
 6928SOL     OW28030   5.071   2.388   5.006
 6928SOL    HW228031   5.092   2.389   4.913
 6928SOL    HW328032   5.116   2.310   5.039
 6928SOL    MW428033   5.078   2.378   4.998
 6929SOL     OW28034   5.564   2.519   5.548
 6929SOL    HW228035   5.601   2.464   5.617
 6929SOL    HW328036   5.589   2.476   5.466
 6929SOL    MW428037   5.571   2.507   5.547
 6930SOL     OW28038   5.111   2.817   5.600
 6930SOL    HW228039   5.177   2.765   5.554
 6930SOL    HW328040   5.131   2.804   5.693
 6930SOL    MW428041   5.122   2.808   5.607
 6931SOL     OW28042   5.062   1.903   3.948
 6931SOL    HW228043   5.136   1.947   3.991
 6931SOL    HW328044   4.986   1.957   3.970
 6931SOL    MW428045   5.062   1.915   3.956
 6932SOL     OW28046   5.122   2.678   4.226
 6932SOL    HW228047   5.037   2.648   4.196
 6932SOL    HW328048   5.114   2.685   4.321
 6932SOL    MW428049   5.110   2.676   4.235
 6933SOL     OW28050   4.198   3.141   4.957
 6933SOL    HW228051   4.210   3.168   5.048
 6933SOL    HW328052   4.179   3.222   4.910
 6933SOL    MW428053   4.197   3.156   4.962
 6934SOL     OW28054   4.482   2.121   4.780
 6934SOL    HW228055   4.455   2.123   4.871
 6934SOL    HW328056   4.412   2.073   4.735
 6934SOL    MW428057   4.470   2.117   4.787
 6935SOL     OW28058   4.336   3.613   4.942
 6935SOL    HW228059   4.388   3.690   4.919
 6935SOL    HW328060   4.345   3.605   5.037
 6935SOL    MW428061   4.345   3.620   4.953
 6936SOL     OW28062   5.238   3.198   5.174
 6936SOL    HW228063   5.223   3.127   5.237
 6936SOL    HW328064   5.284   3.156   5.102
 6936SOL    MW428065   5.244   3.182   5.174
 6937SOL     OW28066   4.312   2.929   5.291
 6937SOL    HW228067   4.349   2.934   5.203
 6937SOL    HW328068   4.351   3.002   5.338
 6937SOL    MW428069   4.322   2.939   5.286
 6938SOL     OW28070   4.492   2.972   5.103
 6938SOL    HW228071   4.551   2.918   5.156
 6938SOL    HW328072   4.507   2.944   5.013
 6938SOL    MW428073   4.502   2.961   5.099
 6939SOL     OW28074   4.495   2.344   3.952
 6939SOL    HW228075   4.568   2.393   3.915
 6939SOL    HW328076   4.511   2.253   3.926
 6939SOL    MW428077   4.507   2.339   3.945
 6940SOL     OW28078   5.303   3.461   5.275
 6940SOL    HW228079   5.345   3.446   5.360
 6940SOL    HW328080   5.294   3.374   5.237
 6940SOL    MW428081   5.307   3.449   5.282
 6941SOL     OW28082   4.963   1.940   4.866
 6941SOL    HW228083   5.018   1.949   4.788
 6941SOL    HW328084   5.018   1.974   4.937
 6941SOL    MW428085   4.977   1.945   4.865
 6942SOL     OW28086   3.970   2.853   4.050
 6942SOL    HW228087   3.907   2.869   3.979
 6942SOL    HW328088   3.917   2.816   4.121
 6942SOL    MW428089   3.955   2.850   4.050
 6943SOL     OW28090   4.326   3.207   3.909
 6943SOL    HW228091   4.341   3.183   4.001
 6943SOL    HW328092   4.234   3.185   3.893
 6943SOL    MW428093   4.316   3.200   3.919
 6944SOL     OW28094   4.865   3.438   4.061
 6944SOL    HW228095   4.873   3.356   4.012
 6944SOL    HW328096   4.784   3.477   4.028
 6944SOL    MW428097   4.855   3.433   4.051
 6945SOL     OW28098   4.124   3.596   4.630
 6945SOL    HW228099   4.128   3.507   4.665
 6945SOL    HW328100   4.150   3.587   4.539
 6945SOL    MW428101   4.127   3.584   4.622
 6946SOL     OW28102   4.741   3.074   4.873
 6946SOL    HW228103   4.673   3.008   4.889
 6946SOL    HW328104   4.759   3.068   4.780
 6946SOL    MW428105   4.734   3.065   4.864
 6947SOL     OW28106   3.830   3.349   5.124
 6947SOL    HW228107   3.820   3.307   5.210
 6947SOL    HW328108   3.751   3.402   5.114
 6947SOL    MW428109   3.819   3.350   5.135
 6948SOL     OW28110   4.734   2.213   4.694
 6948SOL    HW228111   4.664   2.165   4.739
 6948SOL    HW328112   4.766   2.276   4.758
 6948SOL    MW428113   4.729   2.215   4.708
 6949SOL     OW28114   4.385   2.649   5.314
 6949SOL    HW228115   4.378   2.744   5.302
 6949SOL    HW328116   4.394   2.638   5.409
 6949SOL    MW428117   4.386   2.661   5.324
 6950SOL     OW28118   4.106   3.164   5.572
 6950SOL    HW228119   4.178   3.166   5.509
 6950SOL    HW328120   4.076   3.073   5.571
 6950SOL    MW428121   4.111   3.153   5.564
 6951SOL     OW28122   5.190   1.927   5.039
 6951SOL    HW228123   5.261   1.873   5.003
 6951SOL    HW328124   5.189   1.906   5.132
 6951SOL    MW428125   5.199   1.918   5.047
 6952SOL     OW28126   5.390   3.457   5.523
 6952SOL    HW228127   5.363   3.454   5.614
 6952SOL    HW328128   5.486   3.461   5.526
 6952SOL    MW428129   5.400   3.457   5.535
 6953SOL     OW28130   4.201   2.319   4.507
 6953SOL    HW228131   4.272   2.267   4.470
 6953SOL    HW328132   4.187   2.284   4.594
 6953SOL    MW428133   4.209   2.308   4.514
 6954SOL     OW28134   3.756   3.654   5.579
 6954SOL    HW228135   3.806   3.632   5.501
 6954SOL    HW328136   3.764   3.749   5.587
 6954SOL    MW428137   3.764   3.663   5.570
 6955SOL     OW28138   4.517   3.412   4.583
 6955SOL    HW228139   4.445   3.349   4.596
 6955SOL    HW328140   4.478   3.497   4.601
 6955SOL    MW428141   4.501   3.415   4.586
 6956SOL     OW28142   4.837   2.260   4.231
 6956SOL    HW228143   4.859   2.197   4.163
 6956SOL    HW328144   4.742   2.252   4.242
 6956SOL    MW428145   4.827   2.251   4.223
 6957SOL     OW28146   3.922   1.950   4.163
 6957SOL    HW228147   3.993   1.971   4.102
 6957SOL    HW328148   3.876   1.878   4.121
 6957SOL    MW428149   3.926   1.944   4.149
 6958SOL     OW28150   3.753   2.417   5.306
 6958SOL    HW228151   3.817   2.483   5.281
 6958SOL    HW328152   3.672   2.444   5.263
 6958SOL    MW428153   3.751   2.429   5.298
 6959SOL     OW28154   5.491   3.324   4.263
 6959SOL    HW228155   5.461   3.257   4.324
 6959SOL    HW328156   5.585   3.330   4.277
 6959SOL    MW428157   5.499   3.316   4.273
 6960SOL     OW28158   5.047   3.001   4.193
 6960SOL    HW228159   5.019   3.087   4.226
 6960SOL    HW328160   5.075   3.017   4.103
 6960SOL    MW428161   5.047   3.015   4.185
 6961SOL     OW28162   4.709   1.921   4.246
 6961SOL    HW228163   4.746   1.980   4.311
 6961SOL    HW328164   4.686   1.977   4.172
 6961SOL    MW428165   4.710   1.936   4.245
 6962SOL     OW28166   5.562   2.803   4.668
 6962SOL    HW228167   5.553   2.835   4.579
 6962SOL    HW328168   5.515   2.719   4.668
 6962SOL    MW428169   5.555   2.796   4.658
 6963SOL     OW28170   3.938   2.643   5.247
 6963SOL    HW228171   3.959   2.712   5.185
 6963SOL    HW328172   4.018   2.590   5.252
 6963SOL    MW428173   3.951   2.644   5.241
 6964SOL     OW28174   5.474   2.734   4.369
 6964SOL    HW228175   5.568   2.723   4.357
 6964SOL    HW328176   5.450   2.806   4.310
 6964SOL    MW428177   5.484   2.742   4.360
 6965SOL     OW28178   3.923   2.658   5.514
 6965SOL    HW228179   3.849   2.602   5.540
 6965SOL    HW328180   3.918   2.661   5.419
 6965SOL    MW428181   3.912   2.651   5.504
 6966SOL     OW28182   4.089   1.945   4.964
 6966SOL    HW228183   4.132   2.029   4.984
 6966SOL    HW328184   4.162   1.883   4.957
 6966SOL    MW428185   4.104   1.948   4.965
 6967SOL     OW28186   4.130   2.612   4.142
 6967SOL    HW228187   4.130   2.707   4.127
 6967SOL    HW328188   4.207   2.596   4.196
 6967SOL    MW428189   4.140   2.623   4.147
 6968SOL     OW28190   4.906   2.471   5.206
 6968SOL    HW228191   4.942   2.444   5.122
 6968SOL    HW328192   4.819   2.505   5.185
 6968SOL    MW428193   4.900   2.472   5.193
 6969SOL     OW28194   3.889   2.343   4.431
 6969SOL    HW228195   3.951   2.350   4.504
 6969SOL    HW328196   3.889   2.250   4.408
 6969SOL    MW428197   3.897   2.332   4.438
 6970SOL     OW28198   5.436   3.683   3.963
 6970SOL    HW228199   5.503   3.716   3.903
 6970SOL    HW328200   5.393   3.762   3.997
 6970SOL    MW428201   5.438   3.698   3.959
 6971SOL     OW28202   4.571   2.604   4.915
 6971SOL    HW228203   4.529   2.522   4.891
 6971SOL    HW328204   4.572   2.603   5.011
 6971SOL    MW428205   4.564   2.593   4.924
 6972SOL     OW28206   5.242   3.737   5.314
 6972SOL    HW228207   5.245   3.643   5.297
 6972SOL    HW328208   5.265   3.745   5.406
 6972SOL    MW428209   5.245   3.725   5.324
 6973SOL     OW28210   4.375   2.074   5.020
 6973SOL    HW228211   4.306   2.137   5.041
 6973SOL    HW328212   4.402   2.038   5.105
 6973SOL    MW428213   4.369   2.077   5.033
 6974SOL     OW28214   3.758   2.915   3.889
 6974SOL    HW228215   3.727   2.980   3.952
 6974SOL    HW328216   3.707   2.837   3.908
 6974SOL    MW428217   3.748   2.912   3.899
 6975SOL     OW28218   5.170   1.927   4.637
 6975SOL    HW228219   5.258   1.936   4.674
 6975SOL    HW328220   5.180   1.868   4.563
 6975SOL    MW428221   5.184   1.921   4.631
 6976SOL     OW28222   5.202   2.666   4.481
 6976SOL    HW228223   5.282   2.681   4.430
 6976SOL    HW328224   5.195   2.571   4.487
 6976SOL    MW428225   5.211   2.655   4.476
 6977SOL     OW28226   4.342   3.715   3.831
 6977SOL    HW228227   4.247   3.715   3.823
 6977SOL    HW328228   4.358   3.661   3.909
 6977SOL    MW428229   4.332   3.709   3.840
 6978SOL     OW28230   4.652   2.592   5.178
 6978SOL    HW228231   4.721   2.659   5.175
 6978SOL    HW328232   4.585   2.630   5.234
 6978SOL    MW428233   4.653   2.605   5.185
 6979SOL     OW28234   4.070   2.892   5.426
 6979SOL    HW228235   4.024   2.808   5.428
 6979SOL    HW328236   4.127   2.886   5.350
 6979SOL    MW428237   4.072   2.880   5.418
 6980SOL     OW28238   5.187   2.535   3.747
 6980SOL    HW228239   5.115   2.511   3.689
 6980SOL    HW328240   5.253   2.572   3.689
 6980SOL    MW428241   5.186   2.537   3.732
 6981SOL     OW28242   4.321   3.267   4.427
 6981SOL    HW228243   4.386   3.200   4.448
 6981SOL    HW328244   4.373   3.344   4.404
 6981SOL    MW428245   4.336   3.269   4.426
 6982SOL     OW28246   4.582   2.432   4.557
 6982SOL    HW228247   4.522   2.450   4.629
 6982SOL    HW328248   4.616   2.344   4.576
 6982SOL    MW428249   4.578   2.422   4.570
 6983SOL     OW28250   5.523   1.931   5.226
 6983SOL    HW228251   5.444   1.977   5.254
 6983SOL    HW328252   5.558   1.985   5.155
 6983SOL    MW428253   5.517   1.944   5.220
 6984SOL     OW28254   4.807   3.015   4.576
 6984SOL    HW228255   4.899   2.996   4.594
 6984SOL    HW328256   4.780   2.945   4.516
 6984SOL    MW428257   4.815   3.003   4.570
 6985SOL     OW28258   4.600   2.835   3.931
 6985SOL    HW228259   4.586   2.747   3.896
 6985SOL    HW328260   4.551   2.892   3.872
 6985SOL    MW428261   4.592   2.830   3.919
 6986SOL     OW28262   5.081   3.253   4.672
 6986SOL    HW228263   5.054   3.337   4.637
 6986SOL    HW328264   5.041   3.248   4.759
 6986SOL    MW428265   5.074   3.262   4.678
 6987SOL     OW28266   5.000   3.201   4.940
 6987SOL    HW228267   5.011   3.168   5.029
 6987SOL    HW328268   4.919   3.160   4.909
 6987SOL    MW428269   4.990   3.193   4.946
 6988SOL     OW28270   4.013   2.559   4.710
 6988SOL    HW228271   3.963   2.558   4.791
 6988SOL    HW328272   4.033   2.651   4.694
 6988SOL    MW428273   4.009   2.571   4.718
 6989SOL     OW28274   5.080   3.323   5.472
 6989SOL    HW228275   5.080   3.417   5.488
 6989SOL    HW328276   5.125   3.313   5.388
 6989SOL    MW428277   5.086   3.333   5.463
 6990SOL     OW28278   5.319   2.041   4.033
 6990SOL    HW228279   5.312   2.045   4.128
 6990SOL    HW328280   5.331   2.132   4.006
 6990SOL    MW428281   5.320   2.054   4.041
 6991SOL     OW28282   4.608   2.604   4.147
 6991SOL    HW228283   4.588   2.590   4.054
 6991SOL    HW328284   4.701   2.583   4.154
 6991SOL    MW428285   4.618   2.599   4.136
 6992SOL     OW28286   3.935   2.227   5.451
 6992SOL    HW228287   3.892   2.286   5.388
 6992SOL    HW328288   4.003   2.282   5.491
 6992SOL    MW428289   3.939   2.242   5.448
 6993SOL     OW28290   5.047   2.847   4.996
 6993SOL    HW228291   5.110   2.844   5.069
 6993SOL    HW328292   4.963   2.865   5.038
 6993SOL    MW428293   5.043   2.849   5.011
 6994SOL     OW28294   4.591   3.562   4.185
 6994SOL    HW228295   4.649   3.633   4.212
 6994SOL    HW328296   4.614   3.490   4.243
 6994SOL    MW428297   4.602   3.562   4.196
 6995SOL     OW28298   5.386   2.024   4.775
 6995SOL    HW228299   5.431   1.942   4.794
 6995SOL    HW328300   5.406   2.080   4.851
 6995SOL    MW428301   5.396   2.020   4.787
 6996SOL     OW28302   3.834   1.867   4.874
 6996SOL    HW228303   3.825   1.868   4.779
 6996SOL    HW328304   3.928   1.879   4.889
 6996SOL    MW428305   3.846   1.870   4.865
 6997SOL     OW28306   5.471   3.060   4.494
 6997SOL    HW228307   5.450   3.006   4.417
 6997SOL    HW328308   5.567   3.058   4.498
 6997SOL    MW428309   5.480   3.053   4.483
 6998SOL     OW28310   4.163   3.205   5.237
 6998SOL    HW228311   4.084   3.155   5.260
 6998SOL    HW328312   4.233   3.164   5.287
 6998SOL    MW428313   4.161   3.193   5.247
 6999SOL     OW28314   4.047   1.994   3.920
 6999SOL    HW228315   3.976   2.049   3.888
 6999SOL    HW328316   4.089   1.960   3.841
 6999SOL    MW428317   4.043   1.996   3.906
 7000SOL     OW28318   5.171   2.491   4.756
 7000SOL    HW228319   5.094   2.537   4.722
 7000SOL    HW328320   5.228   2.560   4.790
 7000SOL    MW428321   5.168   2.506   4.756
 7001SOL     OW28322   3.803   2.093   3.769
 7001SOL    HW228323   3.770   2.172   3.813
 7001SOL    HW328324   3.858   2.126   3.698
 7001SOL    MW428325   3.806   2.107   3.766
 7002SOL     OW28326   3.837   3.350   3.958
 7002SOL    HW228327   3.854   3.434   4.000
 7002SOL    HW328328   3.872   3.359   3.870
 7002SOL    MW428329   3.842   3.363   3.952
 7003SOL     OW28330   5.109   3.439   4.175
 7003SOL    HW228331   5.172   3.429   4.104
 7003SOL    HW328332   5.026   3.459   4.130
 7003SOL    MW428333   5.106   3.440   4.160
 7004SOL     OW28334   5.472   2.707   5.862
 7004SOL    HW228335   5.513   2.649   5.927
 7004SOL    HW328336   5.379   2.699   5.879
 7004SOL    MW428337   5.466   2.699   5.872
 7005SOL     OW28338   4.266   2.890   6.091
 7005SOL    HW228339   4.356   2.865   6.075
 7005SOL    HW328340   4.262   2.983   6.068
 7005SOL    MW428341   4.278   2.899   6.086
 7006SOL     OW28342   3.992   2.374   6.032
 7006SOL    HW228343   4.024   2.462   6.014
 7006SOL    HW328344   3.980   2.372   6.127
 7006SOL    MW428345   3.995   2.386   6.044
 7007SOL     OW28346   5.105   3.038   5.810
 7007SOL    HW228347   5.023   3.074   5.776
 7007SOL    HW328348   5.173   3.081   5.759
 7007SOL    MW428349   5.103   3.048   5.798
 7008SOL     OW28350   4.666   2.817   6.286
 7008SOL    HW228351   4.580   2.804   6.326
 7008SOL    HW328352   4.719   2.744   6.318
 7008SOL    MW428353   4.662   2.806   6.295
 7009SOL     OW28354   4.657   3.179   6.003
 7009SOL    HW228355   4.634   3.241   6.071
 7009SOL    HW328356   4.614   3.097   6.029
 7009SOL    MW428357   4.649   3.175   6.014
 7010SOL     OW28358   4.154   2.152   5.971
 7010SOL    HW228359   4.128   2.114   5.887
 7010SOL    HW328360   4.091   2.222   5.987
 7010SOL    MW428361   4.143   2.155   5.962
 7011SOL     OW28362   3.989   3.113   6.008
 7011SOL    HW228363   3.937   3.181   5.964
 7011SOL    HW328364   3.986   3.039   5.948
 7011SOL    MW428365   3.981   3.112   5.995
 7012SOL     OW28366   4.651   3.576   5.786
 7012SOL    HW228367   4.606   3.592   5.869
 7012SOL    HW328368   4.582   3.541   5.728
 7012SOL    MW428369   4.637   3.573   5.788
 7013SOL     OW28370   5.586   2.349   5.761
 7013SOL    HW228371   5.495   2.351   5.789
 7013SOL    HW328372   5.631   2.411   5.819
 7013SOL    MW428373   5.579   2.357   5.771
 7014SOL     OW28374   5.331   2.952   6.111
 7014SOL    HW228375   5.241   2.952   6.146
 7014SOL    HW328376   5.324   2.998   6.028
 7014SOL    MW428377   5.318   2.958   6.105
 7015SOL     OW28378   4.858   2.533   6.072
 7015SOL    HW228379   4.884   2.557   5.983
 7015SOL    HW328380   4.840   2.440   6.068
 7015SOL    MW428381   4.860   2.525   6.059
 7016SOL     OW28382   5.523   3.153   5.923
 7016SOL    HW228383   5.479   3.194   5.998
 7016SOL    HW328384   5.580   3.221   5.888
 7016SOL    MW428385   5.525   3.167   5.928
 7017SOL     OW28386   4.179   3.569   6.241
 7017SOL    HW228387   4.211   3.657   6.219
 7017SOL    HW328388   4.132   3.541   6.163
 7017SOL    MW428389   4.178   3.577   6.228
 7018SOL     OW28390   3.895   3.629   5.818
 7018SOL    HW228391   3.924   3.719   5.810
 7018SOL    HW328392   3.845   3.612   5.739
 7018SOL    MW428393   3.893   3.637   5.807
 7019SOL     OW28394   5.299   3.437   5.789
 7019SOL    HW228395   5.347   3.506   5.835
 7019SOL    HW328396   5.220   3.481   5.758
 7019SOL    MW428397   5.294   3.451   5.792
 7020SOL     OW28398   4.697   2.562   5.733
 7020SOL    HW228399   4.699   2.509   5.654
 7020SOL    HW328400   4.785   2.599   5.739
 7020SOL    MW428401   4.709   2.561   5.722
 7021SOL     OW28402   5.311   2.488   6.069
 7021SOL    HW228403   5.350   2.488   6.156
 7021SOL    HW328404   5.252   2.564   6.069
 7021SOL    MW428405   5.308   2.499   6.080
 7022SOL     OW28406   5.498   2.374   6.235
 7022SOL    HW228407   5.587   2.343   6.252
 7022SOL    HW328408   5.441   2.314   6.283
 7022SOL    MW428409   5.501   2.362   6.244
 7023SOL     OW28410   4.867   3.181   5.825
 7023SOL    HW228411   4.817   3.183   5.907
 7023SOL    HW328412   4.801   3.199   5.757
 7023SOL    MW428413   4.853   3.183   5.827
 7024SOL     OW28414   4.330   3.599   5.933
 7024SOL    HW228415   4.251   3.557   5.966
 7024SOL    HW328416   4.396   3.582   6.000
 7024SOL    MW428417   4.329   3.591   5.946
 7025SOL     OW28418   4.466   3.014   5.640
 7025SOL    HW228419   4.388   2.960   5.627
 7025SOL    HW328420   4.437   3.087   5.693
 7025SOL    MW428421   4.452   3.016   5.645
 7026SOL     OW28422   5.047   3.530   5.708
 7026SOL    HW228423   4.973   3.493   5.758
 7026SOL    HW328424   5.055   3.620   5.741
 7026SOL    MW428425   5.038   3.537   5.720
 7027SOL     OW28426   5.271   3.204   5.650
 7027SOL    HW228427   5.218   3.253   5.586
 7027SOL    HW328428   5.302   3.270   5.711
 7027SOL    MW428429   5.269   3.218   5.648
 7028SOL     OW28430   4.496   2.093   5.705
 7028SOL    HW228431   4.444   2.013   5.693
 7028SOL    HW328432   4.583   2.070   5.673
 7028SOL    MW428433   4.499   2.079   5.699
 7029SOL     OW28434   3.865   3.345   6.201
 7029SOL    HW228435   3.837   3.384   6.283
 7029SOL    HW328436   3.885   3.254   6.223
 7029SOL    MW428437   3.863   3.337   6.214
 7030SOL     OW28438   4.698   3.388   6.236
 7030SOL    HW228439   4.781   3.342   6.220
 7030SOL    HW328440   4.688   3.387   6.332
 7030SOL    MW428441   4.708   3.381   6.246
 7031SOL     OW28442   4.431   3.445   5.641
 7031SOL    HW228443   4.371   3.514   5.611
 7031SOL    HW328444   4.376   3.387   5.694
 7031SOL    MW428445   4.415   3.447   5.643
 7032SOL     OW28446   4.869   2.090   5.864
 7032SOL    HW228447   4.802   2.066   5.801
 7032SOL    HW328448   4.934   2.139   5.813
 7032SOL    MW428449   4.869   2.092   5.849
 7033SOL     OW28450   4.062   3.489   6.030
 7033SOL    HW228451   4.023   3.536   5.956
 7033SOL    HW328452   3.996   3.424   6.055
 7033SOL    MW428453   4.049   3.487   6.024
 7034SOL     OW28454   4.554   2.898   6.054
 7034SOL    HW228455   4.556   2.872   5.961
 7034SOL    HW328456   4.612   2.835   6.097
 7034SOL    MW428457   4.562   2.887   6.048
 7035SOL     OW28458   5.044   2.246   5.722
 7035SOL    HW228459   5.017   2.312   5.658
 7035SOL    HW328460   5.114   2.289   5.772
 7035SOL    MW428461   5.049   2.259   5.719
 7036SOL     OW28462   4.712   1.951   5.659
 7036SOL    HW228463   4.768   1.943   5.581
 7036SOL    HW328464   4.689   1.861   5.681
 7036SOL    MW428465   4.717   1.938   5.652
 7037SOL     OW28466   5.217   2.802   5.864
 7037SOL    HW228467   5.184   2.891   5.854
 7037SOL    HW328468   5.182   2.773   5.949
 7037SOL    MW428469   5.207   2.811   5.875
 7038SOL     OW28470   4.211   2.840   5.656
 7038SOL    HW228471   4.134   2.853   5.712
 7038SOL    HW328472   4.175   2.804   5.575
 7038SOL    MW428473   4.197   2.836   5.653
 7039SOL     OW28474   4.864   2.813   5.899
 7039SOL    HW228475   4.774   2.834   5.874
 7039SOL    HW328476   4.891   2.886   5.955
 7039SOL    MW428477   4.856   2.825   5.902
 7040SOL     OW28478   4.251   3.169   6.055
 7040SOL    HW228479   4.244   3.201   6.145
 7040SOL    HW328480   4.161   3.153   6.027
 7040SOL    MW428481   4.239   3.171   6.062
 7041SOL     OW28482   4.254   2.453   5.769
 7041SOL    HW228483   4.220   2.509   5.839
 7041SOL    HW328484   4.325   2.403   5.809
 7041SOL    MW428485   4.260   2.454   5.783
 7042SOL     OW28486   5.310   2.339   5.833
 7042SOL    HW228487   5.302   2.410   5.770
 7042SOL    HW328488   5.328   2.383   5.916
 7042SOL    MW428489   5.311   2.353   5.835
 7043SOL     OW28490   4.170   1.994   6.262
 7043SOL    HW228491   4.220   2.037   6.193
 7043SOL    HW328492   4.085   2.038   6.262
 7043SOL    MW428493   4.167   2.007   6.253
 7044SOL     OW28494   4.979   2.601   5.808
 7044SOL    HW228495   5.026   2.619   5.727
 7044SOL    HW328496   4.945   2.685   5.836
 7044SOL    MW428497   4.981   2.615   5.801
 7045SOL     OW28498   5.232   2.131   6.139
 7045SOL    HW228499   5.154   2.081   6.164
 7045SOL    HW328500   5.203   2.222   6.139
 7045SOL    MW428501   5.218   2.135   6.142
 7046SOL     OW28502   4.714   3.343   5.630
 7046SOL    HW228503   4.741   3.421   5.582
 7046SOL    HW328504   4.621   3.358   5.649
 7046SOL    MW428505   4.705   3.356   5.626
 7047SOL     OW28506   3.754   2.505   6.021
 7047SOL    HW228507   3.694   2.477   6.091
 7047SOL    HW328508   3.828   2.445   6.027
 7047SOL    MW428509   3.756   2.494   6.030
 7048SOL     OW28510   5.062   1.903   5.817
 7048SOL    HW228511   5.136   1.947   5.860
 7048SOL    HW328512   4.986   1.957   5.839
 7048SOL    MW428513   5.062   1.915   5.825
 7049SOL     OW28514   5.122   2.678   6.095
 7049SOL    HW228515   5.037   2.648   6.065
 7049SOL    HW328516   5.114   2.685   6.190
 7049SOL    MW428517   5.110   2.676   6.104
 7050SOL     OW28518   3.970   2.853   5.919
 7050SOL    HW228519   3.907   2.869   5.848
 7050SOL    HW328520   3.917   2.816   5.990
 7050SOL    MW428521   3.955   2.850   5.919
 7051SOL     OW28522   4.326   3.207   5.778
 7051SOL    HW228523   4.341   3.183   5.870
 7051SOL    HW328524   4.234   3.185   5.762
 7051SOL    MW428525   4.316   3.200   5.788
 7052SOL     OW28526   4.865   3.438   5.930
 7052SOL    HW228527   4.873   3.356   5.881
 7052SOL    HW328528   4.784   3.477   5.897
 7052SOL    MW428529   4.855   3.433   5.920
 7053SOL     OW28530   4.837   2.260   6.100
 7053SOL    HW228531   4.859   2.197   6.032
 7053SOL    HW328532   4.742   2.252   6.111
 7053SOL    MW428533   4.827   2.251   6.092
 7054SOL     OW28534   3.922   1.950   6.032
 7054SOL    HW228535   3.993   1.971   5.971
 7054SOL    HW328536   3.876   1.878   5.990
 7054SOL    MW428537   3.926   1.944   6.018
 7055SOL     OW28538   5.491   3.324   6.132
 7055SOL    HW228539   5.461   3.257   6.193
 7055SOL    HW328540   5.585   3.330   6.146
 7055SOL    MW428541   5.499   3.316   6.142
 7056SOL     OW28542   5.047   3.001   6.062
 7056SOL    HW228543   5.019   3.087   6.095
 7056SOL    HW328544   5.075   3.017   5.972
 7056SOL    MW428545   5.047   3.015   6.054
 7057SOL     OW28546   4.709   1.921   6.115
 7057SOL    HW228547   4.746   1.980   6.180
 7057SOL    HW328548   4.686   1.977   6.041
 7057SOL    MW428549   4.710   1.936   6.114
 7058SOL     OW28550   4.130   2.612   6.011
 7058SOL    HW228551   4.130   2.707   5.996
 7058SOL    HW328552   4.207   2.596   6.065
 7058SOL    MW428553   4.140   2.623   6.016
 7059SOL     OW28554   5.436   3.683   5.832
 7059SOL    HW228555   5.503   3.716   5.772
 7059SOL    HW328556   5.393   3.762   5.866
 7059SOL    MW428557   5.438   3.698   5.828
 7060SOL     OW28558   3.758   2.915   5.758
 7060SOL    HW228559   3.727   2.980   5.821
 7060SOL    HW328560   3.707   2.837   5.777
 7060SOL    MW428561   3.748   2.912   5.768
 7061SOL     OW28562   4.342   3.715   5.700
 7061SOL    HW228563   4.247   3.715   5.692
 7061SOL    HW328564   4.358   3.661   5.778
 7061SOL    MW428565   4.332   3.709   5.709
 7062SOL     OW28566   5.187   2.535   5.615
 7062SOL    HW228567   5.115   2.511   5.557
 7062SOL    HW328568   5.253   2.572   5.557
 7062SOL    MW428569   5.186   2.537   5.600
 7063SOL     OW28570   4.582   2.432   6.426
 7063SOL    HW228571   4.522   2.450   6.498
 7063SOL    HW328572   4.616   2.344   6.445
 7063SOL    MW428573   4.578   2.422   6.439
 7064SOL     OW28574   4.600   2.835   5.800
 7064SOL    HW228575   4.586   2.747   5.765
 7064SOL    HW328576   4.551   2.892   5.741
 7064SOL    MW428577   4.592   2.830   5.788
 7065SOL     OW28578   5.319   2.041   5.902
 7065SOL    HW228579   5.312   2.045   5.997
 7065SOL    HW328580   5.331   2.132   5.875
 7065SOL    MW428581   5.320   2.054   5.910
 7066SOL     OW28582   4.608   2.604   6.016
 7066SOL    HW228583   4.588   2.590   5.923
 7066SOL    HW328584   4.701   2.583   6.023
 7066SOL    MW428585   4.618   2.599   6.005
 7067SOL     OW28586   4.591   3.562   6.054
 7067SOL    HW228587   4.649   3.633   6.081
 7067SOL    HW328588   4.614   3.490   6.112
 7067SOL    MW428589   4.602   3.562   6.065
 7068SOL     OW28590   4.047   1.994   5.789
 7068SOL    HW228591   3.976   2.049   5.757
 7068SOL    HW328592   4.089   1.960   5.710
 7068SOL    MW428593   4.043   1.996   5.775
 7069SOL     OW28594   3.803   2.093   5.638
 7069SOL    HW228595   3.770   2.172   5.682
 7069SOL    HW328596   3.858   2.126   5.567
 7069SOL    MW428597   3.806   2.107   5.635
 7070SOL     OW28598   3.837   3.350   5.827
 7070SOL    HW228599   3.854   3.434   5.869
 7070SOL    HW328600   3.872   3.359   5.739
 7070SOL    MW428601   3.842   3.363   5.821
 7071SOL     OW28602   5.109   3.439   6.044
 7071SOL    HW228603   5.172   3.429   5.973
 7071SOL    HW328604   5.026   3.459   5.999
 7071SOL    MW428605   5.106   3.440   6.029
 7072SOL     OW28606   5.472   4.575   0.257
 7072SOL    HW228607   5.513   4.517   0.322
 7072SOL    HW328608   5.379   4.567   0.274
 7072SOL    MW428609   5.466   4.567   0.267
 7073SOL     OW28610   5.338   4.507   1.252
 7073SOL    HW228611   5.293   4.574   1.303
 7073SOL    HW328612   5.426   4.543   1.238
 7073SOL    MW428613   5.344   4.520   1.256
 7074SOL     OW28614   4.266   4.758   0.486
 7074SOL    HW228615   4.356   4.733   0.470
 7074SOL    HW328616   4.262   4.851   0.463
 7074SOL    MW428617   4.278   4.767   0.481
 7075SOL     OW28618   5.382   5.461   0.628
 7075SOL    HW228619   5.394   5.407   0.706
 7075SOL    HW328620   5.419   5.409   0.557
 7075SOL    MW428621   5.388   5.446   0.629
 7076SOL     OW28622   4.761   5.346   1.629
 7076SOL    HW228623   4.802   5.382   1.550
 7076SOL    HW328624   4.796   5.257   1.636
 7076SOL    MW428625   4.772   5.339   1.620
 7077SOL     OW28626   5.318   4.901   1.233
 7077SOL    HW228627   5.239   4.866   1.191
 7077SOL    HW328628   5.345   4.973   1.177
 7077SOL    MW428629   5.311   4.906   1.220
 7078SOL     OW28630   4.550   4.214   0.499
 7078SOL    HW228631   4.525   4.302   0.527
 7078SOL    HW328632   4.547   4.217   0.403
 7078SOL    MW428633   4.546   4.226   0.491
 7079SOL     OW28634   3.992   4.242   0.427
 7079SOL    HW228635   4.024   4.330   0.409
 7079SOL    HW328636   3.980   4.240   0.522
 7079SOL    MW428637   3.995   4.254   0.439
 7080SOL     OW28638   4.070   4.655   1.328
 7080SOL    HW228639   4.133   4.602   1.279
 7080SOL    HW328640   4.051   4.729   1.271
 7080SOL    MW428641   4.076   4.657   1.315
 7081SOL     OW28642   4.391   3.997   0.514
 7081SOL    HW228643   4.449   4.073   0.516
 7081SOL    HW328644   4.326   4.018   0.447
 7081SOL    MW428645   4.390   4.009   0.505
 7082SOL     OW28646   4.478   4.924   0.689
 7082SOL    HW228647   4.558   4.927   0.741
 7082SOL    HW328648   4.506   4.891   0.603
 7082SOL    MW428649   4.492   4.920   0.684
 7083SOL     OW28650   4.255   4.428   0.680
 7083SOL    HW228651   4.240   4.348   0.731
 7083SOL    HW328652   4.337   4.463   0.714
 7083SOL    MW428653   4.263   4.420   0.692
 7084SOL     OW28654   4.397   4.254   1.057
 7084SOL    HW228655   4.303   4.250   1.075
 7084SOL    HW328656   4.427   4.163   1.066
 7084SOL    MW428657   4.388   4.242   1.060
 7085SOL     OW28658   4.143   4.668   0.961
 7085SOL    HW228659   4.098   4.675   0.877
 7085SOL    HW328660   4.123   4.751   1.005
 7085SOL    MW428661   4.135   4.680   0.955
 7086SOL     OW28662   3.840   5.514   0.836
 7086SOL    HW228663   3.929   5.506   0.871
 7086SOL    HW328664   3.804   5.426   0.841
 7086SOL    MW428665   3.847   5.501   0.841
 7087SOL     OW28666   5.105   4.906   0.205
 7087SOL    HW228667   5.023   4.942   0.171
 7087SOL    HW328668   5.173   4.949   0.154
 7087SOL    MW428669   5.103   4.916   0.193
 7088SOL     OW28670   4.104   5.041   0.871
 7088SOL    HW228671   4.080   5.094   0.947
 7088SOL    HW328672   4.160   5.099   0.819
 7088SOL    MW428673   4.108   5.056   0.874
 7089SOL     OW28674   4.666   4.685   0.681
 7089SOL    HW228675   4.580   4.672   0.721
 7089SOL    HW328676   4.719   4.612   0.713
 7089SOL    MW428677   4.662   4.674   0.690
 7090SOL     OW28678   4.657   5.047   0.398
 7090SOL    HW228679   4.634   5.109   0.466
 7090SOL    HW328680   4.614   4.965   0.424
 7090SOL    MW428681   4.649   5.043   0.409
 7091SOL     OW28682   5.530   4.048   0.854
 7091SOL    HW228683   5.467   4.028   0.923
 7091SOL    HW328684   5.520   3.977   0.791
 7091SOL    MW428685   5.520   4.035   0.855
 7092SOL     OW28686   4.154   4.020   0.366
 7092SOL    HW228687   4.128   3.982   0.282
 7092SOL    HW328688   4.091   4.090   0.382
 7092SOL    MW428689   4.143   4.023   0.357
 7093SOL     OW28690   3.989   4.981   0.403
 7093SOL    HW228691   3.937   5.049   0.359
 7093SOL    HW328692   3.986   4.907   0.343
 7093SOL    MW428693   3.981   4.980   0.390
 7094SOL     OW28694   4.651   5.444   0.181
 7094SOL    HW228695   4.606   5.460   0.264
 7094SOL    HW328696   4.582   5.409   0.123
 7094SOL    MW428697   4.637   5.441   0.183
 7095SOL     OW28698   5.331   4.820   0.506
 7095SOL    HW228699   5.241   4.820   0.541
 7095SOL    HW328700   5.324   4.866   0.423
 7095SOL    MW428701   5.318   4.826   0.500
 7096SOL     OW28702   5.131   4.455   1.578
 7096SOL    HW228703   5.200   4.393   1.555
 7096SOL    HW328704   5.056   4.429   1.525
 7096SOL    MW428705   5.131   4.442   1.569
 7097SOL     OW28706   3.872   5.335   1.130
 7097SOL    HW228707   3.855   5.281   1.207
 7097SOL    HW328708   3.860   5.425   1.160
 7097SOL    MW428709   3.869   5.339   1.144
 7098SOL     OW28710   4.663   4.266   1.771
 7098SOL    HW228711   4.753   4.267   1.738
 7098SOL    HW328712   4.622   4.191   1.729
 7098SOL    MW428713   4.669   4.256   1.762
 7099SOL     OW28714   5.238   4.798   0.898
 7099SOL    HW228715   5.241   4.732   0.829
 7099SOL    HW328716   5.323   4.841   0.894
 7099SOL    MW428717   5.250   4.794   0.889
 7100SOL     OW28718   4.858   4.401   0.467
 7100SOL    HW228719   4.884   4.425   0.378
 7100SOL    HW328720   4.840   4.308   0.463
 7100SOL    MW428721   4.860   4.393   0.454
 7101SOL     OW28722   4.443   4.070   1.721
 7101SOL    HW228723   4.453   3.996   1.661
 7101SOL    HW328724   4.479   4.039   1.804
 7101SOL    MW428725   4.449   4.056   1.723
 7102SOL     OW28726   4.179   5.437   0.636
 7102SOL    HW228727   4.211   5.525   0.614
 7102SOL    HW328728   4.132   5.409   0.558
 7102SOL    MW428729   4.178   5.445   0.623
 7103SOL     OW28730   5.563   3.799   0.685
 7103SOL    HW228731   5.617   3.750   0.747
 7103SOL    HW328732   5.506   3.733   0.646
 7103SOL    MW428733   5.563   3.783   0.687
 7104SOL     OW28734   3.895   5.497   0.213
 7104SOL    HW228735   3.924   5.587   0.205
 7104SOL    HW328736   3.845   5.480   0.134
 7104SOL    MW428737   3.893   5.505   0.202
 7105SOL     OW28738   4.682   3.752   1.098
 7105SOL    HW228739   4.641   3.830   1.060
 7105SOL    HW328740   4.776   3.770   1.093
 7105SOL    MW428741   4.688   3.764   1.093
 7106SOL     OW28742   4.697   4.430   0.128
 7106SOL    HW228743   4.699   4.377   0.049
 7106SOL    HW328744   4.785   4.467   0.134
 7106SOL    MW428745   4.709   4.429   0.117
 7107SOL     OW28746   5.311   4.356   0.464
 7107SOL    HW228747   5.350   4.356   0.551
 7107SOL    HW328748   5.252   4.432   0.464
 7107SOL    MW428749   5.308   4.367   0.475
 7108SOL     OW28750   4.708   3.860   1.353
 7108SOL    HW228751   4.714   3.822   1.266
 7108SOL    HW328752   4.697   3.954   1.338
 7108SOL    MW428753   4.709   3.868   1.341
 7109SOL     OW28754   4.797   4.349   1.187
 7109SOL    HW228755   4.872   4.378   1.134
 7109SOL    HW328756   4.729   4.414   1.171
 7109SOL    MW428757   4.798   4.361   1.177
 7110SOL     OW28758   5.347   4.317   1.464
 7110SOL    HW228759   5.328   4.226   1.443
 7110SOL    HW328760   5.325   4.366   1.385
 7110SOL    MW428761   5.342   4.310   1.451
 7111SOL     OW28762   5.489   5.411   1.368
 7111SOL    HW228763   5.417   5.373   1.419
 7111SOL    HW328764   5.506   5.496   1.409
 7111SOL    MW428765   5.483   5.416   1.380
 7112SOL     OW28766   4.794   4.055   1.570
 7112SOL    HW228767   4.760   4.094   1.489
 7112SOL    HW328768   4.772   3.963   1.563
 7112SOL    MW428769   4.787   4.048   1.560
 7113SOL     OW28770   5.203   4.869   1.646
 7113SOL    HW228771   5.285   4.910   1.676
 7113SOL    HW328772   5.166   4.831   1.726
 7113SOL    MW428773   5.209   4.870   1.661
 7114SOL     OW28774   5.498   4.242   0.630
 7114SOL    HW228775   5.587   4.211   0.647
 7114SOL    HW328776   5.441   4.182   0.678
 7114SOL    MW428777   5.501   4.230   0.639
 7115SOL     OW28778   3.924   3.956   0.659
 7115SOL    HW228779   3.915   3.896   0.585
 7115SOL    HW328780   3.857   3.927   0.722
 7115SOL    MW428781   3.914   3.943   0.657
 7116SOL     OW28782   4.867   5.049   0.220
 7116SOL    HW228783   4.817   5.051   0.302
 7116SOL    HW328784   4.801   5.067   0.152
 7116SOL    MW428785   4.853   5.051   0.222
 7117SOL     OW28786   3.871   4.129   1.022
 7117SOL    HW228787   3.843   4.220   1.031
 7117SOL    HW328788   3.808   4.090   0.961
 7117SOL    MW428789   3.858   4.135   1.016
 7118SOL     OW28790   4.330   5.467   0.328
 7118SOL    HW228791   4.251   5.425   0.361
 7118SOL    HW328792   4.396   5.450   0.395
 7118SOL    MW428793   4.329   5.459   0.341
 7119SOL     OW28794   5.458   4.987   1.725
 7119SOL    HW228795   5.508   4.913   1.757
 7119SOL    HW328796   5.404   5.014   1.800
 7119SOL    MW428797   5.458   4.981   1.738
 7120SOL     OW28798   4.466   4.882   0.035
 7120SOL    HW228799   4.388   4.828   0.022
 7120SOL    HW328800   4.437   4.955   0.088
 7120SOL    MW428801   4.452   4.884   0.040
 7121SOL     OW28802   5.592   4.622   1.227
 7121SOL    HW228803   5.608   4.660   1.140
 7121SOL    HW328804   5.626   4.688   1.288
 7121SOL    MW428805   5.599   4.635   1.223
 7122SOL     OW28806   5.384   5.331   0.896
 7122SOL    HW228807   5.413   5.398   0.957
 7122SOL    HW328808   5.365   5.255   0.951
 7122SOL    MW428809   5.386   5.331   0.911
 7123SOL     OW28810   5.047   5.398   0.103
 7123SOL    HW228811   4.973   5.361   0.153
 7123SOL    HW328812   5.055   5.488   0.136
 7123SOL    MW428813   5.038   5.405   0.115
 7124SOL     OW28814   3.855   4.404   1.192
 7124SOL    HW228815   3.917   4.434   1.258
 7124SOL    HW328816   3.789   4.473   1.186
 7124SOL    MW428817   3.854   4.417   1.199
 7125SOL     OW28818   4.496   3.961   0.100
 7125SOL    HW228819   4.444   3.881   0.088
 7125SOL    HW328820   4.583   3.938   0.068
 7125SOL    MW428821   4.499   3.947   0.094
 7126SOL     OW28822   3.950   5.513   1.644
 7126SOL    HW228823   3.924   5.581   1.582
 7126SOL    HW328824   3.998   5.450   1.592
 7126SOL    MW428825   3.952   5.513   1.630
 7127SOL     OW28826   4.002   4.832   1.151
 7127SOL    HW228827   4.055   4.907   1.176
 7127SOL    HW328828   3.921   4.870   1.117
 7127SOL    MW428829   3.998   4.847   1.151
 7128SOL     OW28830   4.542   4.736   1.139
 7128SOL    HW228831   4.570   4.645   1.151
 7128SOL    HW328832   4.471   4.730   1.075
 7128SOL    MW428833   4.535   4.724   1.134
 7129SOL     OW28834   3.857   4.601   0.557
 7129SOL    HW228835   3.948   4.616   0.584
 7129SOL    HW328836   3.860   4.522   0.503
 7129SOL    MW428837   3.869   4.593   0.555
 7130SOL     OW28838   4.093   4.309   1.811
 7130SOL    HW228839   4.040   4.389   1.818
 7130SOL    HW328840   4.163   4.321   1.876
 7130SOL    MW428841   4.095   4.322   1.819
 7131SOL     OW28842   4.479   3.859   1.518
 7131SOL    HW228843   4.456   3.767   1.520
 7131SOL    HW328844   4.565   3.861   1.475
 7131SOL    MW428845   4.486   3.849   1.514
 7132SOL     OW28846   4.163   4.383   1.557
 7132SOL    HW228847   4.243   4.433   1.543
 7132SOL    HW328848   4.154   4.377   1.652
 7132SOL    MW428849   4.172   4.389   1.567
 7133SOL     OW28850   4.484   5.533   0.931
 7133SOL    HW228851   4.573   5.548   0.961
 7133SOL    HW328852   4.479   5.580   0.847
 7133SOL    MW428853   4.494   5.541   0.924
 7134SOL     OW28854   5.140   3.908   1.828
 7134SOL    HW228855   5.196   3.835   1.854
 7134SOL    HW328856   5.110   3.946   1.910
 7134SOL    MW428857   5.144   3.903   1.841
 7135SOL     OW28858   3.865   5.213   0.596
 7135SOL    HW228859   3.837   5.252   0.678
 7135SOL    HW328860   3.885   5.122   0.618
 7135SOL    MW428861   3.863   5.205   0.609
 7136SOL     OW28862   4.698   5.256   0.631
 7136SOL    HW228863   4.781   5.210   0.615
 7136SOL    HW328864   4.688   5.255   0.727
 7136SOL    MW428865   4.708   5.249   0.641
 7137SOL     OW28866   5.530   4.401   0.945
 7137SOL    HW228867   5.619   4.431   0.927
 7137SOL    HW328868   5.510   4.341   0.874
 7137SOL    MW428869   5.539   4.398   0.934
 7138SOL     OW28870   5.381   4.580   1.825
 7138SOL    HW228871   5.436   4.504   1.806
 7138SOL    HW328872   5.383   4.588   1.920
 7138SOL    MW428873   5.389   4.571   1.833
 7139SOL     OW28874   4.431   5.313   0.036
 7139SOL    HW228875   4.371   5.382   0.006
 7139SOL    HW328876   4.376   5.255   0.089
 7139SOL    MW428877   4.415   5.315   0.038
 7140SOL     OW28878   4.869   3.958   0.259
 7140SOL    HW228879   4.802   3.934   0.196
 7140SOL    HW328880   4.934   4.007   0.208
 7140SOL    MW428881   4.869   3.960   0.244
 7141SOL     OW28882   4.676   4.142   1.344
 7141SOL    HW228883   4.595   4.183   1.372
 7141SOL    HW328884   4.723   4.210   1.296
 7141SOL    MW428885   4.671   4.157   1.342
 7142SOL     OW28886   4.936   4.480   0.967
 7142SOL    HW228887   4.949   4.574   0.977
 7142SOL    HW328888   4.897   4.470   0.881
 7142SOL    MW428889   4.932   4.491   0.957
 7143SOL     OW28890   4.388   4.675   0.771
 7143SOL    HW228891   4.299   4.666   0.804
 7143SOL    HW328892   4.392   4.765   0.739
 7143SOL    MW428893   4.377   4.686   0.771
 7144SOL     OW28894   5.187   4.258   0.766
 7144SOL    HW228895   5.132   4.179   0.765
 7144SOL    HW328896   5.169   4.299   0.850
 7144SOL    MW428897   5.177   4.253   0.775
 7145SOL     OW28898   4.158   3.945   1.583
 7145SOL    HW228899   4.079   3.963   1.635
 7145SOL    HW328900   4.153   4.007   1.510
 7145SOL    MW428901   4.148   3.955   1.580
 7146SOL     OW28902   4.806   4.462   0.723
 7146SOL    HW228903   4.743   4.394   0.747
 7146SOL    HW328904   4.826   4.443   0.631
 7146SOL    MW428905   4.800   4.449   0.715
 7147SOL     OW28906   4.062   5.357   0.425
 7147SOL    HW228907   4.023   5.404   0.351
 7147SOL    HW328908   3.996   5.292   0.450
 7147SOL    MW428909   4.049   5.355   0.419
 7148SOL     OW28910   4.554   4.766   0.449
 7148SOL    HW228911   4.556   4.740   0.356
 7148SOL    HW328912   4.612   4.703   0.492
 7148SOL    MW428913   4.562   4.755   0.443
 7149SOL     OW28914   5.111   5.534   0.651
 7149SOL    HW228915   5.054   5.487   0.590
 7149SOL    HW328916   5.197   5.495   0.638
 7149SOL    MW428917   5.114   5.525   0.641
 7150SOL     OW28918   5.064   4.010   0.782
 7150SOL    HW228919   5.092   3.942   0.843
 7150SOL    HW328920   4.978   3.981   0.752
 7150SOL    MW428921   5.057   3.997   0.786
 7151SOL     OW28922   3.869   4.944   0.716
 7151SOL    HW228923   3.933   4.976   0.779
 7151SOL    HW328924   3.918   4.880   0.664
 7151SOL    MW428925   3.884   4.940   0.717
 7152SOL     OW28926   3.945   5.262   1.838
 7152SOL    HW228927   4.001   5.186   1.853
 7152SOL    HW328928   3.894   5.240   1.760
 7152SOL    MW428929   3.945   5.249   1.829
 7153SOL     OW28930   5.044   4.114   0.117
 7153SOL    HW228931   5.017   4.180   0.053
 7153SOL    HW328932   5.114   4.157   0.167
 7153SOL    MW428933   5.049   4.127   0.114
 7154SOL     OW28934   4.123   3.767   1.789
 7154SOL    HW228935   4.051   3.732   1.737
 7154SOL    HW328936   4.181   3.808   1.724
 7154SOL    MW428937   4.121   3.768   1.774
 7155SOL     OW28938   4.147   5.257   1.088
 7155SOL    HW228939   4.192   5.319   1.145
 7155SOL    HW328940   4.054   5.276   1.101
 7155SOL    MW428941   4.140   5.267   1.095
 7156SOL     OW28942   5.587   4.786   1.442
 7156SOL    HW228943   5.502   4.799   1.401
 7156SOL    HW328944   5.567   4.750   1.529
 7156SOL    MW428945   5.574   4.782   1.447
 7157SOL     OW28946   4.211   4.708   0.051
 7157SOL    HW228947   4.134   4.721   0.107
 7157SOL    HW328948   4.175   4.672  -0.030
 7157SOL    MW428949   4.197   4.704   0.048
 7158SOL     OW28950   4.864   4.681   0.294
 7158SOL    HW228951   4.774   4.702   0.269
 7158SOL    HW328952   4.891   4.754   0.350
 7158SOL    MW428953   4.856   4.693   0.297
 7159SOL     OW28954   4.364   5.030   0.986
 7159SOL    HW228955   4.357   5.009   1.080
 7159SOL    HW328956   4.282   4.998   0.949
 7159SOL    MW428957   4.352   5.024   0.993
 7160SOL     OW28958   5.228   4.040   1.388
 7160SOL    HW228959   5.175   4.042   1.468
 7160SOL    HW328960   5.213   3.953   1.351
 7160SOL    MW428961   5.220   4.030   1.393
 7161SOL     OW28962   5.564   3.964   1.261
 7161SOL    HW228963   5.545   4.031   1.196
 7161SOL    HW328964   5.621   3.902   1.216
 7161SOL    MW428965   5.568   3.965   1.247
 7162SOL     OW28966   3.810   5.122   1.649
 7162SOL    HW228967   3.854   5.055   1.595
 7162SOL    HW328968   3.725   5.084   1.669
 7162SOL    MW428969   3.805   5.108   1.645
 7163SOL     OW28970   4.493   3.797   0.701
 7163SOL    HW228971   4.422   3.858   0.683
 7163SOL    HW328972   4.544   3.794   0.620
 7163SOL    MW428973   4.489   3.803   0.688
 7164SOL     OW28974   4.251   5.037   0.450
 7164SOL    HW228975   4.244   5.069   0.540
 7164SOL    HW328976   4.161   5.021   0.422
 7164SOL    MW428977   4.239   5.039   0.457
 7165SOL     OW28978   4.960   5.395   0.849
 7165SOL    HW228979   5.007   5.468   0.808
 7165SOL    HW328980   4.881   5.434   0.885
 7165SOL    MW428981   4.955   5.410   0.848
 7166SOL     OW28982   5.368   5.490   1.124
 7166SOL    HW228983   5.411   5.460   1.204
 7166SOL    HW328984   5.287   5.438   1.121
 7166SOL    MW428985   5.363   5.479   1.134
 7167SOL     OW28986   4.453   4.454   1.831
 7167SOL    HW228987   4.523   4.396   1.803
 7167SOL    HW328988   4.396   4.399   1.886
 7167SOL    MW428989   4.455   4.441   1.835
 7168SOL     OW28990   5.240   4.666   1.464
 7168SOL    HW228991   5.245   4.719   1.544
 7168SOL    HW328992   5.202   4.583   1.492
 7168SOL    MW428993   5.236   4.661   1.479
 7169SOL     OW28994   4.880   3.801   1.710
 7169SOL    HW228995   4.875   3.708   1.691
 7169SOL    HW328996   4.963   3.812   1.756
 7169SOL    MW428997   4.888   3.790   1.714
 7170SOL     OW28998   4.254   4.321   0.164
 7170SOL    HW228999   4.220   4.377   0.234
 7170SOL    HW329000   4.325   4.271   0.204
 7170SOL    MW429001   4.260   4.322   0.178
 7171SOL     OW29002   5.350   5.072   0.986
 7171SOL    HW229003   5.385   5.054   0.899
 7171SOL    HW329004   5.255   5.073   0.973
 7171SOL    MW429005   5.342   5.069   0.973
 7172SOL     OW29006   5.310   4.207   0.228
 7172SOL    HW229007   5.302   4.278   0.165
 7172SOL    HW329008   5.328   4.251   0.311
 7172SOL    MW429009   5.311   4.221   0.230
 7173SOL     OW29010   4.170   3.862   0.657
 7173SOL    HW229011   4.220   3.905   0.588
 7173SOL    HW329012   4.085   3.906   0.657
 7173SOL    MW429013   4.167   3.875   0.648
 7174SOL     OW29014   3.929   4.924   1.517
 7174SOL    HW229015   3.957   4.877   1.595
 7174SOL    HW329016   3.850   4.879   1.488
 7174SOL    MW429017   3.922   4.913   1.523
 7175SOL     OW29018   4.437   4.251   1.484
 7175SOL    HW229019   4.409   4.339   1.508
 7175SOL    HW329020   4.406   4.195   1.555
 7175SOL    MW429021   4.429   4.254   1.496
 7176SOL     OW29022   4.979   4.469   0.203
 7176SOL    HW229023   5.026   4.487   0.122
 7176SOL    HW329024   4.945   4.553   0.231
 7176SOL    MW429025   4.981   4.483   0.196
 7177SOL     OW29026   4.092   4.647   0.697
 7177SOL    HW229027   4.150   4.703   0.645
 7177SOL    HW329028   4.136   4.562   0.699
 7177SOL    MW429029   4.105   4.644   0.690
 7178SOL     OW29030   5.232   3.999   0.534
 7178SOL    HW229031   5.154   3.949   0.559
 7178SOL    HW329032   5.203   4.090   0.534
 7178SOL    MW429033   5.218   4.003   0.537
 7179SOL     OW29034   4.818   3.961   0.693
 7179SOL    HW229035   4.838   4.036   0.637
 7179SOL    HW329036   4.798   4.000   0.778
 7179SOL    MW429037   4.819   3.977   0.697
 7180SOL     OW29038   4.714   5.211   0.025
 7180SOL    HW229039   4.741   5.289  -0.023
 7180SOL    HW329040   4.621   5.226   0.044
 7180SOL    MW429041   4.705   5.224   0.021
 7181SOL     OW29042   5.578   4.734   1.712
 7181SOL    HW229043   5.491   4.714   1.748
 7181SOL    HW329044   5.632   4.660   1.737
 7181SOL    MW429045   5.573   4.723   1.720
 7182SOL     OW29046   3.799   5.247   0.869
 7182SOL    HW229047   3.831   5.251   0.960
 7182SOL    HW329048   3.704   5.255   0.877
 7182SOL    MW429049   3.791   5.250   0.882
 7183SOL     OW29050   3.754   4.373   0.416
 7183SOL    HW229051   3.694   4.345   0.486
 7183SOL    HW329052   3.828   4.313   0.422
 7183SOL    MW429053   3.756   4.362   0.425
 7184SOL     OW29054   5.322   5.585   1.850
 7184SOL    HW229055   5.367   5.509   1.815
 7184SOL    HW329056   5.360   5.598   1.937
 7184SOL    MW429057   5.332   5.578   1.856
 7185SOL     OW29058   4.922   5.104   0.576
 7185SOL    HW229059   4.945   5.055   0.654
 7185SOL    HW329060   5.003   5.146   0.548
 7185SOL    MW429061   4.935   5.104   0.583
 7186SOL     OW29062   4.180   4.112   1.305
 7186SOL    HW229063   4.213   4.193   1.345
 7186SOL    HW329064   4.153   4.138   1.217
 7186SOL    MW429065   4.179   4.126   1.299
 7187SOL     OW29066   4.134   4.079   1.041
 7187SOL    HW229067   4.164   3.993   1.012
 7187SOL    HW329068   4.039   4.072   1.044
 7187SOL    MW429069   4.126   4.068   1.039
 7188SOL     OW29070   4.963   4.288   1.732
 7188SOL    HW229071   5.015   4.223   1.685
 7188SOL    HW329072   4.921   4.339   1.662
 7188SOL    MW429073   4.964   4.285   1.715
 7189SOL     OW29074   5.062   4.083   1.593
 7189SOL    HW229075   4.969   4.067   1.580
 7189SOL    HW329076   5.088   4.021   1.661
 7189SOL    MW429077   5.052   4.073   1.600
 7190SOL     OW29078   4.277   3.857   0.932
 7190SOL    HW229079   4.287   3.766   0.958
 7190SOL    HW329080   4.233   3.853   0.847
 7190SOL    MW429081   4.273   3.845   0.924
 7191SOL     OW29082   4.371   5.472   1.478
 7191SOL    HW229083   4.288   5.457   1.523
 7191SOL    HW329084   4.430   5.405   1.513
 7191SOL    MW429085   4.369   5.462   1.488
 7192SOL     OW29086   5.428   4.179   1.103
 7192SOL    HW229087   5.361   4.212   1.163
 7192SOL    HW329088   5.471   4.257   1.069
 7192SOL    MW429089   5.426   4.194   1.107
 7193SOL     OW29090   5.606   4.899   1.073
 7193SOL    HW229091   5.599   4.839   0.998
 7193SOL    HW329092   5.532   4.959   1.062
 7193SOL    MW429093   5.596   4.899   1.062
 7194SOL     OW29094   4.988   4.761   0.991
 7194SOL    HW229095   5.002   4.733   1.082
 7194SOL    HW329096   5.074   4.792   0.963
 7194SOL    MW429097   5.001   4.762   1.000
 7195SOL     OW29098   5.071   4.256   1.270
 7195SOL    HW229099   5.092   4.257   1.177
 7195SOL    HW329100   5.116   4.178   1.303
 7195SOL    MW429101   5.078   4.246   1.262
 7196SOL     OW29102   5.564   4.387   1.812
 7196SOL    HW229103   5.601   4.332   1.881
 7196SOL    HW329104   5.589   4.344   1.730
 7196SOL    MW429105   5.571   4.375   1.811
 7197SOL     OW29106   5.111   4.685   1.863
 7197SOL    HW229107   5.177   4.633   1.817
 7197SOL    HW329108   5.131   4.672   1.956
 7197SOL    MW429109   5.122   4.676   1.870
 7198SOL     OW29110   5.062   3.771   0.212
 7198SOL    HW229111   5.136   3.815   0.255
 7198SOL    HW329112   4.986   3.825   0.234
 7198SOL    MW429113   5.062   3.783   0.220
 7199SOL     OW29114   5.122   4.546   0.490
 7199SOL    HW229115   5.037   4.516   0.460
 7199SOL    HW329116   5.114   4.553   0.585
 7199SOL    MW429117   5.110   4.544   0.499
 7200SOL     OW29118   4.482   3.989   1.044
 7200SOL    HW229119   4.455   3.991   1.135
 7200SOL    HW329120   4.412   3.941   0.999
 7200SOL    MW429121   4.470   3.985   1.051
 7201SOL     OW29122   4.336   5.481   1.206
 7201SOL    HW229123   4.388   5.558   1.183
 7201SOL    HW329124   4.345   5.473   1.301
 7201SOL    MW429125   4.345   5.488   1.217
 7202SOL     OW29126   5.238   5.066   1.438
 7202SOL    HW229127   5.223   4.995   1.501
 7202SOL    HW329128   5.284   5.024   1.366
 7202SOL    MW429129   5.244   5.050   1.438
 7203SOL     OW29130   4.492   4.840   1.367
 7203SOL    HW229131   4.551   4.786   1.420
 7203SOL    HW329132   4.507   4.812   1.277
 7203SOL    MW429133   4.502   4.829   1.363
 7204SOL     OW29134   4.495   4.212   0.216
 7204SOL    HW229135   4.568   4.261   0.179
 7204SOL    HW329136   4.511   4.121   0.190
 7204SOL    MW429137   4.507   4.207   0.209
 7205SOL     OW29138   5.303   5.329   1.539
 7205SOL    HW229139   5.345   5.314   1.624
 7205SOL    HW329140   5.294   5.242   1.501
 7205SOL    MW429141   5.307   5.317   1.546
 7206SOL     OW29142   4.963   3.808   1.130
 7206SOL    HW229143   5.018   3.817   1.052
 7206SOL    HW329144   5.018   3.842   1.201
 7206SOL    MW429145   4.977   3.813   1.129
 7207SOL     OW29146   4.326   5.075   0.173
 7207SOL    HW229147   4.341   5.051   0.265
 7207SOL    HW329148   4.234   5.053   0.157
 7207SOL    MW429149   4.316   5.068   0.183
 7208SOL     OW29150   4.124   5.464   0.894
 7208SOL    HW229151   4.128   5.375   0.929
 7208SOL    HW329152   4.150   5.455   0.803
 7208SOL    MW429153   4.127   5.452   0.886
 7209SOL     OW29154   4.741   4.942   1.137
 7209SOL    HW229155   4.673   4.876   1.153
 7209SOL    HW329156   4.759   4.936   1.044
 7209SOL    MW429157   4.734   4.933   1.128
 7210SOL     OW29158   3.830   5.217   1.388
 7210SOL    HW229159   3.820   5.175   1.474
 7210SOL    HW329160   3.751   5.270   1.378
 7210SOL    MW429161   3.819   5.218   1.399
 7211SOL     OW29162   4.734   4.081   0.958
 7211SOL    HW229163   4.664   4.033   1.003
 7211SOL    HW329164   4.766   4.144   1.022
 7211SOL    MW429165   4.729   4.083   0.972
 7212SOL     OW29166   4.385   4.517   1.578
 7212SOL    HW229167   4.378   4.612   1.566
 7212SOL    HW329168   4.394   4.506   1.673
 7212SOL    MW429169   4.386   4.529   1.588
 7213SOL     OW29170   5.190   3.795   1.303
 7213SOL    HW229171   5.261   3.741   1.267
 7213SOL    HW329172   5.189   3.774   1.396
 7213SOL    MW429173   5.199   3.786   1.311
 7214SOL     OW29174   5.390   5.325   1.787
 7214SOL    HW229175   5.363   5.322   1.878
 7214SOL    HW329176   5.486   5.329   1.790
 7214SOL    MW429177   5.400   5.325   1.799
 7215SOL     OW29178   4.201   4.187   0.771
 7215SOL    HW229179   4.272   4.135   0.734
 7215SOL    HW329180   4.187   4.152   0.858
 7215SOL    MW429181   4.209   4.176   0.778
 7216SOL     OW29182   3.756   5.522   1.843
 7216SOL    HW229183   3.806   5.500   1.765
 7216SOL    HW329184   3.764   5.617   1.851
 7216SOL    MW429185   3.764   5.531   1.834
 7217SOL     OW29186   4.517   5.280   0.847
 7217SOL    HW229187   4.445   5.217   0.860
 7217SOL    HW329188   4.478   5.365   0.865
 7217SOL    MW429189   4.501   5.283   0.850
 7218SOL     OW29190   4.837   4.128   0.495
 7218SOL    HW229191   4.859   4.065   0.427
 7218SOL    HW329192   4.742   4.120   0.506
 7218SOL    MW429193   4.827   4.119   0.487
 7219SOL     OW29194   3.922   3.818   0.427
 7219SOL    HW229195   3.993   3.839   0.366
 7219SOL    HW329196   3.876   3.746   0.385
 7219SOL    MW429197   3.926   3.812   0.413
 7220SOL     OW29198   3.753   4.285   1.570
 7220SOL    HW229199   3.817   4.351   1.545
 7220SOL    HW329200   3.672   4.312   1.527
 7220SOL    MW429201   3.751   4.297   1.562
 7221SOL     OW29202   5.047   4.869   0.457
 7221SOL    HW229203   5.019   4.955   0.490
 7221SOL    HW329204   5.075   4.885   0.367
 7221SOL    MW429205   5.047   4.883   0.449
 7222SOL     OW29206   4.709   3.789   0.510
 7222SOL    HW229207   4.746   3.848   0.575
 7222SOL    HW329208   4.686   3.845   0.436
 7222SOL    MW429209   4.710   3.804   0.509
 7223SOL     OW29210   5.562   4.671   0.932
 7223SOL    HW229211   5.553   4.703   0.843
 7223SOL    HW329212   5.515   4.587   0.932
 7223SOL    MW429213   5.555   4.664   0.922
 7224SOL     OW29214   3.938   4.511   1.511
 7224SOL    HW229215   3.959   4.580   1.449
 7224SOL    HW329216   4.018   4.458   1.516
 7224SOL    MW429217   3.951   4.512   1.505
 7225SOL     OW29218   5.474   4.602   0.633
 7225SOL    HW229219   5.568   4.591   0.621
 7225SOL    HW329220   5.450   4.674   0.574
 7225SOL    MW429221   5.484   4.610   0.624
 7226SOL     OW29222   3.923   4.526   1.778
 7226SOL    HW229223   3.849   4.470   1.804
 7226SOL    HW329224   3.918   4.529   1.683
 7226SOL    MW429225   3.912   4.519   1.768
 7227SOL     OW29226   4.089   3.813   1.228
 7227SOL    HW229227   4.132   3.897   1.248
 7227SOL    HW329228   4.162   3.751   1.221
 7227SOL    MW429229   4.104   3.816   1.229
 7228SOL     OW29230   4.130   4.480   0.406
 7228SOL    HW229231   4.130   4.575   0.391
 7228SOL    HW329232   4.207   4.464   0.460
 7228SOL    MW429233   4.140   4.491   0.411
 7229SOL     OW29234   4.906   4.339   1.470
 7229SOL    HW229235   4.942   4.312   1.386
 7229SOL    HW329236   4.819   4.373   1.449
 7229SOL    MW429237   4.900   4.340   1.457
 7230SOL     OW29238   3.889   4.211   0.695
 7230SOL    HW229239   3.951   4.218   0.768
 7230SOL    HW329240   3.889   4.118   0.672
 7230SOL    MW429241   3.897   4.200   0.702
 7231SOL     OW29242   4.571   4.472   1.179
 7231SOL    HW229243   4.529   4.390   1.155
 7231SOL    HW329244   4.572   4.471   1.275
 7231SOL    MW429245   4.564   4.461   1.188
 7232SOL     OW29246   5.242   5.605   1.578
 7232SOL    HW229247   5.245   5.511   1.561
 7232SOL    HW329248   5.265   5.613   1.670
 7232SOL    MW429249   5.245   5.593   1.588
 7233SOL     OW29250   4.375   3.942   1.284
 7233SOL    HW229251   4.306   4.005   1.305
 7233SOL    HW329252   4.402   3.906   1.369
 7233SOL    MW429253   4.369   3.945   1.297
 7234SOL     OW29254   3.758   4.783   0.153
 7234SOL    HW229255   3.727   4.848   0.216
 7234SOL    HW329256   3.707   4.705   0.172
 7234SOL    MW429257   3.748   4.780   0.163
 7235SOL     OW29258   5.170   3.795   0.901
 7235SOL    HW229259   5.258   3.804   0.938
 7235SOL    HW329260   5.180   3.736   0.827
 7235SOL    MW429261   5.184   3.789   0.895
 7236SOL     OW29262   5.202   4.534   0.745
 7236SOL    HW229263   5.282   4.549   0.694
 7236SOL    HW329264   5.195   4.439   0.751
 7236SOL    MW429265   5.211   4.523   0.740
 7237SOL     OW29266   4.342   5.583   0.095
 7237SOL    HW229267   4.247   5.583   0.087
 7237SOL    HW329268   4.358   5.529   0.173
 7237SOL    MW429269   4.332   5.577   0.104
 7238SOL     OW29270   4.652   4.460   1.442
 7238SOL    HW229271   4.721   4.527   1.439
 7238SOL    HW329272   4.585   4.498   1.498
 7238SOL    MW429273   4.653   4.473   1.449
 7239SOL     OW29274   4.070   4.760   1.690
 7239SOL    HW229275   4.024   4.676   1.692
 7239SOL    HW329276   4.127   4.754   1.614
 7239SOL    MW429277   4.072   4.748   1.682
 7240SOL     OW29278   4.321   5.135   0.691
 7240SOL    HW229279   4.386   5.068   0.712
 7240SOL    HW329280   4.373   5.212   0.668
 7240SOL    MW429281   4.336   5.137   0.690
 7241SOL     OW29282   4.582   4.300   0.821
 7241SOL    HW229283   4.522   4.318   0.893
 7241SOL    HW329284   4.616   4.212   0.840
 7241SOL    MW429285   4.578   4.290   0.834
 7242SOL     OW29286   5.523   3.799   1.490
 7242SOL    HW229287   5.444   3.845   1.518
 7242SOL    HW329288   5.558   3.853   1.419
 7242SOL    MW429289   5.517   3.812   1.484
 7243SOL     OW29290   4.807   4.883   0.840
 7243SOL    HW229291   4.899   4.864   0.858
 7243SOL    HW329292   4.780   4.813   0.780
 7243SOL    MW429293   4.815   4.871   0.834
 7244SOL     OW29294   4.600   4.703   0.195
 7244SOL    HW229295   4.586   4.615   0.160
 7244SOL    HW329296   4.551   4.760   0.136
 7244SOL    MW429297   4.592   4.698   0.183
 7245SOL     OW29298   5.081   5.121   0.936
 7245SOL    HW229299   5.054   5.205   0.901
 7245SOL    HW329300   5.041   5.116   1.023
 7245SOL    MW429301   5.074   5.130   0.942
 7246SOL     OW29302   4.013   4.427   0.974
 7246SOL    HW229303   3.963   4.426   1.055
 7246SOL    HW329304   4.033   4.519   0.958
 7246SOL    MW429305   4.009   4.439   0.982
 7247SOL     OW29306   5.080   5.191   1.736
 7247SOL    HW229307   5.080   5.285   1.752
 7247SOL    HW329308   5.125   5.181   1.652
 7247SOL    MW429309   5.086   5.201   1.727
 7248SOL     OW29310   4.608   4.472   0.411
 7248SOL    HW229311   4.588   4.458   0.318
 7248SOL    HW329312   4.701   4.451   0.418
 7248SOL    MW429313   4.618   4.467   0.400
 7249SOL     OW29314   3.935   4.095   1.715
 7249SOL    HW229315   3.892   4.154   1.652
 7249SOL    HW329316   4.003   4.150   1.755
 7249SOL    MW429317   3.939   4.110   1.712
 7250SOL     OW29318   5.047   4.715   1.260
 7250SOL    HW229319   5.110   4.712   1.333
 7250SOL    HW329320   4.963   4.733   1.302
 7250SOL    MW429321   5.043   4.717   1.275
 7251SOL     OW29322   4.591   5.430   0.449
 7251SOL    HW229323   4.649   5.501   0.476
 7251SOL    HW329324   4.614   5.358   0.507
 7251SOL    MW429325   4.602   5.430   0.460
 7252SOL     OW29326   5.386   3.892   1.039
 7252SOL    HW229327   5.431   3.810   1.058
 7252SOL    HW329328   5.406   3.948   1.115
 7252SOL    MW429329   5.396   3.888   1.051
 7253SOL     OW29330   3.834   3.735   1.138
 7253SOL    HW229331   3.825   3.736   1.043
 7253SOL    HW329332   3.928   3.747   1.153
 7253SOL    MW429333   3.846   3.738   1.129
 7254SOL     OW29334   5.471   4.928   0.758
 7254SOL    HW229335   5.450   4.874   0.681
 7254SOL    HW329336   5.567   4.926   0.762
 7254SOL    MW429337   5.480   4.921   0.747
 7255SOL     OW29338   5.171   4.359   1.020
 7255SOL    HW229339   5.094   4.405   0.986
 7255SOL    HW329340   5.228   4.428   1.054
 7255SOL    MW429341   5.168   4.374   1.020
 7256SOL     OW29342   3.803   3.961   0.033
 7256SOL    HW229343   3.770   4.040   0.077
 7256SOL    HW329344   3.858   3.994  -0.038
 7256SOL    MW429345   3.806   3.975   0.030
 7257SOL     OW29346   3.837   5.218   0.222
 7257SOL    HW229347   3.854   5.302   0.264
 7257SOL    HW329348   3.872   5.227   0.134
 7257SOL    MW429349   3.842   5.231   0.216
 7258SOL     OW29350   5.472   4.575   2.125
 7258SOL    HW229351   5.513   4.517   2.190
 7258SOL    HW329352   5.379   4.567   2.142
 7258SOL    MW429353   5.466   4.567   2.135
 7259SOL     OW29354   5.338   4.507   3.120
 7259SOL    HW229355   5.293   4.574   3.171
 7259SOL    HW329356   5.426   4.543   3.106
 7259SOL    MW429357   5.344   4.520   3.124
 7260SOL     OW29358   5.382   5.461   2.496
 7260SOL    HW229359   5.394   5.407   2.574
 7260SOL    HW329360   5.419   5.409   2.425
 7260SOL    MW429361   5.388   5.446   2.497
 7261SOL     OW29362   4.761   5.346   3.497
 7261SOL    HW229363   4.802   5.382   3.418
 7261SOL    HW329364   4.796   5.257   3.504
 7261SOL    MW429365   4.772   5.339   3.488
 7262SOL     OW29366   5.318   4.901   3.101
 7262SOL    HW229367   5.239   4.866   3.059
 7262SOL    HW329368   5.345   4.973   3.045
 7262SOL    MW429369   5.311   4.906   3.088
 7263SOL     OW29370   4.550   4.214   2.367
 7263SOL    HW229371   4.525   4.302   2.395
 7263SOL    HW329372   4.547   4.217   2.271
 7263SOL    MW429373   4.546   4.226   2.359
 7264SOL     OW29374   3.992   4.242   2.295
 7264SOL    HW229375   4.024   4.330   2.277
 7264SOL    HW329376   3.980   4.240   2.390
 7264SOL    MW429377   3.995   4.254   2.307
 7265SOL     OW29378   4.070   4.655   3.196
 7265SOL    HW229379   4.133   4.602   3.147
 7265SOL    HW329380   4.051   4.729   3.139
 7265SOL    MW429381   4.076   4.657   3.183
 7266SOL     OW29382   4.391   3.997   2.382
 7266SOL    HW229383   4.449   4.073   2.384
 7266SOL    HW329384   4.326   4.018   2.315
 7266SOL    MW429385   4.390   4.009   2.373
 7267SOL     OW29386   4.503   5.265   3.460
 7267SOL    HW229387   4.587   5.291   3.499
 7267SOL    HW329388   4.527   5.209   3.386
 7267SOL    MW429389   4.517   5.261   3.455
 7268SOL     OW29390   4.255   4.428   2.548
 7268SOL    HW229391   4.240   4.348   2.599
 7268SOL    HW329392   4.337   4.463   2.582
 7268SOL    MW429393   4.263   4.420   2.560
 7269SOL     OW29394   4.592   5.114   3.233
 7269SOL    HW229395   4.556   5.180   3.173
 7269SOL    HW329396   4.520   5.052   3.246
 7269SOL    MW429397   4.578   5.114   3.227
 7270SOL     OW29398   4.397   4.254   2.925
 7270SOL    HW229399   4.303   4.250   2.943
 7270SOL    HW329400   4.427   4.163   2.934
 7270SOL    MW429401   4.388   4.242   2.928
 7271SOL     OW29402   4.143   4.668   2.829
 7271SOL    HW229403   4.098   4.675   2.745
 7271SOL    HW329404   4.123   4.751   2.873
 7271SOL    MW429405   4.135   4.680   2.823
 7272SOL     OW29406   5.105   4.906   2.073
 7272SOL    HW229407   5.023   4.942   2.039
 7272SOL    HW329408   5.173   4.949   2.022
 7272SOL    MW429409   5.103   4.916   2.061
 7273SOL     OW29410   5.530   4.048   2.722
 7273SOL    HW229411   5.467   4.028   2.791
 7273SOL    HW329412   5.520   3.977   2.659
 7273SOL    MW429413   5.520   4.035   2.723
 7274SOL     OW29414   4.154   4.020   2.234
 7274SOL    HW229415   4.128   3.982   2.150
 7274SOL    HW329416   4.091   4.090   2.250
 7274SOL    MW429417   4.143   4.023   2.225
 7275SOL     OW29418   3.989   4.981   2.271
 7275SOL    HW229419   3.937   5.049   2.227
 7275SOL    HW329420   3.986   4.907   2.211
 7275SOL    MW429421   3.981   4.980   2.258
 7276SOL     OW29422   5.586   4.217   2.024
 7276SOL    HW229423   5.495   4.219   2.052
 7276SOL    HW329424   5.631   4.279   2.082
 7276SOL    MW429425   5.579   4.225   2.034
 7277SOL     OW29426   5.331   4.820   2.374
 7277SOL    HW229427   5.241   4.820   2.409
 7277SOL    HW329428   5.324   4.866   2.291
 7277SOL    MW429429   5.318   4.826   2.368
 7278SOL     OW29430   5.131   4.455   3.446
 7278SOL    HW229431   5.200   4.393   3.423
 7278SOL    HW329432   5.056   4.429   3.393
 7278SOL    MW429433   5.131   4.442   3.437
 7279SOL     OW29434   4.867   4.842   3.438
 7279SOL    HW229435   4.852   4.935   3.423
 7279SOL    HW329436   4.962   4.832   3.438
 7279SOL    MW429437   4.876   4.852   3.435
 7280SOL     OW29438   4.663   4.266   3.639
 7280SOL    HW229439   4.753   4.267   3.606
 7280SOL    HW329440   4.622   4.191   3.597
 7280SOL    MW429441   4.669   4.256   3.630
 7281SOL     OW29442   5.238   4.798   2.766
 7281SOL    HW229443   5.241   4.732   2.697
 7281SOL    HW329444   5.323   4.841   2.762
 7281SOL    MW429445   5.250   4.794   2.757
 7282SOL     OW29446   5.523   5.021   2.186
 7282SOL    HW229447   5.479   5.062   2.261
 7282SOL    HW329448   5.580   5.089   2.151
 7282SOL    MW429449   5.525   5.035   2.191
 7283SOL     OW29450   4.443   4.070   3.589
 7283SOL    HW229451   4.453   3.996   3.529
 7283SOL    HW329452   4.479   4.039   3.672
 7283SOL    MW429453   4.449   4.056   3.591
 7284SOL     OW29454   5.563   3.799   2.553
 7284SOL    HW229455   5.617   3.750   2.615
 7284SOL    HW329456   5.506   3.733   2.514
 7284SOL    MW429457   5.563   3.783   2.555
 7285SOL     OW29458   3.895   5.497   2.081
 7285SOL    HW229459   3.924   5.587   2.073
 7285SOL    HW329460   3.845   5.480   2.002
 7285SOL    MW429461   3.893   5.505   2.070
 7286SOL     OW29462   4.682   3.752   2.966
 7286SOL    HW229463   4.641   3.830   2.928
 7286SOL    HW329464   4.776   3.770   2.961
 7286SOL    MW429465   4.688   3.764   2.961
 7287SOL     OW29466   5.299   5.305   2.052
 7287SOL    HW229467   5.347   5.374   2.098
 7287SOL    HW329468   5.220   5.349   2.021
 7287SOL    MW429469   5.294   5.319   2.055
 7288SOL     OW29470   4.697   4.430   1.996
 7288SOL    HW229471   4.699   4.377   1.917
 7288SOL    HW329472   4.785   4.467   2.002
 7288SOL    MW429473   4.709   4.429   1.985
 7289SOL     OW29474   5.311   4.356   2.332
 7289SOL    HW229475   5.350   4.356   2.419
 7289SOL    HW329476   5.252   4.432   2.332
 7289SOL    MW429477   5.308   4.367   2.343
 7290SOL     OW29478   4.628   4.723   3.461
 7290SOL    HW229479   4.605   4.703   3.551
 7290SOL    HW329480   4.713   4.767   3.466
 7290SOL    MW429481   4.635   4.726   3.473
 7291SOL     OW29482   4.708   3.860   3.221
 7291SOL    HW229483   4.714   3.822   3.134
 7291SOL    HW329484   4.697   3.954   3.206
 7291SOL    MW429485   4.709   3.868   3.209
 7292SOL     OW29486   4.797   4.349   3.055
 7292SOL    HW229487   4.872   4.378   3.002
 7292SOL    HW329488   4.729   4.414   3.039
 7292SOL    MW429489   4.798   4.361   3.045
 7293SOL     OW29490   5.347   4.317   3.332
 7293SOL    HW229491   5.328   4.226   3.311
 7293SOL    HW329492   5.325   4.366   3.253
 7293SOL    MW429493   5.342   4.310   3.319
 7294SOL     OW29494   5.489   5.411   3.236
 7294SOL    HW229495   5.417   5.373   3.287
 7294SOL    HW329496   5.506   5.496   3.277
 7294SOL    MW429497   5.483   5.416   3.248
 7295SOL     OW29498   4.794   4.055   3.438
 7295SOL    HW229499   4.760   4.094   3.357
 7295SOL    HW329500   4.772   3.963   3.431
 7295SOL    MW429501   4.787   4.048   3.428
 7296SOL     OW29502   5.203   4.869   3.514
 7296SOL    HW229503   5.285   4.910   3.544
 7296SOL    HW329504   5.166   4.831   3.594
 7296SOL    MW429505   5.209   4.870   3.529
 7297SOL     OW29506   5.498   4.242   2.498
 7297SOL    HW229507   5.587   4.211   2.515
 7297SOL    HW329508   5.441   4.182   2.546
 7297SOL    MW429509   5.501   4.230   2.507
 7298SOL     OW29510   3.924   3.956   2.527
 7298SOL    HW229511   3.915   3.896   2.453
 7298SOL    HW329512   3.857   3.927   2.590
 7298SOL    MW429513   3.914   3.943   2.525
 7299SOL     OW29514   3.871   4.129   2.890
 7299SOL    HW229515   3.843   4.220   2.899
 7299SOL    HW329516   3.808   4.090   2.829
 7299SOL    MW429517   3.858   4.135   2.884
 7300SOL     OW29518   5.458   4.987   3.593
 7300SOL    HW229519   5.508   4.913   3.625
 7300SOL    HW329520   5.404   5.014   3.668
 7300SOL    MW429521   5.458   4.981   3.606
 7301SOL     OW29522   4.466   4.882   1.903
 7301SOL    HW229523   4.388   4.828   1.890
 7301SOL    HW329524   4.437   4.955   1.956
 7301SOL    MW429525   4.452   4.884   1.908
 7302SOL     OW29526   5.592   4.622   3.095
 7302SOL    HW229527   5.608   4.660   3.008
 7302SOL    HW329528   5.626   4.688   3.156
 7302SOL    MW429529   5.599   4.635   3.091
 7303SOL     OW29530   5.384   5.331   2.764
 7303SOL    HW229531   5.413   5.398   2.825
 7303SOL    HW329532   5.365   5.255   2.819
 7303SOL    MW429533   5.386   5.331   2.779
 7304SOL     OW29534   3.855   4.404   3.060
 7304SOL    HW229535   3.917   4.434   3.126
 7304SOL    HW329536   3.789   4.473   3.054
 7304SOL    MW429537   3.854   4.417   3.067
 7305SOL     OW29538   5.271   5.072   1.913
 7305SOL    HW229539   5.218   5.121   1.849
 7305SOL    HW329540   5.302   5.138   1.974
 7305SOL    MW429541   5.269   5.086   1.911
 7306SOL     OW29542   4.496   3.961   1.968
 7306SOL    HW229543   4.444   3.881   1.956
 7306SOL    HW329544   4.583   3.938   1.936
 7306SOL    MW429545   4.499   3.947   1.962
 7307SOL     OW29546   4.002   4.832   3.019
 7307SOL    HW229547   4.055   4.907   3.044
 7307SOL    HW329548   3.921   4.870   2.985
 7307SOL    MW429549   3.998   4.847   3.019
 7308SOL     OW29550   4.542   4.736   3.007
 7308SOL    HW229551   4.570   4.645   3.019
 7308SOL    HW329552   4.471   4.730   2.943
 7308SOL    MW429553   4.535   4.724   3.002
 7309SOL     OW29554   3.857   4.601   2.425
 7309SOL    HW229555   3.948   4.616   2.452
 7309SOL    HW329556   3.860   4.522   2.371
 7309SOL    MW429557   3.869   4.593   2.423
 7310SOL     OW29558   4.093   4.309   3.679
 7310SOL    HW229559   4.040   4.389   3.686
 7310SOL    HW329560   4.163   4.321   3.744
 7310SOL    MW429561   4.095   4.322   3.687
 7311SOL     OW29562   4.479   3.859   3.386
 7311SOL    HW229563   4.456   3.767   3.388
 7311SOL    HW329564   4.565   3.861   3.343
 7311SOL    MW429565   4.486   3.849   3.382
 7312SOL     OW29566   4.163   4.383   3.425
 7312SOL    HW229567   4.243   4.433   3.411
 7312SOL    HW329568   4.154   4.377   3.520
 7312SOL    MW429569   4.172   4.389   3.435
 7313SOL     OW29570   5.140   3.908   3.696
 7313SOL    HW229571   5.196   3.835   3.722
 7313SOL    HW329572   5.110   3.946   3.778
 7313SOL    MW429573   5.144   3.903   3.709
 7314SOL     OW29574   4.698   5.256   2.499
 7314SOL    HW229575   4.781   5.210   2.483
 7314SOL    HW329576   4.688   5.255   2.595
 7314SOL    MW429577   4.708   5.249   2.509
 7315SOL     OW29578   5.530   4.401   2.813
 7315SOL    HW229579   5.619   4.431   2.795
 7315SOL    HW329580   5.510   4.341   2.742
 7315SOL    MW429581   5.539   4.398   2.802
 7316SOL     OW29582   5.381   4.580   3.693
 7316SOL    HW229583   5.436   4.504   3.674
 7316SOL    HW329584   5.383   4.588   3.788
 7316SOL    MW429585   5.389   4.571   3.701
 7317SOL     OW29586   4.869   3.958   2.127
 7317SOL    HW229587   4.802   3.934   2.064
 7317SOL    HW329588   4.934   4.007   2.076
 7317SOL    MW429589   4.869   3.960   2.112
 7318SOL     OW29590   4.676   4.142   3.212
 7318SOL    HW229591   4.595   4.183   3.240
 7318SOL    HW329592   4.723   4.210   3.164
 7318SOL    MW429593   4.671   4.157   3.210
 7319SOL     OW29594   4.388   4.675   2.639
 7319SOL    HW229595   4.299   4.666   2.672
 7319SOL    HW329596   4.392   4.765   2.607
 7319SOL    MW429597   4.377   4.686   2.639
 7320SOL     OW29598   5.187   4.258   2.634
 7320SOL    HW229599   5.132   4.179   2.633
 7320SOL    HW329600   5.169   4.299   2.718
 7320SOL    MW429601   5.177   4.253   2.643
 7321SOL     OW29602   4.158   3.945   3.451
 7321SOL    HW229603   4.079   3.963   3.503
 7321SOL    HW329604   4.153   4.007   3.378
 7321SOL    MW429605   4.148   3.955   3.448
 7322SOL     OW29606   5.107   5.326   3.089
 7322SOL    HW229607   5.032   5.372   3.127
 7322SOL    HW329608   5.089   5.233   3.106
 7322SOL    MW429609   5.096   5.320   3.097
 7323SOL     OW29610   5.111   5.534   2.519
 7323SOL    HW229611   5.054   5.487   2.458
 7323SOL    HW329612   5.197   5.495   2.506
 7323SOL    MW429613   5.114   5.525   2.509
 7324SOL     OW29614   5.064   4.010   2.650
 7324SOL    HW229615   5.092   3.942   2.711
 7324SOL    HW329616   4.978   3.981   2.620
 7324SOL    MW429617   5.057   3.997   2.654
 7325SOL     OW29618   4.369   5.020   3.566
 7325SOL    HW229619   4.417   5.103   3.553
 7325SOL    HW329620   4.426   4.968   3.622
 7325SOL    MW429621   4.383   5.024   3.572
 7326SOL     OW29622   3.945   5.262   3.706
 7326SOL    HW229623   4.001   5.186   3.721
 7326SOL    HW329624   3.894   5.240   3.628
 7326SOL    MW429625   3.945   5.249   3.697
 7327SOL     OW29626   5.044   4.114   1.985
 7327SOL    HW229627   5.017   4.180   1.921
 7327SOL    HW329628   5.114   4.157   2.035
 7327SOL    MW429629   5.049   4.127   1.982
 7328SOL     OW29630   4.712   3.819   1.922
 7328SOL    HW229631   4.768   3.811   1.844
 7328SOL    HW329632   4.689   3.729   1.944
 7328SOL    MW429633   4.717   3.806   1.915
 7329SOL     OW29634   5.217   4.670   2.127
 7329SOL    HW229635   5.184   4.759   2.117
 7329SOL    HW329636   5.182   4.641   2.212
 7329SOL    MW429637   5.207   4.679   2.138
 7330SOL     OW29638   4.830   5.099   3.315
 7330SOL    HW229639   4.741   5.105   3.283
 7330SOL    HW329640   4.874   5.178   3.283
 7330SOL    MW429641   4.825   5.109   3.307
 7331SOL     OW29642   4.123   3.767   3.657
 7331SOL    HW229643   4.051   3.732   3.605
 7331SOL    HW329644   4.181   3.808   3.592
 7331SOL    MW429645   4.121   3.768   3.642
 7332SOL     OW29646   5.587   4.786   3.310
 7332SOL    HW229647   5.502   4.799   3.269
 7332SOL    HW329648   5.567   4.750   3.397
 7332SOL    MW429649   5.574   4.782   3.315
 7333SOL     OW29650   4.211   4.708   1.919
 7333SOL    HW229651   4.134   4.721   1.975
 7333SOL    HW329652   4.175   4.672   1.838
 7333SOL    MW429653   4.197   4.704   1.916
 7334SOL     OW29654   4.864   4.681   2.162
 7334SOL    HW229655   4.774   4.702   2.137
 7334SOL    HW329656   4.891   4.754   2.218
 7334SOL    MW429657   4.856   4.693   2.165
 7335SOL     OW29658   5.228   4.040   3.256
 7335SOL    HW229659   5.175   4.042   3.336
 7335SOL    HW329660   5.213   3.953   3.219
 7335SOL    MW429661   5.220   4.030   3.261
 7336SOL     OW29662   5.564   3.964   3.129
 7336SOL    HW229663   5.545   4.031   3.064
 7336SOL    HW329664   5.621   3.902   3.084
 7336SOL    MW429665   5.568   3.965   3.115
 7337SOL     OW29666   3.810   5.122   3.517
 7337SOL    HW229667   3.854   5.055   3.463
 7337SOL    HW329668   3.725   5.084   3.537
 7337SOL    MW429669   3.805   5.108   3.513
 7338SOL     OW29670   4.493   3.797   2.569
 7338SOL    HW229671   4.422   3.858   2.551
 7338SOL    HW329672   4.544   3.794   2.488
 7338SOL    MW429673   4.489   3.803   2.556
 7339SOL     OW29674   4.846   5.430   3.227
 7339SOL    HW229675   4.766   5.415   3.177
 7339SOL    HW329676   4.853   5.525   3.234
 7339SOL    MW429677   4.837   5.441   3.221
 7340SOL     OW29678   5.368   5.490   2.992
 7340SOL    HW229679   5.411   5.460   3.072
 7340SOL    HW329680   5.287   5.438   2.989
 7340SOL    MW429681   5.363   5.479   3.002
 7341SOL     OW29682   4.453   4.454   3.699
 7341SOL    HW229683   4.523   4.396   3.671
 7341SOL    HW329684   4.396   4.399   3.754
 7341SOL    MW429685   4.455   4.441   3.703
 7342SOL     OW29686   5.240   4.666   3.332
 7342SOL    HW229687   5.245   4.719   3.412
 7342SOL    HW329688   5.202   4.583   3.360
 7342SOL    MW429689   5.236   4.661   3.347
 7343SOL     OW29690   4.880   3.801   3.578
 7343SOL    HW229691   4.875   3.708   3.559
 7343SOL    HW329692   4.963   3.812   3.624
 7343SOL    MW429693   4.888   3.790   3.582
 7344SOL     OW29694   4.254   4.321   2.032
 7344SOL    HW229695   4.220   4.377   2.102
 7344SOL    HW329696   4.325   4.271   2.072
 7344SOL    MW429697   4.260   4.322   2.046
 7345SOL     OW29698   5.350   5.072   2.854
 7345SOL    HW229699   5.385   5.054   2.767
 7345SOL    HW329700   5.255   5.073   2.841
 7345SOL    MW429701   5.342   5.069   2.841
 7346SOL     OW29702   4.779   4.720   3.223
 7346SOL    HW229703   4.822   4.755   3.301
 7346SOL    HW329704   4.762   4.797   3.169
 7346SOL    MW429705   4.782   4.735   3.226
 7347SOL     OW29706   5.310   4.207   2.096
 7347SOL    HW229707   5.302   4.278   2.033
 7347SOL    HW329708   5.328   4.251   2.179
 7347SOL    MW429709   5.311   4.221   2.098
 7348SOL     OW29710   4.170   3.862   2.525
 7348SOL    HW229711   4.220   3.905   2.456
 7348SOL    HW329712   4.085   3.906   2.525
 7348SOL    MW429713   4.167   3.875   2.516
 7349SOL     OW29714   4.437   4.251   3.352
 7349SOL    HW229715   4.409   4.339   3.376
 7349SOL    HW329716   4.406   4.195   3.423
 7349SOL    MW429717   4.429   4.254   3.364
 7350SOL     OW29718   4.979   4.469   2.071
 7350SOL    HW229719   5.026   4.487   1.990
 7350SOL    HW329720   4.945   4.553   2.099
 7350SOL    MW429721   4.981   4.483   2.064
 7351SOL     OW29722   4.092   4.647   2.565
 7351SOL    HW229723   4.150   4.703   2.513
 7351SOL    HW329724   4.136   4.562   2.567
 7351SOL    MW429725   4.105   4.644   2.558
 7352SOL     OW29726   5.232   3.999   2.402
 7352SOL    HW229727   5.154   3.949   2.427
 7352SOL    HW329728   5.203   4.090   2.402
 7352SOL    MW429729   5.218   4.003   2.405
 7353SOL     OW29730   4.818   3.961   2.561
 7353SOL    HW229731   4.838   4.036   2.505
 7353SOL    HW329732   4.798   4.000   2.646
 7353SOL    MW429733   4.819   3.977   2.565
 7354SOL     OW29734   5.578   4.734   3.580
 7354SOL    HW229735   5.491   4.714   3.616
 7354SOL    HW329736   5.632   4.660   3.605
 7354SOL    MW429737   5.573   4.723   3.588
 7355SOL     OW29738   3.754   4.373   2.284
 7355SOL    HW229739   3.694   4.345   2.354
 7355SOL    HW329740   3.828   4.313   2.290
 7355SOL    MW429741   3.756   4.362   2.293
 7356SOL     OW29742   5.322   5.585   3.718
 7356SOL    HW229743   5.367   5.509   3.683
 7356SOL    HW329744   5.360   5.598   3.805
 7356SOL    MW429745   5.332   5.578   3.724
 7357SOL     OW29746   4.922   5.104   2.444
 7357SOL    HW229747   4.945   5.055   2.522
 7357SOL    HW329748   5.003   5.146   2.416
 7357SOL    MW429749   4.935   5.104   2.451
 7358SOL     OW29750   4.180   4.112   3.173
 7358SOL    HW229751   4.213   4.193   3.213
 7358SOL    HW329752   4.153   4.138   3.085
 7358SOL    MW429753   4.179   4.126   3.167
 7359SOL     OW29754   4.134   4.079   2.909
 7359SOL    HW229755   4.164   3.993   2.880
 7359SOL    HW329756   4.039   4.072   2.912
 7359SOL    MW429757   4.126   4.068   2.907
 7360SOL     OW29758   4.963   4.288   3.600
 7360SOL    HW229759   5.015   4.223   3.553
 7360SOL    HW329760   4.921   4.339   3.530
 7360SOL    MW429761   4.964   4.285   3.583
 7361SOL     OW29762   5.062   4.083   3.461
 7361SOL    HW229763   4.969   4.067   3.448
 7361SOL    HW329764   5.088   4.021   3.529
 7361SOL    MW429765   5.052   4.073   3.468
 7362SOL     OW29766   4.277   3.857   2.800
 7362SOL    HW229767   4.287   3.766   2.826
 7362SOL    HW329768   4.233   3.853   2.715
 7362SOL    MW429769   4.273   3.845   2.792
 7363SOL     OW29770   4.371   5.472   3.346
 7363SOL    HW229771   4.288   5.457   3.391
 7363SOL    HW329772   4.430   5.405   3.381
 7363SOL    MW429773   4.369   5.462   3.356
 7364SOL     OW29774   5.428   4.179   2.971
 7364SOL    HW229775   5.361   4.212   3.031
 7364SOL    HW329776   5.471   4.257   2.937
 7364SOL    MW429777   5.426   4.194   2.975
 7365SOL     OW29778   5.606   4.899   2.941
 7365SOL    HW229779   5.599   4.839   2.866
 7365SOL    HW329780   5.532   4.959   2.930
 7365SOL    MW429781   5.596   4.899   2.930
 7366SOL     OW29782   4.988   4.761   2.859
 7366SOL    HW229783   5.002   4.733   2.950
 7366SOL    HW329784   5.074   4.792   2.831
 7366SOL    MW429785   5.001   4.762   2.868
 7367SOL     OW29786   5.071   4.256   3.138
 7367SOL    HW229787   5.092   4.257   3.045
 7367SOL    HW329788   5.116   4.178   3.171
 7367SOL    MW429789   5.078   4.246   3.130
 7368SOL     OW29790   5.564   4.387   3.680
 7368SOL    HW229791   5.601   4.332   3.749
 7368SOL    HW329792   5.589   4.344   3.598
 7368SOL    MW429793   5.571   4.375   3.679
 7369SOL     OW29794   5.111   4.685   3.731
 7369SOL    HW229795   5.177   4.633   3.685
 7369SOL    HW329796   5.131   4.672   3.824
 7369SOL    MW429797   5.122   4.676   3.738
 7370SOL     OW29798   5.062   3.771   2.080
 7370SOL    HW229799   5.136   3.815   2.123
 7370SOL    HW329800   4.986   3.825   2.102
 7370SOL    MW429801   5.062   3.783   2.088
 7371SOL     OW29802   5.122   4.546   2.358
 7371SOL    HW229803   5.037   4.516   2.328
 7371SOL    HW329804   5.114   4.553   2.453
 7371SOL    MW429805   5.110   4.544   2.367
 7372SOL     OW29806   4.482   3.989   2.912
 7372SOL    HW229807   4.455   3.991   3.003
 7372SOL    HW329808   4.412   3.941   2.867
 7372SOL    MW429809   4.470   3.985   2.919
 7373SOL     OW29810   5.238   5.066   3.306
 7373SOL    HW229811   5.223   4.995   3.369
 7373SOL    HW329812   5.284   5.024   3.234
 7373SOL    MW429813   5.244   5.050   3.306
 7374SOL     OW29814   4.312   4.797   3.423
 7374SOL    HW229815   4.349   4.802   3.335
 7374SOL    HW329816   4.351   4.870   3.470
 7374SOL    MW429817   4.322   4.807   3.418
 7375SOL     OW29818   4.492   4.840   3.235
 7375SOL    HW229819   4.551   4.786   3.288
 7375SOL    HW329820   4.507   4.812   3.145
 7375SOL    MW429821   4.502   4.829   3.231
 7376SOL     OW29822   4.495   4.212   2.084
 7376SOL    HW229823   4.568   4.261   2.047
 7376SOL    HW329824   4.511   4.121   2.058
 7376SOL    MW429825   4.507   4.207   2.077
 7377SOL     OW29826   5.303   5.329   3.407
 7377SOL    HW229827   5.345   5.314   3.492
 7377SOL    HW329828   5.294   5.242   3.369
 7377SOL    MW429829   5.307   5.317   3.414
 7378SOL     OW29830   4.963   3.808   2.998
 7378SOL    HW229831   5.018   3.817   2.920
 7378SOL    HW329832   5.018   3.842   3.069
 7378SOL    MW429833   4.977   3.813   2.997
 7379SOL     OW29834   3.970   4.721   2.182
 7379SOL    HW229835   3.907   4.737   2.111
 7379SOL    HW329836   3.917   4.684   2.253
 7379SOL    MW429837   3.955   4.718   2.182
 7380SOL     OW29838   4.741   4.942   3.005
 7380SOL    HW229839   4.673   4.876   3.021
 7380SOL    HW329840   4.759   4.936   2.912
 7380SOL    MW429841   4.734   4.933   2.996
 7381SOL     OW29842   4.734   4.081   2.826
 7381SOL    HW229843   4.664   4.033   2.871
 7381SOL    HW329844   4.766   4.144   2.890
 7381SOL    MW429845   4.729   4.083   2.840
 7382SOL     OW29846   4.385   4.517   3.446
 7382SOL    HW229847   4.378   4.612   3.434
 7382SOL    HW329848   4.394   4.506   3.541
 7382SOL    MW429849   4.386   4.529   3.456
 7383SOL     OW29850   4.106   5.032   3.704
 7383SOL    HW229851   4.178   5.034   3.641
 7383SOL    HW329852   4.076   4.941   3.703
 7383SOL    MW429853   4.111   5.021   3.696
 7384SOL     OW29854   5.190   3.795   3.171
 7384SOL    HW229855   5.261   3.741   3.135
 7384SOL    HW329856   5.189   3.774   3.264
 7384SOL    MW429857   5.199   3.786   3.179
 7385SOL     OW29858   5.390   5.325   3.655
 7385SOL    HW229859   5.363   5.322   3.746
 7385SOL    HW329860   5.486   5.329   3.658
 7385SOL    MW429861   5.400   5.325   3.667
 7386SOL     OW29862   4.201   4.187   2.639
 7386SOL    HW229863   4.272   4.135   2.602
 7386SOL    HW329864   4.187   4.152   2.726
 7386SOL    MW429865   4.209   4.176   2.646
 7387SOL     OW29866   4.837   4.128   2.363
 7387SOL    HW229867   4.859   4.065   2.295
 7387SOL    HW329868   4.742   4.120   2.374
 7387SOL    MW429869   4.827   4.119   2.355
 7388SOL     OW29870   3.922   3.818   2.295
 7388SOL    HW229871   3.993   3.839   2.234
 7388SOL    HW329872   3.876   3.746   2.253
 7388SOL    MW429873   3.926   3.812   2.281
 7389SOL     OW29874   5.491   5.192   2.395
 7389SOL    HW229875   5.461   5.125   2.456
 7389SOL    HW329876   5.585   5.198   2.409
 7389SOL    MW429877   5.499   5.184   2.405
 7390SOL     OW29878   5.047   4.869   2.325
 7390SOL    HW229879   5.019   4.955   2.358
 7390SOL    HW329880   5.075   4.885   2.235
 7390SOL    MW429881   5.047   4.883   2.317
 7391SOL     OW29882   4.709   3.789   2.378
 7391SOL    HW229883   4.746   3.848   2.443
 7391SOL    HW329884   4.686   3.845   2.304
 7391SOL    MW429885   4.710   3.804   2.377
 7392SOL     OW29886   5.562   4.671   2.800
 7392SOL    HW229887   5.553   4.703   2.711
 7392SOL    HW329888   5.515   4.587   2.800
 7392SOL    MW429889   5.555   4.664   2.790
 7393SOL     OW29890   5.474   4.602   2.501
 7393SOL    HW229891   5.568   4.591   2.489
 7393SOL    HW329892   5.450   4.674   2.442
 7393SOL    MW429893   5.484   4.610   2.492
 7394SOL     OW29894   3.923   4.526   3.646
 7394SOL    HW229895   3.849   4.470   3.672
 7394SOL    HW329896   3.918   4.529   3.551
 7394SOL    MW429897   3.912   4.519   3.636
 7395SOL     OW29898   4.089   3.813   3.096
 7395SOL    HW229899   4.132   3.897   3.116
 7395SOL    HW329900   4.162   3.751   3.089
 7395SOL    MW429901   4.104   3.816   3.097
 7396SOL     OW29902   4.130   4.480   2.274
 7396SOL    HW229903   4.130   4.575   2.259
 7396SOL    HW329904   4.207   4.464   2.328
 7396SOL    MW429905   4.140   4.491   2.279
 7397SOL     OW29906   4.906   4.339   3.338
 7397SOL    HW229907   4.942   4.312   3.254
 7397SOL    HW329908   4.819   4.373   3.317
 7397SOL    MW429909   4.900   4.340   3.325
 7398SOL     OW29910   3.889   4.211   2.563
 7398SOL    HW229911   3.951   4.218   2.636
 7398SOL    HW329912   3.889   4.118   2.540
 7398SOL    MW429913   3.897   4.200   2.570
 7399SOL     OW29914   5.436   5.551   2.095
 7399SOL    HW229915   5.503   5.584   2.035
 7399SOL    HW329916   5.393   5.630   2.129
 7399SOL    MW429917   5.438   5.566   2.091
 7400SOL     OW29918   4.571   4.472   3.047
 7400SOL    HW229919   4.529   4.390   3.023
 7400SOL    HW329920   4.572   4.471   3.143
 7400SOL    MW429921   4.564   4.461   3.056
 7401SOL     OW29922   5.242   5.605   3.446
 7401SOL    HW229923   5.245   5.511   3.429
 7401SOL    HW329924   5.265   5.613   3.538
 7401SOL    MW429925   5.245   5.593   3.456
 7402SOL     OW29926   4.375   3.942   3.152
 7402SOL    HW229927   4.306   4.005   3.173
 7402SOL    HW329928   4.402   3.906   3.237
 7402SOL    MW429929   4.369   3.945   3.165
 7403SOL     OW29930   3.758   4.783   2.021
 7403SOL    HW229931   3.727   4.848   2.084
 7403SOL    HW329932   3.707   4.705   2.040
 7403SOL    MW429933   3.748   4.780   2.031
 7404SOL     OW29934   5.170   3.795   2.769
 7404SOL    HW229935   5.258   3.804   2.806
 7404SOL    HW329936   5.180   3.736   2.695
 7404SOL    MW429937   5.184   3.789   2.763
 7405SOL     OW29938   5.202   4.534   2.613
 7405SOL    HW229939   5.282   4.549   2.562
 7405SOL    HW329940   5.195   4.439   2.619
 7405SOL    MW429941   5.211   4.523   2.608
 7406SOL     OW29942   4.652   4.460   3.310
 7406SOL    HW229943   4.721   4.527   3.307
 7406SOL    HW329944   4.585   4.498   3.366
 7406SOL    MW429945   4.653   4.473   3.317
 7407SOL     OW29946   4.070   4.760   3.558
 7407SOL    HW229947   4.024   4.676   3.560
 7407SOL    HW329948   4.127   4.754   3.482
 7407SOL    MW429949   4.072   4.748   3.550
 7408SOL     OW29950   5.187   4.403   1.879
 7408SOL    HW229951   5.115   4.379   1.821
 7408SOL    HW329952   5.253   4.440   1.821
 7408SOL    MW429953   5.186   4.405   1.864
 7409SOL     OW29954   4.582   4.300   2.689
 7409SOL    HW229955   4.522   4.318   2.761
 7409SOL    HW329956   4.616   4.212   2.708
 7409SOL    MW429957   4.578   4.290   2.702
 7410SOL     OW29958   5.523   3.799   3.358
 7410SOL    HW229959   5.444   3.845   3.386
 7410SOL    HW329960   5.558   3.853   3.287
 7410SOL    MW429961   5.517   3.812   3.352
 7411SOL     OW29962   4.600   4.703   2.063
 7411SOL    HW229963   4.586   4.615   2.028
 7411SOL    HW329964   4.551   4.760   2.004
 7411SOL    MW429965   4.592   4.698   2.051
 7412SOL     OW29966   5.081   5.121   2.804
 7412SOL    HW229967   5.054   5.205   2.769
 7412SOL    HW329968   5.041   5.116   2.891
 7412SOL    MW429969   5.074   5.130   2.810
 7413SOL     OW29970   5.000   5.069   3.072
 7413SOL    HW229971   5.011   5.036   3.161
 7413SOL    HW329972   4.919   5.028   3.041
 7413SOL    MW429973   4.990   5.061   3.078
 7414SOL     OW29974   4.013   4.427   2.842
 7414SOL    HW229975   3.963   4.426   2.923
 7414SOL    HW329976   4.033   4.519   2.826
 7414SOL    MW429977   4.009   4.439   2.850
 7415SOL     OW29978   5.080   5.191   3.604
 7415SOL    HW229979   5.080   5.285   3.620
 7415SOL    HW329980   5.125   5.181   3.520
 7415SOL    MW429981   5.086   5.201   3.595
 7416SOL     OW29982   5.319   3.909   2.165
 7416SOL    HW229983   5.312   3.913   2.260
 7416SOL    HW329984   5.331   4.000   2.138
 7416SOL    MW429985   5.320   3.922   2.173
 7417SOL     OW29986   3.935   4.095   3.583
 7417SOL    HW229987   3.892   4.154   3.520
 7417SOL    HW329988   4.003   4.150   3.623
 7417SOL    MW429989   3.939   4.110   3.580
 7418SOL     OW29990   5.047   4.715   3.128
 7418SOL    HW229991   5.110   4.712   3.201
 7418SOL    HW329992   4.963   4.733   3.170
 7418SOL    MW429993   5.043   4.717   3.143
 7419SOL     OW29994   5.386   3.892   2.907
 7419SOL    HW229995   5.431   3.810   2.926
 7419SOL    HW329996   5.406   3.948   2.983
 7419SOL    MW429997   5.396   3.888   2.919
 7420SOL     OW29998   3.834   3.735   3.006
 7420SOL    HW229999   3.825   3.736   2.911
 7420SOL    HW330000   3.928   3.747   3.021
 7420SOL    MW430001   3.846   3.738   2.997
 7421SOL     OW30002   5.471   4.928   2.626
 7421SOL    HW230003   5.450   4.874   2.549
 7421SOL    HW330004   5.567   4.926   2.630
 7421SOL    MW430005   5.480   4.921   2.615
 7422SOL     OW30006   4.163   5.073   3.369
 7422SOL    HW230007   4.084   5.023   3.392
 7422SOL    HW330008   4.233   5.032   3.419
 7422SOL    MW430009   4.161   5.061   3.379
 7423SOL     OW30010   4.047   3.862   2.052
 7423SOL    HW230011   3.976   3.917   2.020
 7423SOL    HW330012   4.089   3.828   1.973
 7423SOL    MW430013   4.043   3.864   2.038
 7424SOL     OW30014   5.171   4.359   2.888
 7424SOL    HW230015   5.094   4.405   2.854
 7424SOL    HW330016   5.228   4.428   2.922
 7424SOL    MW430017   5.168   4.374   2.888
 7425SOL     OW30018   3.803   3.961   1.901
 7425SOL    HW230019   3.770   4.040   1.945
 7425SOL    HW330020   3.858   3.994   1.830
 7425SOL    MW430021   3.806   3.975   1.898
 7426SOL     OW30022   3.837   5.218   2.090
 7426SOL    HW230023   3.854   5.302   2.132
 7426SOL    HW330024   3.872   5.227   2.002
 7426SOL    MW430025   3.842   5.231   2.084
 7427SOL     OW30026   5.472   4.575   3.993
 7427SOL    HW230027   5.513   4.517   4.058
 7427SOL    HW330028   5.379   4.567   4.010
 7427SOL    MW430029   5.466   4.567   4.003
 7428SOL     OW30030   5.338   4.507   4.988
 7428SOL    HW230031   5.293   4.574   5.039
 7428SOL    HW330032   5.426   4.543   4.974
 7428SOL    MW430033   5.344   4.520   4.992
 7429SOL     OW30034   4.266   4.758   4.222
 7429SOL    HW230035   4.356   4.733   4.206
 7429SOL    HW330036   4.262   4.851   4.199
 7429SOL    MW430037   4.278   4.767   4.217
 7430SOL     OW30038   5.382   5.461   4.364
 7430SOL    HW230039   5.394   5.407   4.442
 7430SOL    HW330040   5.419   5.409   4.293
 7430SOL    MW430041   5.388   5.446   4.365
 7431SOL     OW30042   4.761   5.346   5.365
 7431SOL    HW230043   4.802   5.382   5.286
 7431SOL    HW330044   4.796   5.257   5.372
 7431SOL    MW430045   4.772   5.339   5.356
 7432SOL     OW30046   5.318   4.901   4.969
 7432SOL    HW230047   5.239   4.866   4.927
 7432SOL    HW330048   5.345   4.973   4.913
 7432SOL    MW430049   5.311   4.906   4.956
 7433SOL     OW30050   4.550   4.214   4.235
 7433SOL    HW230051   4.525   4.302   4.263
 7433SOL    HW330052   4.547   4.217   4.139
 7433SOL    MW430053   4.546   4.226   4.227
 7434SOL     OW30054   3.992   4.242   4.163
 7434SOL    HW230055   4.024   4.330   4.145
 7434SOL    HW330056   3.980   4.240   4.258
 7434SOL    MW430057   3.995   4.254   4.175
 7435SOL     OW30058   4.070   4.655   5.064
 7435SOL    HW230059   4.133   4.602   5.015
 7435SOL    HW330060   4.051   4.729   5.007
 7435SOL    MW430061   4.076   4.657   5.051
 7436SOL     OW30062   4.391   3.997   4.250
 7436SOL    HW230063   4.449   4.073   4.252
 7436SOL    HW330064   4.326   4.018   4.183
 7436SOL    MW430065   4.390   4.009   4.241
 7437SOL     OW30066   4.478   4.924   4.425
 7437SOL    HW230067   4.558   4.927   4.477
 7437SOL    HW330068   4.506   4.891   4.339
 7437SOL    MW430069   4.492   4.920   4.420
 7438SOL     OW30070   4.503   5.265   5.328
 7438SOL    HW230071   4.587   5.291   5.367
 7438SOL    HW330072   4.527   5.209   5.254
 7438SOL    MW430073   4.517   5.261   5.323
 7439SOL     OW30074   4.255   4.428   4.416
 7439SOL    HW230075   4.240   4.348   4.467
 7439SOL    HW330076   4.337   4.463   4.450
 7439SOL    MW430077   4.263   4.420   4.428
 7440SOL     OW30078   4.592   5.114   5.101
 7440SOL    HW230079   4.556   5.180   5.041
 7440SOL    HW330080   4.520   5.052   5.114
 7440SOL    MW430081   4.578   5.114   5.095
 7441SOL     OW30082   4.397   4.254   4.793
 7441SOL    HW230083   4.303   4.250   4.811
 7441SOL    HW330084   4.427   4.163   4.802
 7441SOL    MW430085   4.388   4.242   4.796
 7442SOL     OW30086   4.143   4.668   4.697
 7442SOL    HW230087   4.098   4.675   4.613
 7442SOL    HW330088   4.123   4.751   4.741
 7442SOL    MW430089   4.135   4.680   4.691
 7443SOL     OW30090   3.840   5.514   4.572
 7443SOL    HW230091   3.929   5.506   4.607
 7443SOL    HW330092   3.804   5.426   4.577
 7443SOL    MW430093   3.847   5.501   4.577
 7444SOL     OW30094   5.105   4.906   3.941
 7444SOL    HW230095   5.023   4.942   3.907
 7444SOL    HW330096   5.173   4.949   3.890
 7444SOL    MW430097   5.103   4.916   3.929
 7445SOL     OW30098   4.104   5.041   4.607
 7445SOL    HW230099   4.080   5.094   4.683
 7445SOL    HW330100   4.160   5.099   4.555
 7445SOL    MW430101   4.108   5.056   4.610
 7446SOL     OW30102   4.666   4.685   4.417
 7446SOL    HW230103   4.580   4.672   4.457
 7446SOL    HW330104   4.719   4.612   4.449
 7446SOL    MW430105   4.662   4.674   4.426
 7447SOL     OW30106   4.074   5.337   5.202
 7447SOL    HW230107   3.982   5.313   5.187
 7447SOL    HW330108   4.118   5.254   5.219
 7447SOL    MW430109   4.068   5.322   5.201
 7448SOL     OW30110   4.657   5.047   4.134
 7448SOL    HW230111   4.634   5.109   4.202
 7448SOL    HW330112   4.614   4.965   4.160
 7448SOL    MW430113   4.649   5.043   4.145
 7449SOL     OW30114   5.530   4.048   4.590
 7449SOL    HW230115   5.467   4.028   4.659
 7449SOL    HW330116   5.520   3.977   4.527
 7449SOL    MW430117   5.520   4.035   4.591
 7450SOL     OW30118   4.154   4.020   4.102
 7450SOL    HW230119   4.128   3.982   4.018
 7450SOL    HW330120   4.091   4.090   4.118
 7450SOL    MW430121   4.143   4.023   4.093
 7451SOL     OW30122   4.651   5.444   3.917
 7451SOL    HW230123   4.606   5.460   4.000
 7451SOL    HW330124   4.582   5.409   3.859
 7451SOL    MW430125   4.637   5.441   3.919
 7452SOL     OW30126   5.586   4.217   3.892
 7452SOL    HW230127   5.495   4.219   3.920
 7452SOL    HW330128   5.631   4.279   3.950
 7452SOL    MW430129   5.579   4.225   3.902
 7453SOL     OW30130   5.331   4.820   4.242
 7453SOL    HW230131   5.241   4.820   4.277
 7453SOL    HW330132   5.324   4.866   4.159
 7453SOL    MW430133   5.318   4.826   4.236
 7454SOL     OW30134   5.131   4.455   5.314
 7454SOL    HW230135   5.200   4.393   5.291
 7454SOL    HW330136   5.056   4.429   5.261
 7454SOL    MW430137   5.131   4.442   5.305
 7455SOL     OW30138   3.872   5.335   4.866
 7455SOL    HW230139   3.855   5.281   4.943
 7455SOL    HW330140   3.860   5.425   4.896
 7455SOL    MW430141   3.869   5.339   4.880
 7456SOL     OW30142   4.867   4.842   5.306
 7456SOL    HW230143   4.852   4.935   5.291
 7456SOL    HW330144   4.962   4.832   5.306
 7456SOL    MW430145   4.876   4.852   5.303
 7457SOL     OW30146   4.663   4.266   5.507
 7457SOL    HW230147   4.753   4.267   5.474
 7457SOL    HW330148   4.622   4.191   5.465
 7457SOL    MW430149   4.669   4.256   5.498
 7458SOL     OW30150   5.238   4.798   4.634
 7458SOL    HW230151   5.241   4.732   4.565
 7458SOL    HW330152   5.323   4.841   4.630
 7458SOL    MW430153   5.250   4.794   4.625
 7459SOL     OW30154   4.858   4.401   4.203
 7459SOL    HW230155   4.884   4.425   4.114
 7459SOL    HW330156   4.840   4.308   4.199
 7459SOL    MW430157   4.860   4.393   4.190
 7460SOL     OW30158   5.523   5.021   4.054
 7460SOL    HW230159   5.479   5.062   4.129
 7460SOL    HW330160   5.580   5.089   4.019
 7460SOL    MW430161   5.525   5.035   4.059
 7461SOL     OW30162   4.443   4.070   5.457
 7461SOL    HW230163   4.453   3.996   5.397
 7461SOL    HW330164   4.479   4.039   5.540
 7461SOL    MW430165   4.449   4.056   5.459
 7462SOL     OW30166   4.179   5.437   4.372
 7462SOL    HW230167   4.211   5.525   4.350
 7462SOL    HW330168   4.132   5.409   4.294
 7462SOL    MW430169   4.178   5.445   4.359
 7463SOL     OW30170   5.563   3.799   4.421
 7463SOL    HW230171   5.617   3.750   4.483
 7463SOL    HW330172   5.506   3.733   4.382
 7463SOL    MW430173   5.563   3.783   4.423
 7464SOL     OW30174   4.682   3.752   4.834
 7464SOL    HW230175   4.641   3.830   4.796
 7464SOL    HW330176   4.776   3.770   4.829
 7464SOL    MW430177   4.688   3.764   4.829
 7465SOL     OW30178   5.299   5.305   3.920
 7465SOL    HW230179   5.347   5.374   3.966
 7465SOL    HW330180   5.220   5.349   3.889
 7465SOL    MW430181   5.294   5.319   3.923
 7466SOL     OW30182   4.697   4.430   3.864
 7466SOL    HW230183   4.699   4.377   3.785
 7466SOL    HW330184   4.785   4.467   3.870
 7466SOL    MW430185   4.709   4.429   3.853
 7467SOL     OW30186   5.311   4.356   4.200
 7467SOL    HW230187   5.350   4.356   4.287
 7467SOL    HW330188   5.252   4.432   4.200
 7467SOL    MW430189   5.308   4.367   4.211
 7468SOL     OW30190   4.628   4.723   5.329
 7468SOL    HW230191   4.605   4.703   5.419
 7468SOL    HW330192   4.713   4.767   5.334
 7468SOL    MW430193   4.635   4.726   5.341
 7469SOL     OW30194   4.708   3.860   5.089
 7469SOL    HW230195   4.714   3.822   5.002
 7469SOL    HW330196   4.697   3.954   5.074
 7469SOL    MW430197   4.709   3.868   5.077
 7470SOL     OW30198   4.797   4.349   4.923
 7470SOL    HW230199   4.872   4.378   4.870
 7470SOL    HW330200   4.729   4.414   4.907
 7470SOL    MW430201   4.798   4.361   4.913
 7471SOL     OW30202   5.347   4.317   5.200
 7471SOL    HW230203   5.328   4.226   5.179
 7471SOL    HW330204   5.325   4.366   5.121
 7471SOL    MW430205   5.342   4.310   5.187
 7472SOL     OW30206   5.489   5.411   5.104
 7472SOL    HW230207   5.417   5.373   5.155
 7472SOL    HW330208   5.506   5.496   5.145
 7472SOL    MW430209   5.483   5.416   5.116
 7473SOL     OW30210   4.794   4.055   5.306
 7473SOL    HW230211   4.760   4.094   5.225
 7473SOL    HW330212   4.772   3.963   5.299
 7473SOL    MW430213   4.787   4.048   5.296
 7474SOL     OW30214   5.203   4.869   5.382
 7474SOL    HW230215   5.285   4.910   5.412
 7474SOL    HW330216   5.166   4.831   5.462
 7474SOL    MW430217   5.209   4.870   5.397
 7475SOL     OW30218   5.498   4.242   4.366
 7475SOL    HW230219   5.587   4.211   4.383
 7475SOL    HW330220   5.441   4.182   4.414
 7475SOL    MW430221   5.501   4.230   4.375
 7476SOL     OW30222   3.924   3.956   4.395
 7476SOL    HW230223   3.915   3.896   4.321
 7476SOL    HW330224   3.857   3.927   4.458
 7476SOL    MW430225   3.914   3.943   4.393
 7477SOL     OW30226   4.867   5.049   3.956
 7477SOL    HW230227   4.817   5.051   4.038
 7477SOL    HW330228   4.801   5.067   3.888
 7477SOL    MW430229   4.853   5.051   3.958
 7478SOL     OW30230   3.871   4.129   4.758
 7478SOL    HW230231   3.843   4.220   4.767
 7478SOL    HW330232   3.808   4.090   4.697
 7478SOL    MW430233   3.858   4.135   4.752
 7479SOL     OW30234   4.330   5.467   4.064
 7479SOL    HW230235   4.251   5.425   4.097
 7479SOL    HW330236   4.396   5.450   4.131
 7479SOL    MW430237   4.329   5.459   4.077
 7480SOL     OW30238   5.458   4.987   5.461
 7480SOL    HW230239   5.508   4.913   5.493
 7480SOL    HW330240   5.404   5.014   5.536
 7480SOL    MW430241   5.458   4.981   5.474
 7481SOL     OW30242   4.466   4.882   3.771
 7481SOL    HW230243   4.388   4.828   3.758
 7481SOL    HW330244   4.437   4.955   3.824
 7481SOL    MW430245   4.452   4.884   3.776
 7482SOL     OW30246   5.592   4.622   4.963
 7482SOL    HW230247   5.608   4.660   4.876
 7482SOL    HW330248   5.626   4.688   5.024
 7482SOL    MW430249   5.599   4.635   4.959
 7483SOL     OW30250   5.384   5.331   4.632
 7483SOL    HW230251   5.413   5.398   4.693
 7483SOL    HW330252   5.365   5.255   4.687
 7483SOL    MW430253   5.386   5.331   4.647
 7484SOL     OW30254   5.047   5.398   3.839
 7484SOL    HW230255   4.973   5.361   3.889
 7484SOL    HW330256   5.055   5.488   3.872
 7484SOL    MW430257   5.038   5.405   3.851
 7485SOL     OW30258   3.855   4.404   4.928
 7485SOL    HW230259   3.917   4.434   4.994
 7485SOL    HW330260   3.789   4.473   4.922
 7485SOL    MW430261   3.854   4.417   4.935
 7486SOL     OW30262   5.271   5.072   3.781
 7486SOL    HW230263   5.218   5.121   3.717
 7486SOL    HW330264   5.302   5.138   3.842
 7486SOL    MW430265   5.269   5.086   3.779
 7487SOL     OW30266   4.496   3.961   3.836
 7487SOL    HW230267   4.444   3.881   3.824
 7487SOL    HW330268   4.583   3.938   3.804
 7487SOL    MW430269   4.499   3.947   3.830
 7488SOL     OW30270   3.950   5.513   5.380
 7488SOL    HW230271   3.924   5.581   5.318
 7488SOL    HW330272   3.998   5.450   5.328
 7488SOL    MW430273   3.952   5.513   5.366
 7489SOL     OW30274   4.002   4.832   4.887
 7489SOL    HW230275   4.055   4.907   4.912
 7489SOL    HW330276   3.921   4.870   4.853
 7489SOL    MW430277   3.998   4.847   4.887
 7490SOL     OW30278   4.542   4.736   4.875
 7490SOL    HW230279   4.570   4.645   4.887
 7490SOL    HW330280   4.471   4.730   4.811
 7490SOL    MW430281   4.535   4.724   4.870
 7491SOL     OW30282   3.857   4.601   4.293
 7491SOL    HW230283   3.948   4.616   4.320
 7491SOL    HW330284   3.860   4.522   4.239
 7491SOL    MW430285   3.869   4.593   4.291
 7492SOL     OW30286   4.093   4.309   5.547
 7492SOL    HW230287   4.040   4.389   5.554
 7492SOL    HW330288   4.163   4.321   5.612
 7492SOL    MW430289   4.095   4.322   5.555
 7493SOL     OW30290   4.479   3.859   5.254
 7493SOL    HW230291   4.456   3.767   5.256
 7493SOL    HW330292   4.565   3.861   5.211
 7493SOL    MW430293   4.486   3.849   5.250
 7494SOL     OW30294   4.163   4.383   5.293
 7494SOL    HW230295   4.243   4.433   5.279
 7494SOL    HW330296   4.154   4.377   5.388
 7494SOL    MW430297   4.172   4.389   5.303
 7495SOL     OW30298   4.484   5.533   4.667
 7495SOL    HW230299   4.573   5.548   4.697
 7495SOL    HW330300   4.479   5.580   4.583
 7495SOL    MW430301   4.494   5.541   4.660
 7496SOL     OW30302   5.140   3.908   5.564
 7496SOL    HW230303   5.196   3.835   5.590
 7496SOL    HW330304   5.110   3.946   5.646
 7496SOL    MW430305   5.144   3.903   5.577
 7497SOL     OW30306   3.865   5.213   4.332
 7497SOL    HW230307   3.837   5.252   4.414
 7497SOL    HW330308   3.885   5.122   4.354
 7497SOL    MW430309   3.863   5.205   4.345
 7498SOL     OW30310   4.698   5.256   4.367
 7498SOL    HW230311   4.781   5.210   4.351
 7498SOL    HW330312   4.688   5.255   4.463
 7498SOL    MW430313   4.708   5.249   4.377
 7499SOL     OW30314   5.530   4.401   4.681
 7499SOL    HW230315   5.619   4.431   4.663
 7499SOL    HW330316   5.510   4.341   4.610
 7499SOL    MW430317   5.539   4.398   4.670
 7500SOL     OW30318   5.381   4.580   5.561
 7500SOL    HW230319   5.436   4.504   5.542
 7500SOL    HW330320   5.383   4.588   5.656
 7500SOL    MW430321   5.389   4.571   5.569
 7501SOL     OW30322   4.431   5.313   3.772
 7501SOL    HW230323   4.371   5.382   3.742
 7501SOL    HW330324   4.376   5.255   3.825
 7501SOL    MW430325   4.415   5.315   3.774
 7502SOL     OW30326   4.869   3.958   3.995
 7502SOL    HW230327   4.802   3.934   3.932
 7502SOL    HW330328   4.934   4.007   3.944
 7502SOL    MW430329   4.869   3.960   3.980
 7503SOL     OW30330   4.676   4.142   5.080
 7503SOL    HW230331   4.595   4.183   5.108
 7503SOL    HW330332   4.723   4.210   5.032
 7503SOL    MW430333   4.671   4.157   5.078
 7504SOL     OW30334   4.936   4.480   4.703
 7504SOL    HW230335   4.949   4.574   4.713
 7504SOL    HW330336   4.897   4.470   4.617
 7504SOL    MW430337   4.932   4.491   4.693
 7505SOL     OW30338   4.388   4.675   4.507
 7505SOL    HW230339   4.299   4.666   4.540
 7505SOL    HW330340   4.392   4.765   4.475
 7505SOL    MW430341   4.377   4.686   4.507
 7506SOL     OW30342   5.187   4.258   4.502
 7506SOL    HW230343   5.132   4.179   4.501
 7506SOL    HW330344   5.169   4.299   4.586
 7506SOL    MW430345   5.177   4.253   4.511
 7507SOL     OW30346   4.158   3.945   5.319
 7507SOL    HW230347   4.079   3.963   5.371
 7507SOL    HW330348   4.153   4.007   5.246
 7507SOL    MW430349   4.148   3.955   5.316
 7508SOL     OW30350   4.806   4.462   4.459
 7508SOL    HW230351   4.743   4.394   4.483
 7508SOL    HW330352   4.826   4.443   4.367
 7508SOL    MW430353   4.800   4.449   4.451
 7509SOL     OW30354   4.062   5.357   4.161
 7509SOL    HW230355   4.023   5.404   4.087
 7509SOL    HW330356   3.996   5.292   4.186
 7509SOL    MW430357   4.049   5.355   4.155
 7510SOL     OW30358   4.554   4.766   4.185
 7510SOL    HW230359   4.556   4.740   4.092
 7510SOL    HW330360   4.612   4.703   4.228
 7510SOL    MW430361   4.562   4.755   4.179
 7511SOL     OW30362   5.107   5.326   4.957
 7511SOL    HW230363   5.032   5.372   4.995
 7511SOL    HW330364   5.089   5.233   4.974
 7511SOL    MW430365   5.096   5.320   4.965
 7512SOL     OW30366   5.111   5.534   4.387
 7512SOL    HW230367   5.054   5.487   4.326
 7512SOL    HW330368   5.197   5.495   4.374
 7512SOL    MW430369   5.114   5.525   4.377
 7513SOL     OW30370   5.064   4.010   4.518
 7513SOL    HW230371   5.092   3.942   4.579
 7513SOL    HW330372   4.978   3.981   4.488
 7513SOL    MW430373   5.057   3.997   4.522
 7514SOL     OW30374   3.869   4.944   4.452
 7514SOL    HW230375   3.933   4.976   4.515
 7514SOL    HW330376   3.918   4.880   4.400
 7514SOL    MW430377   3.884   4.940   4.453
 7515SOL     OW30378   4.369   5.020   5.434
 7515SOL    HW230379   4.417   5.103   5.421
 7515SOL    HW330380   4.426   4.968   5.490
 7515SOL    MW430381   4.383   5.024   5.440
 7516SOL     OW30382   3.945   5.262   5.574
 7516SOL    HW230383   4.001   5.186   5.589
 7516SOL    HW330384   3.894   5.240   5.496
 7516SOL    MW430385   3.945   5.249   5.565
 7517SOL     OW30386   5.044   4.114   3.853
 7517SOL    HW230387   5.017   4.180   3.789
 7517SOL    HW330388   5.114   4.157   3.903
 7517SOL    MW430389   5.049   4.127   3.850
 7518SOL     OW30390   4.712   3.819   3.790
 7518SOL    HW230391   4.768   3.811   3.712
 7518SOL    HW330392   4.689   3.729   3.812
 7518SOL    MW430393   4.717   3.806   3.783
 7519SOL     OW30394   5.217   4.670   3.995
 7519SOL    HW230395   5.184   4.759   3.985
 7519SOL    HW330396   5.182   4.641   4.080
 7519SOL    MW430397   5.207   4.679   4.006
 7520SOL     OW30398   4.830   5.099   5.183
 7520SOL    HW230399   4.741   5.105   5.151
 7520SOL    HW330400   4.874   5.178   5.151
 7520SOL    MW430401   4.825   5.109   5.175
 7521SOL     OW30402   4.123   3.767   5.525
 7521SOL    HW230403   4.051   3.732   5.473
 7521SOL    HW330404   4.181   3.808   5.460
 7521SOL    MW430405   4.121   3.768   5.510
 7522SOL     OW30406   4.147   5.257   4.824
 7522SOL    HW230407   4.192   5.319   4.881
 7522SOL    HW330408   4.054   5.276   4.837
 7522SOL    MW430409   4.140   5.267   4.831
 7523SOL     OW30410   5.587   4.786   5.178
 7523SOL    HW230411   5.502   4.799   5.137
 7523SOL    HW330412   5.567   4.750   5.265
 7523SOL    MW430413   5.574   4.782   5.183
 7524SOL     OW30414   4.569   5.325   4.932
 7524SOL    HW230415   4.593   5.314   4.841
 7524SOL    HW330416   4.492   5.382   4.930
 7524SOL    MW430417   4.561   5.330   4.921
 7525SOL     OW30418   4.211   4.708   3.787
 7525SOL    HW230419   4.134   4.721   3.843
 7525SOL    HW330420   4.175   4.672   3.706
 7525SOL    MW430421   4.197   4.704   3.784
 7526SOL     OW30422   4.864   4.681   4.030
 7526SOL    HW230423   4.774   4.702   4.005
 7526SOL    HW330424   4.891   4.754   4.086
 7526SOL    MW430425   4.856   4.693   4.033
 7527SOL     OW30426   4.364   5.030   4.722
 7527SOL    HW230427   4.357   5.009   4.816
 7527SOL    HW330428   4.282   4.998   4.685
 7527SOL    MW430429   4.352   5.024   4.729
 7528SOL     OW30430   5.228   4.040   5.124
 7528SOL    HW230431   5.175   4.042   5.204
 7528SOL    HW330432   5.213   3.953   5.087
 7528SOL    MW430433   5.220   4.030   5.129
 7529SOL     OW30434   5.564   3.964   4.997
 7529SOL    HW230435   5.545   4.031   4.932
 7529SOL    HW330436   5.621   3.902   4.952
 7529SOL    MW430437   5.568   3.965   4.983
 7530SOL     OW30438   3.810   5.122   5.385
 7530SOL    HW230439   3.854   5.055   5.331
 7530SOL    HW330440   3.725   5.084   5.405
 7530SOL    MW430441   3.805   5.108   5.381
 7531SOL     OW30442   4.493   3.797   4.437
 7531SOL    HW230443   4.422   3.858   4.419
 7531SOL    HW330444   4.544   3.794   4.356
 7531SOL    MW430445   4.489   3.803   4.424
 7532SOL     OW30446   4.251   5.037   4.186
 7532SOL    HW230447   4.244   5.069   4.276
 7532SOL    HW330448   4.161   5.021   4.158
 7532SOL    MW430449   4.239   5.039   4.193
 7533SOL     OW30450   4.846   5.430   5.095
 7533SOL    HW230451   4.766   5.415   5.045
 7533SOL    HW330452   4.853   5.525   5.102
 7533SOL    MW430453   4.837   5.441   5.089
 7534SOL     OW30454   4.960   5.395   4.585
 7534SOL    HW230455   5.007   5.468   4.544
 7534SOL    HW330456   4.881   5.434   4.621
 7534SOL    MW430457   4.955   5.410   4.584
 7535SOL     OW30458   5.368   5.490   4.860
 7535SOL    HW230459   5.411   5.460   4.940
 7535SOL    HW330460   5.287   5.438   4.857
 7535SOL    MW430461   5.363   5.479   4.870
 7536SOL     OW30462   4.453   4.454   5.567
 7536SOL    HW230463   4.523   4.396   5.539
 7536SOL    HW330464   4.396   4.399   5.622
 7536SOL    MW430465   4.455   4.441   5.571
 7537SOL     OW30466   5.240   4.666   5.200
 7537SOL    HW230467   5.245   4.719   5.280
 7537SOL    HW330468   5.202   4.583   5.228
 7537SOL    MW430469   5.236   4.661   5.215
 7538SOL     OW30470   4.880   3.801   5.446
 7538SOL    HW230471   4.875   3.708   5.427
 7538SOL    HW330472   4.963   3.812   5.492
 7538SOL    MW430473   4.888   3.790   5.450
 7539SOL     OW30474   4.254   4.321   3.900
 7539SOL    HW230475   4.220   4.377   3.970
 7539SOL    HW330476   4.325   4.271   3.940
 7539SOL    MW430477   4.260   4.322   3.914
 7540SOL     OW30478   5.350   5.072   4.722
 7540SOL    HW230479   5.385   5.054   4.635
 7540SOL    HW330480   5.255   5.073   4.709
 7540SOL    MW430481   5.342   5.069   4.709
 7541SOL     OW30482   4.779   4.720   5.091
 7541SOL    HW230483   4.822   4.755   5.169
 7541SOL    HW330484   4.762   4.797   5.037
 7541SOL    MW430485   4.782   4.735   5.094
 7542SOL     OW30486   5.310   4.207   3.964
 7542SOL    HW230487   5.302   4.278   3.901
 7542SOL    HW330488   5.328   4.251   4.047
 7542SOL    MW430489   5.311   4.221   3.966
 7543SOL     OW30490   4.170   3.862   4.393
 7543SOL    HW230491   4.220   3.905   4.324
 7543SOL    HW330492   4.085   3.906   4.393
 7543SOL    MW430493   4.167   3.875   4.384
 7544SOL     OW30494   3.929   4.924   5.253
 7544SOL    HW230495   3.957   4.877   5.331
 7544SOL    HW330496   3.850   4.879   5.224
 7544SOL    MW430497   3.922   4.913   5.259
 7545SOL     OW30498   4.437   4.251   5.220
 7545SOL    HW230499   4.409   4.339   5.244
 7545SOL    HW330500   4.406   4.195   5.291
 7545SOL    MW430501   4.429   4.254   5.232
 7546SOL     OW30502   4.979   4.469   3.939
 7546SOL    HW230503   5.026   4.487   3.858
 7546SOL    HW330504   4.945   4.553   3.967
 7546SOL    MW430505   4.981   4.483   3.932
 7547SOL     OW30506   4.092   4.647   4.433
 7547SOL    HW230507   4.150   4.703   4.381
 7547SOL    HW330508   4.136   4.562   4.435
 7547SOL    MW430509   4.105   4.644   4.426
 7548SOL     OW30510   5.232   3.999   4.270
 7548SOL    HW230511   5.154   3.949   4.295
 7548SOL    HW330512   5.203   4.090   4.270
 7548SOL    MW430513   5.218   4.003   4.273
 7549SOL     OW30514   4.818   3.961   4.429
 7549SOL    HW230515   4.838   4.036   4.373
 7549SOL    HW330516   4.798   4.000   4.514
 7549SOL    MW430517   4.819   3.977   4.433
 7550SOL     OW30518   4.714   5.211   3.761
 7550SOL    HW230519   4.741   5.289   3.713
 7550SOL    HW330520   4.621   5.226   3.780
 7550SOL    MW430521   4.705   5.224   3.757
 7551SOL     OW30522   5.578   4.734   5.448
 7551SOL    HW230523   5.491   4.714   5.484
 7551SOL    HW330524   5.632   4.660   5.473
 7551SOL    MW430525   5.573   4.723   5.456
 7552SOL     OW30526   3.799   5.247   4.605
 7552SOL    HW230527   3.831   5.251   4.696
 7552SOL    HW330528   3.704   5.255   4.613
 7552SOL    MW430529   3.791   5.250   4.618
 7553SOL     OW30530   3.754   4.373   4.152
 7553SOL    HW230531   3.694   4.345   4.222
 7553SOL    HW330532   3.828   4.313   4.158
 7553SOL    MW430533   3.756   4.362   4.161
 7554SOL     OW30534   5.322   5.585   5.586
 7554SOL    HW230535   5.367   5.509   5.551
 7554SOL    HW330536   5.360   5.598   5.673
 7554SOL    MW430537   5.332   5.578   5.592
 7555SOL     OW30538   4.922   5.104   4.312
 7555SOL    HW230539   4.945   5.055   4.390
 7555SOL    HW330540   5.003   5.146   4.284
 7555SOL    MW430541   4.935   5.104   4.319
 7556SOL     OW30542   4.180   4.112   5.041
 7556SOL    HW230543   4.213   4.193   5.081
 7556SOL    HW330544   4.153   4.138   4.953
 7556SOL    MW430545   4.179   4.126   5.035
 7557SOL     OW30546   4.134   4.079   4.777
 7557SOL    HW230547   4.164   3.993   4.748
 7557SOL    HW330548   4.039   4.072   4.780
 7557SOL    MW430549   4.126   4.068   4.775
 7558SOL     OW30550   4.963   4.288   5.468
 7558SOL    HW230551   5.015   4.223   5.421
 7558SOL    HW330552   4.921   4.339   5.398
 7558SOL    MW430553   4.964   4.285   5.451
 7559SOL     OW30554   5.062   4.083   5.329
 7559SOL    HW230555   4.969   4.067   5.316
 7559SOL    HW330556   5.088   4.021   5.397
 7559SOL    MW430557   5.052   4.073   5.336
 7560SOL     OW30558   4.277   3.857   4.668
 7560SOL    HW230559   4.287   3.766   4.694
 7560SOL    HW330560   4.233   3.853   4.583
 7560SOL    MW430561   4.273   3.845   4.660
 7561SOL     OW30562   4.371   5.472   5.214
 7561SOL    HW230563   4.288   5.457   5.259
 7561SOL    HW330564   4.430   5.405   5.249
 7561SOL    MW430565   4.369   5.462   5.224
 7562SOL     OW30566   5.428   4.179   4.839
 7562SOL    HW230567   5.361   4.212   4.899
 7562SOL    HW330568   5.471   4.257   4.805
 7562SOL    MW430569   5.426   4.194   4.843
 7563SOL     OW30570   5.606   4.899   4.809
 7563SOL    HW230571   5.599   4.839   4.734
 7563SOL    HW330572   5.532   4.959   4.798
 7563SOL    MW430573   5.596   4.899   4.798
 7564SOL     OW30574   4.988   4.761   4.727
 7564SOL    HW230575   5.002   4.733   4.818
 7564SOL    HW330576   5.074   4.792   4.699
 7564SOL    MW430577   5.001   4.762   4.736
 7565SOL     OW30578   5.564   4.387   5.548
 7565SOL    HW230579   5.601   4.332   5.617
 7565SOL    HW330580   5.589   4.344   5.466
 7565SOL    MW430581   5.571   4.375   5.547
 7566SOL     OW30582   5.111   4.685   5.600
 7566SOL    HW230583   5.177   4.633   5.554
 7566SOL    HW330584   5.131   4.672   5.693
 7566SOL    MW430585   5.122   4.676   5.607
 7567SOL     OW30586   5.062   3.771   3.948
 7567SOL    HW230587   5.136   3.815   3.991
 7567SOL    HW330588   4.986   3.825   3.970
 7567SOL    MW430589   5.062   3.783   3.956
 7568SOL     OW30590   5.122   4.546   4.226
 7568SOL    HW230591   5.037   4.516   4.196
 7568SOL    HW330592   5.114   4.553   4.321
 7568SOL    MW430593   5.110   4.544   4.235
 7569SOL     OW30594   4.198   5.009   4.957
 7569SOL    HW230595   4.210   5.036   5.048
 7569SOL    HW330596   4.179   5.090   4.910
 7569SOL    MW430597   4.197   5.024   4.962
 7570SOL     OW30598   4.482   3.989   4.780
 7570SOL    HW230599   4.455   3.991   4.871
 7570SOL    HW330600   4.412   3.941   4.735
 7570SOL    MW430601   4.470   3.985   4.787
 7571SOL     OW30602   4.336   5.481   4.942
 7571SOL    HW230603   4.388   5.558   4.919
 7571SOL    HW330604   4.345   5.473   5.037
 7571SOL    MW430605   4.345   5.488   4.953
 7572SOL     OW30606   5.238   5.066   5.174
 7572SOL    HW230607   5.223   4.995   5.237
 7572SOL    HW330608   5.284   5.024   5.102
 7572SOL    MW430609   5.244   5.050   5.174
 7573SOL     OW30610   4.312   4.797   5.291
 7573SOL    HW230611   4.349   4.802   5.203
 7573SOL    HW330612   4.351   4.870   5.338
 7573SOL    MW430613   4.322   4.807   5.286
 7574SOL     OW30614   4.492   4.840   5.103
 7574SOL    HW230615   4.551   4.786   5.156
 7574SOL    HW330616   4.507   4.812   5.013
 7574SOL    MW430617   4.502   4.829   5.099
 7575SOL     OW30618   4.495   4.212   3.952
 7575SOL    HW230619   4.568   4.261   3.915
 7575SOL    HW330620   4.511   4.121   3.926
 7575SOL    MW430621   4.507   4.207   3.945
 7576SOL     OW30622   5.303   5.329   5.275
 7576SOL    HW230623   5.345   5.314   5.360
 7576SOL    HW330624   5.294   5.242   5.237
 7576SOL    MW430625   5.307   5.317   5.282
 7577SOL     OW30626   4.963   3.808   4.866
 7577SOL    HW230627   5.018   3.817   4.788
 7577SOL    HW330628   5.018   3.842   4.937
 7577SOL    MW430629   4.977   3.813   4.865
 7578SOL     OW30630   4.326   5.075   3.909
 7578SOL    HW230631   4.341   5.051   4.001
 7578SOL    HW330632   4.234   5.053   3.893
 7578SOL    MW430633   4.316   5.068   3.919
 7579SOL     OW30634   4.865   5.306   4.061
 7579SOL    HW230635   4.873   5.224   4.012
 7579SOL    HW330636   4.784   5.345   4.028
 7579SOL    MW430637   4.855   5.301   4.051
 7580SOL     OW30638   4.124   5.464   4.630
 7580SOL    HW230639   4.128   5.375   4.665
 7580SOL    HW330640   4.150   5.455   4.539
 7580SOL    MW430641   4.127   5.452   4.622
 7581SOL     OW30642   4.741   4.942   4.873
 7581SOL    HW230643   4.673   4.876   4.889
 7581SOL    HW330644   4.759   4.936   4.780
 7581SOL    MW430645   4.734   4.933   4.864
 7582SOL     OW30646   3.830   5.217   5.124
 7582SOL    HW230647   3.820   5.175   5.210
 7582SOL    HW330648   3.751   5.270   5.114
 7582SOL    MW430649   3.819   5.218   5.135
 7583SOL     OW30650   4.734   4.081   4.694
 7583SOL    HW230651   4.664   4.033   4.739
 7583SOL    HW330652   4.766   4.144   4.758
 7583SOL    MW430653   4.729   4.083   4.708
 7584SOL     OW30654   4.385   4.517   5.314
 7584SOL    HW230655   4.378   4.612   5.302
 7584SOL    HW330656   4.394   4.506   5.409
 7584SOL    MW430657   4.386   4.529   5.324
 7585SOL     OW30658   4.106   5.032   5.572
 7585SOL    HW230659   4.178   5.034   5.509
 7585SOL    HW330660   4.076   4.941   5.571
 7585SOL    MW430661   4.111   5.021   5.564
 7586SOL     OW30662   5.190   3.795   5.039
 7586SOL    HW230663   5.261   3.741   5.003
 7586SOL    HW330664   5.189   3.774   5.132
 7586SOL    MW430665   5.199   3.786   5.047
 7587SOL     OW30666   5.390   5.325   5.523
 7587SOL    HW230667   5.363   5.322   5.614
 7587SOL    HW330668   5.486   5.329   5.526
 7587SOL    MW430669   5.400   5.325   5.535
 7588SOL     OW30670   4.201   4.187   4.507
 7588SOL    HW230671   4.272   4.135   4.470
 7588SOL    HW330672   4.187   4.152   4.594
 7588SOL    MW430673   4.209   4.176   4.514
 7589SOL     OW30674   3.756   5.522   5.579
 7589SOL    HW230675   3.806   5.500   5.501
 7589SOL    HW330676   3.764   5.617   5.587
 7589SOL    MW430677   3.764   5.531   5.570
 7590SOL     OW30678   4.517   5.280   4.583
 7590SOL    HW230679   4.445   5.217   4.596
 7590SOL    HW330680   4.478   5.365   4.601
 7590SOL    MW430681   4.501   5.283   4.586
 7591SOL     OW30682   4.837   4.128   4.231
 7591SOL    HW230683   4.859   4.065   4.163
 7591SOL    HW330684   4.742   4.120   4.242
 7591SOL    MW430685   4.827   4.119   4.223
 7592SOL     OW30686   3.922   3.818   4.163
 7592SOL    HW230687   3.993   3.839   4.102
 7592SOL    HW330688   3.876   3.746   4.121
 7592SOL    MW430689   3.926   3.812   4.149
 7593SOL     OW30690   3.753   4.285   5.306
 7593SOL    HW230691   3.817   4.351   5.281
 7593SOL    HW330692   3.672   4.312   5.263
 7593SOL    MW430693   3.751   4.297   5.298
 7594SOL     OW30694   5.491   5.192   4.263
 7594SOL    HW230695   5.461   5.125   4.324
 7594SOL    HW330696   5.585   5.198   4.277
 7594SOL    MW430697   5.499   5.184   4.273
 7595SOL     OW30698   5.047   4.869   4.193
 7595SOL    HW230699   5.019   4.955   4.226
 7595SOL    HW330700   5.075   4.885   4.103
 7595SOL    MW430701   5.047   4.883   4.185
 7596SOL     OW30702   4.709   3.789   4.246
 7596SOL    HW230703   4.746   3.848   4.311
 7596SOL    HW330704   4.686   3.845   4.172
 7596SOL    MW430705   4.710   3.804   4.245
 7597SOL     OW30706   5.562   4.671   4.668
 7597SOL    HW230707   5.553   4.703   4.579
 7597SOL    HW330708   5.515   4.587   4.668
 7597SOL    MW430709   5.555   4.664   4.658
 7598SOL     OW30710   3.938   4.511   5.247
 7598SOL    HW230711   3.959   4.580   5.185
 7598SOL    HW330712   4.018   4.458   5.252
 7598SOL    MW430713   3.951   4.512   5.241
 7599SOL     OW30714   5.474   4.602   4.369
 7599SOL    HW230715   5.568   4.591   4.357
 7599SOL    HW330716   5.450   4.674   4.310
 7599SOL    MW430717   5.484   4.610   4.360
 7600SOL     OW30718   3.923   4.526   5.514
 7600SOL    HW230719   3.849   4.470   5.540
 7600SOL    HW330720   3.918   4.529   5.419
 7600SOL    MW430721   3.912   4.519   5.504
 7601SOL     OW30722   4.089   3.813   4.964
 7601SOL    HW230723   4.132   3.897   4.984
 7601SOL    HW330724   4.162   3.751   4.957
 7601SOL    MW430725   4.104   3.816   4.965
 7602SOL     OW30726   4.130   4.480   4.142
 7602SOL    HW230727   4.130   4.575   4.127
 7602SOL    HW330728   4.207   4.464   4.196
 7602SOL    MW430729   4.140   4.491   4.147
 7603SOL     OW30730   4.906   4.339   5.206
 7603SOL    HW230731   4.942   4.312   5.122
 7603SOL    HW330732   4.819   4.373   5.185
 7603SOL    MW430733   4.900   4.340   5.193
 7604SOL     OW30734   3.889   4.211   4.431
 7604SOL    HW230735   3.951   4.218   4.504
 7604SOL    HW330736   3.889   4.118   4.408
 7604SOL    MW430737   3.897   4.200   4.438
 7605SOL     OW30738   4.571   4.472   4.915
 7605SOL    HW230739   4.529   4.390   4.891
 7605SOL    HW330740   4.572   4.471   5.011
 7605SOL    MW430741   4.564   4.461   4.924
 7606SOL     OW30742   5.242   5.605   5.314
 7606SOL    HW230743   5.245   5.511   5.297
 7606SOL    HW330744   5.265   5.613   5.406
 7606SOL    MW430745   5.245   5.593   5.324
 7607SOL     OW30746   4.375   3.942   5.020
 7607SOL    HW230747   4.306   4.005   5.041
 7607SOL    HW330748   4.402   3.906   5.105
 7607SOL    MW430749   4.369   3.945   5.033
 7608SOL     OW30750   5.170   3.795   4.637
 7608SOL    HW230751   5.258   3.804   4.674
 7608SOL    HW330752   5.180   3.736   4.563
 7608SOL    MW430753   5.184   3.789   4.631
 7609SOL     OW30754   5.202   4.534   4.481
 7609SOL    HW230755   5.282   4.549   4.430
 7609SOL    HW330756   5.195   4.439   4.487
 7609SOL    MW430757   5.211   4.523   4.476
 7610SOL     OW30758   4.652   4.460   5.178
 7610SOL    HW230759   4.721   4.527   5.175
 7610SOL    HW330760   4.585   4.498   5.234
 7610SOL    MW430761   4.653   4.473   5.185
 7611SOL     OW30762   4.070   4.760   5.426
 7611SOL    HW230763   4.024   4.676   5.428
 7611SOL    HW330764   4.127   4.754   5.350
 7611SOL    MW430765   4.072   4.748   5.418
 7612SOL     OW30766   5.187   4.403   3.747
 7612SOL    HW230767   5.115   4.379   3.689
 7612SOL    HW330768   5.253   4.440   3.689
 7612SOL    MW430769   5.186   4.405   3.732
 7613SOL     OW30770   4.321   5.135   4.427
 7613SOL    HW230771   4.386   5.068   4.448
 7613SOL    HW330772   4.373   5.212   4.404
 7613SOL    MW430773   4.336   5.137   4.426
 7614SOL     OW30774   4.582   4.300   4.557
 7614SOL    HW230775   4.522   4.318   4.629
 7614SOL    HW330776   4.616   4.212   4.576
 7614SOL    MW430777   4.578   4.290   4.570
 7615SOL     OW30778   5.523   3.799   5.226
 7615SOL    HW230779   5.444   3.845   5.254
 7615SOL    HW330780   5.558   3.853   5.155
 7615SOL    MW430781   5.517   3.812   5.220
 7616SOL     OW30782   4.807   4.883   4.576
 7616SOL    HW230783   4.899   4.864   4.594
 7616SOL    HW330784   4.780   4.813   4.516
 7616SOL    MW430785   4.815   4.871   4.570
 7617SOL     OW30786   4.600   4.703   3.931
 7617SOL    HW230787   4.586   4.615   3.896
 7617SOL    HW330788   4.551   4.760   3.872
 7617SOL    MW430789   4.592   4.698   3.919
 7618SOL     OW30790   5.081   5.121   4.672
 7618SOL    HW230791   5.054   5.205   4.637
 7618SOL    HW330792   5.041   5.116   4.759
 7618SOL    MW430793   5.074   5.130   4.678
 7619SOL     OW30794   5.000   5.069   4.940
 7619SOL    HW230795   5.011   5.036   5.029
 7619SOL    HW330796   4.919   5.028   4.909
 7619SOL    MW430797   4.990   5.061   4.946
 7620SOL     OW30798   4.013   4.427   4.710
 7620SOL    HW230799   3.963   4.426   4.791
 7620SOL    HW330800   4.033   4.519   4.694
 7620SOL    MW430801   4.009   4.439   4.718
 7621SOL     OW30802   5.080   5.191   5.472
 7621SOL    HW230803   5.080   5.285   5.488
 7621SOL    HW330804   5.125   5.181   5.388
 7621SOL    MW430805   5.086   5.201   5.463
 7622SOL     OW30806   5.319   3.909   4.033
 7622SOL    HW230807   5.312   3.913   4.128
 7622SOL    HW330808   5.331   4.000   4.006
 7622SOL    MW430809   5.320   3.922   4.041
 7623SOL     OW30810   4.608   4.472   4.147
 7623SOL    HW230811   4.588   4.458   4.054
 7623SOL    HW330812   4.701   4.451   4.154
 7623SOL    MW430813   4.618   4.467   4.136
 7624SOL     OW30814   3.935   4.095   5.451
 7624SOL    HW230815   3.892   4.154   5.388
 7624SOL    HW330816   4.003   4.150   5.491
 7624SOL    MW430817   3.939   4.110   5.448
 7625SOL     OW30818   5.047   4.715   4.996
 7625SOL    HW230819   5.110   4.712   5.069
 7625SOL    HW330820   4.963   4.733   5.038
 7625SOL    MW430821   5.043   4.717   5.011
 7626SOL     OW30822   4.591   5.430   4.185
 7626SOL    HW230823   4.649   5.501   4.212
 7626SOL    HW330824   4.614   5.358   4.243
 7626SOL    MW430825   4.602   5.430   4.196
 7627SOL     OW30826   5.386   3.892   4.775
 7627SOL    HW230827   5.431   3.810   4.794
 7627SOL    HW330828   5.406   3.948   4.851
 7627SOL    MW430829   5.396   3.888   4.787
 7628SOL     OW30830   3.834   3.735   4.874
 7628SOL    HW230831   3.825   3.736   4.779
 7628SOL    HW330832   3.928   3.747   4.889
 7628SOL    MW430833   3.846   3.738   4.865
 7629SOL     OW30834   5.471   4.928   4.494
 7629SOL    HW230835   5.450   4.874   4.417
 7629SOL    HW330836   5.567   4.926   4.498
 7629SOL    MW430837   5.480   4.921   4.483
 7630SOL     OW30838   4.163   5.073   5.237
 7630SOL    HW230839   4.084   5.023   5.260
 7630SOL    HW330840   4.233   5.032   5.287
 7630SOL    MW430841   4.161   5.061   5.247
 7631SOL     OW30842   4.047   3.862   3.920
 7631SOL    HW230843   3.976   3.917   3.888
 7631SOL    HW330844   4.089   3.828   3.841
 7631SOL    MW430845   4.043   3.864   3.906
 7632SOL     OW30846   5.171   4.359   4.756
 7632SOL    HW230847   5.094   4.405   4.722
 7632SOL    HW330848   5.228   4.428   4.790
 7632SOL    MW430849   5.168   4.374   4.756
 7633SOL     OW30850   3.803   3.961   3.769
 7633SOL    HW230851   3.770   4.040   3.813
 7633SOL    HW330852   3.858   3.994   3.698
 7633SOL    MW430853   3.806   3.975   3.766
 7634SOL     OW30854   3.837   5.218   3.958
 7634SOL    HW230855   3.854   5.302   4.000
 7634SOL    HW330856   3.872   5.227   3.870
 7634SOL    MW430857   3.842   5.231   3.952
 7635SOL     OW30858   5.109   5.307   4.175
 7635SOL    HW230859   5.172   5.297   4.104
 7635SOL    HW330860   5.026   5.327   4.130
 7635SOL    MW430861   5.106   5.308   4.160
 7636SOL     OW30862   5.472   4.575   5.862
 7636SOL    HW230863   5.513   4.517   5.927
 7636SOL    HW330864   5.379   4.567   5.879
 7636SOL    MW430865   5.466   4.567   5.872
 7637SOL     OW30866   4.266   4.758   6.091
 7637SOL    HW230867   4.356   4.733   6.075
 7637SOL    HW330868   4.262   4.851   6.068
 7637SOL    MW430869   4.278   4.767   6.086
 7638SOL     OW30870   4.550   4.214   6.104
 7638SOL    HW230871   4.525   4.302   6.132
 7638SOL    HW330872   4.547   4.217   6.008
 7638SOL    MW430873   4.546   4.226   6.096
 7639SOL     OW30874   3.992   4.242   6.032
 7639SOL    HW230875   4.024   4.330   6.014
 7639SOL    HW330876   3.980   4.240   6.127
 7639SOL    MW430877   3.995   4.254   6.044
 7640SOL     OW30878   4.391   3.997   6.119
 7640SOL    HW230879   4.449   4.073   6.121
 7640SOL    HW330880   4.326   4.018   6.052
 7640SOL    MW430881   4.390   4.009   6.110
 7641SOL     OW30882   4.478   4.924   6.294
 7641SOL    HW230883   4.558   4.927   6.346
 7641SOL    HW330884   4.506   4.891   6.208
 7641SOL    MW430885   4.492   4.920   6.289
 7642SOL     OW30886   4.255   4.428   6.285
 7642SOL    HW230887   4.240   4.348   6.336
 7642SOL    HW330888   4.337   4.463   6.319
 7642SOL    MW430889   4.263   4.420   6.297
 7643SOL     OW30890   3.840   5.514   6.441
 7643SOL    HW230891   3.929   5.506   6.476
 7643SOL    HW330892   3.804   5.426   6.446
 7643SOL    MW430893   3.847   5.501   6.446
 7644SOL     OW30894   5.105   4.906   5.810
 7644SOL    HW230895   5.023   4.942   5.776
 7644SOL    HW330896   5.173   4.949   5.759
 7644SOL    MW430897   5.103   4.916   5.798
 7645SOL     OW30898   4.104   5.041   6.476
 7645SOL    HW230899   4.080   5.094   6.552
 7645SOL    HW330900   4.160   5.099   6.424
 7645SOL    MW430901   4.108   5.056   6.479
 7646SOL     OW30902   4.666   4.685   6.286
 7646SOL    HW230903   4.580   4.672   6.326
 7646SOL    HW330904   4.719   4.612   6.318
 7646SOL    MW430905   4.662   4.674   6.295
 7647SOL     OW30906   4.657   5.047   6.003
 7647SOL    HW230907   4.634   5.109   6.071
 7647SOL    HW330908   4.614   4.965   6.029
 7647SOL    MW430909   4.649   5.043   6.014
 7648SOL     OW30910   4.154   4.020   5.971
 7648SOL    HW230911   4.128   3.982   5.887
 7648SOL    HW330912   4.091   4.090   5.987
 7648SOL    MW430913   4.143   4.023   5.962
 7649SOL     OW30914   3.989   4.981   6.008
 7649SOL    HW230915   3.937   5.049   5.964
 7649SOL    HW330916   3.986   4.907   5.948
 7649SOL    MW430917   3.981   4.980   5.995
 7650SOL     OW30918   4.651   5.444   5.786
 7650SOL    HW230919   4.606   5.460   5.869
 7650SOL    HW330920   4.582   5.409   5.728
 7650SOL    MW430921   4.637   5.441   5.788
 7651SOL     OW30922   5.586   4.217   5.761
 7651SOL    HW230923   5.495   4.219   5.789
 7651SOL    HW330924   5.631   4.279   5.819
 7651SOL    MW430925   5.579   4.225   5.771
 7652SOL     OW30926   5.331   4.820   6.111
 7652SOL    HW230927   5.241   4.820   6.146
 7652SOL    HW330928   5.324   4.866   6.028
 7652SOL    MW430929   5.318   4.826   6.105
 7653SOL     OW30930   4.858   4.401   6.072
 7653SOL    HW230931   4.884   4.425   5.983
 7653SOL    HW330932   4.840   4.308   6.068
 7653SOL    MW430933   4.860   4.393   6.059
 7654SOL     OW30934   5.523   5.021   5.923
 7654SOL    HW230935   5.479   5.062   5.998
 7654SOL    HW330936   5.580   5.089   5.888
 7654SOL    MW430937   5.525   5.035   5.928
 7655SOL     OW30938   4.179   5.437   6.241
 7655SOL    HW230939   4.211   5.525   6.219
 7655SOL    HW330940   4.132   5.409   6.163
 7655SOL    MW430941   4.178   5.445   6.228
 7656SOL     OW30942   3.895   5.497   5.818
 7656SOL    HW230943   3.924   5.587   5.810
 7656SOL    HW330944   3.845   5.480   5.739
 7656SOL    MW430945   3.893   5.505   5.807
 7657SOL     OW30946   5.299   5.305   5.789
 7657SOL    HW230947   5.347   5.374   5.835
 7657SOL    HW330948   5.220   5.349   5.758
 7657SOL    MW430949   5.294   5.319   5.792
 7658SOL     OW30950   4.697   4.430   5.733
 7658SOL    HW230951   4.699   4.377   5.654
 7658SOL    HW330952   4.785   4.467   5.739
 7658SOL    MW430953   4.709   4.429   5.722
 7659SOL     OW30954   5.311   4.356   6.069
 7659SOL    HW230955   5.350   4.356   6.156
 7659SOL    HW330956   5.252   4.432   6.069
 7659SOL    MW430957   5.308   4.367   6.080
 7660SOL     OW30958   3.924   3.956   6.264
 7660SOL    HW230959   3.915   3.896   6.190
 7660SOL    HW330960   3.857   3.927   6.327
 7660SOL    MW430961   3.914   3.943   6.262
 7661SOL     OW30962   4.867   5.049   5.825
 7661SOL    HW230963   4.817   5.051   5.907
 7661SOL    HW330964   4.801   5.067   5.757
 7661SOL    MW430965   4.853   5.051   5.827
 7662SOL     OW30966   4.330   5.467   5.933
 7662SOL    HW230967   4.251   5.425   5.966
 7662SOL    HW330968   4.396   5.450   6.000
 7662SOL    MW430969   4.329   5.459   5.946
 7663SOL     OW30970   4.466   4.882   5.640
 7663SOL    HW230971   4.388   4.828   5.627
 7663SOL    HW330972   4.437   4.955   5.693
 7663SOL    MW430973   4.452   4.884   5.645
 7664SOL     OW30974   5.047   5.398   5.708
 7664SOL    HW230975   4.973   5.361   5.758
 7664SOL    HW330976   5.055   5.488   5.741
 7664SOL    MW430977   5.038   5.405   5.720
 7665SOL     OW30978   5.271   5.072   5.650
 7665SOL    HW230979   5.218   5.121   5.586
 7665SOL    HW330980   5.302   5.138   5.711
 7665SOL    MW430981   5.269   5.086   5.648
 7666SOL     OW30982   4.496   3.961   5.705
 7666SOL    HW230983   4.444   3.881   5.693
 7666SOL    HW330984   4.583   3.938   5.673
 7666SOL    MW430985   4.499   3.947   5.699
 7667SOL     OW30986   3.857   4.601   6.162
 7667SOL    HW230987   3.948   4.616   6.189
 7667SOL    HW330988   3.860   4.522   6.108
 7667SOL    MW430989   3.869   4.593   6.160
 7668SOL     OW30990   4.484   5.533   6.536
 7668SOL    HW230991   4.573   5.548   6.566
 7668SOL    HW330992   4.479   5.580   6.452
 7668SOL    MW430993   4.494   5.541   6.529
 7669SOL     OW30994   3.865   5.213   6.201
 7669SOL    HW230995   3.837   5.252   6.283
 7669SOL    HW330996   3.885   5.122   6.223
 7669SOL    MW430997   3.863   5.205   6.214
 7670SOL     OW30998   4.698   5.256   6.236
 7670SOL    HW230999   4.781   5.210   6.220
 7670SOL    HW331000   4.688   5.255   6.332
 7670SOL    MW431001   4.708   5.249   6.246
 7671SOL     OW31002   4.431   5.313   5.641
 7671SOL    HW231003   4.371   5.382   5.611
 7671SOL    HW331004   4.376   5.255   5.694
 7671SOL    MW431005   4.415   5.315   5.643
 7672SOL     OW31006   4.869   3.958   5.864
 7672SOL    HW231007   4.802   3.934   5.801
 7672SOL    HW331008   4.934   4.007   5.813
 7672SOL    MW431009   4.869   3.960   5.849
 7673SOL     OW31010   4.388   4.675   6.376
 7673SOL    HW231011   4.299   4.666   6.409
 7673SOL    HW331012   4.392   4.765   6.344
 7673SOL    MW431013   4.377   4.686   6.376
 7674SOL     OW31014   5.187   4.258   6.371
 7674SOL    HW231015   5.132   4.179   6.370
 7674SOL    HW331016   5.169   4.299   6.455
 7674SOL    MW431017   5.177   4.253   6.380
 7675SOL     OW31018   4.806   4.462   6.328
 7675SOL    HW231019   4.743   4.394   6.352
 7675SOL    HW331020   4.826   4.443   6.236
 7675SOL    MW431021   4.800   4.449   6.320
 7676SOL     OW31022   4.062   5.357   6.030
 7676SOL    HW231023   4.023   5.404   5.956
 7676SOL    HW331024   3.996   5.292   6.055
 7676SOL    MW431025   4.049   5.355   6.024
 7677SOL     OW31026   4.554   4.766   6.054
 7677SOL    HW231027   4.556   4.740   5.961
 7677SOL    HW331028   4.612   4.703   6.097
 7677SOL    MW431029   4.562   4.755   6.048
 7678SOL     OW31030   5.064   4.010   6.387
 7678SOL    HW231031   5.092   3.942   6.448
 7678SOL    HW331032   4.978   3.981   6.357
 7678SOL    MW431033   5.057   3.997   6.391
 7679SOL     OW31034   3.869   4.944   6.321
 7679SOL    HW231035   3.933   4.976   6.384
 7679SOL    HW331036   3.918   4.880   6.269
 7679SOL    MW431037   3.884   4.940   6.322
 7680SOL     OW31038   5.044   4.114   5.722
 7680SOL    HW231039   5.017   4.180   5.658
 7680SOL    HW331040   5.114   4.157   5.772
 7680SOL    MW431041   5.049   4.127   5.719
 7681SOL     OW31042   4.712   3.819   5.659
 7681SOL    HW231043   4.768   3.811   5.581
 7681SOL    HW331044   4.689   3.729   5.681
 7681SOL    MW431045   4.717   3.806   5.652
 7682SOL     OW31046   5.217   4.670   5.864
 7682SOL    HW231047   5.184   4.759   5.854
 7682SOL    HW331048   5.182   4.641   5.949
 7682SOL    MW431049   5.207   4.679   5.875
 7683SOL     OW31050   4.211   4.708   5.656
 7683SOL    HW231051   4.134   4.721   5.712
 7683SOL    HW331052   4.175   4.672   5.575
 7683SOL    MW431053   4.197   4.704   5.653
 7684SOL     OW31054   4.864   4.681   5.899
 7684SOL    HW231055   4.774   4.702   5.874
 7684SOL    HW331056   4.891   4.754   5.955
 7684SOL    MW431057   4.856   4.693   5.902
 7685SOL     OW31058   4.251   5.037   6.055
 7685SOL    HW231059   4.244   5.069   6.145
 7685SOL    HW331060   4.161   5.021   6.027
 7685SOL    MW431061   4.239   5.039   6.062
 7686SOL     OW31062   4.960   5.395   6.454
 7686SOL    HW231063   5.007   5.468   6.413
 7686SOL    HW331064   4.881   5.434   6.490
 7686SOL    MW431065   4.955   5.410   6.453
 7687SOL     OW31066   4.254   4.321   5.769
 7687SOL    HW231067   4.220   4.377   5.839
 7687SOL    HW331068   4.325   4.271   5.809
 7687SOL    MW431069   4.260   4.322   5.783
 7688SOL     OW31070   5.310   4.207   5.833
 7688SOL    HW231071   5.302   4.278   5.770
 7688SOL    HW331072   5.328   4.251   5.916
 7688SOL    MW431073   5.311   4.221   5.835
 7689SOL     OW31074   4.170   3.862   6.262
 7689SOL    HW231075   4.220   3.905   6.193
 7689SOL    HW331076   4.085   3.906   6.262
 7689SOL    MW431077   4.167   3.875   6.253
 7690SOL     OW31078   4.979   4.469   5.808
 7690SOL    HW231079   5.026   4.487   5.727
 7690SOL    HW331080   4.945   4.553   5.836
 7690SOL    MW431081   4.981   4.483   5.801
 7691SOL     OW31082   4.092   4.647   6.302
 7691SOL    HW231083   4.150   4.703   6.250
 7691SOL    HW331084   4.136   4.562   6.304
 7691SOL    MW431085   4.105   4.644   6.295
 7692SOL     OW31086   4.818   3.961   6.298
 7692SOL    HW231087   4.838   4.036   6.242
 7692SOL    HW331088   4.798   4.000   6.383
 7692SOL    MW431089   4.819   3.977   6.302
 7693SOL     OW31090   4.714   5.211   5.630
 7693SOL    HW231091   4.741   5.289   5.582
 7693SOL    HW331092   4.621   5.226   5.649
 7693SOL    MW431093   4.705   5.224   5.626
 7694SOL     OW31094   3.754   4.373   6.021
 7694SOL    HW231095   3.694   4.345   6.091
 7694SOL    HW331096   3.828   4.313   6.027
 7694SOL    MW431097   3.756   4.362   6.030
 7695SOL     OW31098   4.922   5.104   6.181
 7695SOL    HW231099   4.945   5.055   6.259
 7695SOL    HW331100   5.003   5.146   6.153
 7695SOL    MW431101   4.935   5.104   6.188
 7696SOL     OW31102   5.062   3.771   5.817
 7696SOL    HW231103   5.136   3.815   5.860
 7696SOL    HW331104   4.986   3.825   5.839
 7696SOL    MW431105   5.062   3.783   5.825
 7697SOL     OW31106   5.122   4.546   6.095
 7697SOL    HW231107   5.037   4.516   6.065
 7697SOL    HW331108   5.114   4.553   6.190
 7697SOL    MW431109   5.110   4.544   6.104
 7698SOL     OW31110   4.495   4.212   5.821
 7698SOL    HW231111   4.568   4.261   5.784
 7698SOL    HW331112   4.511   4.121   5.795
 7698SOL    MW431113   4.507   4.207   5.814
 7699SOL     OW31114   3.970   4.721   5.919
 7699SOL    HW231115   3.907   4.737   5.848
 7699SOL    HW331116   3.917   4.684   5.990
 7699SOL    MW431117   3.955   4.718   5.919
 7700SOL     OW31118   4.326   5.075   5.778
 7700SOL    HW231119   4.341   5.051   5.870
 7700SOL    HW331120   4.234   5.053   5.762
 7700SOL    MW431121   4.316   5.068   5.788
 7701SOL     OW31122   4.865   5.306   5.930
 7701SOL    HW231123   4.873   5.224   5.881
 7701SOL    HW331124   4.784   5.345   5.897
 7701SOL    MW431125   4.855   5.301   5.920
 7702SOL     OW31126   4.124   5.464   6.499
 7702SOL    HW231127   4.128   5.375   6.534
 7702SOL    HW331128   4.150   5.455   6.408
 7702SOL    MW431129   4.127   5.452   6.491
 7703SOL     OW31130   4.201   4.187   6.376
 7703SOL    HW231131   4.272   4.135   6.339
 7703SOL    HW331132   4.187   4.152   6.463
 7703SOL    MW431133   4.209   4.176   6.383
 7704SOL     OW31134   4.517   5.280   6.452
 7704SOL    HW231135   4.445   5.217   6.465
 7704SOL    HW331136   4.478   5.365   6.470
 7704SOL    MW431137   4.501   5.283   6.455
 7705SOL     OW31138   4.837   4.128   6.100
 7705SOL    HW231139   4.859   4.065   6.032
 7705SOL    HW331140   4.742   4.120   6.111
 7705SOL    MW431141   4.827   4.119   6.092
 7706SOL     OW31142   3.922   3.818   6.032
 7706SOL    HW231143   3.993   3.839   5.971
 7706SOL    HW331144   3.876   3.746   5.990
 7706SOL    MW431145   3.926   3.812   6.018
 7707SOL     OW31146   5.491   5.192   6.132
 7707SOL    HW231147   5.461   5.125   6.193
 7707SOL    HW331148   5.585   5.198   6.146
 7707SOL    MW431149   5.499   5.184   6.142
 7708SOL     OW31150   5.047   4.869   6.062
 7708SOL    HW231151   5.019   4.955   6.095
 7708SOL    HW331152   5.075   4.885   5.972
 7708SOL    MW431153   5.047   4.883   6.054
 7709SOL     OW31154   4.709   3.789   6.115
 7709SOL    HW231155   4.746   3.848   6.180
 7709SOL    HW331156   4.686   3.845   6.041
 7709SOL    MW431157   4.710   3.804   6.114
 7710SOL     OW31158   4.130   4.480   6.011
 7710SOL    HW231159   4.130   4.575   5.996
 7710SOL    HW331160   4.207   4.464   6.065
 7710SOL    MW431161   4.140   4.491   6.016
 7711SOL     OW31162   3.889   4.211   6.300
 7711SOL    HW231163   3.951   4.218   6.373
 7711SOL    HW331164   3.889   4.118   6.277
 7711SOL    MW431165   3.897   4.200   6.307
 7712SOL     OW31166   5.436   5.551   5.832
 7712SOL    HW231167   5.503   5.584   5.772
 7712SOL    HW331168   5.393   5.630   5.866
 7712SOL    MW431169   5.438   5.566   5.828
 7713SOL     OW31170   3.758   4.783   5.758
 7713SOL    HW231171   3.727   4.848   5.821
 7713SOL    HW331172   3.707   4.705   5.777
 7713SOL    MW431173   3.748   4.780   5.768
 7714SOL     OW31174   5.170   3.795   6.506
 7714SOL    HW231175   5.258   3.804   6.543
 7714SOL    HW331176   5.180   3.736   6.432
 7714SOL    MW431177   5.184   3.789   6.500
 7715SOL     OW31178   4.342   5.583   5.700
 7715SOL    HW231179   4.247   5.583   5.692
 7715SOL    HW331180   4.358   5.529   5.778
 7715SOL    MW431181   4.332   5.577   5.709
 7716SOL     OW31182   5.187   4.403   5.615
 7716SOL    HW231183   5.115   4.379   5.557
 7716SOL    HW331184   5.253   4.440   5.557
 7716SOL    MW431185   5.186   4.405   5.600
 7717SOL     OW31186   4.321   5.135   6.296
 7717SOL    HW231187   4.386   5.068   6.317
 7717SOL    HW331188   4.373   5.212   6.273
 7717SOL    MW431189   4.336   5.137   6.295
 7718SOL     OW31190   4.582   4.300   6.426
 7718SOL    HW231191   4.522   4.318   6.498
 7718SOL    HW331192   4.616   4.212   6.445
 7718SOL    MW431193   4.578   4.290   6.439
 7719SOL     OW31194   4.807   4.883   6.445
 7719SOL    HW231195   4.899   4.864   6.463
 7719SOL    HW331196   4.780   4.813   6.385
 7719SOL    MW431197   4.815   4.871   6.439
 7720SOL     OW31198   4.600   4.703   5.800
 7720SOL    HW231199   4.586   4.615   5.765
 7720SOL    HW331200   4.551   4.760   5.741
 7720SOL    MW431201   4.592   4.698   5.788
 7721SOL     OW31202   5.319   3.909   5.902
 7721SOL    HW231203   5.312   3.913   5.997
 7721SOL    HW331204   5.331   4.000   5.875
 7721SOL    MW431205   5.320   3.922   5.910
 7722SOL     OW31206   4.608   4.472   6.016
 7722SOL    HW231207   4.588   4.458   5.923
 7722SOL    HW331208   4.701   4.451   6.023
 7722SOL    MW431209   4.618   4.467   6.005
 7723SOL     OW31210   4.591   5.430   6.054
 7723SOL    HW231211   4.649   5.501   6.081
 7723SOL    HW331212   4.614   5.358   6.112
 7723SOL    MW431213   4.602   5.430   6.065
 7724SOL     OW31214   4.047   3.862   5.789
 7724SOL    HW231215   3.976   3.917   5.757
 7724SOL    HW331216   4.089   3.828   5.710
 7724SOL    MW431217   4.043   3.864   5.775
 7725SOL     OW31218   3.803   3.961   5.638
 7725SOL    HW231219   3.770   4.040   5.682
 7725SOL    HW331220   3.858   3.994   5.567
 7725SOL    MW431221   3.806   3.975   5.635
 7726SOL     OW31222   3.837   5.218   5.827
 7726SOL    HW231223   3.854   5.302   5.869
 7726SOL    HW331224   3.872   5.227   5.739
 7726SOL    MW431225   3.842   5.231   5.821
 7727SOL     OW31226   5.109   5.307   6.044
 7727SOL    HW231227   5.172   5.297   5.973
 7727SOL    HW331228   5.026   5.327   5.999
 7727SOL    MW431229   5.106   5.308   6.029
 7728SOL     OW31230   5.472   6.444   0.257
 7728SOL    HW231231   5.513   6.386   0.322
 7728SOL    HW331232   5.379   6.436   0.274
 7728SOL    MW431233   5.466   6.436   0.267
 7729SOL     OW31234   5.338   6.376   1.252
 7729SOL    HW231235   5.293   6.443   1.303
 7729SOL    HW331236   5.426   6.412   1.238
 7729SOL    MW431237   5.344   6.389   1.256
 7730SOL     OW31238   4.266   6.627   0.486
 7730SOL    HW231239   4.356   6.602   0.470
 7730SOL    HW331240   4.262   6.720   0.463
 7730SOL    MW431241   4.278   6.636   0.481
 7731SOL     OW31242   5.318   6.770   1.233
 7731SOL    HW231243   5.239   6.735   1.191
 7731SOL    HW331244   5.345   6.842   1.177
 7731SOL    MW431245   5.311   6.775   1.220
 7732SOL     OW31246   4.550   6.083   0.499
 7732SOL    HW231247   4.525   6.171   0.527
 7732SOL    HW331248   4.547   6.086   0.403
 7732SOL    MW431249   4.546   6.095   0.491
 7733SOL     OW31250   3.992   6.111   0.427
 7733SOL    HW231251   4.024   6.199   0.409
 7733SOL    HW331252   3.980   6.109   0.522
 7733SOL    MW431253   3.995   6.123   0.439
 7734SOL     OW31254   4.070   6.524   1.328
 7734SOL    HW231255   4.133   6.471   1.279
 7734SOL    HW331256   4.051   6.598   1.271
 7734SOL    MW431257   4.076   6.526   1.315
 7735SOL     OW31258   4.391   5.866   0.514
 7735SOL    HW231259   4.449   5.942   0.516
 7735SOL    HW331260   4.326   5.887   0.447
 7735SOL    MW431261   4.390   5.878   0.505
 7736SOL     OW31262   4.478   6.793   0.689
 7736SOL    HW231263   4.558   6.796   0.741
 7736SOL    HW331264   4.506   6.760   0.603
 7736SOL    MW431265   4.492   6.789   0.684
 7737SOL     OW31266   4.503   7.134   1.592
 7737SOL    HW231267   4.587   7.160   1.631
 7737SOL    HW331268   4.527   7.078   1.518
 7737SOL    MW431269   4.517   7.130   1.587
 7738SOL     OW31270   4.255   6.297   0.680
 7738SOL    HW231271   4.240   6.217   0.731
 7738SOL    HW331272   4.337   6.332   0.714
 7738SOL    MW431273   4.263   6.289   0.692
 7739SOL     OW31274   4.592   6.983   1.365
 7739SOL    HW231275   4.556   7.049   1.305
 7739SOL    HW331276   4.520   6.921   1.378
 7739SOL    MW431277   4.578   6.983   1.359
 7740SOL     OW31278   4.397   6.123   1.057
 7740SOL    HW231279   4.303   6.119   1.075
 7740SOL    HW331280   4.427   6.032   1.066
 7740SOL    MW431281   4.388   6.111   1.060
 7741SOL     OW31282   4.143   6.537   0.961
 7741SOL    HW231283   4.098   6.544   0.877
 7741SOL    HW331284   4.123   6.620   1.005
 7741SOL    MW431285   4.135   6.549   0.955
 7742SOL     OW31286   5.105   6.775   0.205
 7742SOL    HW231287   5.023   6.811   0.171
 7742SOL    HW331288   5.173   6.818   0.154
 7742SOL    MW431289   5.103   6.785   0.193
 7743SOL     OW31290   4.104   6.910   0.871
 7743SOL    HW231291   4.080   6.963   0.947
 7743SOL    HW331292   4.160   6.968   0.819
 7743SOL    MW431293   4.108   6.925   0.874
 7744SOL     OW31294   4.666   6.554   0.681
 7744SOL    HW231295   4.580   6.541   0.721
 7744SOL    HW331296   4.719   6.481   0.713
 7744SOL    MW431297   4.662   6.543   0.690
 7745SOL     OW31298   4.657   6.916   0.398
 7745SOL    HW231299   4.634   6.978   0.466
 7745SOL    HW331300   4.614   6.834   0.424
 7745SOL    MW431301   4.649   6.912   0.409
 7746SOL     OW31302   5.530   5.917   0.854
 7746SOL    HW231303   5.467   5.897   0.923
 7746SOL    HW331304   5.520   5.846   0.791
 7746SOL    MW431305   5.520   5.904   0.855
 7747SOL     OW31306   4.154   5.889   0.366
 7747SOL    HW231307   4.128   5.851   0.282
 7747SOL    HW331308   4.091   5.959   0.382
 7747SOL    MW431309   4.143   5.892   0.357
 7748SOL     OW31310   3.989   6.850   0.403
 7748SOL    HW231311   3.937   6.918   0.359
 7748SOL    HW331312   3.986   6.776   0.343
 7748SOL    MW431313   3.981   6.849   0.390
 7749SOL     OW31314   5.331   6.689   0.506
 7749SOL    HW231315   5.241   6.689   0.541
 7749SOL    HW331316   5.324   6.735   0.423
 7749SOL    MW431317   5.318   6.695   0.500
 7750SOL     OW31318   5.131   6.324   1.578
 7750SOL    HW231319   5.200   6.262   1.555
 7750SOL    HW331320   5.056   6.298   1.525
 7750SOL    MW431321   5.131   6.311   1.569
 7751SOL     OW31322   4.867   6.711   1.570
 7751SOL    HW231323   4.852   6.804   1.555
 7751SOL    HW331324   4.962   6.701   1.570
 7751SOL    MW431325   4.876   6.721   1.567
 7752SOL     OW31326   4.663   6.135   1.771
 7752SOL    HW231327   4.753   6.136   1.738
 7752SOL    HW331328   4.622   6.060   1.729
 7752SOL    MW431329   4.669   6.125   1.762
 7753SOL     OW31330   5.238   6.667   0.898
 7753SOL    HW231331   5.241   6.601   0.829
 7753SOL    HW331332   5.323   6.710   0.894
 7753SOL    MW431333   5.250   6.663   0.889
 7754SOL     OW31334   4.858   6.270   0.467
 7754SOL    HW231335   4.884   6.294   0.378
 7754SOL    HW331336   4.840   6.177   0.463
 7754SOL    MW431337   4.860   6.262   0.454
 7755SOL     OW31338   4.443   5.939   1.721
 7755SOL    HW231339   4.453   5.865   1.661
 7755SOL    HW331340   4.479   5.908   1.804
 7755SOL    MW431341   4.449   5.925   1.723
 7756SOL     OW31342   4.179   7.306   0.636
 7756SOL    HW231343   4.211   7.394   0.614
 7756SOL    HW331344   4.132   7.278   0.558
 7756SOL    MW431345   4.178   7.314   0.623
 7757SOL     OW31346   5.563   5.668   0.685
 7757SOL    HW231347   5.617   5.619   0.747
 7757SOL    HW331348   5.506   5.602   0.646
 7757SOL    MW431349   5.563   5.652   0.687
 7758SOL     OW31350   4.682   5.621   1.098
 7758SOL    HW231351   4.641   5.699   1.060
 7758SOL    HW331352   4.776   5.639   1.093
 7758SOL    MW431353   4.688   5.633   1.093
 7759SOL     OW31354   4.697   6.299   0.128
 7759SOL    HW231355   4.699   6.246   0.049
 7759SOL    HW331356   4.785   6.336   0.134
 7759SOL    MW431357   4.709   6.298   0.117
 7760SOL     OW31358   5.311   6.225   0.464
 7760SOL    HW231359   5.350   6.225   0.551
 7760SOL    HW331360   5.252   6.301   0.464
 7760SOL    MW431361   5.308   6.236   0.475
 7761SOL     OW31362   4.628   6.592   1.593
 7761SOL    HW231363   4.605   6.572   1.683
 7761SOL    HW331364   4.713   6.636   1.598
 7761SOL    MW431365   4.635   6.595   1.605
 7762SOL     OW31366   4.708   5.729   1.353
 7762SOL    HW231367   4.714   5.691   1.266
 7762SOL    HW331368   4.697   5.823   1.338
 7762SOL    MW431369   4.709   5.737   1.341
 7763SOL     OW31370   4.797   6.218   1.187
 7763SOL    HW231371   4.872   6.247   1.134
 7763SOL    HW331372   4.729   6.283   1.171
 7763SOL    MW431373   4.798   6.230   1.177
 7764SOL     OW31374   5.347   6.186   1.464
 7764SOL    HW231375   5.328   6.095   1.443
 7764SOL    HW331376   5.325   6.235   1.385
 7764SOL    MW431377   5.342   6.179   1.451
 7765SOL     OW31378   4.794   5.924   1.570
 7765SOL    HW231379   4.760   5.963   1.489
 7765SOL    HW331380   4.772   5.832   1.563
 7765SOL    MW431381   4.787   5.917   1.560
 7766SOL     OW31382   5.203   6.738   1.646
 7766SOL    HW231383   5.285   6.779   1.676
 7766SOL    HW331384   5.166   6.700   1.726
 7766SOL    MW431385   5.209   6.739   1.661
 7767SOL     OW31386   5.498   6.111   0.630
 7767SOL    HW231387   5.587   6.080   0.647
 7767SOL    HW331388   5.441   6.051   0.678
 7767SOL    MW431389   5.501   6.099   0.639
 7768SOL     OW31390   3.924   5.825   0.659
 7768SOL    HW231391   3.915   5.765   0.585
 7768SOL    HW331392   3.857   5.796   0.722
 7768SOL    MW431393   3.914   5.812   0.657
 7769SOL     OW31394   4.867   6.918   0.220
 7769SOL    HW231395   4.817   6.920   0.302
 7769SOL    HW331396   4.801   6.936   0.152
 7769SOL    MW431397   4.853   6.920   0.222
 7770SOL     OW31398   3.871   5.998   1.022
 7770SOL    HW231399   3.843   6.089   1.031
 7770SOL    HW331400   3.808   5.959   0.961
 7770SOL    MW431401   3.858   6.004   1.016
 7771SOL     OW31402   4.330   7.336   0.328
 7771SOL    HW231403   4.251   7.294   0.361
 7771SOL    HW331404   4.396   7.319   0.395
 7771SOL    MW431405   4.329   7.328   0.341
 7772SOL     OW31406   5.458   6.856   1.725
 7772SOL    HW231407   5.508   6.782   1.757
 7772SOL    HW331408   5.404   6.883   1.800
 7772SOL    MW431409   5.458   6.850   1.738
 7773SOL     OW31410   4.466   6.751   0.035
 7773SOL    HW231411   4.388   6.697   0.022
 7773SOL    HW331412   4.437   6.824   0.088
 7773SOL    MW431413   4.452   6.753   0.040
 7774SOL     OW31414   5.592   6.491   1.227
 7774SOL    HW231415   5.608   6.529   1.140
 7774SOL    HW331416   5.626   6.557   1.288
 7774SOL    MW431417   5.599   6.504   1.223
 7775SOL     OW31418   5.384   7.200   0.896
 7775SOL    HW231419   5.413   7.267   0.957
 7775SOL    HW331420   5.365   7.124   0.951
 7775SOL    MW431421   5.386   7.200   0.911
 7776SOL     OW31422   5.047   7.267   0.103
 7776SOL    HW231423   4.973   7.230   0.153
 7776SOL    HW331424   5.055   7.357   0.136
 7776SOL    MW431425   5.038   7.274   0.115
 7777SOL     OW31426   3.855   6.273   1.192
 7777SOL    HW231427   3.917   6.303   1.258
 7777SOL    HW331428   3.789   6.342   1.186
 7777SOL    MW431429   3.854   6.286   1.199
 7778SOL     OW31430   4.496   5.830   0.100
 7778SOL    HW231431   4.444   5.750   0.088
 7778SOL    HW331432   4.583   5.807   0.068
 7778SOL    MW431433   4.499   5.816   0.094
 7779SOL     OW31434   4.002   6.701   1.151
 7779SOL    HW231435   4.055   6.776   1.176
 7779SOL    HW331436   3.921   6.739   1.117
 7779SOL    MW431437   3.998   6.716   1.151
 7780SOL     OW31438   4.542   6.605   1.139
 7780SOL    HW231439   4.570   6.514   1.151
 7780SOL    HW331440   4.471   6.599   1.075
 7780SOL    MW431441   4.535   6.593   1.134
 7781SOL     OW31442   3.857   6.470   0.557
 7781SOL    HW231443   3.948   6.485   0.584
 7781SOL    HW331444   3.860   6.391   0.503
 7781SOL    MW431445   3.869   6.462   0.555
 7782SOL     OW31446   4.093   6.178   1.811
 7782SOL    HW231447   4.040   6.258   1.818
 7782SOL    HW331448   4.163   6.190   1.876
 7782SOL    MW431449   4.095   6.191   1.819
 7783SOL     OW31450   4.479   5.728   1.518
 7783SOL    HW231451   4.456   5.636   1.520
 7783SOL    HW331452   4.565   5.730   1.475
 7783SOL    MW431453   4.486   5.718   1.514
 7784SOL     OW31454   4.163   6.252   1.557
 7784SOL    HW231455   4.243   6.302   1.543
 7784SOL    HW331456   4.154   6.246   1.652
 7784SOL    MW431457   4.172   6.258   1.567
 7785SOL     OW31458   5.140   5.777   1.828
 7785SOL    HW231459   5.196   5.704   1.854
 7785SOL    HW331460   5.110   5.815   1.910
 7785SOL    MW431461   5.144   5.772   1.841
 7786SOL     OW31462   3.865   7.082   0.596
 7786SOL    HW231463   3.837   7.121   0.678
 7786SOL    HW331464   3.885   6.991   0.618
 7786SOL    MW431465   3.863   7.074   0.609
 7787SOL     OW31466   4.698   7.125   0.631
 7787SOL    HW231467   4.781   7.079   0.615
 7787SOL    HW331468   4.688   7.124   0.727
 7787SOL    MW431469   4.708   7.118   0.641
 7788SOL     OW31470   5.530   6.270   0.945
 7788SOL    HW231471   5.619   6.300   0.927
 7788SOL    HW331472   5.510   6.210   0.874
 7788SOL    MW431473   5.539   6.267   0.934
 7789SOL     OW31474   5.381   6.449   1.825
 7789SOL    HW231475   5.436   6.373   1.806
 7789SOL    HW331476   5.383   6.457   1.920
 7789SOL    MW431477   5.389   6.440   1.833
 7790SOL     OW31478   4.431   7.182   0.036
 7790SOL    HW231479   4.371   7.251   0.006
 7790SOL    HW331480   4.376   7.124   0.089
 7790SOL    MW431481   4.415   7.184   0.038
 7791SOL     OW31482   4.869   5.827   0.259
 7791SOL    HW231483   4.802   5.803   0.196
 7791SOL    HW331484   4.934   5.876   0.208
 7791SOL    MW431485   4.869   5.829   0.244
 7792SOL     OW31486   4.676   6.011   1.344
 7792SOL    HW231487   4.595   6.052   1.372
 7792SOL    HW331488   4.723   6.079   1.296
 7792SOL    MW431489   4.671   6.026   1.342
 7793SOL     OW31490   4.936   6.349   0.967
 7793SOL    HW231491   4.949   6.443   0.977
 7793SOL    HW331492   4.897   6.339   0.881
 7793SOL    MW431493   4.932   6.360   0.957
 7794SOL     OW31494   4.388   6.544   0.771
 7794SOL    HW231495   4.299   6.535   0.804
 7794SOL    HW331496   4.392   6.634   0.739
 7794SOL    MW431497   4.377   6.555   0.771
 7795SOL     OW31498   5.187   6.127   0.766
 7795SOL    HW231499   5.132   6.048   0.765
 7795SOL    HW331500   5.169   6.168   0.850
 7795SOL    MW431501   5.177   6.122   0.775
 7796SOL     OW31502   4.158   5.814   1.583
 7796SOL    HW231503   4.079   5.832   1.635
 7796SOL    HW331504   4.153   5.876   1.510
 7796SOL    MW431505   4.148   5.824   1.580
 7797SOL     OW31506   4.806   6.331   0.723
 7797SOL    HW231507   4.743   6.263   0.747
 7797SOL    HW331508   4.826   6.312   0.631
 7797SOL    MW431509   4.800   6.318   0.715
 7798SOL     OW31510   4.554   6.635   0.449
 7798SOL    HW231511   4.556   6.609   0.356
 7798SOL    HW331512   4.612   6.572   0.492
 7798SOL    MW431513   4.562   6.624   0.443
 7799SOL     OW31514   5.064   5.879   0.782
 7799SOL    HW231515   5.092   5.811   0.843
 7799SOL    HW331516   4.978   5.850   0.752
 7799SOL    MW431517   5.057   5.866   0.786
 7800SOL     OW31518   3.869   6.813   0.716
 7800SOL    HW231519   3.933   6.845   0.779
 7800SOL    HW331520   3.918   6.749   0.664
 7800SOL    MW431521   3.884   6.809   0.717
 7801SOL     OW31522   4.369   6.889   1.698
 7801SOL    HW231523   4.417   6.972   1.685
 7801SOL    HW331524   4.426   6.837   1.754
 7801SOL    MW431525   4.383   6.893   1.704
 7802SOL     OW31526   5.044   5.983   0.117
 7802SOL    HW231527   5.017   6.049   0.053
 7802SOL    HW331528   5.114   6.026   0.167
 7802SOL    MW431529   5.049   5.996   0.114
 7803SOL     OW31530   4.712   5.688   0.054
 7803SOL    HW231531   4.768   5.680  -0.024
 7803SOL    HW331532   4.689   5.598   0.076
 7803SOL    MW431533   4.717   5.675   0.047
 7804SOL     OW31534   4.830   6.968   1.447
 7804SOL    HW231535   4.741   6.974   1.415
 7804SOL    HW331536   4.874   7.047   1.415
 7804SOL    MW431537   4.825   6.978   1.439
 7805SOL     OW31538   4.123   5.636   1.789
 7805SOL    HW231539   4.051   5.601   1.737
 7805SOL    HW331540   4.181   5.677   1.724
 7805SOL    MW431541   4.121   5.637   1.774
 7806SOL     OW31542   5.587   6.655   1.442
 7806SOL    HW231543   5.502   6.668   1.401
 7806SOL    HW331544   5.567   6.619   1.529
 7806SOL    MW431545   5.574   6.651   1.447
 7807SOL     OW31546   4.211   6.577   0.051
 7807SOL    HW231547   4.134   6.590   0.107
 7807SOL    HW331548   4.175   6.541  -0.030
 7807SOL    MW431549   4.197   6.573   0.048
 7808SOL     OW31550   4.864   6.550   0.294
 7808SOL    HW231551   4.774   6.571   0.269
 7808SOL    HW331552   4.891   6.623   0.350
 7808SOL    MW431553   4.856   6.562   0.297
 7809SOL     OW31554   4.364   6.899   0.986
 7809SOL    HW231555   4.357   6.878   1.080
 7809SOL    HW331556   4.282   6.867   0.949
 7809SOL    MW431557   4.352   6.893   0.993
 7810SOL     OW31558   5.228   5.909   1.388
 7810SOL    HW231559   5.175   5.911   1.468
 7810SOL    HW331560   5.213   5.822   1.351
 7810SOL    MW431561   5.220   5.899   1.393
 7811SOL     OW31562   5.564   5.833   1.261
 7811SOL    HW231563   5.545   5.900   1.196
 7811SOL    HW331564   5.621   5.771   1.216
 7811SOL    MW431565   5.568   5.834   1.247
 7812SOL     OW31566   3.810   6.991   1.649
 7812SOL    HW231567   3.854   6.924   1.595
 7812SOL    HW331568   3.725   6.953   1.669
 7812SOL    MW431569   3.805   6.977   1.645
 7813SOL     OW31570   4.493   5.666   0.701
 7813SOL    HW231571   4.422   5.727   0.683
 7813SOL    HW331572   4.544   5.663   0.620
 7813SOL    MW431573   4.489   5.672   0.688
 7814SOL     OW31574   4.251   6.906   0.450
 7814SOL    HW231575   4.244   6.938   0.540
 7814SOL    HW331576   4.161   6.890   0.422
 7814SOL    MW431577   4.239   6.908   0.457
 7815SOL     OW31578   4.453   6.323   1.831
 7815SOL    HW231579   4.523   6.265   1.803
 7815SOL    HW331580   4.396   6.268   1.886
 7815SOL    MW431581   4.455   6.310   1.835
 7816SOL     OW31582   5.240   6.535   1.464
 7816SOL    HW231583   5.245   6.588   1.544
 7816SOL    HW331584   5.202   6.452   1.492
 7816SOL    MW431585   5.236   6.530   1.479
 7817SOL     OW31586   4.880   5.670   1.710
 7817SOL    HW231587   4.875   5.577   1.691
 7817SOL    HW331588   4.963   5.681   1.756
 7817SOL    MW431589   4.888   5.659   1.714
 7818SOL     OW31590   4.254   6.190   0.164
 7818SOL    HW231591   4.220   6.246   0.234
 7818SOL    HW331592   4.325   6.140   0.204
 7818SOL    MW431593   4.260   6.191   0.178
 7819SOL     OW31594   5.350   6.941   0.986
 7819SOL    HW231595   5.385   6.923   0.899
 7819SOL    HW331596   5.255   6.942   0.973
 7819SOL    MW431597   5.342   6.938   0.973
 7820SOL     OW31598   4.779   6.589   1.355
 7820SOL    HW231599   4.822   6.624   1.433
 7820SOL    HW331600   4.762   6.666   1.301
 7820SOL    MW431601   4.782   6.604   1.358
 7821SOL     OW31602   5.310   6.076   0.228
 7821SOL    HW231603   5.302   6.147   0.165
 7821SOL    HW331604   5.328   6.120   0.311
 7821SOL    MW431605   5.311   6.090   0.230
 7822SOL     OW31606   4.170   5.731   0.657
 7822SOL    HW231607   4.220   5.774   0.588
 7822SOL    HW331608   4.085   5.775   0.657
 7822SOL    MW431609   4.167   5.744   0.648
 7823SOL     OW31610   3.929   6.793   1.517
 7823SOL    HW231611   3.957   6.746   1.595
 7823SOL    HW331612   3.850   6.748   1.488
 7823SOL    MW431613   3.922   6.782   1.523
 7824SOL     OW31614   4.437   6.120   1.484
 7824SOL    HW231615   4.409   6.208   1.508
 7824SOL    HW331616   4.406   6.064   1.555
 7824SOL    MW431617   4.429   6.123   1.496
 7825SOL     OW31618   4.979   6.338   0.203
 7825SOL    HW231619   5.026   6.356   0.122
 7825SOL    HW331620   4.945   6.422   0.231
 7825SOL    MW431621   4.981   6.352   0.196
 7826SOL     OW31622   4.092   6.516   0.697
 7826SOL    HW231623   4.150   6.572   0.645
 7826SOL    HW331624   4.136   6.431   0.699
 7826SOL    MW431625   4.105   6.513   0.690
 7827SOL     OW31626   5.232   5.868   0.534
 7827SOL    HW231627   5.154   5.818   0.559
 7827SOL    HW331628   5.203   5.959   0.534
 7827SOL    MW431629   5.218   5.872   0.537
 7828SOL     OW31630   4.818   5.830   0.693
 7828SOL    HW231631   4.838   5.905   0.637
 7828SOL    HW331632   4.798   5.869   0.778
 7828SOL    MW431633   4.819   5.846   0.697
 7829SOL     OW31634   4.714   7.080   0.025
 7829SOL    HW231635   4.741   7.158  -0.023
 7829SOL    HW331636   4.621   7.095   0.044
 7829SOL    MW431637   4.705   7.093   0.021
 7830SOL     OW31638   5.578   6.603   1.712
 7830SOL    HW231639   5.491   6.583   1.748
 7830SOL    HW331640   5.632   6.529   1.737
 7830SOL    MW431641   5.573   6.592   1.720
 7831SOL     OW31642   3.799   7.116   0.869
 7831SOL    HW231643   3.831   7.120   0.960
 7831SOL    HW331644   3.704   7.124   0.877
 7831SOL    MW431645   3.791   7.119   0.882
 7832SOL     OW31646   3.754   6.242   0.416
 7832SOL    HW231647   3.694   6.214   0.486
 7832SOL    HW331648   3.828   6.182   0.422
 7832SOL    MW431649   3.756   6.231   0.425
 7833SOL     OW31650   4.922   6.973   0.576
 7833SOL    HW231651   4.945   6.924   0.654
 7833SOL    HW331652   5.003   7.015   0.548
 7833SOL    MW431653   4.935   6.973   0.583
 7834SOL     OW31654   4.180   5.981   1.305
 7834SOL    HW231655   4.213   6.062   1.345
 7834SOL    HW331656   4.153   6.007   1.217
 7834SOL    MW431657   4.179   5.995   1.299
 7835SOL     OW31658   4.134   5.948   1.041
 7835SOL    HW231659   4.164   5.862   1.012
 7835SOL    HW331660   4.039   5.941   1.044
 7835SOL    MW431661   4.126   5.937   1.039
 7836SOL     OW31662   4.963   6.157   1.732
 7836SOL    HW231663   5.015   6.092   1.685
 7836SOL    HW331664   4.921   6.208   1.662
 7836SOL    MW431665   4.964   6.154   1.715
 7837SOL     OW31666   5.062   5.952   1.593
 7837SOL    HW231667   4.969   5.936   1.580
 7837SOL    HW331668   5.088   5.890   1.661
 7837SOL    MW431669   5.052   5.942   1.600
 7838SOL     OW31670   4.277   5.726   0.932
 7838SOL    HW231671   4.287   5.635   0.958
 7838SOL    HW331672   4.233   5.722   0.847
 7838SOL    MW431673   4.273   5.714   0.924
 7839SOL     OW31674   5.428   6.048   1.103
 7839SOL    HW231675   5.361   6.081   1.163
 7839SOL    HW331676   5.471   6.126   1.069
 7839SOL    MW431677   5.426   6.063   1.107
 7840SOL     OW31678   5.606   6.768   1.073
 7840SOL    HW231679   5.599   6.708   0.998
 7840SOL    HW331680   5.532   6.828   1.062
 7840SOL    MW431681   5.596   6.768   1.062
 7841SOL     OW31682   4.988   6.630   0.991
 7841SOL    HW231683   5.002   6.602   1.082
 7841SOL    HW331684   5.074   6.661   0.963
 7841SOL    MW431685   5.001   6.631   1.000
 7842SOL     OW31686   5.071   6.125   1.270
 7842SOL    HW231687   5.092   6.126   1.177
 7842SOL    HW331688   5.116   6.047   1.303
 7842SOL    MW431689   5.078   6.115   1.262
 7843SOL     OW31690   5.564   6.256   1.812
 7843SOL    HW231691   5.601   6.201   1.881
 7843SOL    HW331692   5.589   6.213   1.730
 7843SOL    MW431693   5.571   6.244   1.811
 7844SOL     OW31694   5.111   6.554   1.863
 7844SOL    HW231695   5.177   6.502   1.817
 7844SOL    HW331696   5.131   6.541   1.956
 7844SOL    MW431697   5.122   6.545   1.870
 7845SOL     OW31698   5.062   5.640   0.212
 7845SOL    HW231699   5.136   5.684   0.255
 7845SOL    HW331700   4.986   5.694   0.234
 7845SOL    MW431701   5.062   5.652   0.220
 7846SOL     OW31702   5.122   6.415   0.490
 7846SOL    HW231703   5.037   6.385   0.460
 7846SOL    HW331704   5.114   6.422   0.585
 7846SOL    MW431705   5.110   6.413   0.499
 7847SOL     OW31706   4.198   6.878   1.221
 7847SOL    HW231707   4.210   6.905   1.312
 7847SOL    HW331708   4.179   6.959   1.174
 7847SOL    MW431709   4.197   6.893   1.226
 7848SOL     OW31710   4.482   5.858   1.044
 7848SOL    HW231711   4.455   5.860   1.135
 7848SOL    HW331712   4.412   5.810   0.999
 7848SOL    MW431713   4.470   5.854   1.051
 7849SOL     OW31714   5.238   6.935   1.438
 7849SOL    HW231715   5.223   6.864   1.501
 7849SOL    HW331716   5.284   6.893   1.366
 7849SOL    MW431717   5.244   6.919   1.438
 7850SOL     OW31718   4.312   6.666   1.555
 7850SOL    HW231719   4.349   6.671   1.467
 7850SOL    HW331720   4.351   6.739   1.602
 7850SOL    MW431721   4.322   6.676   1.550
 7851SOL     OW31722   4.492   6.709   1.367
 7851SOL    HW231723   4.551   6.655   1.420
 7851SOL    HW331724   4.507   6.681   1.277
 7851SOL    MW431725   4.502   6.698   1.363
 7852SOL     OW31726   4.495   6.081   0.216
 7852SOL    HW231727   4.568   6.130   0.179
 7852SOL    HW331728   4.511   5.990   0.190
 7852SOL    MW431729   4.507   6.076   0.209
 7853SOL     OW31730   4.963   5.677   1.130
 7853SOL    HW231731   5.018   5.686   1.052
 7853SOL    HW331732   5.018   5.711   1.201
 7853SOL    MW431733   4.977   5.682   1.129
 7854SOL     OW31734   3.970   6.590   0.314
 7854SOL    HW231735   3.907   6.606   0.243
 7854SOL    HW331736   3.917   6.553   0.385
 7854SOL    MW431737   3.955   6.587   0.314
 7855SOL     OW31738   4.326   6.944   0.173
 7855SOL    HW231739   4.341   6.920   0.265
 7855SOL    HW331740   4.234   6.922   0.157
 7855SOL    MW431741   4.316   6.937   0.183
 7856SOL     OW31742   4.741   6.811   1.137
 7856SOL    HW231743   4.673   6.745   1.153
 7856SOL    HW331744   4.759   6.805   1.044
 7856SOL    MW431745   4.734   6.802   1.128
 7857SOL     OW31746   3.830   7.086   1.388
 7857SOL    HW231747   3.820   7.044   1.474
 7857SOL    HW331748   3.751   7.139   1.378
 7857SOL    MW431749   3.819   7.087   1.399
 7858SOL     OW31750   4.734   5.950   0.958
 7858SOL    HW231751   4.664   5.902   1.003
 7858SOL    HW331752   4.766   6.013   1.022
 7858SOL    MW431753   4.729   5.952   0.972
 7859SOL     OW31754   4.385   6.386   1.578
 7859SOL    HW231755   4.378   6.481   1.566
 7859SOL    HW331756   4.394   6.375   1.673
 7859SOL    MW431757   4.386   6.398   1.588
 7860SOL     OW31758   4.106   6.901   1.836
 7860SOL    HW231759   4.178   6.903   1.773
 7860SOL    HW331760   4.076   6.810   1.835
 7860SOL    MW431761   4.111   6.890   1.828
 7861SOL     OW31762   5.190   5.664   1.303
 7861SOL    HW231763   5.261   5.610   1.267
 7861SOL    HW331764   5.189   5.643   1.396
 7861SOL    MW431765   5.199   5.655   1.311
 7862SOL     OW31766   4.201   6.056   0.771
 7862SOL    HW231767   4.272   6.004   0.734
 7862SOL    HW331768   4.187   6.021   0.858
 7862SOL    MW431769   4.209   6.045   0.778
 7863SOL     OW31770   4.837   5.997   0.495
 7863SOL    HW231771   4.859   5.934   0.427
 7863SOL    HW331772   4.742   5.989   0.506
 7863SOL    MW431773   4.827   5.988   0.487
 7864SOL     OW31774   3.922   5.687   0.427
 7864SOL    HW231775   3.993   5.708   0.366
 7864SOL    HW331776   3.876   5.615   0.385
 7864SOL    MW431777   3.926   5.681   0.413
 7865SOL     OW31778   3.753   6.154   1.570
 7865SOL    HW231779   3.817   6.220   1.545
 7865SOL    HW331780   3.672   6.181   1.527
 7865SOL    MW431781   3.751   6.166   1.562
 7866SOL     OW31782   5.491   7.061   0.527
 7866SOL    HW231783   5.461   6.994   0.588
 7866SOL    HW331784   5.585   7.067   0.541
 7866SOL    MW431785   5.499   7.053   0.537
 7867SOL     OW31786   5.047   6.738   0.457
 7867SOL    HW231787   5.019   6.824   0.490
 7867SOL    HW331788   5.075   6.754   0.367
 7867SOL    MW431789   5.047   6.752   0.449
 7868SOL     OW31790   4.709   5.658   0.510
 7868SOL    HW231791   4.746   5.717   0.575
 7868SOL    HW331792   4.686   5.714   0.436
 7868SOL    MW431793   4.710   5.673   0.509
 7869SOL     OW31794   5.562   6.540   0.932
 7869SOL    HW231795   5.553   6.572   0.843
 7869SOL    HW331796   5.515   6.456   0.932
 7869SOL    MW431797   5.555   6.533   0.922
 7870SOL     OW31798   3.938   6.380   1.511
 7870SOL    HW231799   3.959   6.449   1.449
 7870SOL    HW331800   4.018   6.327   1.516
 7870SOL    MW431801   3.951   6.381   1.505
 7871SOL     OW31802   5.474   6.471   0.633
 7871SOL    HW231803   5.568   6.460   0.621
 7871SOL    HW331804   5.450   6.543   0.574
 7871SOL    MW431805   5.484   6.479   0.624
 7872SOL     OW31806   3.923   6.395   1.778
 7872SOL    HW231807   3.849   6.339   1.804
 7872SOL    HW331808   3.918   6.398   1.683
 7872SOL    MW431809   3.912   6.388   1.768
 7873SOL     OW31810   4.089   5.682   1.228
 7873SOL    HW231811   4.132   5.766   1.248
 7873SOL    HW331812   4.162   5.620   1.221
 7873SOL    MW431813   4.104   5.685   1.229
 7874SOL     OW31814   4.130   6.349   0.406
 7874SOL    HW231815   4.130   6.444   0.391
 7874SOL    HW331816   4.207   6.333   0.460
 7874SOL    MW431817   4.140   6.360   0.411
 7875SOL     OW31818   4.906   6.208   1.470
 7875SOL    HW231819   4.942   6.181   1.386
 7875SOL    HW331820   4.819   6.242   1.449
 7875SOL    MW431821   4.900   6.209   1.457
 7876SOL     OW31822   3.889   6.080   0.695
 7876SOL    HW231823   3.951   6.087   0.768
 7876SOL    HW331824   3.889   5.987   0.672
 7876SOL    MW431825   3.897   6.069   0.702
 7877SOL     OW31826   4.571   6.341   1.179
 7877SOL    HW231827   4.529   6.259   1.155
 7877SOL    HW331828   4.572   6.340   1.275
 7877SOL    MW431829   4.564   6.330   1.188
 7878SOL     OW31830   4.375   5.811   1.284
 7878SOL    HW231831   4.306   5.874   1.305
 7878SOL    HW331832   4.402   5.775   1.369
 7878SOL    MW431833   4.369   5.814   1.297
 7879SOL     OW31834   3.758   6.652   0.153
 7879SOL    HW231835   3.727   6.717   0.216
 7879SOL    HW331836   3.707   6.574   0.172
 7879SOL    MW431837   3.748   6.649   0.163
 7880SOL     OW31838   5.170   5.664   0.901
 7880SOL    HW231839   5.258   5.673   0.938
 7880SOL    HW331840   5.180   5.605   0.827
 7880SOL    MW431841   5.184   5.658   0.895
 7881SOL     OW31842   5.202   6.403   0.745
 7881SOL    HW231843   5.282   6.418   0.694
 7881SOL    HW331844   5.195   6.308   0.751
 7881SOL    MW431845   5.211   6.392   0.740
 7882SOL     OW31846   4.652   6.329   1.442
 7882SOL    HW231847   4.721   6.396   1.439
 7882SOL    HW331848   4.585   6.367   1.498
 7882SOL    MW431849   4.653   6.342   1.449
 7883SOL     OW31850   4.070   6.629   1.690
 7883SOL    HW231851   4.024   6.545   1.692
 7883SOL    HW331852   4.127   6.623   1.614
 7883SOL    MW431853   4.072   6.617   1.682
 7884SOL     OW31854   4.582   6.169   0.821
 7884SOL    HW231855   4.522   6.187   0.893
 7884SOL    HW331856   4.616   6.081   0.840
 7884SOL    MW431857   4.578   6.159   0.834
 7885SOL     OW31858   5.523   5.668   1.490
 7885SOL    HW231859   5.444   5.714   1.518
 7885SOL    HW331860   5.558   5.722   1.419
 7885SOL    MW431861   5.517   5.681   1.484
 7886SOL     OW31862   4.807   6.752   0.840
 7886SOL    HW231863   4.899   6.733   0.858
 7886SOL    HW331864   4.780   6.682   0.780
 7886SOL    MW431865   4.815   6.740   0.834
 7887SOL     OW31866   4.600   6.572   0.195
 7887SOL    HW231867   4.586   6.484   0.160
 7887SOL    HW331868   4.551   6.629   0.136
 7887SOL    MW431869   4.592   6.567   0.183
 7888SOL     OW31870   5.081   6.990   0.936
 7888SOL    HW231871   5.054   7.074   0.901
 7888SOL    HW331872   5.041   6.985   1.023
 7888SOL    MW431873   5.074   6.999   0.942
 7889SOL     OW31874   5.000   6.938   1.204
 7889SOL    HW231875   5.011   6.905   1.293
 7889SOL    HW331876   4.919   6.897   1.173
 7889SOL    MW431877   4.990   6.930   1.210
 7890SOL     OW31878   4.013   6.296   0.974
 7890SOL    HW231879   3.963   6.295   1.055
 7890SOL    HW331880   4.033   6.388   0.958
 7890SOL    MW431881   4.009   6.308   0.982
 7891SOL     OW31882   5.080   7.060   1.736
 7891SOL    HW231883   5.080   7.154   1.752
 7891SOL    HW331884   5.125   7.050   1.652
 7891SOL    MW431885   5.086   7.070   1.727
 7892SOL     OW31886   4.608   6.341   0.411
 7892SOL    HW231887   4.588   6.327   0.318
 7892SOL    HW331888   4.701   6.320   0.418
 7892SOL    MW431889   4.618   6.336   0.400
 7893SOL     OW31890   3.935   5.964   1.715
 7893SOL    HW231891   3.892   6.023   1.652
 7893SOL    HW331892   4.003   6.019   1.755
 7893SOL    MW431893   3.939   5.979   1.712
 7894SOL     OW31894   5.047   6.584   1.260
 7894SOL    HW231895   5.110   6.581   1.333
 7894SOL    HW331896   4.963   6.602   1.302
 7894SOL    MW431897   5.043   6.586   1.275
 7895SOL     OW31898   5.386   5.761   1.039
 7895SOL    HW231899   5.431   5.679   1.058
 7895SOL    HW331900   5.406   5.817   1.115
 7895SOL    MW431901   5.396   5.757   1.051
 7896SOL     OW31902   3.834   5.604   1.138
 7896SOL    HW231903   3.825   5.605   1.043
 7896SOL    HW331904   3.928   5.616   1.153
 7896SOL    MW431905   3.846   5.607   1.129
 7897SOL     OW31906   5.471   6.797   0.758
 7897SOL    HW231907   5.450   6.743   0.681
 7897SOL    HW331908   5.567   6.795   0.762
 7897SOL    MW431909   5.480   6.790   0.747
 7898SOL     OW31910   4.163   6.942   1.501
 7898SOL    HW231911   4.084   6.892   1.524
 7898SOL    HW331912   4.233   6.901   1.551
 7898SOL    MW431913   4.161   6.930   1.511
 7899SOL     OW31914   4.047   5.731   0.184
 7899SOL    HW231915   3.976   5.786   0.152
 7899SOL    HW331916   4.089   5.697   0.105
 7899SOL    MW431917   4.043   5.733   0.170
 7900SOL     OW31918   5.171   6.228   1.020
 7900SOL    HW231919   5.094   6.274   0.986
 7900SOL    HW331920   5.228   6.297   1.054
 7900SOL    MW431921   5.168   6.243   1.020
 7901SOL     OW31922   3.803   5.830   0.033
 7901SOL    HW231923   3.770   5.909   0.077
 7901SOL    HW331924   3.858   5.863  -0.038
 7901SOL    MW431925   3.806   5.844   0.030
 7902SOL     OW31926   5.472   6.444   2.125
 7902SOL    HW231927   5.513   6.386   2.190
 7902SOL    HW331928   5.379   6.436   2.142
 7902SOL    MW431929   5.466   6.436   2.135
 7903SOL     OW31930   5.338   6.376   3.120
 7903SOL    HW231931   5.293   6.443   3.171
 7903SOL    HW331932   5.426   6.412   3.106
 7903SOL    MW431933   5.344   6.389   3.124
 7904SOL     OW31934   4.266   6.627   2.354
 7904SOL    HW231935   4.356   6.602   2.338
 7904SOL    HW331936   4.262   6.720   2.331
 7904SOL    MW431937   4.278   6.636   2.349
 7905SOL     OW31938   5.318   6.770   3.101
 7905SOL    HW231939   5.239   6.735   3.059
 7905SOL    HW331940   5.345   6.842   3.045
 7905SOL    MW431941   5.311   6.775   3.088
 7906SOL     OW31942   4.550   6.083   2.367
 7906SOL    HW231943   4.525   6.171   2.395
 7906SOL    HW331944   4.547   6.086   2.271
 7906SOL    MW431945   4.546   6.095   2.359
 7907SOL     OW31946   3.992   6.111   2.295
 7907SOL    HW231947   4.024   6.199   2.277
 7907SOL    HW331948   3.980   6.109   2.390
 7907SOL    MW431949   3.995   6.123   2.307
 7908SOL     OW31950   4.070   6.524   3.196
 7908SOL    HW231951   4.133   6.471   3.147
 7908SOL    HW331952   4.051   6.598   3.139
 7908SOL    MW431953   4.076   6.526   3.183
 7909SOL     OW31954   4.391   5.866   2.382
 7909SOL    HW231955   4.449   5.942   2.384
 7909SOL    HW331956   4.326   5.887   2.315
 7909SOL    MW431957   4.390   5.878   2.373
 7910SOL     OW31958   4.478   6.793   2.557
 7910SOL    HW231959   4.558   6.796   2.609
 7910SOL    HW331960   4.506   6.760   2.471
 7910SOL    MW431961   4.492   6.789   2.552
 7911SOL     OW31962   4.503   7.134   3.460
 7911SOL    HW231963   4.587   7.160   3.499
 7911SOL    HW331964   4.527   7.078   3.386
 7911SOL    MW431965   4.517   7.130   3.455
 7912SOL     OW31966   4.255   6.297   2.548
 7912SOL    HW231967   4.240   6.217   2.599
 7912SOL    HW331968   4.337   6.332   2.582
 7912SOL    MW431969   4.263   6.289   2.560
 7913SOL     OW31970   4.592   6.983   3.233
 7913SOL    HW231971   4.556   7.049   3.173
 7913SOL    HW331972   4.520   6.921   3.246
 7913SOL    MW431973   4.578   6.983   3.227
 7914SOL     OW31974   4.143   6.537   2.829
 7914SOL    HW231975   4.098   6.544   2.745
 7914SOL    HW331976   4.123   6.620   2.873
 7914SOL    MW431977   4.135   6.549   2.823
 7915SOL     OW31978   4.104   6.910   2.739
 7915SOL    HW231979   4.080   6.963   2.815
 7915SOL    HW331980   4.160   6.968   2.687
 7915SOL    MW431981   4.108   6.925   2.742
 7916SOL     OW31982   4.666   6.554   2.549
 7916SOL    HW231983   4.580   6.541   2.589
 7916SOL    HW331984   4.719   6.481   2.581
 7916SOL    MW431985   4.662   6.543   2.558
 7917SOL     OW31986   4.657   6.916   2.266
 7917SOL    HW231987   4.634   6.978   2.334
 7917SOL    HW331988   4.614   6.834   2.292
 7917SOL    MW431989   4.649   6.912   2.277
 7918SOL     OW31990   5.530   5.917   2.722
 7918SOL    HW231991   5.467   5.897   2.791
 7918SOL    HW331992   5.520   5.846   2.659
 7918SOL    MW431993   5.520   5.904   2.723
 7919SOL     OW31994   3.989   6.850   2.271
 7919SOL    HW231995   3.937   6.918   2.227
 7919SOL    HW331996   3.986   6.776   2.211
 7919SOL    MW431997   3.981   6.849   2.258
 7920SOL     OW31998   5.586   6.086   2.024
 7920SOL    HW231999   5.495   6.088   2.052
 7920SOL    HW332000   5.631   6.148   2.082
 7920SOL    MW432001   5.579   6.094   2.034
 7921SOL     OW32002   5.331   6.689   2.374
 7921SOL    HW232003   5.241   6.689   2.409
 7921SOL    HW332004   5.324   6.735   2.291
 7921SOL    MW432005   5.318   6.695   2.368
 7922SOL     OW32006   5.131   6.324   3.446
 7922SOL    HW232007   5.200   6.262   3.423
 7922SOL    HW332008   5.056   6.298   3.393
 7922SOL    MW432009   5.131   6.311   3.437
 7923SOL     OW32010   4.867   6.711   3.438
 7923SOL    HW232011   4.852   6.804   3.423
 7923SOL    HW332012   4.962   6.701   3.438
 7923SOL    MW432013   4.876   6.721   3.435
 7924SOL     OW32014   4.663   6.135   3.639
 7924SOL    HW232015   4.753   6.136   3.606
 7924SOL    HW332016   4.622   6.060   3.597
 7924SOL    MW432017   4.669   6.125   3.630
 7925SOL     OW32018   5.238   6.667   2.766
 7925SOL    HW232019   5.241   6.601   2.697
 7925SOL    HW332020   5.323   6.710   2.762
 7925SOL    MW432021   5.250   6.663   2.757
 7926SOL     OW32022   4.858   6.270   2.335
 7926SOL    HW232023   4.884   6.294   2.246
 7926SOL    HW332024   4.840   6.177   2.331
 7926SOL    MW432025   4.860   6.262   2.322
 7927SOL     OW32026   5.523   6.890   2.186
 7927SOL    HW232027   5.479   6.931   2.261
 7927SOL    HW332028   5.580   6.958   2.151
 7927SOL    MW432029   5.525   6.904   2.191
 7928SOL     OW32030   4.443   5.939   3.589
 7928SOL    HW232031   4.453   5.865   3.529
 7928SOL    HW332032   4.479   5.908   3.672
 7928SOL    MW432033   4.449   5.925   3.591
 7929SOL     OW32034   4.179   7.306   2.504
 7929SOL    HW232035   4.211   7.394   2.482
 7929SOL    HW332036   4.132   7.278   2.426
 7929SOL    MW432037   4.178   7.314   2.491
 7930SOL     OW32038   5.563   5.668   2.553
 7930SOL    HW232039   5.617   5.619   2.615
 7930SOL    HW332040   5.506   5.602   2.514
 7930SOL    MW432041   5.563   5.652   2.555
 7931SOL     OW32042   4.697   6.299   1.996
 7931SOL    HW232043   4.699   6.246   1.917
 7931SOL    HW332044   4.785   6.336   2.002
 7931SOL    MW432045   4.709   6.298   1.985
 7932SOL     OW32046   5.311   6.225   2.332
 7932SOL    HW232047   5.350   6.225   2.419
 7932SOL    HW332048   5.252   6.301   2.332
 7932SOL    MW432049   5.308   6.236   2.343
 7933SOL     OW32050   4.628   6.592   3.461
 7933SOL    HW232051   4.605   6.572   3.551
 7933SOL    HW332052   4.713   6.636   3.466
 7933SOL    MW432053   4.635   6.595   3.473
 7934SOL     OW32054   4.708   5.729   3.221
 7934SOL    HW232055   4.714   5.691   3.134
 7934SOL    HW332056   4.697   5.823   3.206
 7934SOL    MW432057   4.709   5.737   3.209
 7935SOL     OW32058   4.797   6.218   3.055
 7935SOL    HW232059   4.872   6.247   3.002
 7935SOL    HW332060   4.729   6.283   3.039
 7935SOL    MW432061   4.798   6.230   3.045
 7936SOL     OW32062   5.347   6.186   3.332
 7936SOL    HW232063   5.328   6.095   3.311
 7936SOL    HW332064   5.325   6.235   3.253
 7936SOL    MW432065   5.342   6.179   3.319
 7937SOL     OW32066   4.794   5.924   3.438
 7937SOL    HW232067   4.760   5.963   3.357
 7937SOL    HW332068   4.772   5.832   3.431
 7937SOL    MW432069   4.787   5.917   3.428
 7938SOL     OW32070   5.203   6.738   3.514
 7938SOL    HW232071   5.285   6.779   3.544
 7938SOL    HW332072   5.166   6.700   3.594
 7938SOL    MW432073   5.209   6.739   3.529
 7939SOL     OW32074   5.498   6.111   2.498
 7939SOL    HW232075   5.587   6.080   2.515
 7939SOL    HW332076   5.441   6.051   2.546
 7939SOL    MW432077   5.501   6.099   2.507
 7940SOL     OW32078   3.924   5.825   2.527
 7940SOL    HW232079   3.915   5.765   2.453
 7940SOL    HW332080   3.857   5.796   2.590
 7940SOL    MW432081   3.914   5.812   2.525
 7941SOL     OW32082   4.867   6.918   2.088
 7941SOL    HW232083   4.817   6.920   2.170
 7941SOL    HW332084   4.801   6.936   2.020
 7941SOL    MW432085   4.853   6.920   2.090
 7942SOL     OW32086   3.871   5.998   2.890
 7942SOL    HW232087   3.843   6.089   2.899
 7942SOL    HW332088   3.808   5.959   2.829
 7942SOL    MW432089   3.858   6.004   2.884
 7943SOL     OW32090   4.330   7.336   2.196
 7943SOL    HW232091   4.251   7.294   2.229
 7943SOL    HW332092   4.396   7.319   2.263
 7943SOL    MW432093   4.329   7.328   2.209
 7944SOL     OW32094   5.458   6.856   3.593
 7944SOL    HW232095   5.508   6.782   3.625
 7944SOL    HW332096   5.404   6.883   3.668
 7944SOL    MW432097   5.458   6.850   3.606
 7945SOL     OW32098   4.466   6.751   1.903
 7945SOL    HW232099   4.388   6.697   1.890
 7945SOL    HW332100   4.437   6.824   1.956
 7945SOL    MW432101   4.452   6.753   1.908
 7946SOL     OW32102   5.592   6.491   3.095
 7946SOL    HW232103   5.608   6.529   3.008
 7946SOL    HW332104   5.626   6.557   3.156
 7946SOL    MW432105   5.599   6.504   3.091
 7947SOL     OW32106   5.384   7.200   2.764
 7947SOL    HW232107   5.413   7.267   2.825
 7947SOL    HW332108   5.365   7.124   2.819
 7947SOL    MW432109   5.386   7.200   2.779
 7948SOL     OW32110   3.855   6.273   3.060
 7948SOL    HW232111   3.917   6.303   3.126
 7948SOL    HW332112   3.789   6.342   3.054
 7948SOL    MW432113   3.854   6.286   3.067
 7949SOL     OW32114   5.271   6.941   1.913
 7949SOL    HW232115   5.218   6.990   1.849
 7949SOL    HW332116   5.302   7.007   1.974
 7949SOL    MW432117   5.269   6.955   1.911
 7950SOL     OW32118   4.496   5.830   1.968
 7950SOL    HW232119   4.444   5.750   1.956
 7950SOL    HW332120   4.583   5.807   1.936
 7950SOL    MW432121   4.499   5.816   1.962
 7951SOL     OW32122   4.002   6.701   3.019
 7951SOL    HW232123   4.055   6.776   3.044
 7951SOL    HW332124   3.921   6.739   2.985
 7951SOL    MW432125   3.998   6.716   3.019
 7952SOL     OW32126   4.542   6.605   3.007
 7952SOL    HW232127   4.570   6.514   3.019
 7952SOL    HW332128   4.471   6.599   2.943
 7952SOL    MW432129   4.535   6.593   3.002
 7953SOL     OW32130   3.857   6.470   2.425
 7953SOL    HW232131   3.948   6.485   2.452
 7953SOL    HW332132   3.860   6.391   2.371
 7953SOL    MW432133   3.869   6.462   2.423
 7954SOL     OW32134   4.093   6.178   3.679
 7954SOL    HW232135   4.040   6.258   3.686
 7954SOL    HW332136   4.163   6.190   3.744
 7954SOL    MW432137   4.095   6.191   3.687
 7955SOL     OW32138   4.479   5.728   3.386
 7955SOL    HW232139   4.456   5.636   3.388
 7955SOL    HW332140   4.565   5.730   3.343
 7955SOL    MW432141   4.486   5.718   3.382
 7956SOL     OW32142   4.163   6.252   3.425
 7956SOL    HW232143   4.243   6.302   3.411
 7956SOL    HW332144   4.154   6.246   3.520
 7956SOL    MW432145   4.172   6.258   3.435
 7957SOL     OW32146   5.140   5.777   3.696
 7957SOL    HW232147   5.196   5.704   3.722
 7957SOL    HW332148   5.110   5.815   3.778
 7957SOL    MW432149   5.144   5.772   3.709
 7958SOL     OW32150   3.865   7.082   2.464
 7958SOL    HW232151   3.837   7.121   2.546
 7958SOL    HW332152   3.885   6.991   2.486
 7958SOL    MW432153   3.863   7.074   2.477
 7959SOL     OW32154   4.698   7.125   2.499
 7959SOL    HW232155   4.781   7.079   2.483
 7959SOL    HW332156   4.688   7.124   2.595
 7959SOL    MW432157   4.708   7.118   2.509
 7960SOL     OW32158   5.530   6.270   2.813
 7960SOL    HW232159   5.619   6.300   2.795
 7960SOL    HW332160   5.510   6.210   2.742
 7960SOL    MW432161   5.539   6.267   2.802
 7961SOL     OW32162   5.381   6.449   3.693
 7961SOL    HW232163   5.436   6.373   3.674
 7961SOL    HW332164   5.383   6.457   3.788
 7961SOL    MW432165   5.389   6.440   3.701
 7962SOL     OW32166   4.431   7.182   1.904
 7962SOL    HW232167   4.371   7.251   1.874
 7962SOL    HW332168   4.376   7.124   1.957
 7962SOL    MW432169   4.415   7.184   1.906
 7963SOL     OW32170   4.869   5.827   2.127
 7963SOL    HW232171   4.802   5.803   2.064
 7963SOL    HW332172   4.934   5.876   2.076
 7963SOL    MW432173   4.869   5.829   2.112
 7964SOL     OW32174   4.676   6.011   3.212
 7964SOL    HW232175   4.595   6.052   3.240
 7964SOL    HW332176   4.723   6.079   3.164
 7964SOL    MW432177   4.671   6.026   3.210
 7965SOL     OW32178   4.936   6.349   2.835
 7965SOL    HW232179   4.949   6.443   2.845
 7965SOL    HW332180   4.897   6.339   2.749
 7965SOL    MW432181   4.932   6.360   2.825
 7966SOL     OW32182   4.388   6.544   2.639
 7966SOL    HW232183   4.299   6.535   2.672
 7966SOL    HW332184   4.392   6.634   2.607
 7966SOL    MW432185   4.377   6.555   2.639
 7967SOL     OW32186   5.187   6.127   2.634
 7967SOL    HW232187   5.132   6.048   2.633
 7967SOL    HW332188   5.169   6.168   2.718
 7967SOL    MW432189   5.177   6.122   2.643
 7968SOL     OW32190   4.806   6.331   2.591
 7968SOL    HW232191   4.743   6.263   2.615
 7968SOL    HW332192   4.826   6.312   2.499
 7968SOL    MW432193   4.800   6.318   2.583
 7969SOL     OW32194   4.554   6.635   2.317
 7969SOL    HW232195   4.556   6.609   2.224
 7969SOL    HW332196   4.612   6.572   2.360
 7969SOL    MW432197   4.562   6.624   2.311
 7970SOL     OW32198   5.064   5.879   2.650
 7970SOL    HW232199   5.092   5.811   2.711
 7970SOL    HW332200   4.978   5.850   2.620
 7970SOL    MW432201   5.057   5.866   2.654
 7971SOL     OW32202   3.869   6.813   2.584
 7971SOL    HW232203   3.933   6.845   2.647
 7971SOL    HW332204   3.918   6.749   2.532
 7971SOL    MW432205   3.884   6.809   2.585
 7972SOL     OW32206   4.369   6.889   3.566
 7972SOL    HW232207   4.417   6.972   3.553
 7972SOL    HW332208   4.426   6.837   3.622
 7972SOL    MW432209   4.383   6.893   3.572
 7973SOL     OW32210   5.044   5.983   1.985
 7973SOL    HW232211   5.017   6.049   1.921
 7973SOL    HW332212   5.114   6.026   2.035
 7973SOL    MW432213   5.049   5.996   1.982
 7974SOL     OW32214   5.217   6.539   2.127
 7974SOL    HW232215   5.184   6.628   2.117
 7974SOL    HW332216   5.182   6.510   2.212
 7974SOL    MW432217   5.207   6.548   2.138
 7975SOL     OW32218   4.830   6.968   3.315
 7975SOL    HW232219   4.741   6.974   3.283
 7975SOL    HW332220   4.874   7.047   3.283
 7975SOL    MW432221   4.825   6.978   3.307
 7976SOL     OW32222   5.587   6.655   3.310
 7976SOL    HW232223   5.502   6.668   3.269
 7976SOL    HW332224   5.567   6.619   3.397
 7976SOL    MW432225   5.574   6.651   3.315
 7977SOL     OW32226   4.211   6.577   1.919
 7977SOL    HW232227   4.134   6.590   1.975
 7977SOL    HW332228   4.175   6.541   1.838
 7977SOL    MW432229   4.197   6.573   1.916
 7978SOL     OW32230   4.864   6.550   2.162
 7978SOL    HW232231   4.774   6.571   2.137
 7978SOL    HW332232   4.891   6.623   2.218
 7978SOL    MW432233   4.856   6.562   2.165
 7979SOL     OW32234   4.364   6.899   2.854
 7979SOL    HW232235   4.357   6.878   2.948
 7979SOL    HW332236   4.282   6.867   2.817
 7979SOL    MW432237   4.352   6.893   2.861
 7980SOL     OW32238   5.228   5.909   3.256
 7980SOL    HW232239   5.175   5.911   3.336
 7980SOL    HW332240   5.213   5.822   3.219
 7980SOL    MW432241   5.220   5.899   3.261
 7981SOL     OW32242   5.564   5.833   3.129
 7981SOL    HW232243   5.545   5.900   3.064
 7981SOL    HW332244   5.621   5.771   3.084
 7981SOL    MW432245   5.568   5.834   3.115
 7982SOL     OW32246   3.810   6.991   3.517
 7982SOL    HW232247   3.854   6.924   3.463
 7982SOL    HW332248   3.725   6.953   3.537
 7982SOL    MW432249   3.805   6.977   3.513
 7983SOL     OW32250   4.251   6.906   2.318
 7983SOL    HW232251   4.244   6.938   2.408
 7983SOL    HW332252   4.161   6.890   2.290
 7983SOL    MW432253   4.239   6.908   2.325
 7984SOL     OW32254   4.453   6.323   3.699
 7984SOL    HW232255   4.523   6.265   3.671
 7984SOL    HW332256   4.396   6.268   3.754
 7984SOL    MW432257   4.455   6.310   3.703
 7985SOL     OW32258   5.240   6.535   3.332
 7985SOL    HW232259   5.245   6.588   3.412
 7985SOL    HW332260   5.202   6.452   3.360
 7985SOL    MW432261   5.236   6.530   3.347
 7986SOL     OW32262   4.880   5.670   3.578
 7986SOL    HW232263   4.875   5.577   3.559
 7986SOL    HW332264   4.963   5.681   3.624
 7986SOL    MW432265   4.888   5.659   3.582
 7987SOL     OW32266   4.254   6.190   2.032
 7987SOL    HW232267   4.220   6.246   2.102
 7987SOL    HW332268   4.325   6.140   2.072
 7987SOL    MW432269   4.260   6.191   2.046
 7988SOL     OW32270   5.350   6.941   2.854
 7988SOL    HW232271   5.385   6.923   2.767
 7988SOL    HW332272   5.255   6.942   2.841
 7988SOL    MW432273   5.342   6.938   2.841
 7989SOL     OW32274   4.779   6.589   3.223
 7989SOL    HW232275   4.822   6.624   3.301
 7989SOL    HW332276   4.762   6.666   3.169
 7989SOL    MW432277   4.782   6.604   3.226
 7990SOL     OW32278   5.310   6.076   2.096
 7990SOL    HW232279   5.302   6.147   2.033
 7990SOL    HW332280   5.328   6.120   2.179
 7990SOL    MW432281   5.311   6.090   2.098
 7991SOL     OW32282   4.170   5.731   2.525
 7991SOL    HW232283   4.220   5.774   2.456
 7991SOL    HW332284   4.085   5.775   2.525
 7991SOL    MW432285   4.167   5.744   2.516
 7992SOL     OW32286   3.929   6.793   3.385
 7992SOL    HW232287   3.957   6.746   3.463
 7992SOL    HW332288   3.850   6.748   3.356
 7992SOL    MW432289   3.922   6.782   3.391
 7993SOL     OW32290   4.437   6.120   3.352
 7993SOL    HW232291   4.409   6.208   3.376
 7993SOL    HW332292   4.406   6.064   3.423
 7993SOL    MW432293   4.429   6.123   3.364
 7994SOL     OW32294   4.979   6.338   2.071
 7994SOL    HW232295   5.026   6.356   1.990
 7994SOL    HW332296   4.945   6.422   2.099
 7994SOL    MW432297   4.981   6.352   2.064
 7995SOL     OW32298   4.092   6.516   2.565
 7995SOL    HW232299   4.150   6.572   2.513
 7995SOL    HW332300   4.136   6.431   2.567
 7995SOL    MW432301   4.105   6.513   2.558
 7996SOL     OW32302   5.232   5.868   2.402
 7996SOL    HW232303   5.154   5.818   2.427
 7996SOL    HW332304   5.203   5.959   2.402
 7996SOL    MW432305   5.218   5.872   2.405
 7997SOL     OW32306   5.578   6.603   3.580
 7997SOL    HW232307   5.491   6.583   3.616
 7997SOL    HW332308   5.632   6.529   3.605
 7997SOL    MW432309   5.573   6.592   3.588
 7998SOL     OW32310   3.799   7.116   2.737
 7998SOL    HW232311   3.831   7.120   2.828
 7998SOL    HW332312   3.704   7.124   2.745
 7998SOL    MW432313   3.791   7.119   2.750
 7999SOL     OW32314   3.754   6.242   2.284
 7999SOL    HW232315   3.694   6.214   2.354
 7999SOL    HW332316   3.828   6.182   2.290
 7999SOL    MW432317   3.756   6.231   2.293
 8000SOL     OW32318   4.922   6.973   2.444
 8000SOL    HW232319   4.945   6.924   2.522
 8000SOL    HW332320   5.003   7.015   2.416
 8000SOL    MW432321   4.935   6.973   2.451
 8001SOL     OW32322   4.180   5.981   3.173
 8001SOL    HW232323   4.213   6.062   3.213
 8001SOL    HW332324   4.153   6.007   3.085
 8001SOL    MW432325   4.179   5.995   3.167
 8002SOL     OW32326   4.963   6.157   3.600
 8002SOL    HW232327   5.015   6.092   3.553
 8002SOL    HW332328   4.921   6.208   3.530
 8002SOL    MW432329   4.964   6.154   3.583
 8003SOL     OW32330   5.062   5.952   3.461
 8003SOL    HW232331   4.969   5.936   3.448
 8003SOL    HW332332   5.088   5.890   3.529
 8003SOL    MW432333   5.052   5.942   3.468
 8004SOL     OW32334   5.428   6.048   2.971
 8004SOL    HW232335   5.361   6.081   3.031
 8004SOL    HW332336   5.471   6.126   2.937
 8004SOL    MW432337   5.426   6.063   2.975
 8005SOL     OW32338   5.606   6.768   2.941
 8005SOL    HW232339   5.599   6.708   2.866
 8005SOL    HW332340   5.532   6.828   2.930
 8005SOL    MW432341   5.596   6.768   2.930
 8006SOL     OW32342   4.988   6.630   2.859
 8006SOL    HW232343   5.002   6.602   2.950
 8006SOL    HW332344   5.074   6.661   2.831
 8006SOL    MW432345   5.001   6.631   2.868
 8007SOL     OW32346   5.071   6.125   3.138
 8007SOL    HW232347   5.092   6.126   3.045
 8007SOL    HW332348   5.116   6.047   3.171
 8007SOL    MW432349   5.078   6.115   3.130
 8008SOL     OW32350   5.564   6.256   3.680
 8008SOL    HW232351   5.601   6.201   3.749
 8008SOL    HW332352   5.589   6.213   3.598
 8008SOL    MW432353   5.571   6.244   3.679
 8009SOL     OW32354   5.111   6.554   3.731
 8009SOL    HW232355   5.177   6.502   3.685
 8009SOL    HW332356   5.131   6.541   3.824
 8009SOL    MW432357   5.122   6.545   3.738
 8010SOL     OW32358   5.062   5.640   2.080
 8010SOL    HW232359   5.136   5.684   2.123
 8010SOL    HW332360   4.986   5.694   2.102
 8010SOL    MW432361   5.062   5.652   2.088
 8011SOL     OW32362   5.122   6.415   2.358
 8011SOL    HW232363   5.037   6.385   2.328
 8011SOL    HW332364   5.114   6.422   2.453
 8011SOL    MW432365   5.110   6.413   2.367
 8012SOL     OW32366   4.198   6.878   3.089
 8012SOL    HW232367   4.210   6.905   3.180
 8012SOL    HW332368   4.179   6.959   3.042
 8012SOL    MW432369   4.197   6.893   3.094
 8013SOL     OW32370   5.238   6.935   3.306
 8013SOL    HW232371   5.223   6.864   3.369
 8013SOL    HW332372   5.284   6.893   3.234
 8013SOL    MW432373   5.244   6.919   3.306
 8014SOL     OW32374   4.312   6.666   3.423
 8014SOL    HW232375   4.349   6.671   3.335
 8014SOL    HW332376   4.351   6.739   3.470
 8014SOL    MW432377   4.322   6.676   3.418
 8015SOL     OW32378   4.492   6.709   3.235
 8015SOL    HW232379   4.551   6.655   3.288
 8015SOL    HW332380   4.507   6.681   3.145
 8015SOL    MW432381   4.502   6.698   3.231
 8016SOL     OW32382   4.495   6.081   2.084
 8016SOL    HW232383   4.568   6.130   2.047
 8016SOL    HW332384   4.511   5.990   2.058
 8016SOL    MW432385   4.507   6.076   2.077
 8017SOL     OW32386   4.963   5.677   2.998
 8017SOL    HW232387   5.018   5.686   2.920
 8017SOL    HW332388   5.018   5.711   3.069
 8017SOL    MW432389   4.977   5.682   2.997
 8018SOL     OW32390   3.970   6.590   2.182
 8018SOL    HW232391   3.907   6.606   2.111
 8018SOL    HW332392   3.917   6.553   2.253
 8018SOL    MW432393   3.955   6.587   2.182
 8019SOL     OW32394   4.326   6.944   2.041
 8019SOL    HW232395   4.341   6.920   2.133
 8019SOL    HW332396   4.234   6.922   2.025
 8019SOL    MW432397   4.316   6.937   2.051
 8020SOL     OW32398   4.741   6.811   3.005
 8020SOL    HW232399   4.673   6.745   3.021
 8020SOL    HW332400   4.759   6.805   2.912
 8020SOL    MW432401   4.734   6.802   2.996
 8021SOL     OW32402   3.830   7.086   3.256
 8021SOL    HW232403   3.820   7.044   3.342
 8021SOL    HW332404   3.751   7.139   3.246
 8021SOL    MW432405   3.819   7.087   3.267
 8022SOL     OW32406   4.734   5.950   2.826
 8022SOL    HW232407   4.664   5.902   2.871
 8022SOL    HW332408   4.766   6.013   2.890
 8022SOL    MW432409   4.729   5.952   2.840
 8023SOL     OW32410   4.385   6.386   3.446
 8023SOL    HW232411   4.378   6.481   3.434
 8023SOL    HW332412   4.394   6.375   3.541
 8023SOL    MW432413   4.386   6.398   3.456
 8024SOL     OW32414   4.106   6.901   3.704
 8024SOL    HW232415   4.178   6.903   3.641
 8024SOL    HW332416   4.076   6.810   3.703
 8024SOL    MW432417   4.111   6.890   3.696
 8025SOL     OW32418   5.190   5.664   3.171
 8025SOL    HW232419   5.261   5.610   3.135
 8025SOL    HW332420   5.189   5.643   3.264
 8025SOL    MW432421   5.199   5.655   3.179
 8026SOL     OW32422   4.201   6.056   2.639
 8026SOL    HW232423   4.272   6.004   2.602
 8026SOL    HW332424   4.187   6.021   2.726
 8026SOL    MW432425   4.209   6.045   2.646
 8027SOL     OW32426   4.837   5.997   2.363
 8027SOL    HW232427   4.859   5.934   2.295
 8027SOL    HW332428   4.742   5.989   2.374
 8027SOL    MW432429   4.827   5.988   2.355
 8028SOL     OW32430   5.491   7.061   2.395
 8028SOL    HW232431   5.461   6.994   2.456
 8028SOL    HW332432   5.585   7.067   2.409
 8028SOL    MW432433   5.499   7.053   2.405
 8029SOL     OW32434   5.047   6.738   2.325
 8029SOL    HW232435   5.019   6.824   2.358
 8029SOL    HW332436   5.075   6.754   2.235
 8029SOL    MW432437   5.047   6.752   2.317
 8030SOL     OW32438   5.562   6.540   2.800
 8030SOL    HW232439   5.553   6.572   2.711
 8030SOL    HW332440   5.515   6.456   2.800
 8030SOL    MW432441   5.555   6.533   2.790
 8031SOL     OW32442   3.938   6.380   3.379
 8031SOL    HW232443   3.959   6.449   3.317
 8031SOL    HW332444   4.018   6.327   3.384
 8031SOL    MW432445   3.951   6.381   3.373
 8032SOL     OW32446   5.474   6.471   2.501
 8032SOL    HW232447   5.568   6.460   2.489
 8032SOL    HW332448   5.450   6.543   2.442
 8032SOL    MW432449   5.484   6.479   2.492
 8033SOL     OW32450   3.923   6.395   3.646
 8033SOL    HW232451   3.849   6.339   3.672
 8033SOL    HW332452   3.918   6.398   3.551
 8033SOL    MW432453   3.912   6.388   3.636
 8034SOL     OW32454   4.130   6.349   2.274
 8034SOL    HW232455   4.130   6.444   2.259
 8034SOL    HW332456   4.207   6.333   2.328
 8034SOL    MW432457   4.140   6.360   2.279
 8035SOL     OW32458   3.889   6.080   2.563
 8035SOL    HW232459   3.951   6.087   2.636
 8035SOL    HW332460   3.889   5.987   2.540
 8035SOL    MW432461   3.897   6.069   2.570
 8036SOL     OW32462   4.571   6.341   3.047
 8036SOL    HW232463   4.529   6.259   3.023
 8036SOL    HW332464   4.572   6.340   3.143
 8036SOL    MW432465   4.564   6.330   3.056
 8037SOL     OW32466   4.375   5.811   3.152
 8037SOL    HW232467   4.306   5.874   3.173
 8037SOL    HW332468   4.402   5.775   3.237
 8037SOL    MW432469   4.369   5.814   3.165
 8038SOL     OW32470   3.758   6.652   2.021
 8038SOL    HW232471   3.727   6.717   2.084
 8038SOL    HW332472   3.707   6.574   2.040
 8038SOL    MW432473   3.748   6.649   2.031
 8039SOL     OW32474   5.170   5.664   2.769
 8039SOL    HW232475   5.258   5.673   2.806
 8039SOL    HW332476   5.180   5.605   2.695
 8039SOL    MW432477   5.184   5.658   2.763
 8040SOL     OW32478   5.202   6.403   2.613
 8040SOL    HW232479   5.282   6.418   2.562
 8040SOL    HW332480   5.195   6.308   2.619
 8040SOL    MW432481   5.211   6.392   2.608
 8041SOL     OW32482   4.652   6.329   3.310
 8041SOL    HW232483   4.721   6.396   3.307
 8041SOL    HW332484   4.585   6.367   3.366
 8041SOL    MW432485   4.653   6.342   3.317
 8042SOL     OW32486   4.070   6.629   3.558
 8042SOL    HW232487   4.024   6.545   3.560
 8042SOL    HW332488   4.127   6.623   3.482
 8042SOL    MW432489   4.072   6.617   3.550
 8043SOL     OW32490   5.187   6.272   1.879
 8043SOL    HW232491   5.115   6.248   1.821
 8043SOL    HW332492   5.253   6.309   1.821
 8043SOL    MW432493   5.186   6.274   1.864
 8044SOL     OW32494   4.582   6.169   2.689
 8044SOL    HW232495   4.522   6.187   2.761
 8044SOL    HW332496   4.616   6.081   2.708
 8044SOL    MW432497   4.578   6.159   2.702
 8045SOL     OW32498   5.523   5.668   3.358
 8045SOL    HW232499   5.444   5.714   3.386
 8045SOL    HW332500   5.558   5.722   3.287
 8045SOL    MW432501   5.517   5.681   3.352
 8046SOL     OW32502   4.807   6.752   2.708
 8046SOL    HW232503   4.899   6.733   2.726
 8046SOL    HW332504   4.780   6.682   2.648
 8046SOL    MW432505   4.815   6.740   2.702
 8047SOL     OW32506   4.600   6.572   2.063
 8047SOL    HW232507   4.586   6.484   2.028
 8047SOL    HW332508   4.551   6.629   2.004
 8047SOL    MW432509   4.592   6.567   2.051
 8048SOL     OW32510   5.081   6.990   2.804
 8048SOL    HW232511   5.054   7.074   2.769
 8048SOL    HW332512   5.041   6.985   2.891
 8048SOL    MW432513   5.074   6.999   2.810
 8049SOL     OW32514   5.000   6.938   3.072
 8049SOL    HW232515   5.011   6.905   3.161
 8049SOL    HW332516   4.919   6.897   3.041
 8049SOL    MW432517   4.990   6.930   3.078
 8050SOL     OW32518   4.013   6.296   2.842
 8050SOL    HW232519   3.963   6.295   2.923
 8050SOL    HW332520   4.033   6.388   2.826
 8050SOL    MW432521   4.009   6.308   2.850
 8051SOL     OW32522   5.080   7.060   3.604
 8051SOL    HW232523   5.080   7.154   3.620
 8051SOL    HW332524   5.125   7.050   3.520
 8051SOL    MW432525   5.086   7.070   3.595
 8052SOL     OW32526   5.319   5.778   2.165
 8052SOL    HW232527   5.312   5.782   2.260
 8052SOL    HW332528   5.331   5.869   2.138
 8052SOL    MW432529   5.320   5.791   2.173
 8053SOL     OW32530   4.608   6.341   2.279
 8053SOL    HW232531   4.588   6.327   2.186
 8053SOL    HW332532   4.701   6.320   2.286
 8053SOL    MW432533   4.618   6.336   2.268
 8054SOL     OW32534   3.935   5.964   3.583
 8054SOL    HW232535   3.892   6.023   3.520
 8054SOL    HW332536   4.003   6.019   3.623
 8054SOL    MW432537   3.939   5.979   3.580
 8055SOL     OW32538   5.047   6.584   3.128
 8055SOL    HW232539   5.110   6.581   3.201
 8055SOL    HW332540   4.963   6.602   3.170
 8055SOL    MW432541   5.043   6.586   3.143
 8056SOL     OW32542   5.386   5.761   2.907
 8056SOL    HW232543   5.431   5.679   2.926
 8056SOL    HW332544   5.406   5.817   2.983
 8056SOL    MW432545   5.396   5.757   2.919
 8057SOL     OW32546   5.471   6.797   2.626
 8057SOL    HW232547   5.450   6.743   2.549
 8057SOL    HW332548   5.567   6.795   2.630
 8057SOL    MW432549   5.480   6.790   2.615
 8058SOL     OW32550   4.163   6.942   3.369
 8058SOL    HW232551   4.084   6.892   3.392
 8058SOL    HW332552   4.233   6.901   3.419
 8058SOL    MW432553   4.161   6.930   3.379
 8059SOL     OW32554   5.171   6.228   2.888
 8059SOL    HW232555   5.094   6.274   2.854
 8059SOL    HW332556   5.228   6.297   2.922
 8059SOL    MW432557   5.168   6.243   2.888
 8060SOL     OW32558   3.803   5.830   1.901
 8060SOL    HW232559   3.770   5.909   1.945
 8060SOL    HW332560   3.858   5.863   1.830
 8060SOL    MW432561   3.806   5.844   1.898
 8061SOL     OW32562   5.109   7.176   2.307
 8061SOL    HW232563   5.172   7.166   2.236
 8061SOL    HW332564   5.026   7.196   2.262
 8061SOL    MW432565   5.106   7.177   2.292
 8062SOL     OW32566   5.472   6.444   3.993
 8062SOL    HW232567   5.513   6.386   4.058
 8062SOL    HW332568   5.379   6.436   4.010
 8062SOL    MW432569   5.466   6.436   4.003
 8063SOL     OW32570   5.338   6.376   4.988
 8063SOL    HW232571   5.293   6.443   5.039
 8063SOL    HW332572   5.426   6.412   4.974
 8063SOL    MW432573   5.344   6.389   4.992
 8064SOL     OW32574   4.266   6.627   4.222
 8064SOL    HW232575   4.356   6.602   4.206
 8064SOL    HW332576   4.262   6.720   4.199
 8064SOL    MW432577   4.278   6.636   4.217
 8065SOL     OW32578   5.318   6.770   4.969
 8065SOL    HW232579   5.239   6.735   4.927
 8065SOL    HW332580   5.345   6.842   4.913
 8065SOL    MW432581   5.311   6.775   4.956
 8066SOL     OW32582   4.550   6.083   4.235
 8066SOL    HW232583   4.525   6.171   4.263
 8066SOL    HW332584   4.547   6.086   4.139
 8066SOL    MW432585   4.546   6.095   4.227
 8067SOL     OW32586   3.992   6.111   4.163
 8067SOL    HW232587   4.024   6.199   4.145
 8067SOL    HW332588   3.980   6.109   4.258
 8067SOL    MW432589   3.995   6.123   4.175
 8068SOL     OW32590   4.070   6.524   5.064
 8068SOL    HW232591   4.133   6.471   5.015
 8068SOL    HW332592   4.051   6.598   5.007
 8068SOL    MW432593   4.076   6.526   5.051
 8069SOL     OW32594   4.391   5.866   4.250
 8069SOL    HW232595   4.449   5.942   4.252
 8069SOL    HW332596   4.326   5.887   4.183
 8069SOL    MW432597   4.390   5.878   4.241
 8070SOL     OW32598   4.478   6.793   4.425
 8070SOL    HW232599   4.558   6.796   4.477
 8070SOL    HW332600   4.506   6.760   4.339
 8070SOL    MW432601   4.492   6.789   4.420
 8071SOL     OW32602   4.503   7.134   5.328
 8071SOL    HW232603   4.587   7.160   5.367
 8071SOL    HW332604   4.527   7.078   5.254
 8071SOL    MW432605   4.517   7.130   5.323
 8072SOL     OW32606   4.255   6.297   4.416
 8072SOL    HW232607   4.240   6.217   4.467
 8072SOL    HW332608   4.337   6.332   4.450
 8072SOL    MW432609   4.263   6.289   4.428
 8073SOL     OW32610   4.592   6.983   5.101
 8073SOL    HW232611   4.556   7.049   5.041
 8073SOL    HW332612   4.520   6.921   5.114
 8073SOL    MW432613   4.578   6.983   5.095
 8074SOL     OW32614   4.397   6.123   4.793
 8074SOL    HW232615   4.303   6.119   4.811
 8074SOL    HW332616   4.427   6.032   4.802
 8074SOL    MW432617   4.388   6.111   4.796
 8075SOL     OW32618   4.143   6.537   4.697
 8075SOL    HW232619   4.098   6.544   4.613
 8075SOL    HW332620   4.123   6.620   4.741
 8075SOL    MW432621   4.135   6.549   4.691
 8076SOL     OW32622   5.105   6.775   3.941
 8076SOL    HW232623   5.023   6.811   3.907
 8076SOL    HW332624   5.173   6.818   3.890
 8076SOL    MW432625   5.103   6.785   3.929
 8077SOL     OW32626   4.104   6.910   4.607
 8077SOL    HW232627   4.080   6.963   4.683
 8077SOL    HW332628   4.160   6.968   4.555
 8077SOL    MW432629   4.108   6.925   4.610
 8078SOL     OW32630   4.666   6.554   4.417
 8078SOL    HW232631   4.580   6.541   4.457
 8078SOL    HW332632   4.719   6.481   4.449
 8078SOL    MW432633   4.662   6.543   4.426
 8079SOL     OW32634   4.657   6.916   4.134
 8079SOL    HW232635   4.634   6.978   4.202
 8079SOL    HW332636   4.614   6.834   4.160
 8079SOL    MW432637   4.649   6.912   4.145
 8080SOL     OW32638   5.530   5.917   4.590
 8080SOL    HW232639   5.467   5.897   4.659
 8080SOL    HW332640   5.520   5.846   4.527
 8080SOL    MW432641   5.520   5.904   4.591
 8081SOL     OW32642   4.154   5.889   4.102
 8081SOL    HW232643   4.128   5.851   4.018
 8081SOL    HW332644   4.091   5.959   4.118
 8081SOL    MW432645   4.143   5.892   4.093
 8082SOL     OW32646   3.989   6.850   4.139
 8082SOL    HW232647   3.937   6.918   4.095
 8082SOL    HW332648   3.986   6.776   4.079
 8082SOL    MW432649   3.981   6.849   4.126
 8083SOL     OW32650   5.586   6.086   3.892
 8083SOL    HW232651   5.495   6.088   3.920
 8083SOL    HW332652   5.631   6.148   3.950
 8083SOL    MW432653   5.579   6.094   3.902
 8084SOL     OW32654   5.331   6.689   4.242
 8084SOL    HW232655   5.241   6.689   4.277
 8084SOL    HW332656   5.324   6.735   4.159
 8084SOL    MW432657   5.318   6.695   4.236
 8085SOL     OW32658   5.131   6.324   5.314
 8085SOL    HW232659   5.200   6.262   5.291
 8085SOL    HW332660   5.056   6.298   5.261
 8085SOL    MW432661   5.131   6.311   5.305
 8086SOL     OW32662   4.867   6.711   5.306
 8086SOL    HW232663   4.852   6.804   5.291
 8086SOL    HW332664   4.962   6.701   5.306
 8086SOL    MW432665   4.876   6.721   5.303
 8087SOL     OW32666   4.663   6.135   5.507
 8087SOL    HW232667   4.753   6.136   5.474
 8087SOL    HW332668   4.622   6.060   5.465
 8087SOL    MW432669   4.669   6.125   5.498
 8088SOL     OW32670   5.238   6.667   4.634
 8088SOL    HW232671   5.241   6.601   4.565
 8088SOL    HW332672   5.323   6.710   4.630
 8088SOL    MW432673   5.250   6.663   4.625
 8089SOL     OW32674   4.858   6.270   4.203
 8089SOL    HW232675   4.884   6.294   4.114
 8089SOL    HW332676   4.840   6.177   4.199
 8089SOL    MW432677   4.860   6.262   4.190
 8090SOL     OW32678   5.523   6.890   4.054
 8090SOL    HW232679   5.479   6.931   4.129
 8090SOL    HW332680   5.580   6.958   4.019
 8090SOL    MW432681   5.525   6.904   4.059
 8091SOL     OW32682   4.443   5.939   5.457
 8091SOL    HW232683   4.453   5.865   5.397
 8091SOL    HW332684   4.479   5.908   5.540
 8091SOL    MW432685   4.449   5.925   5.459
 8092SOL     OW32686   4.179   7.306   4.372
 8092SOL    HW232687   4.211   7.394   4.350
 8092SOL    HW332688   4.132   7.278   4.294
 8092SOL    MW432689   4.178   7.314   4.359
 8093SOL     OW32690   5.563   5.668   4.421
 8093SOL    HW232691   5.617   5.619   4.483
 8093SOL    HW332692   5.506   5.602   4.382
 8093SOL    MW432693   5.563   5.652   4.423
 8094SOL     OW32694   4.682   5.621   4.834
 8094SOL    HW232695   4.641   5.699   4.796
 8094SOL    HW332696   4.776   5.639   4.829
 8094SOL    MW432697   4.688   5.633   4.829
 8095SOL     OW32698   4.697   6.299   3.864
 8095SOL    HW232699   4.699   6.246   3.785
 8095SOL    HW332700   4.785   6.336   3.870
 8095SOL    MW432701   4.709   6.298   3.853
 8096SOL     OW32702   5.311   6.225   4.200
 8096SOL    HW232703   5.350   6.225   4.287
 8096SOL    HW332704   5.252   6.301   4.200
 8096SOL    MW432705   5.308   6.236   4.211
 8097SOL     OW32706   4.628   6.592   5.329
 8097SOL    HW232707   4.605   6.572   5.419
 8097SOL    HW332708   4.713   6.636   5.334
 8097SOL    MW432709   4.635   6.595   5.341
 8098SOL     OW32710   4.708   5.729   5.089
 8098SOL    HW232711   4.714   5.691   5.002
 8098SOL    HW332712   4.697   5.823   5.074
 8098SOL    MW432713   4.709   5.737   5.077
 8099SOL     OW32714   4.797   6.218   4.923
 8099SOL    HW232715   4.872   6.247   4.870
 8099SOL    HW332716   4.729   6.283   4.907
 8099SOL    MW432717   4.798   6.230   4.913
 8100SOL     OW32718   5.347   6.186   5.200
 8100SOL    HW232719   5.328   6.095   5.179
 8100SOL    HW332720   5.325   6.235   5.121
 8100SOL    MW432721   5.342   6.179   5.187
 8101SOL     OW32722   4.794   5.924   5.306
 8101SOL    HW232723   4.760   5.963   5.225
 8101SOL    HW332724   4.772   5.832   5.299
 8101SOL    MW432725   4.787   5.917   5.296
 8102SOL     OW32726   5.203   6.738   5.382
 8102SOL    HW232727   5.285   6.779   5.412
 8102SOL    HW332728   5.166   6.700   5.462
 8102SOL    MW432729   5.209   6.739   5.397
 8103SOL     OW32730   5.498   6.111   4.366
 8103SOL    HW232731   5.587   6.080   4.383
 8103SOL    HW332732   5.441   6.051   4.414
 8103SOL    MW432733   5.501   6.099   4.375
 8104SOL     OW32734   3.924   5.825   4.395
 8104SOL    HW232735   3.915   5.765   4.321
 8104SOL    HW332736   3.857   5.796   4.458
 8104SOL    MW432737   3.914   5.812   4.393
 8105SOL     OW32738   4.867   6.918   3.956
 8105SOL    HW232739   4.817   6.920   4.038
 8105SOL    HW332740   4.801   6.936   3.888
 8105SOL    MW432741   4.853   6.920   3.958
 8106SOL     OW32742   3.871   5.998   4.758
 8106SOL    HW232743   3.843   6.089   4.767
 8106SOL    HW332744   3.808   5.959   4.697
 8106SOL    MW432745   3.858   6.004   4.752
 8107SOL     OW32746   4.330   7.336   4.064
 8107SOL    HW232747   4.251   7.294   4.097
 8107SOL    HW332748   4.396   7.319   4.131
 8107SOL    MW432749   4.329   7.328   4.077
 8108SOL     OW32750   5.458   6.856   5.461
 8108SOL    HW232751   5.508   6.782   5.493
 8108SOL    HW332752   5.404   6.883   5.536
 8108SOL    MW432753   5.458   6.850   5.474
 8109SOL     OW32754   4.466   6.751   3.771
 8109SOL    HW232755   4.388   6.697   3.758
 8109SOL    HW332756   4.437   6.824   3.824
 8109SOL    MW432757   4.452   6.753   3.776
 8110SOL     OW32758   5.592   6.491   4.963
 8110SOL    HW232759   5.608   6.529   4.876
 8110SOL    HW332760   5.626   6.557   5.024
 8110SOL    MW432761   5.599   6.504   4.959
 8111SOL     OW32762   5.384   7.200   4.632
 8111SOL    HW232763   5.413   7.267   4.693
 8111SOL    HW332764   5.365   7.124   4.687
 8111SOL    MW432765   5.386   7.200   4.647
 8112SOL     OW32766   3.855   6.273   4.928
 8112SOL    HW232767   3.917   6.303   4.994
 8112SOL    HW332768   3.789   6.342   4.922
 8112SOL    MW432769   3.854   6.286   4.935
 8113SOL     OW32770   5.271   6.941   3.781
 8113SOL    HW232771   5.218   6.990   3.717
 8113SOL    HW332772   5.302   7.007   3.842
 8113SOL    MW432773   5.269   6.955   3.779
 8114SOL     OW32774   4.496   5.830   3.836
 8114SOL    HW232775   4.444   5.750   3.824
 8114SOL    HW332776   4.583   5.807   3.804
 8114SOL    MW432777   4.499   5.816   3.830
 8115SOL     OW32778   4.002   6.701   4.887
 8115SOL    HW232779   4.055   6.776   4.912
 8115SOL    HW332780   3.921   6.739   4.853
 8115SOL    MW432781   3.998   6.716   4.887
 8116SOL     OW32782   4.542   6.605   4.875
 8116SOL    HW232783   4.570   6.514   4.887
 8116SOL    HW332784   4.471   6.599   4.811
 8116SOL    MW432785   4.535   6.593   4.870
 8117SOL     OW32786   3.857   6.470   4.293
 8117SOL    HW232787   3.948   6.485   4.320
 8117SOL    HW332788   3.860   6.391   4.239
 8117SOL    MW432789   3.869   6.462   4.291
 8118SOL     OW32790   4.093   6.178   5.547
 8118SOL    HW232791   4.040   6.258   5.554
 8118SOL    HW332792   4.163   6.190   5.612
 8118SOL    MW432793   4.095   6.191   5.555
 8119SOL     OW32794   4.479   5.728   5.254
 8119SOL    HW232795   4.456   5.636   5.256
 8119SOL    HW332796   4.565   5.730   5.211
 8119SOL    MW432797   4.486   5.718   5.250
 8120SOL     OW32798   4.163   6.252   5.293
 8120SOL    HW232799   4.243   6.302   5.279
 8120SOL    HW332800   4.154   6.246   5.388
 8120SOL    MW432801   4.172   6.258   5.303
 8121SOL     OW32802   5.140   5.777   5.564
 8121SOL    HW232803   5.196   5.704   5.590
 8121SOL    HW332804   5.110   5.815   5.646
 8121SOL    MW432805   5.144   5.772   5.577
 8122SOL     OW32806   3.865   7.082   4.332
 8122SOL    HW232807   3.837   7.121   4.414
 8122SOL    HW332808   3.885   6.991   4.354
 8122SOL    MW432809   3.863   7.074   4.345
 8123SOL     OW32810   4.698   7.125   4.367
 8123SOL    HW232811   4.781   7.079   4.351
 8123SOL    HW332812   4.688   7.124   4.463
 8123SOL    MW432813   4.708   7.118   4.377
 8124SOL     OW32814   5.530   6.270   4.681
 8124SOL    HW232815   5.619   6.300   4.663
 8124SOL    HW332816   5.510   6.210   4.610
 8124SOL    MW432817   5.539   6.267   4.670
 8125SOL     OW32818   5.381   6.449   5.561
 8125SOL    HW232819   5.436   6.373   5.542
 8125SOL    HW332820   5.383   6.457   5.656
 8125SOL    MW432821   5.389   6.440   5.569
 8126SOL     OW32822   4.431   7.182   3.772
 8126SOL    HW232823   4.371   7.251   3.742
 8126SOL    HW332824   4.376   7.124   3.825
 8126SOL    MW432825   4.415   7.184   3.774
 8127SOL     OW32826   4.869   5.827   3.995
 8127SOL    HW232827   4.802   5.803   3.932
 8127SOL    HW332828   4.934   5.876   3.944
 8127SOL    MW432829   4.869   5.829   3.980
 8128SOL     OW32830   4.676   6.011   5.080
 8128SOL    HW232831   4.595   6.052   5.108
 8128SOL    HW332832   4.723   6.079   5.032
 8128SOL    MW432833   4.671   6.026   5.078
 8129SOL     OW32834   4.936   6.349   4.703
 8129SOL    HW232835   4.949   6.443   4.713
 8129SOL    HW332836   4.897   6.339   4.617
 8129SOL    MW432837   4.932   6.360   4.693
 8130SOL     OW32838   4.388   6.544   4.507
 8130SOL    HW232839   4.299   6.535   4.540
 8130SOL    HW332840   4.392   6.634   4.475
 8130SOL    MW432841   4.377   6.555   4.507
 8131SOL     OW32842   5.187   6.127   4.502
 8131SOL    HW232843   5.132   6.048   4.501
 8131SOL    HW332844   5.169   6.168   4.586
 8131SOL    MW432845   5.177   6.122   4.511
 8132SOL     OW32846   4.158   5.814   5.319
 8132SOL    HW232847   4.079   5.832   5.371
 8132SOL    HW332848   4.153   5.876   5.246
 8132SOL    MW432849   4.148   5.824   5.316
 8133SOL     OW32850   4.806   6.331   4.459
 8133SOL    HW232851   4.743   6.263   4.483
 8133SOL    HW332852   4.826   6.312   4.367
 8133SOL    MW432853   4.800   6.318   4.451
 8134SOL     OW32854   4.554   6.635   4.185
 8134SOL    HW232855   4.556   6.609   4.092
 8134SOL    HW332856   4.612   6.572   4.228
 8134SOL    MW432857   4.562   6.624   4.179
 8135SOL     OW32858   5.064   5.879   4.518
 8135SOL    HW232859   5.092   5.811   4.579
 8135SOL    HW332860   4.978   5.850   4.488
 8135SOL    MW432861   5.057   5.866   4.522
 8136SOL     OW32862   3.869   6.813   4.452
 8136SOL    HW232863   3.933   6.845   4.515
 8136SOL    HW332864   3.918   6.749   4.400
 8136SOL    MW432865   3.884   6.809   4.453
 8137SOL     OW32866   4.369   6.889   5.434
 8137SOL    HW232867   4.417   6.972   5.421
 8137SOL    HW332868   4.426   6.837   5.490
 8137SOL    MW432869   4.383   6.893   5.440
 8138SOL     OW32870   5.044   5.983   3.853
 8138SOL    HW232871   5.017   6.049   3.789
 8138SOL    HW332872   5.114   6.026   3.903
 8138SOL    MW432873   5.049   5.996   3.850
 8139SOL     OW32874   4.712   5.688   3.790
 8139SOL    HW232875   4.768   5.680   3.712
 8139SOL    HW332876   4.689   5.598   3.812
 8139SOL    MW432877   4.717   5.675   3.783
 8140SOL     OW32878   5.217   6.539   3.995
 8140SOL    HW232879   5.184   6.628   3.985
 8140SOL    HW332880   5.182   6.510   4.080
 8140SOL    MW432881   5.207   6.548   4.006
 8141SOL     OW32882   4.830   6.968   5.183
 8141SOL    HW232883   4.741   6.974   5.151
 8141SOL    HW332884   4.874   7.047   5.151
 8141SOL    MW432885   4.825   6.978   5.175
 8142SOL     OW32886   4.123   5.636   5.525
 8142SOL    HW232887   4.051   5.601   5.473
 8142SOL    HW332888   4.181   5.677   5.460
 8142SOL    MW432889   4.121   5.637   5.510
 8143SOL     OW32890   5.587   6.655   5.178
 8143SOL    HW232891   5.502   6.668   5.137
 8143SOL    HW332892   5.567   6.619   5.265
 8143SOL    MW432893   5.574   6.651   5.183
 8144SOL     OW32894   4.211   6.577   3.787
 8144SOL    HW232895   4.134   6.590   3.843
 8144SOL    HW332896   4.175   6.541   3.706
 8144SOL    MW432897   4.197   6.573   3.784
 8145SOL     OW32898   4.864   6.550   4.030
 8145SOL    HW232899   4.774   6.571   4.005
 8145SOL    HW332900   4.891   6.623   4.086
 8145SOL    MW432901   4.856   6.562   4.033
 8146SOL     OW32902   4.364   6.899   4.722
 8146SOL    HW232903   4.357   6.878   4.816
 8146SOL    HW332904   4.282   6.867   4.685
 8146SOL    MW432905   4.352   6.893   4.729
 8147SOL     OW32906   5.228   5.909   5.124
 8147SOL    HW232907   5.175   5.911   5.204
 8147SOL    HW332908   5.213   5.822   5.087
 8147SOL    MW432909   5.220   5.899   5.129
 8148SOL     OW32910   5.564   5.833   4.997
 8148SOL    HW232911   5.545   5.900   4.932
 8148SOL    HW332912   5.621   5.771   4.952
 8148SOL    MW432913   5.568   5.834   4.983
 8149SOL     OW32914   3.810   6.991   5.385
 8149SOL    HW232915   3.854   6.924   5.331
 8149SOL    HW332916   3.725   6.953   5.405
 8149SOL    MW432917   3.805   6.977   5.381
 8150SOL     OW32918   4.493   5.666   4.437
 8150SOL    HW232919   4.422   5.727   4.419
 8150SOL    HW332920   4.544   5.663   4.356
 8150SOL    MW432921   4.489   5.672   4.424
 8151SOL     OW32922   4.251   6.906   4.186
 8151SOL    HW232923   4.244   6.938   4.276
 8151SOL    HW332924   4.161   6.890   4.158
 8151SOL    MW432925   4.239   6.908   4.193
 8152SOL     OW32926   4.453   6.323   5.567
 8152SOL    HW232927   4.523   6.265   5.539
 8152SOL    HW332928   4.396   6.268   5.622
 8152SOL    MW432929   4.455   6.310   5.571
 8153SOL     OW32930   5.240   6.535   5.200
 8153SOL    HW232931   5.245   6.588   5.280
 8153SOL    HW332932   5.202   6.452   5.228
 8153SOL    MW432933   5.236   6.530   5.215
 8154SOL     OW32934   4.880   5.670   5.446
 8154SOL    HW232935   4.875   5.577   5.427
 8154SOL    HW332936   4.963   5.681   5.492
 8154SOL    MW432937   4.888   5.659   5.450
 8155SOL     OW32938   4.254   6.190   3.900
 8155SOL    HW232939   4.220   6.246   3.970
 8155SOL    HW332940   4.325   6.140   3.940
 8155SOL    MW432941   4.260   6.191   3.914
 8156SOL     OW32942   5.350   6.941   4.722
 8156SOL    HW232943   5.385   6.923   4.635
 8156SOL    HW332944   5.255   6.942   4.709
 8156SOL    MW432945   5.342   6.938   4.709
 8157SOL     OW32946   4.779   6.589   5.091
 8157SOL    HW232947   4.822   6.624   5.169
 8157SOL    HW332948   4.762   6.666   5.037
 8157SOL    MW432949   4.782   6.604   5.094
 8158SOL     OW32950   5.310   6.076   3.964
 8158SOL    HW232951   5.302   6.147   3.901
 8158SOL    HW332952   5.328   6.120   4.047
 8158SOL    MW432953   5.311   6.090   3.966
 8159SOL     OW32954   4.170   5.731   4.393
 8159SOL    HW232955   4.220   5.774   4.324
 8159SOL    HW332956   4.085   5.775   4.393
 8159SOL    MW432957   4.167   5.744   4.384
 8160SOL     OW32958   3.929   6.793   5.253
 8160SOL    HW232959   3.957   6.746   5.331
 8160SOL    HW332960   3.850   6.748   5.224
 8160SOL    MW432961   3.922   6.782   5.259
 8161SOL     OW32962   4.437   6.120   5.220
 8161SOL    HW232963   4.409   6.208   5.244
 8161SOL    HW332964   4.406   6.064   5.291
 8161SOL    MW432965   4.429   6.123   5.232
 8162SOL     OW32966   4.979   6.338   3.939
 8162SOL    HW232967   5.026   6.356   3.858
 8162SOL    HW332968   4.945   6.422   3.967
 8162SOL    MW432969   4.981   6.352   3.932
 8163SOL     OW32970   4.092   6.516   4.433
 8163SOL    HW232971   4.150   6.572   4.381
 8163SOL    HW332972   4.136   6.431   4.435
 8163SOL    MW432973   4.105   6.513   4.426
 8164SOL     OW32974   5.232   5.868   4.270
 8164SOL    HW232975   5.154   5.818   4.295
 8164SOL    HW332976   5.203   5.959   4.270
 8164SOL    MW432977   5.218   5.872   4.273
 8165SOL     OW32978   4.818   5.830   4.429
 8165SOL    HW232979   4.838   5.905   4.373
 8165SOL    HW332980   4.798   5.869   4.514
 8165SOL    MW432981   4.819   5.846   4.433
 8166SOL     OW32982   5.578   6.603   5.448
 8166SOL    HW232983   5.491   6.583   5.484
 8166SOL    HW332984   5.632   6.529   5.473
 8166SOL    MW432985   5.573   6.592   5.456
 8167SOL     OW32986   3.799   7.116   4.605
 8167SOL    HW232987   3.831   7.120   4.696
 8167SOL    HW332988   3.704   7.124   4.613
 8167SOL    MW432989   3.791   7.119   4.618
 8168SOL     OW32990   3.754   6.242   4.152
 8168SOL    HW232991   3.694   6.214   4.222
 8168SOL    HW332992   3.828   6.182   4.158
 8168SOL    MW432993   3.756   6.231   4.161
 8169SOL     OW32994   4.922   6.973   4.312
 8169SOL    HW232995   4.945   6.924   4.390
 8169SOL    HW332996   5.003   7.015   4.284
 8169SOL    MW432997   4.935   6.973   4.319
 8170SOL     OW32998   4.180   5.981   5.041
 8170SOL    HW232999   4.213   6.062   5.081
 8170SOL    HW333000   4.153   6.007   4.953
 8170SOL    MW433001   4.179   5.995   5.035
 8171SOL     OW33002   4.134   5.948   4.777
 8171SOL    HW233003   4.164   5.862   4.748
 8171SOL    HW333004   4.039   5.941   4.780
 8171SOL    MW433005   4.126   5.937   4.775
 8172SOL     OW33006   4.963   6.157   5.468
 8172SOL    HW233007   5.015   6.092   5.421
 8172SOL    HW333008   4.921   6.208   5.398
 8172SOL    MW433009   4.964   6.154   5.451
 8173SOL     OW33010   5.062   5.952   5.329
 8173SOL    HW233011   4.969   5.936   5.316
 8173SOL    HW333012   5.088   5.890   5.397
 8173SOL    MW433013   5.052   5.942   5.336
 8174SOL     OW33014   4.277   5.726   4.668
 8174SOL    HW233015   4.287   5.635   4.694
 8174SOL    HW333016   4.233   5.722   4.583
 8174SOL    MW433017   4.273   5.714   4.660
 8175SOL     OW33018   5.428   6.048   4.839
 8175SOL    HW233019   5.361   6.081   4.899
 8175SOL    HW333020   5.471   6.126   4.805
 8175SOL    MW433021   5.426   6.063   4.843
 8176SOL     OW33022   5.606   6.768   4.809
 8176SOL    HW233023   5.599   6.708   4.734
 8176SOL    HW333024   5.532   6.828   4.798
 8176SOL    MW433025   5.596   6.768   4.798
 8177SOL     OW33026   4.988   6.630   4.727
 8177SOL    HW233027   5.002   6.602   4.818
 8177SOL    HW333028   5.074   6.661   4.699
 8177SOL    MW433029   5.001   6.631   4.736
 8178SOL     OW33030   5.071   6.125   5.006
 8178SOL    HW233031   5.092   6.126   4.913
 8178SOL    HW333032   5.116   6.047   5.039
 8178SOL    MW433033   5.078   6.115   4.998
 8179SOL     OW33034   5.564   6.256   5.548
 8179SOL    HW233035   5.601   6.201   5.617
 8179SOL    HW333036   5.589   6.213   5.466
 8179SOL    MW433037   5.571   6.244   5.547
 8180SOL     OW33038   5.111   6.554   5.600
 8180SOL    HW233039   5.177   6.502   5.554
 8180SOL    HW333040   5.131   6.541   5.693
 8180SOL    MW433041   5.122   6.545   5.607
 8181SOL     OW33042   5.062   5.640   3.948
 8181SOL    HW233043   5.136   5.684   3.991
 8181SOL    HW333044   4.986   5.694   3.970
 8181SOL    MW433045   5.062   5.652   3.956
 8182SOL     OW33046   5.122   6.415   4.226
 8182SOL    HW233047   5.037   6.385   4.196
 8182SOL    HW333048   5.114   6.422   4.321
 8182SOL    MW433049   5.110   6.413   4.235
 8183SOL     OW33050   4.198   6.878   4.957
 8183SOL    HW233051   4.210   6.905   5.048
 8183SOL    HW333052   4.179   6.959   4.910
 8183SOL    MW433053   4.197   6.893   4.962
 8184SOL     OW33054   4.482   5.858   4.780
 8184SOL    HW233055   4.455   5.860   4.871
 8184SOL    HW333056   4.412   5.810   4.735
 8184SOL    MW433057   4.470   5.854   4.787
 8185SOL     OW33058   5.238   6.935   5.174
 8185SOL    HW233059   5.223   6.864   5.237
 8185SOL    HW333060   5.284   6.893   5.102
 8185SOL    MW433061   5.244   6.919   5.174
 8186SOL     OW33062   4.312   6.666   5.291
 8186SOL    HW233063   4.349   6.671   5.203
 8186SOL    HW333064   4.351   6.739   5.338
 8186SOL    MW433065   4.322   6.676   5.286
 8187SOL     OW33066   4.492   6.709   5.103
 8187SOL    HW233067   4.551   6.655   5.156
 8187SOL    HW333068   4.507   6.681   5.013
 8187SOL    MW433069   4.502   6.698   5.099
 8188SOL     OW33070   4.495   6.081   3.952
 8188SOL    HW233071   4.568   6.130   3.915
 8188SOL    HW333072   4.511   5.990   3.926
 8188SOL    MW433073   4.507   6.076   3.945
 8189SOL     OW33074   4.963   5.677   4.866
 8189SOL    HW233075   5.018   5.686   4.788
 8189SOL    HW333076   5.018   5.711   4.937
 8189SOL    MW433077   4.977   5.682   4.865
 8190SOL     OW33078   3.970   6.590   4.050
 8190SOL    HW233079   3.907   6.606   3.979
 8190SOL    HW333080   3.917   6.553   4.121
 8190SOL    MW433081   3.955   6.587   4.050
 8191SOL     OW33082   4.326   6.944   3.909
 8191SOL    HW233083   4.341   6.920   4.001
 8191SOL    HW333084   4.234   6.922   3.893
 8191SOL    MW433085   4.316   6.937   3.919
 8192SOL     OW33086   4.741   6.811   4.873
 8192SOL    HW233087   4.673   6.745   4.889
 8192SOL    HW333088   4.759   6.805   4.780
 8192SOL    MW433089   4.734   6.802   4.864
 8193SOL     OW33090   3.830   7.086   5.124
 8193SOL    HW233091   3.820   7.044   5.210
 8193SOL    HW333092   3.751   7.139   5.114
 8193SOL    MW433093   3.819   7.087   5.135
 8194SOL     OW33094   4.734   5.950   4.694
 8194SOL    HW233095   4.664   5.902   4.739
 8194SOL    HW333096   4.766   6.013   4.758
 8194SOL    MW433097   4.729   5.952   4.708
 8195SOL     OW33098   4.385   6.386   5.314
 8195SOL    HW233099   4.378   6.481   5.302
 8195SOL    HW333100   4.394   6.375   5.409
 8195SOL    MW433101   4.386   6.398   5.324
 8196SOL     OW33102   4.106   6.901   5.572
 8196SOL    HW233103   4.178   6.903   5.509
 8196SOL    HW333104   4.076   6.810   5.571
 8196SOL    MW433105   4.111   6.890   5.564
 8197SOL     OW33106   5.190   5.664   5.039
 8197SOL    HW233107   5.261   5.610   5.003
 8197SOL    HW333108   5.189   5.643   5.132
 8197SOL    MW433109   5.199   5.655   5.047
 8198SOL     OW33110   4.201   6.056   4.507
 8198SOL    HW233111   4.272   6.004   4.470
 8198SOL    HW333112   4.187   6.021   4.594
 8198SOL    MW433113   4.209   6.045   4.514
 8199SOL     OW33114   4.837   5.997   4.231
 8199SOL    HW233115   4.859   5.934   4.163
 8199SOL    HW333116   4.742   5.989   4.242
 8199SOL    MW433117   4.827   5.988   4.223
 8200SOL     OW33118   3.753   6.154   5.306
 8200SOL    HW233119   3.817   6.220   5.281
 8200SOL    HW333120   3.672   6.181   5.263
 8200SOL    MW433121   3.751   6.166   5.298
 8201SOL     OW33122   5.491   7.061   4.263
 8201SOL    HW233123   5.461   6.994   4.324
 8201SOL    HW333124   5.585   7.067   4.277
 8201SOL    MW433125   5.499   7.053   4.273
 8202SOL     OW33126   5.047   6.738   4.193
 8202SOL    HW233127   5.019   6.824   4.226
 8202SOL    HW333128   5.075   6.754   4.103
 8202SOL    MW433129   5.047   6.752   4.185
 8203SOL     OW33130   4.709   5.658   4.246
 8203SOL    HW233131   4.746   5.717   4.311
 8203SOL    HW333132   4.686   5.714   4.172
 8203SOL    MW433133   4.710   5.673   4.245
 8204SOL     OW33134   5.562   6.540   4.668
 8204SOL    HW233135   5.553   6.572   4.579
 8204SOL    HW333136   5.515   6.456   4.668
 8204SOL    MW433137   5.555   6.533   4.658
 8205SOL     OW33138   3.938   6.380   5.247
 8205SOL    HW233139   3.959   6.449   5.185
 8205SOL    HW333140   4.018   6.327   5.252
 8205SOL    MW433141   3.951   6.381   5.241
 8206SOL     OW33142   5.474   6.471   4.369
 8206SOL    HW233143   5.568   6.460   4.357
 8206SOL    HW333144   5.450   6.543   4.310
 8206SOL    MW433145   5.484   6.479   4.360
 8207SOL     OW33146   3.923   6.395   5.514
 8207SOL    HW233147   3.849   6.339   5.540
 8207SOL    HW333148   3.918   6.398   5.419
 8207SOL    MW433149   3.912   6.388   5.504
 8208SOL     OW33150   4.089   5.682   4.964
 8208SOL    HW233151   4.132   5.766   4.984
 8208SOL    HW333152   4.162   5.620   4.957
 8208SOL    MW433153   4.104   5.685   4.965
 8209SOL     OW33154   4.130   6.349   4.142
 8209SOL    HW233155   4.130   6.444   4.127
 8209SOL    HW333156   4.207   6.333   4.196
 8209SOL    MW433157   4.140   6.360   4.147
 8210SOL     OW33158   4.906   6.208   5.206
 8210SOL    HW233159   4.942   6.181   5.122
 8210SOL    HW333160   4.819   6.242   5.185
 8210SOL    MW433161   4.900   6.209   5.193
 8211SOL     OW33162   3.889   6.080   4.431
 8211SOL    HW233163   3.951   6.087   4.504
 8211SOL    HW333164   3.889   5.987   4.408
 8211SOL    MW433165   3.897   6.069   4.438
 8212SOL     OW33166   4.571   6.341   4.915
 8212SOL    HW233167   4.529   6.259   4.891
 8212SOL    HW333168   4.572   6.340   5.011
 8212SOL    MW433169   4.564   6.330   4.924
 8213SOL     OW33170   4.375   5.811   5.020
 8213SOL    HW233171   4.306   5.874   5.041
 8213SOL    HW333172   4.402   5.775   5.105
 8213SOL    MW433173   4.369   5.814   5.033
 8214SOL     OW33174   3.758   6.652   3.889
 8214SOL    HW233175   3.727   6.717   3.952
 8214SOL    HW333176   3.707   6.574   3.908
 8214SOL    MW433177   3.748   6.649   3.899
 8215SOL     OW33178   5.170   5.664   4.637
 8215SOL    HW233179   5.258   5.673   4.674
 8215SOL    HW333180   5.180   5.605   4.563
 8215SOL    MW433181   5.184   5.658   4.631
 8216SOL     OW33182   5.202   6.403   4.481
 8216SOL    HW233183   5.282   6.418   4.430
 8216SOL    HW333184   5.195   6.308   4.487
 8216SOL    MW433185   5.211   6.392   4.476
 8217SOL     OW33186   4.652   6.329   5.178
 8217SOL    HW233187   4.721   6.396   5.175
 8217SOL    HW333188   4.585   6.367   5.234
 8217SOL    MW433189   4.653   6.342   5.185
 8218SOL     OW33190   4.070   6.629   5.426
 8218SOL    HW233191   4.024   6.545   5.428
 8218SOL    HW333192   4.127   6.623   5.350
 8218SOL    MW433193   4.072   6.617   5.418
 8219SOL     OW33194   5.187   6.272   3.747
 8219SOL    HW233195   5.115   6.248   3.689
 8219SOL    HW333196   5.253   6.309   3.689
 8219SOL    MW433197   5.186   6.274   3.732
 8220SOL     OW33198   4.582   6.169   4.557
 8220SOL    HW233199   4.522   6.187   4.629
 8220SOL    HW333200   4.616   6.081   4.576
 8220SOL    MW433201   4.578   6.159   4.570
 8221SOL     OW33202   5.523   5.668   5.226
 8221SOL    HW233203   5.444   5.714   5.254
 8221SOL    HW333204   5.558   5.722   5.155
 8221SOL    MW433205   5.517   5.681   5.220
 8222SOL     OW33206   4.807   6.752   4.576
 8222SOL    HW233207   4.899   6.733   4.594
 8222SOL    HW333208   4.780   6.682   4.516
 8222SOL    MW433209   4.815   6.740   4.570
 8223SOL     OW33210   4.600   6.572   3.931
 8223SOL    HW233211   4.586   6.484   3.896
 8223SOL    HW333212   4.551   6.629   3.872
 8223SOL    MW433213   4.592   6.567   3.919
 8224SOL     OW33214   5.081   6.990   4.672
 8224SOL    HW233215   5.054   7.074   4.637
 8224SOL    HW333216   5.041   6.985   4.759
 8224SOL    MW433217   5.074   6.999   4.678
 8225SOL     OW33218   5.000   6.938   4.940
 8225SOL    HW233219   5.011   6.905   5.029
 8225SOL    HW333220   4.919   6.897   4.909
 8225SOL    MW433221   4.990   6.930   4.946
 8226SOL     OW33222   4.013   6.296   4.710
 8226SOL    HW233223   3.963   6.295   4.791
 8226SOL    HW333224   4.033   6.388   4.694
 8226SOL    MW433225   4.009   6.308   4.718
 8227SOL     OW33226   5.080   7.060   5.472
 8227SOL    HW233227   5.080   7.154   5.488
 8227SOL    HW333228   5.125   7.050   5.388
 8227SOL    MW433229   5.086   7.070   5.463
 8228SOL     OW33230   5.319   5.778   4.033
 8228SOL    HW233231   5.312   5.782   4.128
 8228SOL    HW333232   5.331   5.869   4.006
 8228SOL    MW433233   5.320   5.791   4.041
 8229SOL     OW33234   4.608   6.341   4.147
 8229SOL    HW233235   4.588   6.327   4.054
 8229SOL    HW333236   4.701   6.320   4.154
 8229SOL    MW433237   4.618   6.336   4.136
 8230SOL     OW33238   3.935   5.964   5.451
 8230SOL    HW233239   3.892   6.023   5.388
 8230SOL    HW333240   4.003   6.019   5.491
 8230SOL    MW433241   3.939   5.979   5.448
 8231SOL     OW33242   5.047   6.584   4.996
 8231SOL    HW233243   5.110   6.581   5.069
 8231SOL    HW333244   4.963   6.602   5.038
 8231SOL    MW433245   5.043   6.586   5.011
 8232SOL     OW33246   5.386   5.761   4.775
 8232SOL    HW233247   5.431   5.679   4.794
 8232SOL    HW333248   5.406   5.817   4.851
 8232SOL    MW433249   5.396   5.757   4.787
 8233SOL     OW33250   3.834   5.604   4.874
 8233SOL    HW233251   3.825   5.605   4.779
 8233SOL    HW333252   3.928   5.616   4.889
 8233SOL    MW433253   3.846   5.607   4.865
 8234SOL     OW33254   5.471   6.797   4.494
 8234SOL    HW233255   5.450   6.743   4.417
 8234SOL    HW333256   5.567   6.795   4.498
 8234SOL    MW433257   5.480   6.790   4.483
 8235SOL     OW33258   4.163   6.942   5.237
 8235SOL    HW233259   4.084   6.892   5.260
 8235SOL    HW333260   4.233   6.901   5.287
 8235SOL    MW433261   4.161   6.930   5.247
 8236SOL     OW33262   5.171   6.228   4.756
 8236SOL    HW233263   5.094   6.274   4.722
 8236SOL    HW333264   5.228   6.297   4.790
 8236SOL    MW433265   5.168   6.243   4.756
 8237SOL     OW33266   3.803   5.830   3.769
 8237SOL    HW233267   3.770   5.909   3.813
 8237SOL    HW333268   3.858   5.863   3.698
 8237SOL    MW433269   3.806   5.844   3.766
 8238SOL     OW33270   5.109   7.176   4.175
 8238SOL    HW233271   5.172   7.166   4.104
 8238SOL    HW333272   5.026   7.196   4.130
 8238SOL    MW433273   5.106   7.177   4.160
 8239SOL     OW33274   5.472   6.444   5.862
 8239SOL    HW233275   5.513   6.386   5.927
 8239SOL    HW333276   5.379   6.436   5.879
 8239SOL    MW433277   5.466   6.436   5.872
 8240SOL     OW33278   4.266   6.627   6.091
 8240SOL    HW233279   4.356   6.602   6.075
 8240SOL    HW333280   4.262   6.720   6.068
 8240SOL    MW433281   4.278   6.636   6.086
 8241SOL     OW33282   4.550   6.083   6.104
 8241SOL    HW233283   4.525   6.171   6.132
 8241SOL    HW333284   4.547   6.086   6.008
 8241SOL    MW433285   4.546   6.095   6.096
 8242SOL     OW33286   3.992   6.111   6.032
 8242SOL    HW233287   4.024   6.199   6.014
 8242SOL    HW333288   3.980   6.109   6.127
 8242SOL    MW433289   3.995   6.123   6.044
 8243SOL     OW33290   4.391   5.866   6.119
 8243SOL    HW233291   4.449   5.942   6.121
 8243SOL    HW333292   4.326   5.887   6.052
 8243SOL    MW433293   4.390   5.878   6.110
 8244SOL     OW33294   4.478   6.793   6.294
 8244SOL    HW233295   4.558   6.796   6.346
 8244SOL    HW333296   4.506   6.760   6.208
 8244SOL    MW433297   4.492   6.789   6.289
 8245SOL     OW33298   4.255   6.297   6.285
 8245SOL    HW233299   4.240   6.217   6.336
 8245SOL    HW333300   4.337   6.332   6.319
 8245SOL    MW433301   4.263   6.289   6.297
 8246SOL     OW33302   5.105   6.775   5.810
 8246SOL    HW233303   5.023   6.811   5.776
 8246SOL    HW333304   5.173   6.818   5.759
 8246SOL    MW433305   5.103   6.785   5.798
 8247SOL     OW33306   4.104   6.910   6.476
 8247SOL    HW233307   4.080   6.963   6.552
 8247SOL    HW333308   4.160   6.968   6.424
 8247SOL    MW433309   4.108   6.925   6.479
 8248SOL     OW33310   4.666   6.554   6.286
 8248SOL    HW233311   4.580   6.541   6.326
 8248SOL    HW333312   4.719   6.481   6.318
 8248SOL    MW433313   4.662   6.543   6.295
 8249SOL     OW33314   4.657   6.916   6.003
 8249SOL    HW233315   4.634   6.978   6.071
 8249SOL    HW333316   4.614   6.834   6.029
 8249SOL    MW433317   4.649   6.912   6.014
 8250SOL     OW33318   4.154   5.889   5.971
 8250SOL    HW233319   4.128   5.851   5.887
 8250SOL    HW333320   4.091   5.959   5.987
 8250SOL    MW433321   4.143   5.892   5.962
 8251SOL     OW33322   3.989   6.850   6.008
 8251SOL    HW233323   3.937   6.918   5.964
 8251SOL    HW333324   3.986   6.776   5.948
 8251SOL    MW433325   3.981   6.849   5.995
 8252SOL     OW33326   5.586   6.086   5.761
 8252SOL    HW233327   5.495   6.088   5.789
 8252SOL    HW333328   5.631   6.148   5.819
 8252SOL    MW433329   5.579   6.094   5.771
 8253SOL     OW33330   5.331   6.689   6.111
 8253SOL    HW233331   5.241   6.689   6.146
 8253SOL    HW333332   5.324   6.735   6.028
 8253SOL    MW433333   5.318   6.695   6.105
 8254SOL     OW33334   4.858   6.270   6.072
 8254SOL    HW233335   4.884   6.294   5.983
 8254SOL    HW333336   4.840   6.177   6.068
 8254SOL    MW433337   4.860   6.262   6.059
 8255SOL     OW33338   5.523   6.890   5.923
 8255SOL    HW233339   5.479   6.931   5.998
 8255SOL    HW333340   5.580   6.958   5.888
 8255SOL    MW433341   5.525   6.904   5.928
 8256SOL     OW33342   4.179   7.306   6.241
 8256SOL    HW233343   4.211   7.394   6.219
 8256SOL    HW333344   4.132   7.278   6.163
 8256SOL    MW433345   4.178   7.314   6.228
 8257SOL     OW33346   4.697   6.299   5.733
 8257SOL    HW233347   4.699   6.246   5.654
 8257SOL    HW333348   4.785   6.336   5.739
 8257SOL    MW433349   4.709   6.298   5.722
 8258SOL     OW33350   5.311   6.225   6.069
 8258SOL    HW233351   5.350   6.225   6.156
 8258SOL    HW333352   5.252   6.301   6.069
 8258SOL    MW433353   5.308   6.236   6.080
 8259SOL     OW33354   3.924   5.825   6.264
 8259SOL    HW233355   3.915   5.765   6.190
 8259SOL    HW333356   3.857   5.796   6.327
 8259SOL    MW433357   3.914   5.812   6.262
 8260SOL     OW33358   4.867   6.918   5.825
 8260SOL    HW233359   4.817   6.920   5.907
 8260SOL    HW333360   4.801   6.936   5.757
 8260SOL    MW433361   4.853   6.920   5.827
 8261SOL     OW33362   4.330   7.336   5.933
 8261SOL    HW233363   4.251   7.294   5.966
 8261SOL    HW333364   4.396   7.319   6.000
 8261SOL    MW433365   4.329   7.328   5.946
 8262SOL     OW33366   4.466   6.751   5.640
 8262SOL    HW233367   4.388   6.697   5.627
 8262SOL    HW333368   4.437   6.824   5.693
 8262SOL    MW433369   4.452   6.753   5.645
 8263SOL     OW33370   5.271   6.941   5.650
 8263SOL    HW233371   5.218   6.990   5.586
 8263SOL    HW333372   5.302   7.007   5.711
 8263SOL    MW433373   5.269   6.955   5.648
 8264SOL     OW33374   4.496   5.830   5.705
 8264SOL    HW233375   4.444   5.750   5.693
 8264SOL    HW333376   4.583   5.807   5.673
 8264SOL    MW433377   4.499   5.816   5.699
 8265SOL     OW33378   3.857   6.470   6.162
 8265SOL    HW233379   3.948   6.485   6.189
 8265SOL    HW333380   3.860   6.391   6.108
 8265SOL    MW433381   3.869   6.462   6.160
 8266SOL     OW33382   3.865   7.082   6.201
 8266SOL    HW233383   3.837   7.121   6.283
 8266SOL    HW333384   3.885   6.991   6.223
 8266SOL    MW433385   3.863   7.074   6.214
 8267SOL     OW33386   4.698   7.125   6.236
 8267SOL    HW233387   4.781   7.079   6.220
 8267SOL    HW333388   4.688   7.124   6.332
 8267SOL    MW433389   4.708   7.118   6.246
 8268SOL     OW33390   4.431   7.182   5.641
 8268SOL    HW233391   4.371   7.251   5.611
 8268SOL    HW333392   4.376   7.124   5.694
 8268SOL    MW433393   4.415   7.184   5.643
 8269SOL     OW33394   4.869   5.827   5.864
 8269SOL    HW233395   4.802   5.803   5.801
 8269SOL    HW333396   4.934   5.876   5.813
 8269SOL    MW433397   4.869   5.829   5.849
 8270SOL     OW33398   4.388   6.544   6.376
 8270SOL    HW233399   4.299   6.535   6.409
 8270SOL    HW333400   4.392   6.634   6.344
 8270SOL    MW433401   4.377   6.555   6.376
 8271SOL     OW33402   5.187   6.127   6.371
 8271SOL    HW233403   5.132   6.048   6.370
 8271SOL    HW333404   5.169   6.168   6.455
 8271SOL    MW433405   5.177   6.122   6.380
 8272SOL     OW33406   4.806   6.331   6.328
 8272SOL    HW233407   4.743   6.263   6.352
 8272SOL    HW333408   4.826   6.312   6.236
 8272SOL    MW433409   4.800   6.318   6.320
 8273SOL     OW33410   4.554   6.635   6.054
 8273SOL    HW233411   4.556   6.609   5.961
 8273SOL    HW333412   4.612   6.572   6.097
 8273SOL    MW433413   4.562   6.624   6.048
 8274SOL     OW33414   5.064   5.879   6.387
 8274SOL    HW233415   5.092   5.811   6.448
 8274SOL    HW333416   4.978   5.850   6.357
 8274SOL    MW433417   5.057   5.866   6.391
 8275SOL     OW33418   3.869   6.813   6.321
 8275SOL    HW233419   3.933   6.845   6.384
 8275SOL    HW333420   3.918   6.749   6.269
 8275SOL    MW433421   3.884   6.809   6.322
 8276SOL     OW33422   5.044   5.983   5.722
 8276SOL    HW233423   5.017   6.049   5.658
 8276SOL    HW333424   5.114   6.026   5.772
 8276SOL    MW433425   5.049   5.996   5.719
 8277SOL     OW33426   4.712   5.688   5.659
 8277SOL    HW233427   4.768   5.680   5.581
 8277SOL    HW333428   4.689   5.598   5.681
 8277SOL    MW433429   4.717   5.675   5.652
 8278SOL     OW33430   5.217   6.539   5.864
 8278SOL    HW233431   5.184   6.628   5.854
 8278SOL    HW333432   5.182   6.510   5.949
 8278SOL    MW433433   5.207   6.548   5.875
 8279SOL     OW33434   4.211   6.577   5.656
 8279SOL    HW233435   4.134   6.590   5.712
 8279SOL    HW333436   4.175   6.541   5.575
 8279SOL    MW433437   4.197   6.573   5.653
 8280SOL     OW33438   4.864   6.550   5.899
 8280SOL    HW233439   4.774   6.571   5.874
 8280SOL    HW333440   4.891   6.623   5.955
 8280SOL    MW433441   4.856   6.562   5.902
 8281SOL     OW33442   4.493   5.666   6.306
 8281SOL    HW233443   4.422   5.727   6.288
 8281SOL    HW333444   4.544   5.663   6.225
 8281SOL    MW433445   4.489   5.672   6.293
 8282SOL     OW33446   4.251   6.906   6.055
 8282SOL    HW233447   4.244   6.938   6.145
 8282SOL    HW333448   4.161   6.890   6.027
 8282SOL    MW433449   4.239   6.908   6.062
 8283SOL     OW33450   4.254   6.190   5.769
 8283SOL    HW233451   4.220   6.246   5.839
 8283SOL    HW333452   4.325   6.140   5.809
 8283SOL    MW433453   4.260   6.191   5.783
 8284SOL     OW33454   5.310   6.076   5.833
 8284SOL    HW233455   5.302   6.147   5.770
 8284SOL    HW333456   5.328   6.120   5.916
 8284SOL    MW433457   5.311   6.090   5.835
 8285SOL     OW33458   4.170   5.731   6.262
 8285SOL    HW233459   4.220   5.774   6.193
 8285SOL    HW333460   4.085   5.775   6.262
 8285SOL    MW433461   4.167   5.744   6.253
 8286SOL     OW33462   4.979   6.338   5.808
 8286SOL    HW233463   5.026   6.356   5.727
 8286SOL    HW333464   4.945   6.422   5.836
 8286SOL    MW433465   4.981   6.352   5.801
 8287SOL     OW33466   4.092   6.516   6.302
 8287SOL    HW233467   4.150   6.572   6.250
 8287SOL    HW333468   4.136   6.431   6.304
 8287SOL    MW433469   4.105   6.513   6.295
 8288SOL     OW33470   4.818   5.830   6.298
 8288SOL    HW233471   4.838   5.905   6.242
 8288SOL    HW333472   4.798   5.869   6.383
 8288SOL    MW433473   4.819   5.846   6.302
 8289SOL     OW33474   3.754   6.242   6.021
 8289SOL    HW233475   3.694   6.214   6.091
 8289SOL    HW333476   3.828   6.182   6.027
 8289SOL    MW433477   3.756   6.231   6.030
 8290SOL     OW33478   4.922   6.973   6.181
 8290SOL    HW233479   4.945   6.924   6.259
 8290SOL    HW333480   5.003   7.015   6.153
 8290SOL    MW433481   4.935   6.973   6.188
 8291SOL     OW33482   4.277   5.726   6.537
 8291SOL    HW233483   4.287   5.635   6.563
 8291SOL    HW333484   4.233   5.722   6.452
 8291SOL    MW433485   4.273   5.714   6.529
 8292SOL     OW33486   5.062   5.640   5.817
 8292SOL    HW233487   5.136   5.684   5.860
 8292SOL    HW333488   4.986   5.694   5.839
 8292SOL    MW433489   5.062   5.652   5.825
 8293SOL     OW33490   5.122   6.415   6.095
 8293SOL    HW233491   5.037   6.385   6.065
 8293SOL    HW333492   5.114   6.422   6.190
 8293SOL    MW433493   5.110   6.413   6.104
 8294SOL     OW33494   4.495   6.081   5.821
 8294SOL    HW233495   4.568   6.130   5.784
 8294SOL    HW333496   4.511   5.990   5.795
 8294SOL    MW433497   4.507   6.076   5.814
 8295SOL     OW33498   3.970   6.590   5.919
 8295SOL    HW233499   3.907   6.606   5.848
 8295SOL    HW333500   3.917   6.553   5.990
 8295SOL    MW433501   3.955   6.587   5.919
 8296SOL     OW33502   4.326   6.944   5.778
 8296SOL    HW233503   4.341   6.920   5.870
 8296SOL    HW333504   4.234   6.922   5.762
 8296SOL    MW433505   4.316   6.937   5.788
 8297SOL     OW33506   4.201   6.056   6.376
 8297SOL    HW233507   4.272   6.004   6.339
 8297SOL    HW333508   4.187   6.021   6.463
 8297SOL    MW433509   4.209   6.045   6.383
 8298SOL     OW33510   4.837   5.997   6.100
 8298SOL    HW233511   4.859   5.934   6.032
 8298SOL    HW333512   4.742   5.989   6.111
 8298SOL    MW433513   4.827   5.988   6.092
 8299SOL     OW33514   3.922   5.687   6.032
 8299SOL    HW233515   3.993   5.708   5.971
 8299SOL    HW333516   3.876   5.615   5.990
 8299SOL    MW433517   3.926   5.681   6.018
 8300SOL     OW33518   5.491   7.061   6.132
 8300SOL    HW233519   5.461   6.994   6.193
 8300SOL    HW333520   5.585   7.067   6.146
 8300SOL    MW433521   5.499   7.053   6.142
 8301SOL     OW33522   5.047   6.738   6.062
 8301SOL    HW233523   5.019   6.824   6.095
 8301SOL    HW333524   5.075   6.754   5.972
 8301SOL    MW433525   5.047   6.752   6.054
 8302SOL     OW33526   4.709   5.658   6.115
 8302SOL    HW233527   4.746   5.717   6.180
 8302SOL    HW333528   4.686   5.714   6.041
 8302SOL    MW433529   4.710   5.673   6.114
 8303SOL     OW33530   4.130   6.349   6.011
 8303SOL    HW233531   4.130   6.444   5.996
 8303SOL    HW333532   4.207   6.333   6.065
 8303SOL    MW433533   4.140   6.360   6.016
 8304SOL     OW33534   3.889   6.080   6.300
 8304SOL    HW233535   3.951   6.087   6.373
 8304SOL    HW333536   3.889   5.987   6.277
 8304SOL    MW433537   3.897   6.069   6.307
 8305SOL     OW33538   3.758   6.652   5.758
 8305SOL    HW233539   3.727   6.717   5.821
 8305SOL    HW333540   3.707   6.574   5.777
 8305SOL    MW433541   3.748   6.649   5.768
 8306SOL     OW33542   5.170   5.664   6.506
 8306SOL    HW233543   5.258   5.673   6.543
 8306SOL    HW333544   5.180   5.605   6.432
 8306SOL    MW433545   5.184   5.658   6.500
 8307SOL     OW33546   5.187   6.272   5.615
 8307SOL    HW233547   5.115   6.248   5.557
 8307SOL    HW333548   5.253   6.309   5.557
 8307SOL    MW433549   5.186   6.274   5.600
 8308SOL     OW33550   4.582   6.169   6.426
 8308SOL    HW233551   4.522   6.187   6.498
 8308SOL    HW333552   4.616   6.081   6.445
 8308SOL    MW433553   4.578   6.159   6.439
 8309SOL     OW33554   4.807   6.752   6.445
 8309SOL    HW233555   4.899   6.733   6.463
 8309SOL    HW333556   4.780   6.682   6.385
 8309SOL    MW433557   4.815   6.740   6.439
 8310SOL     OW33558   4.600   6.572   5.800
 8310SOL    HW233559   4.586   6.484   5.765
 8310SOL    HW333560   4.551   6.629   5.741
 8310SOL    MW433561   4.592   6.567   5.788
 8311SOL     OW33562   5.319   5.778   5.902
 8311SOL    HW233563   5.312   5.782   5.997
 8311SOL    HW333564   5.331   5.869   5.875
 8311SOL    MW433565   5.320   5.791   5.910
 8312SOL     OW33566   4.608   6.341   6.016
 8312SOL    HW233567   4.588   6.327   5.923
 8312SOL    HW333568   4.701   6.320   6.023
 8312SOL    MW433569   4.618   6.336   6.005
 8313SOL     OW33570   4.047   5.731   5.789
 8313SOL    HW233571   3.976   5.786   5.757
 8313SOL    HW333572   4.089   5.697   5.710
 8313SOL    MW433573   4.043   5.733   5.775
 8314SOL     OW33574   3.803   5.830   5.638
 8314SOL    HW233575   3.770   5.909   5.682
 8314SOL    HW333576   3.858   5.863   5.567
 8314SOL    MW433577   3.806   5.844   5.635
 8315SOL     OW33578   5.109   7.176   6.044
 8315SOL    HW233579   5.172   7.166   5.973
 8315SOL    HW333580   5.026   7.196   5.999
 8315SOL    MW433581   5.106   7.177   6.029
 8316SOL     OW33582   7.207   0.771   1.252
 8316SOL    HW233583   7.162   0.838   1.303
 8316SOL    HW333584   7.295   0.807   1.238
 8316SOL    MW433585   7.213   0.784   1.256
 8317SOL     OW33586   6.135   1.022   0.486
 8317SOL    HW233587   6.225   0.997   0.470
 8317SOL    HW333588   6.131   1.115   0.463
 8317SOL    MW433589   6.147   1.031   0.481
 8318SOL     OW33590   7.251   1.725   0.628
 8318SOL    HW233591   7.263   1.671   0.706
 8318SOL    HW333592   7.288   1.673   0.557
 8318SOL    MW433593   7.257   1.710   0.629
 8319SOL     OW33594   6.630   1.610   1.629
 8319SOL    HW233595   6.671   1.646   1.550
 8319SOL    HW333596   6.665   1.521   1.636
 8319SOL    MW433597   6.641   1.603   1.620
 8320SOL     OW33598   7.187   1.165   1.233
 8320SOL    HW233599   7.108   1.130   1.191
 8320SOL    HW333600   7.214   1.237   1.177
 8320SOL    MW433601   7.180   1.170   1.220
 8321SOL     OW33602   6.419   0.478   0.499
 8321SOL    HW233603   6.394   0.566   0.527
 8321SOL    HW333604   6.416   0.481   0.403
 8321SOL    MW433605   6.415   0.490   0.491
 8322SOL     OW33606   5.861   0.506   0.427
 8322SOL    HW233607   5.893   0.594   0.409
 8322SOL    HW333608   5.849   0.504   0.522
 8322SOL    MW433609   5.864   0.518   0.439
 8323SOL     OW33610   5.939   0.919   1.328
 8323SOL    HW233611   6.002   0.866   1.279
 8323SOL    HW333612   5.920   0.993   1.271
 8323SOL    MW433613   5.945   0.921   1.315
 8324SOL     OW33614   6.260   0.261   0.514
 8324SOL    HW233615   6.318   0.337   0.516
 8324SOL    HW333616   6.195   0.282   0.447
 8324SOL    MW433617   6.259   0.273   0.505
 8325SOL     OW33618   6.347   1.188   0.689
 8325SOL    HW233619   6.427   1.191   0.741
 8325SOL    HW333620   6.375   1.155   0.603
 8325SOL    MW433621   6.361   1.184   0.684
 8326SOL     OW33622   6.372   1.529   1.592
 8326SOL    HW233623   6.456   1.555   1.631
 8326SOL    HW333624   6.396   1.473   1.518
 8326SOL    MW433625   6.386   1.525   1.587
 8327SOL     OW33626   6.124   0.692   0.680
 8327SOL    HW233627   6.109   0.612   0.731
 8327SOL    HW333628   6.206   0.727   0.714
 8327SOL    MW433629   6.132   0.684   0.692
 8328SOL     OW33630   6.461   1.378   1.365
 8328SOL    HW233631   6.425   1.444   1.305
 8328SOL    HW333632   6.389   1.316   1.378
 8328SOL    MW433633   6.447   1.378   1.359
 8329SOL     OW33634   6.266   0.518   1.057
 8329SOL    HW233635   6.172   0.514   1.075
 8329SOL    HW333636   6.296   0.427   1.066
 8329SOL    MW433637   6.257   0.506   1.060
 8330SOL     OW33638   6.012   0.932   0.961
 8330SOL    HW233639   5.967   0.939   0.877
 8330SOL    HW333640   5.992   1.015   1.005
 8330SOL    MW433641   6.004   0.944   0.955
 8331SOL     OW33642   5.709   1.778   0.836
 8331SOL    HW233643   5.798   1.770   0.871
 8331SOL    HW333644   5.673   1.690   0.841
 8331SOL    MW433645   5.716   1.765   0.841
 8332SOL     OW33646   5.973   1.305   0.871
 8332SOL    HW233647   5.949   1.358   0.947
 8332SOL    HW333648   6.029   1.363   0.819
 8332SOL    MW433649   5.977   1.320   0.874
 8333SOL     OW33650   6.535   0.949   0.681
 8333SOL    HW233651   6.449   0.936   0.721
 8333SOL    HW333652   6.588   0.876   0.713
 8333SOL    MW433653   6.531   0.938   0.690
 8334SOL     OW33654   5.943   1.601   1.466
 8334SOL    HW233655   5.851   1.577   1.451
 8334SOL    HW333656   5.987   1.518   1.483
 8334SOL    MW433657   5.937   1.586   1.465
 8335SOL     OW33658   6.526   1.311   0.398
 8335SOL    HW233659   6.503   1.373   0.466
 8335SOL    HW333660   6.483   1.229   0.424
 8335SOL    MW433661   6.518   1.307   0.409
 8336SOL     OW33662   7.200   1.084   0.506
 8336SOL    HW233663   7.110   1.084   0.541
 8336SOL    HW333664   7.193   1.130   0.423
 8336SOL    MW433665   7.187   1.090   0.500
 8337SOL     OW33666   7.000   0.719   1.578
 8337SOL    HW233667   7.069   0.657   1.555
 8337SOL    HW333668   6.925   0.693   1.525
 8337SOL    MW433669   7.000   0.706   1.569
 8338SOL     OW33670   5.741   1.599   1.130
 8338SOL    HW233671   5.724   1.545   1.207
 8338SOL    HW333672   5.729   1.689   1.160
 8338SOL    MW433673   5.738   1.603   1.144
 8339SOL     OW33674   6.736   1.106   1.570
 8339SOL    HW233675   6.721   1.199   1.555
 8339SOL    HW333676   6.831   1.096   1.570
 8339SOL    MW433677   6.745   1.116   1.567
 8340SOL     OW33678   6.532   0.530   1.771
 8340SOL    HW233679   6.622   0.531   1.738
 8340SOL    HW333680   6.491   0.455   1.729
 8340SOL    MW433681   6.538   0.520   1.762
 8341SOL     OW33682   7.107   1.062   0.898
 8341SOL    HW233683   7.110   0.996   0.829
 8341SOL    HW333684   7.192   1.105   0.894
 8341SOL    MW433685   7.119   1.058   0.889
 8342SOL     OW33686   6.727   0.665   0.467
 8342SOL    HW233687   6.753   0.689   0.378
 8342SOL    HW333688   6.709   0.572   0.463
 8342SOL    MW433689   6.729   0.657   0.454
 8343SOL     OW33690   6.312   0.334   1.721
 8343SOL    HW233691   6.322   0.260   1.661
 8343SOL    HW333692   6.348   0.303   1.804
 8343SOL    MW433693   6.318   0.320   1.723
 8344SOL     OW33694   6.048   1.701   0.636
 8344SOL    HW233695   6.080   1.789   0.614
 8344SOL    HW333696   6.001   1.673   0.558
 8344SOL    MW433697   6.047   1.709   0.623
 8345SOL     OW33698   7.180   0.620   0.464
 8345SOL    HW233699   7.219   0.620   0.551
 8345SOL    HW333700   7.121   0.696   0.464
 8345SOL    MW433701   7.177   0.631   0.475
 8346SOL     OW33702   6.497   0.987   1.593
 8346SOL    HW233703   6.474   0.967   1.683
 8346SOL    HW333704   6.582   1.031   1.598
 8346SOL    MW433705   6.504   0.990   1.605
 8347SOL     OW33706   6.577   0.124   1.353
 8347SOL    HW233707   6.583   0.086   1.266
 8347SOL    HW333708   6.566   0.218   1.338
 8347SOL    MW433709   6.578   0.132   1.341
 8348SOL     OW33710   6.666   0.613   1.187
 8348SOL    HW233711   6.741   0.642   1.134
 8348SOL    HW333712   6.598   0.678   1.171
 8348SOL    MW433713   6.667   0.625   1.177
 8349SOL     OW33714   7.216   0.581   1.464
 8349SOL    HW233715   7.197   0.490   1.443
 8349SOL    HW333716   7.194   0.630   1.385
 8349SOL    MW433717   7.211   0.574   1.451
 8350SOL     OW33718   7.358   1.675   1.368
 8350SOL    HW233719   7.286   1.637   1.419
 8350SOL    HW333720   7.375   1.760   1.409
 8350SOL    MW433721   7.352   1.680   1.380
 8351SOL     OW33722   7.072   1.133   1.646
 8351SOL    HW233723   7.154   1.174   1.676
 8351SOL    HW333724   7.035   1.095   1.726
 8351SOL    MW433725   7.078   1.134   1.661
 8352SOL     OW33726   7.367   0.506   0.630
 8352SOL    HW233727   7.456   0.475   0.647
 8352SOL    HW333728   7.310   0.446   0.678
 8352SOL    MW433729   7.370   0.494   0.639
 8353SOL     OW33730   5.793   0.220   0.659
 8353SOL    HW233731   5.784   0.160   0.585
 8353SOL    HW333732   5.726   0.191   0.722
 8353SOL    MW433733   5.783   0.207   0.657
 8354SOL     OW33734   5.740   0.393   1.022
 8354SOL    HW233735   5.712   0.484   1.031
 8354SOL    HW333736   5.677   0.354   0.961
 8354SOL    MW433737   5.727   0.399   1.016
 8355SOL     OW33738   6.199   1.731   0.328
 8355SOL    HW233739   6.120   1.689   0.361
 8355SOL    HW333740   6.265   1.714   0.395
 8355SOL    MW433741   6.198   1.723   0.341
 8356SOL     OW33742   7.327   1.251   1.725
 8356SOL    HW233743   7.377   1.177   1.757
 8356SOL    HW333744   7.273   1.278   1.800
 8356SOL    MW433745   7.327   1.245   1.738
 8357SOL     OW33746   7.461   0.886   1.227
 8357SOL    HW233747   7.477   0.924   1.140
 8357SOL    HW333748   7.495   0.952   1.288
 8357SOL    MW433749   7.468   0.899   1.223
 8358SOL     OW33750   7.253   1.595   0.896
 8358SOL    HW233751   7.282   1.662   0.957
 8358SOL    HW333752   7.234   1.519   0.951
 8358SOL    MW433753   7.255   1.595   0.911
 8359SOL     OW33754   5.724   0.668   1.192
 8359SOL    HW233755   5.786   0.698   1.258
 8359SOL    HW333756   5.658   0.737   1.186
 8359SOL    MW433757   5.723   0.681   1.199
 8360SOL     OW33758   5.819   1.777   1.644
 8360SOL    HW233759   5.793   1.845   1.582
 8360SOL    HW333760   5.867   1.714   1.592
 8360SOL    MW433761   5.821   1.777   1.630
 8361SOL     OW33762   5.871   1.096   1.151
 8361SOL    HW233763   5.924   1.171   1.176
 8361SOL    HW333764   5.790   1.134   1.117
 8361SOL    MW433765   5.867   1.111   1.151
 8362SOL     OW33766   6.411   1.000   1.139
 8362SOL    HW233767   6.439   0.909   1.151
 8362SOL    HW333768   6.340   0.994   1.075
 8362SOL    MW433769   6.404   0.988   1.134
 8363SOL     OW33770   5.726   0.865   0.557
 8363SOL    HW233771   5.817   0.880   0.584
 8363SOL    HW333772   5.729   0.786   0.503
 8363SOL    MW433773   5.738   0.857   0.555
 8364SOL     OW33774   5.962   0.573   1.811
 8364SOL    HW233775   5.909   0.653   1.818
 8364SOL    HW333776   6.032   0.585   1.876
 8364SOL    MW433777   5.964   0.586   1.819
 8365SOL     OW33778   6.348   0.123   1.518
 8365SOL    HW233779   6.325   0.031   1.520
 8365SOL    HW333780   6.434   0.125   1.475
 8365SOL    MW433781   6.355   0.113   1.514
 8366SOL     OW33782   6.032   0.647   1.557
 8366SOL    HW233783   6.112   0.697   1.543
 8366SOL    HW333784   6.023   0.641   1.652
 8366SOL    MW433785   6.041   0.653   1.567
 8367SOL     OW33786   6.353   1.797   0.931
 8367SOL    HW233787   6.442   1.812   0.961
 8367SOL    HW333788   6.348   1.844   0.847
 8367SOL    MW433789   6.363   1.805   0.924
 8368SOL     OW33790   5.734   1.477   0.596
 8368SOL    HW233791   5.706   1.516   0.678
 8368SOL    HW333792   5.754   1.386   0.618
 8368SOL    MW433793   5.732   1.469   0.609
 8369SOL     OW33794   6.567   1.520   0.631
 8369SOL    HW233795   6.650   1.474   0.615
 8369SOL    HW333796   6.557   1.519   0.727
 8369SOL    MW433797   6.577   1.513   0.641
 8370SOL     OW33798   7.399   0.665   0.945
 8370SOL    HW233799   7.488   0.695   0.927
 8370SOL    HW333800   7.379   0.605   0.874
 8370SOL    MW433801   7.408   0.662   0.934
 8371SOL     OW33802   7.250   0.844   1.825
 8371SOL    HW233803   7.305   0.768   1.806
 8371SOL    HW333804   7.252   0.852   1.920
 8371SOL    MW433805   7.258   0.835   1.833
 8372SOL     OW33806   6.545   0.406   1.344
 8372SOL    HW233807   6.464   0.447   1.372
 8372SOL    HW333808   6.592   0.474   1.296
 8372SOL    MW433809   6.540   0.421   1.342
 8373SOL     OW33810   6.805   0.744   0.967
 8373SOL    HW233811   6.818   0.838   0.977
 8373SOL    HW333812   6.766   0.734   0.881
 8373SOL    MW433813   6.801   0.755   0.957
 8374SOL     OW33814   6.257   0.939   0.771
 8374SOL    HW233815   6.168   0.930   0.804
 8374SOL    HW333816   6.261   1.029   0.739
 8374SOL    MW433817   6.246   0.950   0.771
 8375SOL     OW33818   7.056   0.522   0.766
 8375SOL    HW233819   7.001   0.443   0.765
 8375SOL    HW333820   7.038   0.563   0.850
 8375SOL    MW433821   7.046   0.517   0.775
 8376SOL     OW33822   6.027   0.209   1.583
 8376SOL    HW233823   5.948   0.227   1.635
 8376SOL    HW333824   6.022   0.271   1.510
 8376SOL    MW433825   6.017   0.219   1.580
 8377SOL     OW33826   6.675   0.726   0.723
 8377SOL    HW233827   6.612   0.658   0.747
 8377SOL    HW333828   6.695   0.707   0.631
 8377SOL    MW433829   6.669   0.713   0.715
 8378SOL     OW33830   5.931   1.621   0.425
 8378SOL    HW233831   5.892   1.668   0.351
 8378SOL    HW333832   5.865   1.556   0.450
 8378SOL    MW433833   5.918   1.619   0.419
 8379SOL     OW33834   6.423   1.030   0.449
 8379SOL    HW233835   6.425   1.004   0.356
 8379SOL    HW333836   6.481   0.967   0.492
 8379SOL    MW433837   6.431   1.019   0.443
 8380SOL     OW33838   6.976   1.590   1.221
 8380SOL    HW233839   6.901   1.636   1.259
 8380SOL    HW333840   6.958   1.497   1.238
 8380SOL    MW433841   6.965   1.584   1.229
 8381SOL     OW33842   6.980   1.798   0.651
 8381SOL    HW233843   6.923   1.751   0.590
 8381SOL    HW333844   7.066   1.759   0.638
 8381SOL    MW433845   6.983   1.789   0.641
 8382SOL     OW33846   5.738   1.208   0.716
 8382SOL    HW233847   5.802   1.240   0.779
 8382SOL    HW333848   5.787   1.144   0.664
 8382SOL    MW433849   5.753   1.204   0.717
 8383SOL     OW33850   6.238   1.284   1.698
 8383SOL    HW233851   6.286   1.367   1.685
 8383SOL    HW333852   6.295   1.232   1.754
 8383SOL    MW433853   6.252   1.288   1.704
 8384SOL     OW33854   5.814   1.526   1.838
 8384SOL    HW233855   5.870   1.450   1.853
 8384SOL    HW333856   5.763   1.504   1.760
 8384SOL    MW433857   5.814   1.513   1.829
 8385SOL     OW33858   7.086   0.934   0.259
 8385SOL    HW233859   7.053   1.023   0.249
 8385SOL    HW333860   7.051   0.905   0.344
 8385SOL    MW433861   7.076   0.943   0.270
 8386SOL     OW33862   6.699   1.363   1.447
 8386SOL    HW233863   6.610   1.369   1.415
 8386SOL    HW333864   6.743   1.442   1.415
 8386SOL    MW433865   6.694   1.373   1.439
 8387SOL     OW33866   6.016   1.521   1.088
 8387SOL    HW233867   6.061   1.583   1.145
 8387SOL    HW333868   5.923   1.540   1.101
 8387SOL    MW433869   6.009   1.531   1.095
 8388SOL     OW33870   7.456   1.050   1.442
 8388SOL    HW233871   7.371   1.063   1.401
 8388SOL    HW333872   7.436   1.014   1.529
 8388SOL    MW433873   7.443   1.046   1.447
 8389SOL     OW33874   6.438   1.589   1.196
 8389SOL    HW233875   6.462   1.578   1.105
 8389SOL    HW333876   6.361   1.646   1.194
 8389SOL    MW433877   6.430   1.594   1.185
 8390SOL     OW33878   6.733   0.945   0.294
 8390SOL    HW233879   6.643   0.966   0.269
 8390SOL    HW333880   6.760   1.018   0.350
 8390SOL    MW433881   6.725   0.957   0.297
 8391SOL     OW33882   6.233   1.294   0.986
 8391SOL    HW233883   6.226   1.273   1.080
 8391SOL    HW333884   6.151   1.262   0.949
 8391SOL    MW433885   6.221   1.288   0.993
 8392SOL     OW33886   7.097   0.304   1.388
 8392SOL    HW233887   7.044   0.306   1.468
 8392SOL    HW333888   7.082   0.217   1.351
 8392SOL    MW433889   7.089   0.294   1.393
 8393SOL     OW33890   5.679   1.386   1.649
 8393SOL    HW233891   5.723   1.319   1.595
 8393SOL    HW333892   5.594   1.348   1.669
 8393SOL    MW433893   5.674   1.372   1.645
 8394SOL     OW33894   6.120   1.301   0.450
 8394SOL    HW233895   6.113   1.333   0.540
 8394SOL    HW333896   6.030   1.285   0.422
 8394SOL    MW433897   6.108   1.303   0.457
 8395SOL     OW33898   6.715   1.694   1.359
 8395SOL    HW233899   6.635   1.679   1.309
 8395SOL    HW333900   6.722   1.789   1.366
 8395SOL    MW433901   6.706   1.705   1.353
 8396SOL     OW33902   6.829   1.659   0.849
 8396SOL    HW233903   6.876   1.732   0.808
 8396SOL    HW333904   6.750   1.698   0.885
 8396SOL    MW433905   6.824   1.674   0.848
 8397SOL     OW33906   7.237   1.754   1.124
 8397SOL    HW233907   7.280   1.724   1.204
 8397SOL    HW333908   7.156   1.702   1.121
 8397SOL    MW433909   7.232   1.743   1.134
 8398SOL     OW33910   6.322   0.718   1.831
 8398SOL    HW233911   6.392   0.660   1.803
 8398SOL    HW333912   6.265   0.663   1.886
 8398SOL    MW433913   6.324   0.705   1.835
 8399SOL     OW33914   7.109   0.930   1.464
 8399SOL    HW233915   7.114   0.983   1.544
 8399SOL    HW333916   7.071   0.847   1.492
 8399SOL    MW433917   7.105   0.925   1.479
 8400SOL     OW33918   7.219   1.336   0.986
 8400SOL    HW233919   7.254   1.318   0.899
 8400SOL    HW333920   7.124   1.337   0.973
 8400SOL    MW433921   7.211   1.333   0.973
 8401SOL     OW33922   6.648   0.984   1.355
 8401SOL    HW233923   6.691   1.019   1.433
 8401SOL    HW333924   6.631   1.061   1.301
 8401SOL    MW433925   6.651   0.999   1.358
 8402SOL     OW33926   6.039   0.126   0.657
 8402SOL    HW233927   6.089   0.169   0.588
 8402SOL    HW333928   5.954   0.170   0.657
 8402SOL    MW433929   6.036   0.139   0.648
 8403SOL     OW33930   5.798   1.188   1.517
 8403SOL    HW233931   5.826   1.141   1.595
 8403SOL    HW333932   5.719   1.143   1.488
 8403SOL    MW433933   5.791   1.177   1.523
 8404SOL     OW33934   6.306   0.515   1.484
 8404SOL    HW233935   6.278   0.603   1.508
 8404SOL    HW333936   6.275   0.459   1.555
 8404SOL    MW433937   6.298   0.518   1.496
 8405SOL     OW33938   5.961   0.911   0.697
 8405SOL    HW233939   6.019   0.967   0.645
 8405SOL    HW333940   6.005   0.826   0.699
 8405SOL    MW433941   5.974   0.908   0.690
 8406SOL     OW33942   7.101   0.263   0.534
 8406SOL    HW233943   7.023   0.213   0.559
 8406SOL    HW333944   7.072   0.354   0.534
 8406SOL    MW433945   7.087   0.267   0.537
 8407SOL     OW33946   7.447   0.998   1.712
 8407SOL    HW233947   7.360   0.978   1.748
 8407SOL    HW333948   7.501   0.924   1.737
 8407SOL    MW433949   7.442   0.987   1.720
 8408SOL     OW33950   5.668   1.511   0.869
 8408SOL    HW233951   5.700   1.515   0.960
 8408SOL    HW333952   5.573   1.519   0.877
 8408SOL    MW433953   5.660   1.514   0.882
 8409SOL     OW33954   5.623   0.637   0.416
 8409SOL    HW233955   5.563   0.609   0.486
 8409SOL    HW333956   5.697   0.577   0.422
 8409SOL    MW433957   5.625   0.626   0.425
 8410SOL     OW33958   7.191   1.849   1.850
 8410SOL    HW233959   7.236   1.773   1.815
 8410SOL    HW333960   7.229   1.862   1.937
 8410SOL    MW433961   7.201   1.842   1.856
 8411SOL     OW33962   6.791   1.368   0.576
 8411SOL    HW233963   6.814   1.319   0.654
 8411SOL    HW333964   6.872   1.410   0.548
 8411SOL    MW433965   6.804   1.368   0.583
 8412SOL     OW33966   6.049   0.376   1.305
 8412SOL    HW233967   6.082   0.457   1.345
 8412SOL    HW333968   6.022   0.402   1.217
 8412SOL    MW433969   6.048   0.390   1.299
 8413SOL     OW33970   6.832   0.552   1.732
 8413SOL    HW233971   6.884   0.487   1.685
 8413SOL    HW333972   6.790   0.603   1.662
 8413SOL    MW433973   6.833   0.549   1.715
 8414SOL     OW33974   6.931   0.347   1.593
 8414SOL    HW233975   6.838   0.331   1.580
 8414SOL    HW333976   6.957   0.285   1.661
 8414SOL    MW433977   6.921   0.337   1.600
 8415SOL     OW33978   6.240   1.736   1.478
 8415SOL    HW233979   6.157   1.721   1.523
 8415SOL    HW333980   6.299   1.669   1.513
 8415SOL    MW433981   6.238   1.726   1.488
 8416SOL     OW33982   7.297   0.443   1.103
 8416SOL    HW233983   7.230   0.476   1.163
 8416SOL    HW333984   7.340   0.521   1.069
 8416SOL    MW433985   7.295   0.458   1.107
 8417SOL     OW33986   7.475   1.163   1.073
 8417SOL    HW233987   7.468   1.103   0.998
 8417SOL    HW333988   7.401   1.223   1.062
 8417SOL    MW433989   7.465   1.163   1.062
 8418SOL     OW33990   6.857   1.025   0.991
 8418SOL    HW233991   6.871   0.997   1.082
 8418SOL    HW333992   6.943   1.056   0.963
 8418SOL    MW433993   6.870   1.026   1.000
 8419SOL     OW33994   6.940   0.520   1.270
 8419SOL    HW233995   6.961   0.521   1.177
 8419SOL    HW333996   6.985   0.442   1.303
 8419SOL    MW433997   6.947   0.510   1.262
 8420SOL     OW33998   7.433   0.651   1.812
 8420SOL    HW233999   7.470   0.596   1.881
 8420SOL    HW334000   7.458   0.608   1.730
 8420SOL    MW434001   7.440   0.639   1.811
 8421SOL     OW34002   6.980   0.949   1.863
 8421SOL    HW234003   7.046   0.897   1.817
 8421SOL    HW334004   7.000   0.936   1.956
 8421SOL    MW434005   6.991   0.940   1.870
 8422SOL     OW34006   6.991   0.810   0.490
 8422SOL    HW234007   6.906   0.780   0.460
 8422SOL    HW334008   6.983   0.817   0.585
 8422SOL    MW434009   6.979   0.808   0.499
 8423SOL     OW34010   6.067   1.273   1.221
 8423SOL    HW234011   6.079   1.300   1.312
 8423SOL    HW334012   6.048   1.354   1.174
 8423SOL    MW434013   6.066   1.288   1.226
 8424SOL     OW34014   6.351   0.253   1.044
 8424SOL    HW234015   6.324   0.255   1.135
 8424SOL    HW334016   6.281   0.205   0.999
 8424SOL    MW434017   6.339   0.249   1.051
 8425SOL     OW34018   6.205   1.745   1.206
 8425SOL    HW234019   6.257   1.822   1.183
 8425SOL    HW334020   6.214   1.737   1.301
 8425SOL    MW434021   6.214   1.752   1.217
 8426SOL     OW34022   7.107   1.330   1.438
 8426SOL    HW234023   7.092   1.259   1.501
 8426SOL    HW334024   7.153   1.288   1.366
 8426SOL    MW434025   7.113   1.314   1.438
 8427SOL     OW34026   6.181   1.061   1.555
 8427SOL    HW234027   6.218   1.066   1.467
 8427SOL    HW334028   6.220   1.134   1.602
 8427SOL    MW434029   6.191   1.071   1.550
 8428SOL     OW34030   6.361   1.104   1.367
 8428SOL    HW234031   6.420   1.050   1.420
 8428SOL    HW334032   6.376   1.076   1.277
 8428SOL    MW434033   6.371   1.093   1.363
 8429SOL     OW34034   7.172   1.593   1.539
 8429SOL    HW234035   7.214   1.578   1.624
 8429SOL    HW334036   7.163   1.506   1.501
 8429SOL    MW434037   7.176   1.581   1.546
 8430SOL     OW34038   5.993   1.728   0.894
 8430SOL    HW234039   5.997   1.639   0.929
 8430SOL    HW334040   6.019   1.719   0.803
 8430SOL    MW434041   5.996   1.716   0.886
 8431SOL     OW34042   6.610   1.206   1.137
 8431SOL    HW234043   6.542   1.140   1.153
 8431SOL    HW334044   6.628   1.200   1.044
 8431SOL    MW434045   6.603   1.197   1.128
 8432SOL     OW34046   5.699   1.481   1.388
 8432SOL    HW234047   5.689   1.439   1.474
 8432SOL    HW334048   5.620   1.534   1.378
 8432SOL    MW434049   5.688   1.482   1.399
 8433SOL     OW34050   6.603   0.345   0.958
 8433SOL    HW234051   6.533   0.297   1.003
 8433SOL    HW334052   6.635   0.408   1.022
 8433SOL    MW434053   6.598   0.347   0.972
 8434SOL     OW34054   6.254   0.781   1.578
 8434SOL    HW234055   6.247   0.876   1.566
 8434SOL    HW334056   6.263   0.770   1.673
 8434SOL    MW434057   6.255   0.793   1.588
 8435SOL     OW34058   5.975   1.296   1.836
 8435SOL    HW234059   6.047   1.298   1.773
 8435SOL    HW334060   5.945   1.205   1.835
 8435SOL    MW434061   5.980   1.285   1.828
 8436SOL     OW34062   7.259   1.589   1.787
 8436SOL    HW234063   7.232   1.586   1.878
 8436SOL    HW334064   7.355   1.593   1.790
 8436SOL    MW434065   7.269   1.589   1.799
 8437SOL     OW34066   6.070   0.451   0.771
 8437SOL    HW234067   6.141   0.399   0.734
 8437SOL    HW334068   6.056   0.416   0.858
 8437SOL    MW434069   6.078   0.440   0.778
 8438SOL     OW34070   5.625   1.786   1.843
 8438SOL    HW234071   5.675   1.764   1.765
 8438SOL    HW334072   5.633   1.881   1.851
 8438SOL    MW434073   5.633   1.795   1.834
 8439SOL     OW34074   6.386   1.544   0.847
 8439SOL    HW234075   6.314   1.481   0.860
 8439SOL    HW334076   6.347   1.629   0.865
 8439SOL    MW434077   6.370   1.547   0.850
 8440SOL     OW34078   6.706   0.392   0.495
 8440SOL    HW234079   6.728   0.329   0.427
 8440SOL    HW334080   6.611   0.384   0.506
 8440SOL    MW434081   6.696   0.383   0.487
 8441SOL     OW34082   5.622   0.549   1.570
 8441SOL    HW234083   5.686   0.615   1.545
 8441SOL    HW334084   5.541   0.576   1.527
 8441SOL    MW434085   5.620   0.561   1.562
 8442SOL     OW34086   7.360   1.456   0.527
 8442SOL    HW234087   7.330   1.389   0.588
 8442SOL    HW334088   7.454   1.462   0.541
 8442SOL    MW434089   7.368   1.448   0.537
 8443SOL     OW34090   6.916   1.133   0.457
 8443SOL    HW234091   6.888   1.219   0.490
 8443SOL    HW334092   6.944   1.149   0.367
 8443SOL    MW434093   6.916   1.147   0.449
 8444SOL     OW34094   7.431   0.935   0.932
 8444SOL    HW234095   7.422   0.967   0.843
 8444SOL    HW334096   7.384   0.851   0.932
 8444SOL    MW434097   7.424   0.928   0.922
 8445SOL     OW34098   5.807   0.775   1.511
 8445SOL    HW234099   5.828   0.844   1.449
 8445SOL    HW334100   5.887   0.722   1.516
 8445SOL    MW434101   5.820   0.776   1.505
 8446SOL     OW34102   7.343   0.866   0.633
 8446SOL    HW234103   7.437   0.855   0.621
 8446SOL    HW334104   7.319   0.938   0.574
 8446SOL    MW434105   7.353   0.874   0.624
 8447SOL     OW34106   5.792   0.790   1.778
 8447SOL    HW234107   5.718   0.734   1.804
 8447SOL    HW334108   5.787   0.793   1.683
 8447SOL    MW434109   5.781   0.783   1.768
 8448SOL     OW34110   5.999   0.744   0.406
 8448SOL    HW234111   5.999   0.839   0.391
 8448SOL    HW334112   6.076   0.728   0.460
 8448SOL    MW434113   6.009   0.755   0.411
 8449SOL     OW34114   6.775   0.603   1.470
 8449SOL    HW234115   6.811   0.576   1.386
 8449SOL    HW334116   6.688   0.637   1.449
 8449SOL    MW434117   6.769   0.604   1.457
 8450SOL     OW34118   5.758   0.475   0.695
 8450SOL    HW234119   5.820   0.482   0.768
 8450SOL    HW334120   5.758   0.382   0.672
 8450SOL    MW434121   5.766   0.464   0.702
 8451SOL     OW34122   6.440   0.736   1.179
 8451SOL    HW234123   6.398   0.654   1.155
 8451SOL    HW334124   6.441   0.735   1.275
 8451SOL    MW434125   6.433   0.725   1.188
 8452SOL     OW34126   7.111   1.869   1.578
 8452SOL    HW234127   7.114   1.775   1.561
 8452SOL    HW334128   7.134   1.877   1.670
 8452SOL    MW434129   7.114   1.857   1.588
 8453SOL     OW34130   6.521   0.724   1.442
 8453SOL    HW234131   6.590   0.791   1.439
 8453SOL    HW334132   6.454   0.762   1.498
 8453SOL    MW434133   6.522   0.737   1.449
 8454SOL     OW34134   5.939   1.024   1.690
 8454SOL    HW234135   5.893   0.940   1.692
 8454SOL    HW334136   5.996   1.018   1.614
 8454SOL    MW434137   5.941   1.012   1.682
 8455SOL     OW34138   6.190   1.399   0.691
 8455SOL    HW234139   6.255   1.332   0.712
 8455SOL    HW334140   6.242   1.476   0.668
 8455SOL    MW434141   6.205   1.401   0.690
 8456SOL     OW34142   6.451   0.564   0.821
 8456SOL    HW234143   6.391   0.582   0.893
 8456SOL    HW334144   6.485   0.476   0.840
 8456SOL    MW434145   6.447   0.554   0.834
 8457SOL     OW34146   6.676   1.147   0.840
 8457SOL    HW234147   6.768   1.128   0.858
 8457SOL    HW334148   6.649   1.077   0.780
 8457SOL    MW434149   6.684   1.135   0.834
 8458SOL     OW34150   6.469   0.967   0.195
 8458SOL    HW234151   6.455   0.879   0.160
 8458SOL    HW334152   6.420   1.024   0.136
 8458SOL    MW434153   6.461   0.962   0.183
 8459SOL     OW34154   6.950   1.385   0.936
 8459SOL    HW234155   6.923   1.469   0.901
 8459SOL    HW334156   6.910   1.380   1.023
 8459SOL    MW434157   6.943   1.394   0.942
 8460SOL     OW34158   6.869   1.333   1.204
 8460SOL    HW234159   6.880   1.300   1.293
 8460SOL    HW334160   6.788   1.292   1.173
 8460SOL    MW434161   6.859   1.325   1.210
 8461SOL     OW34162   5.882   0.691   0.974
 8461SOL    HW234163   5.832   0.690   1.055
 8461SOL    HW334164   5.902   0.783   0.958
 8461SOL    MW434165   5.878   0.703   0.982
 8462SOL     OW34166   6.949   1.455   1.736
 8462SOL    HW234167   6.949   1.549   1.752
 8462SOL    HW334168   6.994   1.445   1.652
 8462SOL    MW434169   6.955   1.465   1.727
 8463SOL     OW34170   6.477   0.736   0.411
 8463SOL    HW234171   6.457   0.722   0.318
 8463SOL    HW334172   6.570   0.715   0.418
 8463SOL    MW434173   6.487   0.731   0.400
 8464SOL     OW34174   5.804   0.359   1.715
 8464SOL    HW234175   5.761   0.418   1.652
 8464SOL    HW334176   5.872   0.414   1.755
 8464SOL    MW434177   5.808   0.374   1.712
 8465SOL     OW34178   6.916   0.979   1.260
 8465SOL    HW234179   6.979   0.976   1.333
 8465SOL    HW334180   6.832   0.997   1.302
 8465SOL    MW434181   6.912   0.981   1.275
 8466SOL     OW34182   6.460   1.694   0.449
 8466SOL    HW234183   6.518   1.765   0.476
 8466SOL    HW334184   6.483   1.622   0.507
 8466SOL    MW434185   6.471   1.694   0.460
 8467SOL     OW34186   7.340   1.192   0.758
 8467SOL    HW234187   7.319   1.138   0.681
 8467SOL    HW334188   7.436   1.190   0.762
 8467SOL    MW434189   7.349   1.185   0.747
 8468SOL     OW34190   6.032   1.337   1.501
 8468SOL    HW234191   5.953   1.287   1.524
 8468SOL    HW334192   6.102   1.296   1.551
 8468SOL    MW434193   6.030   1.325   1.511
 8469SOL     OW34194   7.040   0.623   1.020
 8469SOL    HW234195   6.963   0.669   0.986
 8469SOL    HW334196   7.097   0.692   1.054
 8469SOL    MW434197   7.037   0.638   1.020
 8470SOL     OW34198   5.706   1.482   0.222
 8470SOL    HW234199   5.723   1.566   0.264
 8470SOL    HW334200   5.741   1.491   0.134
 8470SOL    MW434201   5.711   1.495   0.216
 8471SOL     OW34202   6.978   1.571   0.439
 8471SOL    HW234203   7.041   1.561   0.368
 8471SOL    HW334204   6.895   1.591   0.394
 8471SOL    MW434205   6.975   1.572   0.424
 8472SOL     OW34206   7.341   0.839   2.125
 8472SOL    HW234207   7.382   0.781   2.190
 8472SOL    HW334208   7.248   0.831   2.142
 8472SOL    MW434209   7.335   0.831   2.135
 8473SOL     OW34210   7.207   0.771   3.120
 8473SOL    HW234211   7.162   0.838   3.171
 8473SOL    HW334212   7.295   0.807   3.106
 8473SOL    MW434213   7.213   0.784   3.124
 8474SOL     OW34214   6.135   1.022   2.354
 8474SOL    HW234215   6.225   0.997   2.338
 8474SOL    HW334216   6.131   1.115   2.331
 8474SOL    MW434217   6.147   1.031   2.349
 8475SOL     OW34218   7.251   1.725   2.496
 8475SOL    HW234219   7.263   1.671   2.574
 8475SOL    HW334220   7.288   1.673   2.425
 8475SOL    MW434221   7.257   1.710   2.497
 8476SOL     OW34222   6.630   1.610   3.497
 8476SOL    HW234223   6.671   1.646   3.418
 8476SOL    HW334224   6.665   1.521   3.504
 8476SOL    MW434225   6.641   1.603   3.488
 8477SOL     OW34226   7.187   1.165   3.101
 8477SOL    HW234227   7.108   1.130   3.059
 8477SOL    HW334228   7.214   1.237   3.045
 8477SOL    MW434229   7.180   1.170   3.088
 8478SOL     OW34230   6.419   0.478   2.367
 8478SOL    HW234231   6.394   0.566   2.395
 8478SOL    HW334232   6.416   0.481   2.271
 8478SOL    MW434233   6.415   0.490   2.359
 8479SOL     OW34234   5.861   0.506   2.295
 8479SOL    HW234235   5.893   0.594   2.277
 8479SOL    HW334236   5.849   0.504   2.390
 8479SOL    MW434237   5.864   0.518   2.307
 8480SOL     OW34238   5.939   0.919   3.196
 8480SOL    HW234239   6.002   0.866   3.147
 8480SOL    HW334240   5.920   0.993   3.139
 8480SOL    MW434241   5.945   0.921   3.183
 8481SOL     OW34242   6.260   0.261   2.382
 8481SOL    HW234243   6.318   0.337   2.384
 8481SOL    HW334244   6.195   0.282   2.315
 8481SOL    MW434245   6.259   0.273   2.373
 8482SOL     OW34246   6.347   1.188   2.557
 8482SOL    HW234247   6.427   1.191   2.609
 8482SOL    HW334248   6.375   1.155   2.471
 8482SOL    MW434249   6.361   1.184   2.552
 8483SOL     OW34250   6.372   1.529   3.460
 8483SOL    HW234251   6.456   1.555   3.499
 8483SOL    HW334252   6.396   1.473   3.386
 8483SOL    MW434253   6.386   1.525   3.455
 8484SOL     OW34254   6.124   0.692   2.548
 8484SOL    HW234255   6.109   0.612   2.599
 8484SOL    HW334256   6.206   0.727   2.582
 8484SOL    MW434257   6.132   0.684   2.560
 8485SOL     OW34258   6.461   1.378   3.233
 8485SOL    HW234259   6.425   1.444   3.173
 8485SOL    HW334260   6.389   1.316   3.246
 8485SOL    MW434261   6.447   1.378   3.227
 8486SOL     OW34262   6.266   0.518   2.925
 8486SOL    HW234263   6.172   0.514   2.943
 8486SOL    HW334264   6.296   0.427   2.934
 8486SOL    MW434265   6.257   0.506   2.928
 8487SOL     OW34266   6.012   0.932   2.829
 8487SOL    HW234267   5.967   0.939   2.745
 8487SOL    HW334268   5.992   1.015   2.873
 8487SOL    MW434269   6.004   0.944   2.823
 8488SOL     OW34270   5.709   1.778   2.704
 8488SOL    HW234271   5.798   1.770   2.739
 8488SOL    HW334272   5.673   1.690   2.709
 8488SOL    MW434273   5.716   1.765   2.709
 8489SOL     OW34274   6.974   1.170   2.073
 8489SOL    HW234275   6.892   1.206   2.039
 8489SOL    HW334276   7.042   1.213   2.022
 8489SOL    MW434277   6.972   1.180   2.061
 8490SOL     OW34278   5.973   1.305   2.739
 8490SOL    HW234279   5.949   1.358   2.815
 8490SOL    HW334280   6.029   1.363   2.687
 8490SOL    MW434281   5.977   1.320   2.742
 8491SOL     OW34282   6.535   0.949   2.549
 8491SOL    HW234283   6.449   0.936   2.589
 8491SOL    HW334284   6.588   0.876   2.581
 8491SOL    MW434285   6.531   0.938   2.558
 8492SOL     OW34286   5.943   1.601   3.334
 8492SOL    HW234287   5.851   1.577   3.319
 8492SOL    HW334288   5.987   1.518   3.351
 8492SOL    MW434289   5.937   1.586   3.333
 8493SOL     OW34290   6.526   1.311   2.266
 8493SOL    HW234291   6.503   1.373   2.334
 8493SOL    HW334292   6.483   1.229   2.292
 8493SOL    MW434293   6.518   1.307   2.277
 8494SOL     OW34294   5.858   1.245   2.271
 8494SOL    HW234295   5.806   1.313   2.227
 8494SOL    HW334296   5.855   1.171   2.211
 8494SOL    MW434297   5.850   1.244   2.258
 8495SOL     OW34298   6.520   1.708   2.049
 8495SOL    HW234299   6.475   1.724   2.132
 8495SOL    HW334300   6.451   1.673   1.991
 8495SOL    MW434301   6.506   1.705   2.051
 8496SOL     OW34302   7.455   0.481   2.024
 8496SOL    HW234303   7.364   0.483   2.052
 8496SOL    HW334304   7.500   0.543   2.082
 8496SOL    MW434305   7.448   0.489   2.034
 8497SOL     OW34306   7.200   1.084   2.374
 8497SOL    HW234307   7.110   1.084   2.409
 8497SOL    HW334308   7.193   1.130   2.291
 8497SOL    MW434309   7.187   1.090   2.368
 8498SOL     OW34310   7.000   0.719   3.446
 8498SOL    HW234311   7.069   0.657   3.423
 8498SOL    HW334312   6.925   0.693   3.393
 8498SOL    MW434313   7.000   0.706   3.437
 8499SOL     OW34314   5.741   1.599   2.998
 8499SOL    HW234315   5.724   1.545   3.075
 8499SOL    HW334316   5.729   1.689   3.028
 8499SOL    MW434317   5.738   1.603   3.012
 8500SOL     OW34318   6.736   1.106   3.438
 8500SOL    HW234319   6.721   1.199   3.423
 8500SOL    HW334320   6.831   1.096   3.438
 8500SOL    MW434321   6.745   1.116   3.435
 8501SOL     OW34322   6.532   0.530   3.639
 8501SOL    HW234323   6.622   0.531   3.606
 8501SOL    HW334324   6.491   0.455   3.597
 8501SOL    MW434325   6.538   0.520   3.630
 8502SOL     OW34326   7.107   1.062   2.766
 8502SOL    HW234327   7.110   0.996   2.697
 8502SOL    HW334328   7.192   1.105   2.762
 8502SOL    MW434329   7.119   1.058   2.757
 8503SOL     OW34330   6.727   0.665   2.335
 8503SOL    HW234331   6.753   0.689   2.246
 8503SOL    HW334332   6.709   0.572   2.331
 8503SOL    MW434333   6.729   0.657   2.322
 8504SOL     OW34334   7.392   1.285   2.186
 8504SOL    HW234335   7.348   1.326   2.261
 8504SOL    HW334336   7.449   1.353   2.151
 8504SOL    MW434337   7.394   1.299   2.191
 8505SOL     OW34338   6.312   0.334   3.589
 8505SOL    HW234339   6.322   0.260   3.529
 8505SOL    HW334340   6.348   0.303   3.672
 8505SOL    MW434341   6.318   0.320   3.591
 8506SOL     OW34342   6.048   1.701   2.504
 8506SOL    HW234343   6.080   1.789   2.482
 8506SOL    HW334344   6.001   1.673   2.426
 8506SOL    MW434345   6.047   1.709   2.491
 8507SOL     OW34346   5.764   1.761   2.081
 8507SOL    HW234347   5.793   1.851   2.073
 8507SOL    HW334348   5.714   1.744   2.002
 8507SOL    MW434349   5.762   1.769   2.070
 8508SOL     OW34350   7.168   1.569   2.052
 8508SOL    HW234351   7.216   1.638   2.098
 8508SOL    HW334352   7.089   1.613   2.021
 8508SOL    MW434353   7.163   1.583   2.055
 8509SOL     OW34354   6.566   0.694   1.996
 8509SOL    HW234355   6.568   0.641   1.917
 8509SOL    HW334356   6.654   0.731   2.002
 8509SOL    MW434357   6.578   0.693   1.985
 8510SOL     OW34358   7.180   0.620   2.332
 8510SOL    HW234359   7.219   0.620   2.419
 8510SOL    HW334360   7.121   0.696   2.332
 8510SOL    MW434361   7.177   0.631   2.343
 8511SOL     OW34362   6.497   0.987   3.461
 8511SOL    HW234363   6.474   0.967   3.551
 8511SOL    HW334364   6.582   1.031   3.466
 8511SOL    MW434365   6.504   0.990   3.473
 8512SOL     OW34366   6.577   0.124   3.221
 8512SOL    HW234367   6.583   0.086   3.134
 8512SOL    HW334368   6.566   0.218   3.206
 8512SOL    MW434369   6.578   0.132   3.209
 8513SOL     OW34370   6.666   0.613   3.055
 8513SOL    HW234371   6.741   0.642   3.002
 8513SOL    HW334372   6.598   0.678   3.039
 8513SOL    MW434373   6.667   0.625   3.045
 8514SOL     OW34374   7.216   0.581   3.332
 8514SOL    HW234375   7.197   0.490   3.311
 8514SOL    HW334376   7.194   0.630   3.253
 8514SOL    MW434377   7.211   0.574   3.319
 8515SOL     OW34378   7.358   1.675   3.236
 8515SOL    HW234379   7.286   1.637   3.287
 8515SOL    HW334380   7.375   1.760   3.277
 8515SOL    MW434381   7.352   1.680   3.248
 8516SOL     OW34382   7.072   1.133   3.514
 8516SOL    HW234383   7.154   1.174   3.544
 8516SOL    HW334384   7.035   1.095   3.594
 8516SOL    MW434385   7.078   1.134   3.529
 8517SOL     OW34386   7.367   0.506   2.498
 8517SOL    HW234387   7.456   0.475   2.515
 8517SOL    HW334388   7.310   0.446   2.546
 8517SOL    MW434389   7.370   0.494   2.507
 8518SOL     OW34390   5.793   0.220   2.527
 8518SOL    HW234391   5.784   0.160   2.453
 8518SOL    HW334392   5.726   0.191   2.590
 8518SOL    MW434393   5.783   0.207   2.525
 8519SOL     OW34394   6.736   1.313   2.088
 8519SOL    HW234395   6.686   1.315   2.170
 8519SOL    HW334396   6.670   1.331   2.020
 8519SOL    MW434397   6.722   1.315   2.090
 8520SOL     OW34398   5.740   0.393   2.890
 8520SOL    HW234399   5.712   0.484   2.899
 8520SOL    HW334400   5.677   0.354   2.829
 8520SOL    MW434401   5.727   0.399   2.884
 8521SOL     OW34402   6.199   1.731   2.196
 8521SOL    HW234403   6.120   1.689   2.229
 8521SOL    HW334404   6.265   1.714   2.263
 8521SOL    MW434405   6.198   1.723   2.209
 8522SOL     OW34406   7.327   1.251   3.593
 8522SOL    HW234407   7.377   1.177   3.625
 8522SOL    HW334408   7.273   1.278   3.668
 8522SOL    MW434409   7.327   1.245   3.606
 8523SOL     OW34410   6.335   1.146   1.903
 8523SOL    HW234411   6.257   1.092   1.890
 8523SOL    HW334412   6.306   1.219   1.956
 8523SOL    MW434413   6.321   1.148   1.908
 8524SOL     OW34414   7.461   0.886   3.095
 8524SOL    HW234415   7.477   0.924   3.008
 8524SOL    HW334416   7.495   0.952   3.156
 8524SOL    MW434417   7.468   0.899   3.091
 8525SOL     OW34418   7.253   1.595   2.764
 8525SOL    HW234419   7.282   1.662   2.825
 8525SOL    HW334420   7.234   1.519   2.819
 8525SOL    MW434421   7.255   1.595   2.779
 8526SOL     OW34422   6.916   1.662   1.971
 8526SOL    HW234423   6.842   1.625   2.021
 8526SOL    HW334424   6.924   1.752   2.004
 8526SOL    MW434425   6.907   1.669   1.983
 8527SOL     OW34426   5.724   0.668   3.060
 8527SOL    HW234427   5.786   0.698   3.126
 8527SOL    HW334428   5.658   0.737   3.054
 8527SOL    MW434429   5.723   0.681   3.067
 8528SOL     OW34430   7.140   1.336   1.913
 8528SOL    HW234431   7.087   1.385   1.849
 8528SOL    HW334432   7.171   1.402   1.974
 8528SOL    MW434433   7.138   1.350   1.911
 8529SOL     OW34434   5.819   1.777   3.512
 8529SOL    HW234435   5.793   1.845   3.450
 8529SOL    HW334436   5.867   1.714   3.460
 8529SOL    MW434437   5.821   1.777   3.498
 8530SOL     OW34438   5.871   1.096   3.019
 8530SOL    HW234439   5.924   1.171   3.044
 8530SOL    HW334440   5.790   1.134   2.985
 8530SOL    MW434441   5.867   1.111   3.019
 8531SOL     OW34442   6.411   1.000   3.007
 8531SOL    HW234443   6.439   0.909   3.019
 8531SOL    HW334444   6.340   0.994   2.943
 8531SOL    MW434445   6.404   0.988   3.002
 8532SOL     OW34446   5.726   0.865   2.425
 8532SOL    HW234447   5.817   0.880   2.452
 8532SOL    HW334448   5.729   0.786   2.371
 8532SOL    MW434449   5.738   0.857   2.423
 8533SOL     OW34450   5.962   0.573   3.679
 8533SOL    HW234451   5.909   0.653   3.686
 8533SOL    HW334452   6.032   0.585   3.744
 8533SOL    MW434453   5.964   0.586   3.687
 8534SOL     OW34454   6.348   0.123   3.386
 8534SOL    HW234455   6.325   0.031   3.388
 8534SOL    HW334456   6.434   0.125   3.343
 8534SOL    MW434457   6.355   0.113   3.382
 8535SOL     OW34458   6.032   0.647   3.425
 8535SOL    HW234459   6.112   0.697   3.411
 8535SOL    HW334460   6.023   0.641   3.520
 8535SOL    MW434461   6.041   0.653   3.435
 8536SOL     OW34462   6.353   1.797   2.799
 8536SOL    HW234463   6.442   1.812   2.829
 8536SOL    HW334464   6.348   1.844   2.715
 8536SOL    MW434465   6.363   1.805   2.792
 8537SOL     OW34466   5.734   1.477   2.464
 8537SOL    HW234467   5.706   1.516   2.546
 8537SOL    HW334468   5.754   1.386   2.486
 8537SOL    MW434469   5.732   1.469   2.477
 8538SOL     OW34470   6.567   1.520   2.499
 8538SOL    HW234471   6.650   1.474   2.483
 8538SOL    HW334472   6.557   1.519   2.595
 8538SOL    MW434473   6.577   1.513   2.509
 8539SOL     OW34474   7.399   0.665   2.813
 8539SOL    HW234475   7.488   0.695   2.795
 8539SOL    HW334476   7.379   0.605   2.742
 8539SOL    MW434477   7.408   0.662   2.802
 8540SOL     OW34478   7.250   0.844   3.693
 8540SOL    HW234479   7.305   0.768   3.674
 8540SOL    HW334480   7.252   0.852   3.788
 8540SOL    MW434481   7.258   0.835   3.701
 8541SOL     OW34482   6.300   1.577   1.904
 8541SOL    HW234483   6.240   1.646   1.874
 8541SOL    HW334484   6.245   1.519   1.957
 8541SOL    MW434485   6.284   1.579   1.906
 8542SOL     OW34486   6.545   0.406   3.212
 8542SOL    HW234487   6.464   0.447   3.240
 8542SOL    HW334488   6.592   0.474   3.164
 8542SOL    MW434489   6.540   0.421   3.210
 8543SOL     OW34490   6.805   0.744   2.835
 8543SOL    HW234491   6.818   0.838   2.845
 8543SOL    HW334492   6.766   0.734   2.749
 8543SOL    MW434493   6.801   0.755   2.825
 8544SOL     OW34494   6.257   0.939   2.639
 8544SOL    HW234495   6.168   0.930   2.672
 8544SOL    HW334496   6.261   1.029   2.607
 8544SOL    MW434497   6.246   0.950   2.639
 8545SOL     OW34498   7.056   0.522   2.634
 8545SOL    HW234499   7.001   0.443   2.633
 8545SOL    HW334500   7.038   0.563   2.718
 8545SOL    MW434501   7.046   0.517   2.643
 8546SOL     OW34502   6.675   0.726   2.591
 8546SOL    HW234503   6.612   0.658   2.615
 8546SOL    HW334504   6.695   0.707   2.499
 8546SOL    MW434505   6.669   0.713   2.583
 8547SOL     OW34506   5.931   1.621   2.293
 8547SOL    HW234507   5.892   1.668   2.219
 8547SOL    HW334508   5.865   1.556   2.318
 8547SOL    MW434509   5.918   1.619   2.287
 8548SOL     OW34510   6.423   1.030   2.317
 8548SOL    HW234511   6.425   1.004   2.224
 8548SOL    HW334512   6.481   0.967   2.360
 8548SOL    MW434513   6.431   1.019   2.311
 8549SOL     OW34514   6.976   1.590   3.089
 8549SOL    HW234515   6.901   1.636   3.127
 8549SOL    HW334516   6.958   1.497   3.106
 8549SOL    MW434517   6.965   1.584   3.097
 8550SOL     OW34518   6.980   1.798   2.519
 8550SOL    HW234519   6.923   1.751   2.458
 8550SOL    HW334520   7.066   1.759   2.506
 8550SOL    MW434521   6.983   1.789   2.509
 8551SOL     OW34522   5.738   1.208   2.584
 8551SOL    HW234523   5.802   1.240   2.647
 8551SOL    HW334524   5.787   1.144   2.532
 8551SOL    MW434525   5.753   1.204   2.585
 8552SOL     OW34526   6.238   1.284   3.566
 8552SOL    HW234527   6.286   1.367   3.553
 8552SOL    HW334528   6.295   1.232   3.622
 8552SOL    MW434529   6.252   1.288   3.572
 8553SOL     OW34530   5.814   1.526   3.706
 8553SOL    HW234531   5.870   1.450   3.721
 8553SOL    HW334532   5.763   1.504   3.628
 8553SOL    MW434533   5.814   1.513   3.697
 8554SOL     OW34534   7.086   0.934   2.127
 8554SOL    HW234535   7.053   1.023   2.117
 8554SOL    HW334536   7.051   0.905   2.212
 8554SOL    MW434537   7.076   0.943   2.138
 8555SOL     OW34538   6.699   1.363   3.315
 8555SOL    HW234539   6.610   1.369   3.283
 8555SOL    HW334540   6.743   1.442   3.283
 8555SOL    MW434541   6.694   1.373   3.307
 8556SOL     OW34542   6.016   1.521   2.956
 8556SOL    HW234543   6.061   1.583   3.013
 8556SOL    HW334544   5.923   1.540   2.969
 8556SOL    MW434545   6.009   1.531   2.963
 8557SOL     OW34546   7.456   1.050   3.310
 8557SOL    HW234547   7.371   1.063   3.269
 8557SOL    HW334548   7.436   1.014   3.397
 8557SOL    MW434549   7.443   1.046   3.315
 8558SOL     OW34550   6.438   1.589   3.064
 8558SOL    HW234551   6.462   1.578   2.973
 8558SOL    HW334552   6.361   1.646   3.062
 8558SOL    MW434553   6.430   1.594   3.053
 8559SOL     OW34554   6.080   0.972   1.919
 8559SOL    HW234555   6.003   0.985   1.975
 8559SOL    HW334556   6.044   0.936   1.838
 8559SOL    MW434557   6.066   0.968   1.916
 8560SOL     OW34558   6.733   0.945   2.162
 8560SOL    HW234559   6.643   0.966   2.137
 8560SOL    HW334560   6.760   1.018   2.218
 8560SOL    MW434561   6.725   0.957   2.165
 8561SOL     OW34562   6.233   1.294   2.854
 8561SOL    HW234563   6.226   1.273   2.948
 8561SOL    HW334564   6.151   1.262   2.817
 8561SOL    MW434565   6.221   1.288   2.861
 8562SOL     OW34566   7.097   0.304   3.256
 8562SOL    HW234567   7.044   0.306   3.336
 8562SOL    HW334568   7.082   0.217   3.219
 8562SOL    MW434569   7.089   0.294   3.261
 8563SOL     OW34570   5.679   1.386   3.517
 8563SOL    HW234571   5.723   1.319   3.463
 8563SOL    HW334572   5.594   1.348   3.537
 8563SOL    MW434573   5.674   1.372   3.513
 8564SOL     OW34574   6.120   1.301   2.318
 8564SOL    HW234575   6.113   1.333   2.408
 8564SOL    HW334576   6.030   1.285   2.290
 8564SOL    MW434577   6.108   1.303   2.325
 8565SOL     OW34578   6.715   1.694   3.227
 8565SOL    HW234579   6.635   1.679   3.177
 8565SOL    HW334580   6.722   1.789   3.234
 8565SOL    MW434581   6.706   1.705   3.221
 8566SOL     OW34582   6.829   1.659   2.717
 8566SOL    HW234583   6.876   1.732   2.676
 8566SOL    HW334584   6.750   1.698   2.753
 8566SOL    MW434585   6.824   1.674   2.716
 8567SOL     OW34586   7.237   1.754   2.992
 8567SOL    HW234587   7.280   1.724   3.072
 8567SOL    HW334588   7.156   1.702   2.989
 8567SOL    MW434589   7.232   1.743   3.002
 8568SOL     OW34590   6.322   0.718   3.699
 8568SOL    HW234591   6.392   0.660   3.671
 8568SOL    HW334592   6.265   0.663   3.754
 8568SOL    MW434593   6.324   0.705   3.703
 8569SOL     OW34594   7.109   0.930   3.332
 8569SOL    HW234595   7.114   0.983   3.412
 8569SOL    HW334596   7.071   0.847   3.360
 8569SOL    MW434597   7.105   0.925   3.347
 8570SOL     OW34598   6.123   0.585   2.032
 8570SOL    HW234599   6.089   0.641   2.102
 8570SOL    HW334600   6.194   0.535   2.072
 8570SOL    MW434601   6.129   0.586   2.046
 8571SOL     OW34602   7.219   1.336   2.854
 8571SOL    HW234603   7.254   1.318   2.767
 8571SOL    HW334604   7.124   1.337   2.841
 8571SOL    MW434605   7.211   1.333   2.841
 8572SOL     OW34606   6.648   0.984   3.223
 8572SOL    HW234607   6.691   1.019   3.301
 8572SOL    HW334608   6.631   1.061   3.169
 8572SOL    MW434609   6.651   0.999   3.226
 8573SOL     OW34610   7.179   0.471   2.096
 8573SOL    HW234611   7.171   0.542   2.033
 8573SOL    HW334612   7.197   0.515   2.179
 8573SOL    MW434613   7.180   0.485   2.098
 8574SOL     OW34614   6.039   0.126   2.525
 8574SOL    HW234615   6.089   0.169   2.456
 8574SOL    HW334616   5.954   0.170   2.525
 8574SOL    MW434617   6.036   0.139   2.516
 8575SOL     OW34618   5.798   1.188   3.385
 8575SOL    HW234619   5.826   1.141   3.463
 8575SOL    HW334620   5.719   1.143   3.356
 8575SOL    MW434621   5.791   1.177   3.391
 8576SOL     OW34622   6.306   0.515   3.352
 8576SOL    HW234623   6.278   0.603   3.376
 8576SOL    HW334624   6.275   0.459   3.423
 8576SOL    MW434625   6.298   0.518   3.364
 8577SOL     OW34626   6.848   0.733   2.071
 8577SOL    HW234627   6.895   0.751   1.990
 8577SOL    HW334628   6.814   0.817   2.099
 8577SOL    MW434629   6.850   0.747   2.064
 8578SOL     OW34630   5.961   0.911   2.565
 8578SOL    HW234631   6.019   0.967   2.513
 8578SOL    HW334632   6.005   0.826   2.567
 8578SOL    MW434633   5.974   0.908   2.558
 8579SOL     OW34634   7.101   0.263   2.402
 8579SOL    HW234635   7.023   0.213   2.427
 8579SOL    HW334636   7.072   0.354   2.402
 8579SOL    MW434637   7.087   0.267   2.405
 8580SOL     OW34638   6.583   1.475   1.893
 8580SOL    HW234639   6.610   1.553   1.845
 8580SOL    HW334640   6.490   1.490   1.912
 8580SOL    MW434641   6.574   1.488   1.889
 8581SOL     OW34642   7.447   0.998   3.580
 8581SOL    HW234643   7.360   0.978   3.616
 8581SOL    HW334644   7.501   0.924   3.605
 8581SOL    MW434645   7.442   0.987   3.588
 8582SOL     OW34646   5.668   1.511   2.737
 8582SOL    HW234647   5.700   1.515   2.828
 8582SOL    HW334648   5.573   1.519   2.745
 8582SOL    MW434649   5.660   1.514   2.750
 8583SOL     OW34650   5.623   0.637   2.284
 8583SOL    HW234651   5.563   0.609   2.354
 8583SOL    HW334652   5.697   0.577   2.290
 8583SOL    MW434653   5.625   0.626   2.293
 8584SOL     OW34654   7.191   1.849   3.718
 8584SOL    HW234655   7.236   1.773   3.683
 8584SOL    HW334656   7.229   1.862   3.805
 8584SOL    MW434657   7.201   1.842   3.724
 8585SOL     OW34658   6.791   1.368   2.444
 8585SOL    HW234659   6.814   1.319   2.522
 8585SOL    HW334660   6.872   1.410   2.416
 8585SOL    MW434661   6.804   1.368   2.451
 8586SOL     OW34662   6.049   0.376   3.173
 8586SOL    HW234663   6.082   0.457   3.213
 8586SOL    HW334664   6.022   0.402   3.085
 8586SOL    MW434665   6.048   0.390   3.167
 8587SOL     OW34666   6.832   0.552   3.600
 8587SOL    HW234667   6.884   0.487   3.553
 8587SOL    HW334668   6.790   0.603   3.530
 8587SOL    MW434669   6.833   0.549   3.583
 8588SOL     OW34670   6.931   0.347   3.461
 8588SOL    HW234671   6.838   0.331   3.448
 8588SOL    HW334672   6.957   0.285   3.529
 8588SOL    MW434673   6.921   0.337   3.468
 8589SOL     OW34674   6.240   1.736   3.346
 8589SOL    HW234675   6.157   1.721   3.391
 8589SOL    HW334676   6.299   1.669   3.381
 8589SOL    MW434677   6.238   1.726   3.356
 8590SOL     OW34678   7.297   0.443   2.971
 8590SOL    HW234679   7.230   0.476   3.031
 8590SOL    HW334680   7.340   0.521   2.937
 8590SOL    MW434681   7.295   0.458   2.975
 8591SOL     OW34682   7.475   1.163   2.941
 8591SOL    HW234683   7.468   1.103   2.866
 8591SOL    HW334684   7.401   1.223   2.930
 8591SOL    MW434685   7.465   1.163   2.930
 8592SOL     OW34686   6.857   1.025   2.859
 8592SOL    HW234687   6.871   0.997   2.950
 8592SOL    HW334688   6.943   1.056   2.831
 8592SOL    MW434689   6.870   1.026   2.868
 8593SOL     OW34690   6.940   0.520   3.138
 8593SOL    HW234691   6.961   0.521   3.045
 8593SOL    HW334692   6.985   0.442   3.171
 8593SOL    MW434693   6.947   0.510   3.130
 8594SOL     OW34694   6.980   0.949   3.731
 8594SOL    HW234695   7.046   0.897   3.685
 8594SOL    HW334696   7.000   0.936   3.824
 8594SOL    MW434697   6.991   0.940   3.738
 8595SOL     OW34698   6.991   0.810   2.358
 8595SOL    HW234699   6.906   0.780   2.328
 8595SOL    HW334700   6.983   0.817   2.453
 8595SOL    MW434701   6.979   0.808   2.367
 8596SOL     OW34702   6.067   1.273   3.089
 8596SOL    HW234703   6.079   1.300   3.180
 8596SOL    HW334704   6.048   1.354   3.042
 8596SOL    MW434705   6.066   1.288   3.094
 8597SOL     OW34706   6.351   0.253   2.912
 8597SOL    HW234707   6.324   0.255   3.003
 8597SOL    HW334708   6.281   0.205   2.867
 8597SOL    MW434709   6.339   0.249   2.919
 8598SOL     OW34710   6.205   1.745   3.074
 8598SOL    HW234711   6.257   1.822   3.051
 8598SOL    HW334712   6.214   1.737   3.169
 8598SOL    MW434713   6.214   1.752   3.085
 8599SOL     OW34714   7.107   1.330   3.306
 8599SOL    HW234715   7.092   1.259   3.369
 8599SOL    HW334716   7.153   1.288   3.234
 8599SOL    MW434717   7.113   1.314   3.306
 8600SOL     OW34718   6.181   1.061   3.423
 8600SOL    HW234719   6.218   1.066   3.335
 8600SOL    HW334720   6.220   1.134   3.470
 8600SOL    MW434721   6.191   1.071   3.418
 8601SOL     OW34722   6.361   1.104   3.235
 8601SOL    HW234723   6.420   1.050   3.288
 8601SOL    HW334724   6.376   1.076   3.145
 8601SOL    MW434725   6.371   1.093   3.231
 8602SOL     OW34726   6.364   0.476   2.084
 8602SOL    HW234727   6.437   0.525   2.047
 8602SOL    HW334728   6.380   0.385   2.058
 8602SOL    MW434729   6.376   0.471   2.077
 8603SOL     OW34730   7.172   1.593   3.407
 8603SOL    HW234731   7.214   1.578   3.492
 8603SOL    HW334732   7.163   1.506   3.369
 8603SOL    MW434733   7.176   1.581   3.414
 8604SOL     OW34734   5.839   0.985   2.182
 8604SOL    HW234735   5.776   1.001   2.111
 8604SOL    HW334736   5.786   0.948   2.253
 8604SOL    MW434737   5.824   0.982   2.182
 8605SOL     OW34738   6.195   1.339   2.041
 8605SOL    HW234739   6.210   1.315   2.133
 8605SOL    HW334740   6.103   1.317   2.025
 8605SOL    MW434741   6.185   1.332   2.051
 8606SOL     OW34742   6.734   1.570   2.193
 8606SOL    HW234743   6.742   1.488   2.144
 8606SOL    HW334744   6.653   1.609   2.160
 8606SOL    MW434745   6.724   1.565   2.183
 8607SOL     OW34746   5.993   1.728   2.762
 8607SOL    HW234747   5.997   1.639   2.797
 8607SOL    HW334748   6.019   1.719   2.671
 8607SOL    MW434749   5.996   1.716   2.754
 8608SOL     OW34750   6.610   1.206   3.005
 8608SOL    HW234751   6.542   1.140   3.021
 8608SOL    HW334752   6.628   1.200   2.912
 8608SOL    MW434753   6.603   1.197   2.996
 8609SOL     OW34754   5.699   1.481   3.256
 8609SOL    HW234755   5.689   1.439   3.342
 8609SOL    HW334756   5.620   1.534   3.246
 8609SOL    MW434757   5.688   1.482   3.267
 8610SOL     OW34758   6.603   0.345   2.826
 8610SOL    HW234759   6.533   0.297   2.871
 8610SOL    HW334760   6.635   0.408   2.890
 8610SOL    MW434761   6.598   0.347   2.840
 8611SOL     OW34762   6.254   0.781   3.446
 8611SOL    HW234763   6.247   0.876   3.434
 8611SOL    HW334764   6.263   0.770   3.541
 8611SOL    MW434765   6.255   0.793   3.456
 8612SOL     OW34766   5.975   1.296   3.704
 8612SOL    HW234767   6.047   1.298   3.641
 8612SOL    HW334768   5.945   1.205   3.703
 8612SOL    MW434769   5.980   1.285   3.696
 8613SOL     OW34770   7.259   1.589   3.655
 8613SOL    HW234771   7.232   1.586   3.746
 8613SOL    HW334772   7.355   1.593   3.658
 8613SOL    MW434773   7.269   1.589   3.667
 8614SOL     OW34774   6.070   0.451   2.639
 8614SOL    HW234775   6.141   0.399   2.602
 8614SOL    HW334776   6.056   0.416   2.726
 8614SOL    MW434777   6.078   0.440   2.646
 8615SOL     OW34778   5.625   1.786   3.711
 8615SOL    HW234779   5.675   1.764   3.633
 8615SOL    HW334780   5.633   1.881   3.719
 8615SOL    MW434781   5.633   1.795   3.702
 8616SOL     OW34782   6.386   1.544   2.715
 8616SOL    HW234783   6.314   1.481   2.728
 8616SOL    HW334784   6.347   1.629   2.733
 8616SOL    MW434785   6.370   1.547   2.718
 8617SOL     OW34786   6.706   0.392   2.363
 8617SOL    HW234787   6.728   0.329   2.295
 8617SOL    HW334788   6.611   0.384   2.374
 8617SOL    MW434789   6.696   0.383   2.355
 8618SOL     OW34790   5.622   0.549   3.438
 8618SOL    HW234791   5.686   0.615   3.413
 8618SOL    HW334792   5.541   0.576   3.395
 8618SOL    MW434793   5.620   0.561   3.430
 8619SOL     OW34794   7.360   1.456   2.395
 8619SOL    HW234795   7.330   1.389   2.456
 8619SOL    HW334796   7.454   1.462   2.409
 8619SOL    MW434797   7.368   1.448   2.405
 8620SOL     OW34798   6.916   1.133   2.325
 8620SOL    HW234799   6.888   1.219   2.358
 8620SOL    HW334800   6.944   1.149   2.235
 8620SOL    MW434801   6.916   1.147   2.317
 8621SOL     OW34802   7.431   0.935   2.800
 8621SOL    HW234803   7.422   0.967   2.711
 8621SOL    HW334804   7.384   0.851   2.800
 8621SOL    MW434805   7.424   0.928   2.790
 8622SOL     OW34806   5.807   0.775   3.379
 8622SOL    HW234807   5.828   0.844   3.317
 8622SOL    HW334808   5.887   0.722   3.384
 8622SOL    MW434809   5.820   0.776   3.373
 8623SOL     OW34810   7.343   0.866   2.501
 8623SOL    HW234811   7.437   0.855   2.489
 8623SOL    HW334812   7.319   0.938   2.442
 8623SOL    MW434813   7.353   0.874   2.492
 8624SOL     OW34814   5.792   0.790   3.646
 8624SOL    HW234815   5.718   0.734   3.672
 8624SOL    HW334816   5.787   0.793   3.551
 8624SOL    MW434817   5.781   0.783   3.636
 8625SOL     OW34818   5.999   0.744   2.274
 8625SOL    HW234819   5.999   0.839   2.259
 8625SOL    HW334820   6.076   0.728   2.328
 8625SOL    MW434821   6.009   0.755   2.279
 8626SOL     OW34822   6.775   0.603   3.338
 8626SOL    HW234823   6.811   0.576   3.254
 8626SOL    HW334824   6.688   0.637   3.317
 8626SOL    MW434825   6.769   0.604   3.325
 8627SOL     OW34826   5.758   0.475   2.563
 8627SOL    HW234827   5.820   0.482   2.636
 8627SOL    HW334828   5.758   0.382   2.540
 8627SOL    MW434829   5.766   0.464   2.570
 8628SOL     OW34830   7.305   1.815   2.095
 8628SOL    HW234831   7.372   1.848   2.035
 8628SOL    HW334832   7.262   1.894   2.129
 8628SOL    MW434833   7.307   1.830   2.091
 8629SOL     OW34834   6.440   0.736   3.047
 8629SOL    HW234835   6.398   0.654   3.023
 8629SOL    HW334836   6.441   0.735   3.143
 8629SOL    MW434837   6.433   0.725   3.056
 8630SOL     OW34838   7.111   1.869   3.446
 8630SOL    HW234839   7.114   1.775   3.429
 8630SOL    HW334840   7.134   1.877   3.538
 8630SOL    MW434841   7.114   1.857   3.456
 8631SOL     OW34842   5.627   1.047   2.021
 8631SOL    HW234843   5.596   1.112   2.084
 8631SOL    HW334844   5.576   0.969   2.040
 8631SOL    MW434845   5.617   1.044   2.031
 8632SOL     OW34846   7.071   0.798   2.613
 8632SOL    HW234847   7.151   0.813   2.562
 8632SOL    HW334848   7.064   0.703   2.619
 8632SOL    MW434849   7.080   0.787   2.608
 8633SOL     OW34850   6.211   1.847   1.963
 8633SOL    HW234851   6.116   1.847   1.955
 8633SOL    HW334852   6.227   1.793   2.041
 8633SOL    MW434853   6.201   1.841   1.972
 8634SOL     OW34854   6.521   0.724   3.310
 8634SOL    HW234855   6.590   0.791   3.307
 8634SOL    HW334856   6.454   0.762   3.366
 8634SOL    MW434857   6.522   0.737   3.317
 8635SOL     OW34858   5.939   1.024   3.558
 8635SOL    HW234859   5.893   0.940   3.560
 8635SOL    HW334860   5.996   1.018   3.482
 8635SOL    MW434861   5.941   1.012   3.550
 8636SOL     OW34862   7.056   0.667   1.879
 8636SOL    HW234863   6.984   0.643   1.821
 8636SOL    HW334864   7.122   0.704   1.821
 8636SOL    MW434865   7.055   0.669   1.864
 8637SOL     OW34866   6.190   1.399   2.559
 8637SOL    HW234867   6.255   1.332   2.580
 8637SOL    HW334868   6.242   1.476   2.536
 8637SOL    MW434869   6.205   1.401   2.558
 8638SOL     OW34870   6.451   0.564   2.689
 8638SOL    HW234871   6.391   0.582   2.761
 8638SOL    HW334872   6.485   0.476   2.708
 8638SOL    MW434873   6.447   0.554   2.702
 8639SOL     OW34874   6.469   0.967   2.063
 8639SOL    HW234875   6.455   0.879   2.028
 8639SOL    HW334876   6.420   1.024   2.004
 8639SOL    MW434877   6.461   0.962   2.051
 8640SOL     OW34878   6.950   1.385   2.804
 8640SOL    HW234879   6.923   1.469   2.769
 8640SOL    HW334880   6.910   1.380   2.891
 8640SOL    MW434881   6.943   1.394   2.810
 8641SOL     OW34882   6.869   1.333   3.072
 8641SOL    HW234883   6.880   1.300   3.161
 8641SOL    HW334884   6.788   1.292   3.041
 8641SOL    MW434885   6.859   1.325   3.078
 8642SOL     OW34886   5.882   0.691   2.842
 8642SOL    HW234887   5.832   0.690   2.923
 8642SOL    HW334888   5.902   0.783   2.826
 8642SOL    MW434889   5.878   0.703   2.850
 8643SOL     OW34890   6.949   1.455   3.604
 8643SOL    HW234891   6.949   1.549   3.620
 8643SOL    HW334892   6.994   1.445   3.520
 8643SOL    MW434893   6.955   1.465   3.595
 8644SOL     OW34894   6.477   0.736   2.279
 8644SOL    HW234895   6.457   0.722   2.186
 8644SOL    HW334896   6.570   0.715   2.286
 8644SOL    MW434897   6.487   0.731   2.268
 8645SOL     OW34898   5.804   0.359   3.583
 8645SOL    HW234899   5.761   0.418   3.520
 8645SOL    HW334900   5.872   0.414   3.623
 8645SOL    MW434901   5.808   0.374   3.580
 8646SOL     OW34902   6.916   0.979   3.128
 8646SOL    HW234903   6.979   0.976   3.201
 8646SOL    HW334904   6.832   0.997   3.170
 8646SOL    MW434905   6.912   0.981   3.143
 8647SOL     OW34906   6.460   1.694   2.317
 8647SOL    HW234907   6.518   1.765   2.344
 8647SOL    HW334908   6.483   1.622   2.375
 8647SOL    MW434909   6.471   1.694   2.328
 8648SOL     OW34910   7.340   1.192   2.626
 8648SOL    HW234911   7.319   1.138   2.549
 8648SOL    HW334912   7.436   1.190   2.630
 8648SOL    MW434913   7.349   1.185   2.615
 8649SOL     OW34914   6.032   1.337   3.369
 8649SOL    HW234915   5.953   1.287   3.392
 8649SOL    HW334916   6.102   1.296   3.419
 8649SOL    MW434917   6.030   1.325   3.379
 8650SOL     OW34918   7.040   0.623   2.888
 8650SOL    HW234919   6.963   0.669   2.854
 8650SOL    HW334920   7.097   0.692   2.922
 8650SOL    MW434921   7.037   0.638   2.888
 8651SOL     OW34922   5.706   1.482   2.090
 8651SOL    HW234923   5.723   1.566   2.132
 8651SOL    HW334924   5.741   1.491   2.002
 8651SOL    MW434925   5.711   1.495   2.084
 8652SOL     OW34926   6.978   1.571   2.307
 8652SOL    HW234927   7.041   1.561   2.236
 8652SOL    HW334928   6.895   1.591   2.262
 8652SOL    MW434929   6.975   1.572   2.292
 8653SOL     OW34930   7.341   0.839   3.993
 8653SOL    HW234931   7.382   0.781   4.058
 8653SOL    HW334932   7.248   0.831   4.010
 8653SOL    MW434933   7.335   0.831   4.003
 8654SOL     OW34934   7.207   0.771   4.988
 8654SOL    HW234935   7.162   0.838   5.039
 8654SOL    HW334936   7.295   0.807   4.974
 8654SOL    MW434937   7.213   0.784   4.992
 8655SOL     OW34938   6.135   1.022   4.222
 8655SOL    HW234939   6.225   0.997   4.206
 8655SOL    HW334940   6.131   1.115   4.199
 8655SOL    MW434941   6.147   1.031   4.217
 8656SOL     OW34942   7.251   1.725   4.364
 8656SOL    HW234943   7.263   1.671   4.442
 8656SOL    HW334944   7.288   1.673   4.293
 8656SOL    MW434945   7.257   1.710   4.365
 8657SOL     OW34946   6.630   1.610   5.365
 8657SOL    HW234947   6.671   1.646   5.286
 8657SOL    HW334948   6.665   1.521   5.372
 8657SOL    MW434949   6.641   1.603   5.356
 8658SOL     OW34950   7.187   1.165   4.969
 8658SOL    HW234951   7.108   1.130   4.927
 8658SOL    HW334952   7.214   1.237   4.913
 8658SOL    MW434953   7.180   1.170   4.956
 8659SOL     OW34954   6.419   0.478   4.235
 8659SOL    HW234955   6.394   0.566   4.263
 8659SOL    HW334956   6.416   0.481   4.139
 8659SOL    MW434957   6.415   0.490   4.227
 8660SOL     OW34958   5.861   0.506   4.163
 8660SOL    HW234959   5.893   0.594   4.145
 8660SOL    HW334960   5.849   0.504   4.258
 8660SOL    MW434961   5.864   0.518   4.175
 8661SOL     OW34962   5.939   0.919   5.064
 8661SOL    HW234963   6.002   0.866   5.015
 8661SOL    HW334964   5.920   0.993   5.007
 8661SOL    MW434965   5.945   0.921   5.051
 8662SOL     OW34966   6.260   0.261   4.250
 8662SOL    HW234967   6.318   0.337   4.252
 8662SOL    HW334968   6.195   0.282   4.183
 8662SOL    MW434969   6.259   0.273   4.241
 8663SOL     OW34970   6.347   1.188   4.425
 8663SOL    HW234971   6.427   1.191   4.477
 8663SOL    HW334972   6.375   1.155   4.339
 8663SOL    MW434973   6.361   1.184   4.420
 8664SOL     OW34974   6.372   1.529   5.328
 8664SOL    HW234975   6.456   1.555   5.367
 8664SOL    HW334976   6.396   1.473   5.254
 8664SOL    MW434977   6.386   1.525   5.323
 8665SOL     OW34978   6.124   0.692   4.416
 8665SOL    HW234979   6.109   0.612   4.467
 8665SOL    HW334980   6.206   0.727   4.450
 8665SOL    MW434981   6.132   0.684   4.428
 8666SOL     OW34982   6.461   1.378   5.101
 8666SOL    HW234983   6.425   1.444   5.041
 8666SOL    HW334984   6.389   1.316   5.114
 8666SOL    MW434985   6.447   1.378   5.095
 8667SOL     OW34986   6.266   0.518   4.793
 8667SOL    HW234987   6.172   0.514   4.811
 8667SOL    HW334988   6.296   0.427   4.802
 8667SOL    MW434989   6.257   0.506   4.796
 8668SOL     OW34990   6.012   0.932   4.697
 8668SOL    HW234991   5.967   0.939   4.613
 8668SOL    HW334992   5.992   1.015   4.741
 8668SOL    MW434993   6.004   0.944   4.691
 8669SOL     OW34994   5.709   1.778   4.572
 8669SOL    HW234995   5.798   1.770   4.607
 8669SOL    HW334996   5.673   1.690   4.577
 8669SOL    MW434997   5.716   1.765   4.577
 8670SOL     OW34998   6.974   1.170   3.941
 8670SOL    HW234999   6.892   1.206   3.907
 8670SOL    HW335000   7.042   1.213   3.890
 8670SOL    MW435001   6.972   1.180   3.929
 8671SOL     OW35002   5.973   1.305   4.607
 8671SOL    HW235003   5.949   1.358   4.683
 8671SOL    HW335004   6.029   1.363   4.555
 8671SOL    MW435005   5.977   1.320   4.610
 8672SOL     OW35006   6.535   0.949   4.417
 8672SOL    HW235007   6.449   0.936   4.457
 8672SOL    HW335008   6.588   0.876   4.449
 8672SOL    MW435009   6.531   0.938   4.426
 8673SOL     OW35010   5.943   1.601   5.202
 8673SOL    HW235011   5.851   1.577   5.187
 8673SOL    HW335012   5.987   1.518   5.219
 8673SOL    MW435013   5.937   1.586   5.201
 8674SOL     OW35014   6.526   1.311   4.134
 8674SOL    HW235015   6.503   1.373   4.202
 8674SOL    HW335016   6.483   1.229   4.160
 8674SOL    MW435017   6.518   1.307   4.145
 8675SOL     OW35018   5.858   1.245   4.139
 8675SOL    HW235019   5.806   1.313   4.095
 8675SOL    HW335020   5.855   1.171   4.079
 8675SOL    MW435021   5.850   1.244   4.126
 8676SOL     OW35022   6.520   1.708   3.917
 8676SOL    HW235023   6.475   1.724   4.000
 8676SOL    HW335024   6.451   1.673   3.859
 8676SOL    MW435025   6.506   1.705   3.919
 8677SOL     OW35026   7.455   0.481   3.892
 8677SOL    HW235027   7.364   0.483   3.920
 8677SOL    HW335028   7.500   0.543   3.950
 8677SOL    MW435029   7.448   0.489   3.902
 8678SOL     OW35030   7.200   1.084   4.242
 8678SOL    HW235031   7.110   1.084   4.277
 8678SOL    HW335032   7.193   1.130   4.159
 8678SOL    MW435033   7.187   1.090   4.236
 8679SOL     OW35034   7.000   0.719   5.314
 8679SOL    HW235035   7.069   0.657   5.291
 8679SOL    HW335036   6.925   0.693   5.261
 8679SOL    MW435037   7.000   0.706   5.305
 8680SOL     OW35038   5.741   1.599   4.866
 8680SOL    HW235039   5.724   1.545   4.943
 8680SOL    HW335040   5.729   1.689   4.896
 8680SOL    MW435041   5.738   1.603   4.880
 8681SOL     OW35042   6.736   1.106   5.306
 8681SOL    HW235043   6.721   1.199   5.291
 8681SOL    HW335044   6.831   1.096   5.306
 8681SOL    MW435045   6.745   1.116   5.303
 8682SOL     OW35046   6.532   0.530   5.507
 8682SOL    HW235047   6.622   0.531   5.474
 8682SOL    HW335048   6.491   0.455   5.465
 8682SOL    MW435049   6.538   0.520   5.498
 8683SOL     OW35050   7.107   1.062   4.634
 8683SOL    HW235051   7.110   0.996   4.565
 8683SOL    HW335052   7.192   1.105   4.630
 8683SOL    MW435053   7.119   1.058   4.625
 8684SOL     OW35054   6.727   0.665   4.203
 8684SOL    HW235055   6.753   0.689   4.114
 8684SOL    HW335056   6.709   0.572   4.199
 8684SOL    MW435057   6.729   0.657   4.190
 8685SOL     OW35058   7.392   1.285   4.054
 8685SOL    HW235059   7.348   1.326   4.129
 8685SOL    HW335060   7.449   1.353   4.019
 8685SOL    MW435061   7.394   1.299   4.059
 8686SOL     OW35062   6.312   0.334   5.457
 8686SOL    HW235063   6.322   0.260   5.397
 8686SOL    HW335064   6.348   0.303   5.540
 8686SOL    MW435065   6.318   0.320   5.459
 8687SOL     OW35066   6.048   1.701   4.372
 8687SOL    HW235067   6.080   1.789   4.350
 8687SOL    HW335068   6.001   1.673   4.294
 8687SOL    MW435069   6.047   1.709   4.359
 8688SOL     OW35070   5.764   1.761   3.949
 8688SOL    HW235071   5.793   1.851   3.941
 8688SOL    HW335072   5.714   1.744   3.870
 8688SOL    MW435073   5.762   1.769   3.938
 8689SOL     OW35074   7.168   1.569   3.920
 8689SOL    HW235075   7.216   1.638   3.966
 8689SOL    HW335076   7.089   1.613   3.889
 8689SOL    MW435077   7.163   1.583   3.923
 8690SOL     OW35078   6.566   0.694   3.864
 8690SOL    HW235079   6.568   0.641   3.785
 8690SOL    HW335080   6.654   0.731   3.870
 8690SOL    MW435081   6.578   0.693   3.853
 8691SOL     OW35082   7.180   0.620   4.200
 8691SOL    HW235083   7.219   0.620   4.287
 8691SOL    HW335084   7.121   0.696   4.200
 8691SOL    MW435085   7.177   0.631   4.211
 8692SOL     OW35086   6.497   0.987   5.329
 8692SOL    HW235087   6.474   0.967   5.419
 8692SOL    HW335088   6.582   1.031   5.334
 8692SOL    MW435089   6.504   0.990   5.341
 8693SOL     OW35090   6.577   0.124   5.089
 8693SOL    HW235091   6.583   0.086   5.002
 8693SOL    HW335092   6.566   0.218   5.074
 8693SOL    MW435093   6.578   0.132   5.077
 8694SOL     OW35094   6.666   0.613   4.923
 8694SOL    HW235095   6.741   0.642   4.870
 8694SOL    HW335096   6.598   0.678   4.907
 8694SOL    MW435097   6.667   0.625   4.913
 8695SOL     OW35098   7.216   0.581   5.200
 8695SOL    HW235099   7.197   0.490   5.179
 8695SOL    HW335100   7.194   0.630   5.121
 8695SOL    MW435101   7.211   0.574   5.187
 8696SOL     OW35102   7.358   1.675   5.104
 8696SOL    HW235103   7.286   1.637   5.155
 8696SOL    HW335104   7.375   1.760   5.145
 8696SOL    MW435105   7.352   1.680   5.116
 8697SOL     OW35106   7.072   1.133   5.382
 8697SOL    HW235107   7.154   1.174   5.412
 8697SOL    HW335108   7.035   1.095   5.462
 8697SOL    MW435109   7.078   1.134   5.397
 8698SOL     OW35110   7.367   0.506   4.366
 8698SOL    HW235111   7.456   0.475   4.383
 8698SOL    HW335112   7.310   0.446   4.414
 8698SOL    MW435113   7.370   0.494   4.375
 8699SOL     OW35114   5.793   0.220   4.395
 8699SOL    HW235115   5.784   0.160   4.321
 8699SOL    HW335116   5.726   0.191   4.458
 8699SOL    MW435117   5.783   0.207   4.393
 8700SOL     OW35118   6.736   1.313   3.956
 8700SOL    HW235119   6.686   1.315   4.038
 8700SOL    HW335120   6.670   1.331   3.888
 8700SOL    MW435121   6.722   1.315   3.958
 8701SOL     OW35122   5.740   0.393   4.758
 8701SOL    HW235123   5.712   0.484   4.767
 8701SOL    HW335124   5.677   0.354   4.697
 8701SOL    MW435125   5.727   0.399   4.752
 8702SOL     OW35126   6.199   1.731   4.064
 8702SOL    HW235127   6.120   1.689   4.097
 8702SOL    HW335128   6.265   1.714   4.131
 8702SOL    MW435129   6.198   1.723   4.077
 8703SOL     OW35130   7.327   1.251   5.461
 8703SOL    HW235131   7.377   1.177   5.493
 8703SOL    HW335132   7.273   1.278   5.536
 8703SOL    MW435133   7.327   1.245   5.474
 8704SOL     OW35134   6.335   1.146   3.771
 8704SOL    HW235135   6.257   1.092   3.758
 8704SOL    HW335136   6.306   1.219   3.824
 8704SOL    MW435137   6.321   1.148   3.776
 8705SOL     OW35138   7.461   0.886   4.963
 8705SOL    HW235139   7.477   0.924   4.876
 8705SOL    HW335140   7.495   0.952   5.024
 8705SOL    MW435141   7.468   0.899   4.959
 8706SOL     OW35142   7.253   1.595   4.632
 8706SOL    HW235143   7.282   1.662   4.693
 8706SOL    HW335144   7.234   1.519   4.687
 8706SOL    MW435145   7.255   1.595   4.647
 8707SOL     OW35146   6.916   1.662   3.839
 8707SOL    HW235147   6.842   1.625   3.889
 8707SOL    HW335148   6.924   1.752   3.872
 8707SOL    MW435149   6.907   1.669   3.851
 8708SOL     OW35150   5.724   0.668   4.928
 8708SOL    HW235151   5.786   0.698   4.994
 8708SOL    HW335152   5.658   0.737   4.922
 8708SOL    MW435153   5.723   0.681   4.935
 8709SOL     OW35154   7.140   1.336   3.781
 8709SOL    HW235155   7.087   1.385   3.717
 8709SOL    HW335156   7.171   1.402   3.842
 8709SOL    MW435157   7.138   1.350   3.779
 8710SOL     OW35158   5.819   1.777   5.380
 8710SOL    HW235159   5.793   1.845   5.318
 8710SOL    HW335160   5.867   1.714   5.328
 8710SOL    MW435161   5.821   1.777   5.366
 8711SOL     OW35162   5.871   1.096   4.887
 8711SOL    HW235163   5.924   1.171   4.912
 8711SOL    HW335164   5.790   1.134   4.853
 8711SOL    MW435165   5.867   1.111   4.887
 8712SOL     OW35166   6.411   1.000   4.875
 8712SOL    HW235167   6.439   0.909   4.887
 8712SOL    HW335168   6.340   0.994   4.811
 8712SOL    MW435169   6.404   0.988   4.870
 8713SOL     OW35170   5.726   0.865   4.293
 8713SOL    HW235171   5.817   0.880   4.320
 8713SOL    HW335172   5.729   0.786   4.239
 8713SOL    MW435173   5.738   0.857   4.291
 8714SOL     OW35174   5.962   0.573   5.547
 8714SOL    HW235175   5.909   0.653   5.554
 8714SOL    HW335176   6.032   0.585   5.612
 8714SOL    MW435177   5.964   0.586   5.555
 8715SOL     OW35178   6.348   0.123   5.254
 8715SOL    HW235179   6.325   0.031   5.256
 8715SOL    HW335180   6.434   0.125   5.211
 8715SOL    MW435181   6.355   0.113   5.250
 8716SOL     OW35182   6.032   0.647   5.293
 8716SOL    HW235183   6.112   0.697   5.279
 8716SOL    HW335184   6.023   0.641   5.388
 8716SOL    MW435185   6.041   0.653   5.303
 8717SOL     OW35186   6.353   1.797   4.667
 8717SOL    HW235187   6.442   1.812   4.697
 8717SOL    HW335188   6.348   1.844   4.583
 8717SOL    MW435189   6.363   1.805   4.660
 8718SOL     OW35190   5.734   1.477   4.332
 8718SOL    HW235191   5.706   1.516   4.414
 8718SOL    HW335192   5.754   1.386   4.354
 8718SOL    MW435193   5.732   1.469   4.345
 8719SOL     OW35194   6.567   1.520   4.367
 8719SOL    HW235195   6.650   1.474   4.351
 8719SOL    HW335196   6.557   1.519   4.463
 8719SOL    MW435197   6.577   1.513   4.377
 8720SOL     OW35198   7.399   0.665   4.681
 8720SOL    HW235199   7.488   0.695   4.663
 8720SOL    HW335200   7.379   0.605   4.610
 8720SOL    MW435201   7.408   0.662   4.670
 8721SOL     OW35202   7.250   0.844   5.561
 8721SOL    HW235203   7.305   0.768   5.542
 8721SOL    HW335204   7.252   0.852   5.656
 8721SOL    MW435205   7.258   0.835   5.569
 8722SOL     OW35206   6.300   1.577   3.772
 8722SOL    HW235207   6.240   1.646   3.742
 8722SOL    HW335208   6.245   1.519   3.825
 8722SOL    MW435209   6.284   1.579   3.774
 8723SOL     OW35210   6.545   0.406   5.080
 8723SOL    HW235211   6.464   0.447   5.108
 8723SOL    HW335212   6.592   0.474   5.032
 8723SOL    MW435213   6.540   0.421   5.078
 8724SOL     OW35214   6.805   0.744   4.703
 8724SOL    HW235215   6.818   0.838   4.713
 8724SOL    HW335216   6.766   0.734   4.617
 8724SOL    MW435217   6.801   0.755   4.693
 8725SOL     OW35218   7.056   0.522   4.502
 8725SOL    HW235219   7.001   0.443   4.501
 8725SOL    HW335220   7.038   0.563   4.586
 8725SOL    MW435221   7.046   0.517   4.511
 8726SOL     OW35222   6.027   0.209   5.319
 8726SOL    HW235223   5.948   0.227   5.371
 8726SOL    HW335224   6.022   0.271   5.246
 8726SOL    MW435225   6.017   0.219   5.316
 8727SOL     OW35226   6.675   0.726   4.459
 8727SOL    HW235227   6.612   0.658   4.483
 8727SOL    HW335228   6.695   0.707   4.367
 8727SOL    MW435229   6.669   0.713   4.451
 8728SOL     OW35230   5.931   1.621   4.161
 8728SOL    HW235231   5.892   1.668   4.087
 8728SOL    HW335232   5.865   1.556   4.186
 8728SOL    MW435233   5.918   1.619   4.155
 8729SOL     OW35234   6.423   1.030   4.185
 8729SOL    HW235235   6.425   1.004   4.092
 8729SOL    HW335236   6.481   0.967   4.228
 8729SOL    MW435237   6.431   1.019   4.179
 8730SOL     OW35238   6.976   1.590   4.957
 8730SOL    HW235239   6.901   1.636   4.995
 8730SOL    HW335240   6.958   1.497   4.974
 8730SOL    MW435241   6.965   1.584   4.965
 8731SOL     OW35242   6.980   1.798   4.387
 8731SOL    HW235243   6.923   1.751   4.326
 8731SOL    HW335244   7.066   1.759   4.374
 8731SOL    MW435245   6.983   1.789   4.377
 8732SOL     OW35246   5.738   1.208   4.452
 8732SOL    HW235247   5.802   1.240   4.515
 8732SOL    HW335248   5.787   1.144   4.400
 8732SOL    MW435249   5.753   1.204   4.453
 8733SOL     OW35250   6.238   1.284   5.434
 8733SOL    HW235251   6.286   1.367   5.421
 8733SOL    HW335252   6.295   1.232   5.490
 8733SOL    MW435253   6.252   1.288   5.440
 8734SOL     OW35254   5.814   1.526   5.574
 8734SOL    HW235255   5.870   1.450   5.589
 8734SOL    HW335256   5.763   1.504   5.496
 8734SOL    MW435257   5.814   1.513   5.565
 8735SOL     OW35258   7.086   0.934   3.995
 8735SOL    HW235259   7.053   1.023   3.985
 8735SOL    HW335260   7.051   0.905   4.080
 8735SOL    MW435261   7.076   0.943   4.006
 8736SOL     OW35262   6.699   1.363   5.183
 8736SOL    HW235263   6.610   1.369   5.151
 8736SOL    HW335264   6.743   1.442   5.151
 8736SOL    MW435265   6.694   1.373   5.175
 8737SOL     OW35266   6.016   1.521   4.824
 8737SOL    HW235267   6.061   1.583   4.881
 8737SOL    HW335268   5.923   1.540   4.837
 8737SOL    MW435269   6.009   1.531   4.831
 8738SOL     OW35270   7.456   1.050   5.178
 8738SOL    HW235271   7.371   1.063   5.137
 8738SOL    HW335272   7.436   1.014   5.265
 8738SOL    MW435273   7.443   1.046   5.183
 8739SOL     OW35274   6.438   1.589   4.932
 8739SOL    HW235275   6.462   1.578   4.841
 8739SOL    HW335276   6.361   1.646   4.930
 8739SOL    MW435277   6.430   1.594   4.921
 8740SOL     OW35278   6.080   0.972   3.787
 8740SOL    HW235279   6.003   0.985   3.843
 8740SOL    HW335280   6.044   0.936   3.706
 8740SOL    MW435281   6.066   0.968   3.784
 8741SOL     OW35282   6.733   0.945   4.030
 8741SOL    HW235283   6.643   0.966   4.005
 8741SOL    HW335284   6.760   1.018   4.086
 8741SOL    MW435285   6.725   0.957   4.033
 8742SOL     OW35286   6.233   1.294   4.722
 8742SOL    HW235287   6.226   1.273   4.816
 8742SOL    HW335288   6.151   1.262   4.685
 8742SOL    MW435289   6.221   1.288   4.729
 8743SOL     OW35290   7.097   0.304   5.124
 8743SOL    HW235291   7.044   0.306   5.204
 8743SOL    HW335292   7.082   0.217   5.087
 8743SOL    MW435293   7.089   0.294   5.129
 8744SOL     OW35294   5.679   1.386   5.385
 8744SOL    HW235295   5.723   1.319   5.331
 8744SOL    HW335296   5.594   1.348   5.405
 8744SOL    MW435297   5.674   1.372   5.381
 8745SOL     OW35298   6.120   1.301   4.186
 8745SOL    HW235299   6.113   1.333   4.276
 8745SOL    HW335300   6.030   1.285   4.158
 8745SOL    MW435301   6.108   1.303   4.193
 8746SOL     OW35302   6.715   1.694   5.095
 8746SOL    HW235303   6.635   1.679   5.045
 8746SOL    HW335304   6.722   1.789   5.102
 8746SOL    MW435305   6.706   1.705   5.089
 8747SOL     OW35306   6.829   1.659   4.585
 8747SOL    HW235307   6.876   1.732   4.544
 8747SOL    HW335308   6.750   1.698   4.621
 8747SOL    MW435309   6.824   1.674   4.584
 8748SOL     OW35310   7.237   1.754   4.860
 8748SOL    HW235311   7.280   1.724   4.940
 8748SOL    HW335312   7.156   1.702   4.857
 8748SOL    MW435313   7.232   1.743   4.870
 8749SOL     OW35314   6.322   0.718   5.567
 8749SOL    HW235315   6.392   0.660   5.539
 8749SOL    HW335316   6.265   0.663   5.622
 8749SOL    MW435317   6.324   0.705   5.571
 8750SOL     OW35318   7.109   0.930   5.200
 8750SOL    HW235319   7.114   0.983   5.280
 8750SOL    HW335320   7.071   0.847   5.228
 8750SOL    MW435321   7.105   0.925   5.215
 8751SOL     OW35322   6.123   0.585   3.900
 8751SOL    HW235323   6.089   0.641   3.970
 8751SOL    HW335324   6.194   0.535   3.940
 8751SOL    MW435325   6.129   0.586   3.914
 8752SOL     OW35326   7.219   1.336   4.722
 8752SOL    HW235327   7.254   1.318   4.635
 8752SOL    HW335328   7.124   1.337   4.709
 8752SOL    MW435329   7.211   1.333   4.709
 8753SOL     OW35330   6.648   0.984   5.091
 8753SOL    HW235331   6.691   1.019   5.169
 8753SOL    HW335332   6.631   1.061   5.037
 8753SOL    MW435333   6.651   0.999   5.094
 8754SOL     OW35334   7.179   0.471   3.964
 8754SOL    HW235335   7.171   0.542   3.901
 8754SOL    HW335336   7.197   0.515   4.047
 8754SOL    MW435337   7.180   0.485   3.966
 8755SOL     OW35338   6.039   0.126   4.393
 8755SOL    HW235339   6.089   0.169   4.324
 8755SOL    HW335340   5.954   0.170   4.393
 8755SOL    MW435341   6.036   0.139   4.384
 8756SOL     OW35342   5.798   1.188   5.253
 8756SOL    HW235343   5.826   1.141   5.331
 8756SOL    HW335344   5.719   1.143   5.224
 8756SOL    MW435345   5.791   1.177   5.259
 8757SOL     OW35346   6.306   0.515   5.220
 8757SOL    HW235347   6.278   0.603   5.244
 8757SOL    HW335348   6.275   0.459   5.291
 8757SOL    MW435349   6.298   0.518   5.232
 8758SOL     OW35350   6.848   0.733   3.939
 8758SOL    HW235351   6.895   0.751   3.858
 8758SOL    HW335352   6.814   0.817   3.967
 8758SOL    MW435353   6.850   0.747   3.932
 8759SOL     OW35354   5.961   0.911   4.433
 8759SOL    HW235355   6.019   0.967   4.381
 8759SOL    HW335356   6.005   0.826   4.435
 8759SOL    MW435357   5.974   0.908   4.426
 8760SOL     OW35358   7.101   0.263   4.270
 8760SOL    HW235359   7.023   0.213   4.295
 8760SOL    HW335360   7.072   0.354   4.270
 8760SOL    MW435361   7.087   0.267   4.273
 8761SOL     OW35362   6.583   1.475   3.761
 8761SOL    HW235363   6.610   1.553   3.713
 8761SOL    HW335364   6.490   1.490   3.780
 8761SOL    MW435365   6.574   1.488   3.757
 8762SOL     OW35366   7.447   0.998   5.448
 8762SOL    HW235367   7.360   0.978   5.484
 8762SOL    HW335368   7.501   0.924   5.473
 8762SOL    MW435369   7.442   0.987   5.456
 8763SOL     OW35370   5.668   1.511   4.605
 8763SOL    HW235371   5.700   1.515   4.696
 8763SOL    HW335372   5.573   1.519   4.613
 8763SOL    MW435373   5.660   1.514   4.618
 8764SOL     OW35374   5.623   0.637   4.152
 8764SOL    HW235375   5.563   0.609   4.222
 8764SOL    HW335376   5.697   0.577   4.158
 8764SOL    MW435377   5.625   0.626   4.161
 8765SOL     OW35378   7.191   1.849   5.586
 8765SOL    HW235379   7.236   1.773   5.551
 8765SOL    HW335380   7.229   1.862   5.673
 8765SOL    MW435381   7.201   1.842   5.592
 8766SOL     OW35382   6.791   1.368   4.312
 8766SOL    HW235383   6.814   1.319   4.390
 8766SOL    HW335384   6.872   1.410   4.284
 8766SOL    MW435385   6.804   1.368   4.319
 8767SOL     OW35386   6.049   0.376   5.041
 8767SOL    HW235387   6.082   0.457   5.081
 8767SOL    HW335388   6.022   0.402   4.953
 8767SOL    MW435389   6.048   0.390   5.035
 8768SOL     OW35390   6.832   0.552   5.468
 8768SOL    HW235391   6.884   0.487   5.421
 8768SOL    HW335392   6.790   0.603   5.398
 8768SOL    MW435393   6.833   0.549   5.451
 8769SOL     OW35394   6.931   0.347   5.329
 8769SOL    HW235395   6.838   0.331   5.316
 8769SOL    HW335396   6.957   0.285   5.397
 8769SOL    MW435397   6.921   0.337   5.336
 8770SOL     OW35398   6.240   1.736   5.214
 8770SOL    HW235399   6.157   1.721   5.259
 8770SOL    HW335400   6.299   1.669   5.249
 8770SOL    MW435401   6.238   1.726   5.224
 8771SOL     OW35402   7.297   0.443   4.839
 8771SOL    HW235403   7.230   0.476   4.899
 8771SOL    HW335404   7.340   0.521   4.805
 8771SOL    MW435405   7.295   0.458   4.843
 8772SOL     OW35406   7.475   1.163   4.809
 8772SOL    HW235407   7.468   1.103   4.734
 8772SOL    HW335408   7.401   1.223   4.798
 8772SOL    MW435409   7.465   1.163   4.798
 8773SOL     OW35410   6.857   1.025   4.727
 8773SOL    HW235411   6.871   0.997   4.818
 8773SOL    HW335412   6.943   1.056   4.699
 8773SOL    MW435413   6.870   1.026   4.736
 8774SOL     OW35414   6.940   0.520   5.006
 8774SOL    HW235415   6.961   0.521   4.913
 8774SOL    HW335416   6.985   0.442   5.039
 8774SOL    MW435417   6.947   0.510   4.998
 8775SOL     OW35418   7.433   0.651   5.548
 8775SOL    HW235419   7.470   0.596   5.617
 8775SOL    HW335420   7.458   0.608   5.466
 8775SOL    MW435421   7.440   0.639   5.547
 8776SOL     OW35422   6.980   0.949   5.600
 8776SOL    HW235423   7.046   0.897   5.554
 8776SOL    HW335424   7.000   0.936   5.693
 8776SOL    MW435425   6.991   0.940   5.607
 8777SOL     OW35426   6.991   0.810   4.226
 8777SOL    HW235427   6.906   0.780   4.196
 8777SOL    HW335428   6.983   0.817   4.321
 8777SOL    MW435429   6.979   0.808   4.235
 8778SOL     OW35430   6.067   1.273   4.957
 8778SOL    HW235431   6.079   1.300   5.048
 8778SOL    HW335432   6.048   1.354   4.910
 8778SOL    MW435433   6.066   1.288   4.962
 8779SOL     OW35434   6.351   0.253   4.780
 8779SOL    HW235435   6.324   0.255   4.871
 8779SOL    HW335436   6.281   0.205   4.735
 8779SOL    MW435437   6.339   0.249   4.787
 8780SOL     OW35438   6.205   1.745   4.942
 8780SOL    HW235439   6.257   1.822   4.919
 8780SOL    HW335440   6.214   1.737   5.037
 8780SOL    MW435441   6.214   1.752   4.953
 8781SOL     OW35442   7.107   1.330   5.174
 8781SOL    HW235443   7.092   1.259   5.237
 8781SOL    HW335444   7.153   1.288   5.102
 8781SOL    MW435445   7.113   1.314   5.174
 8782SOL     OW35446   6.181   1.061   5.291
 8782SOL    HW235447   6.218   1.066   5.203
 8782SOL    HW335448   6.220   1.134   5.338
 8782SOL    MW435449   6.191   1.071   5.286
 8783SOL     OW35450   6.361   1.104   5.103
 8783SOL    HW235451   6.420   1.050   5.156
 8783SOL    HW335452   6.376   1.076   5.013
 8783SOL    MW435453   6.371   1.093   5.099
 8784SOL     OW35454   6.364   0.476   3.952
 8784SOL    HW235455   6.437   0.525   3.915
 8784SOL    HW335456   6.380   0.385   3.926
 8784SOL    MW435457   6.376   0.471   3.945
 8785SOL     OW35458   7.172   1.593   5.275
 8785SOL    HW235459   7.214   1.578   5.360
 8785SOL    HW335460   7.163   1.506   5.237
 8785SOL    MW435461   7.176   1.581   5.282
 8786SOL     OW35462   5.839   0.985   4.050
 8786SOL    HW235463   5.776   1.001   3.979
 8786SOL    HW335464   5.786   0.948   4.121
 8786SOL    MW435465   5.824   0.982   4.050
 8787SOL     OW35466   6.195   1.339   3.909
 8787SOL    HW235467   6.210   1.315   4.001
 8787SOL    HW335468   6.103   1.317   3.893
 8787SOL    MW435469   6.185   1.332   3.919
 8788SOL     OW35470   6.734   1.570   4.061
 8788SOL    HW235471   6.742   1.488   4.012
 8788SOL    HW335472   6.653   1.609   4.028
 8788SOL    MW435473   6.724   1.565   4.051
 8789SOL     OW35474   5.993   1.728   4.630
 8789SOL    HW235475   5.997   1.639   4.665
 8789SOL    HW335476   6.019   1.719   4.539
 8789SOL    MW435477   5.996   1.716   4.622
 8790SOL     OW35478   6.610   1.206   4.873
 8790SOL    HW235479   6.542   1.140   4.889
 8790SOL    HW335480   6.628   1.200   4.780
 8790SOL    MW435481   6.603   1.197   4.864
 8791SOL     OW35482   5.699   1.481   5.124
 8791SOL    HW235483   5.689   1.439   5.210
 8791SOL    HW335484   5.620   1.534   5.114
 8791SOL    MW435485   5.688   1.482   5.135
 8792SOL     OW35486   6.603   0.345   4.694
 8792SOL    HW235487   6.533   0.297   4.739
 8792SOL    HW335488   6.635   0.408   4.758
 8792SOL    MW435489   6.598   0.347   4.708
 8793SOL     OW35490   6.254   0.781   5.314
 8793SOL    HW235491   6.247   0.876   5.302
 8793SOL    HW335492   6.263   0.770   5.409
 8793SOL    MW435493   6.255   0.793   5.324
 8794SOL     OW35494   5.975   1.296   5.572
 8794SOL    HW235495   6.047   1.298   5.509
 8794SOL    HW335496   5.945   1.205   5.571
 8794SOL    MW435497   5.980   1.285   5.564
 8795SOL     OW35498   7.259   1.589   5.523
 8795SOL    HW235499   7.232   1.586   5.614
 8795SOL    HW335500   7.355   1.593   5.526
 8795SOL    MW435501   7.269   1.589   5.535
 8796SOL     OW35502   6.070   0.451   4.507
 8796SOL    HW235503   6.141   0.399   4.470
 8796SOL    HW335504   6.056   0.416   4.594
 8796SOL    MW435505   6.078   0.440   4.514
 8797SOL     OW35506   5.625   1.786   5.579
 8797SOL    HW235507   5.675   1.764   5.501
 8797SOL    HW335508   5.633   1.881   5.587
 8797SOL    MW435509   5.633   1.795   5.570
 8798SOL     OW35510   6.386   1.544   4.583
 8798SOL    HW235511   6.314   1.481   4.596
 8798SOL    HW335512   6.347   1.629   4.601
 8798SOL    MW435513   6.370   1.547   4.586
 8799SOL     OW35514   6.706   0.392   4.231
 8799SOL    HW235515   6.728   0.329   4.163
 8799SOL    HW335516   6.611   0.384   4.242
 8799SOL    MW435517   6.696   0.383   4.223
 8800SOL     OW35518   5.622   0.549   5.306
 8800SOL    HW235519   5.686   0.615   5.281
 8800SOL    HW335520   5.541   0.576   5.263
 8800SOL    MW435521   5.620   0.561   5.298
 8801SOL     OW35522   7.360   1.456   4.263
 8801SOL    HW235523   7.330   1.389   4.324
 8801SOL    HW335524   7.454   1.462   4.277
 8801SOL    MW435525   7.368   1.448   4.273
 8802SOL     OW35526   6.916   1.133   4.193
 8802SOL    HW235527   6.888   1.219   4.226
 8802SOL    HW335528   6.944   1.149   4.103
 8802SOL    MW435529   6.916   1.147   4.185
 8803SOL     OW35530   7.431   0.935   4.668
 8803SOL    HW235531   7.422   0.967   4.579
 8803SOL    HW335532   7.384   0.851   4.668
 8803SOL    MW435533   7.424   0.928   4.658
 8804SOL     OW35534   5.807   0.775   5.247
 8804SOL    HW235535   5.828   0.844   5.185
 8804SOL    HW335536   5.887   0.722   5.252
 8804SOL    MW435537   5.820   0.776   5.241
 8805SOL     OW35538   7.343   0.866   4.369
 8805SOL    HW235539   7.437   0.855   4.357
 8805SOL    HW335540   7.319   0.938   4.310
 8805SOL    MW435541   7.353   0.874   4.360
 8806SOL     OW35542   5.792   0.790   5.514
 8806SOL    HW235543   5.718   0.734   5.540
 8806SOL    HW335544   5.787   0.793   5.419
 8806SOL    MW435545   5.781   0.783   5.504
 8807SOL     OW35546   5.999   0.744   4.142
 8807SOL    HW235547   5.999   0.839   4.127
 8807SOL    HW335548   6.076   0.728   4.196
 8807SOL    MW435549   6.009   0.755   4.147
 8808SOL     OW35550   6.775   0.603   5.206
 8808SOL    HW235551   6.811   0.576   5.122
 8808SOL    HW335552   6.688   0.637   5.185
 8808SOL    MW435553   6.769   0.604   5.193
 8809SOL     OW35554   5.758   0.475   4.431
 8809SOL    HW235555   5.820   0.482   4.504
 8809SOL    HW335556   5.758   0.382   4.408
 8809SOL    MW435557   5.766   0.464   4.438
 8810SOL     OW35558   7.305   1.815   3.963
 8810SOL    HW235559   7.372   1.848   3.903
 8810SOL    HW335560   7.262   1.894   3.997
 8810SOL    MW435561   7.307   1.830   3.959
 8811SOL     OW35562   6.440   0.736   4.915
 8811SOL    HW235563   6.398   0.654   4.891
 8811SOL    HW335564   6.441   0.735   5.011
 8811SOL    MW435565   6.433   0.725   4.924
 8812SOL     OW35566   7.111   1.869   5.314
 8812SOL    HW235567   7.114   1.775   5.297
 8812SOL    HW335568   7.134   1.877   5.406
 8812SOL    MW435569   7.114   1.857   5.324
 8813SOL     OW35570   5.627   1.047   3.889
 8813SOL    HW235571   5.596   1.112   3.952
 8813SOL    HW335572   5.576   0.969   3.908
 8813SOL    MW435573   5.617   1.044   3.899
 8814SOL     OW35574   7.071   0.798   4.481
 8814SOL    HW235575   7.151   0.813   4.430
 8814SOL    HW335576   7.064   0.703   4.487
 8814SOL    MW435577   7.080   0.787   4.476
 8815SOL     OW35578   6.211   1.847   3.831
 8815SOL    HW235579   6.116   1.847   3.823
 8815SOL    HW335580   6.227   1.793   3.909
 8815SOL    MW435581   6.201   1.841   3.840
 8816SOL     OW35582   6.521   0.724   5.178
 8816SOL    HW235583   6.590   0.791   5.175
 8816SOL    HW335584   6.454   0.762   5.234
 8816SOL    MW435585   6.522   0.737   5.185
 8817SOL     OW35586   5.939   1.024   5.426
 8817SOL    HW235587   5.893   0.940   5.428
 8817SOL    HW335588   5.996   1.018   5.350
 8817SOL    MW435589   5.941   1.012   5.418
 8818SOL     OW35590   7.056   0.667   3.747
 8818SOL    HW235591   6.984   0.643   3.689
 8818SOL    HW335592   7.122   0.704   3.689
 8818SOL    MW435593   7.055   0.669   3.732
 8819SOL     OW35594   6.190   1.399   4.427
 8819SOL    HW235595   6.255   1.332   4.448
 8819SOL    HW335596   6.242   1.476   4.404
 8819SOL    MW435597   6.205   1.401   4.426
 8820SOL     OW35598   6.451   0.564   4.557
 8820SOL    HW235599   6.391   0.582   4.629
 8820SOL    HW335600   6.485   0.476   4.576
 8820SOL    MW435601   6.447   0.554   4.570
 8821SOL     OW35602   6.676   1.147   4.576
 8821SOL    HW235603   6.768   1.128   4.594
 8821SOL    HW335604   6.649   1.077   4.516
 8821SOL    MW435605   6.684   1.135   4.570
 8822SOL     OW35606   6.469   0.967   3.931
 8822SOL    HW235607   6.455   0.879   3.896
 8822SOL    HW335608   6.420   1.024   3.872
 8822SOL    MW435609   6.461   0.962   3.919
 8823SOL     OW35610   6.950   1.385   4.672
 8823SOL    HW235611   6.923   1.469   4.637
 8823SOL    HW335612   6.910   1.380   4.759
 8823SOL    MW435613   6.943   1.394   4.678
 8824SOL     OW35614   6.869   1.333   4.940
 8824SOL    HW235615   6.880   1.300   5.029
 8824SOL    HW335616   6.788   1.292   4.909
 8824SOL    MW435617   6.859   1.325   4.946
 8825SOL     OW35618   5.882   0.691   4.710
 8825SOL    HW235619   5.832   0.690   4.791
 8825SOL    HW335620   5.902   0.783   4.694
 8825SOL    MW435621   5.878   0.703   4.718
 8826SOL     OW35622   6.949   1.455   5.472
 8826SOL    HW235623   6.949   1.549   5.488
 8826SOL    HW335624   6.994   1.445   5.388
 8826SOL    MW435625   6.955   1.465   5.463
 8827SOL     OW35626   6.477   0.736   4.147
 8827SOL    HW235627   6.457   0.722   4.054
 8827SOL    HW335628   6.570   0.715   4.154
 8827SOL    MW435629   6.487   0.731   4.136
 8828SOL     OW35630   5.804   0.359   5.451
 8828SOL    HW235631   5.761   0.418   5.388
 8828SOL    HW335632   5.872   0.414   5.491
 8828SOL    MW435633   5.808   0.374   5.448
 8829SOL     OW35634   6.916   0.979   4.996
 8829SOL    HW235635   6.979   0.976   5.069
 8829SOL    HW335636   6.832   0.997   5.038
 8829SOL    MW435637   6.912   0.981   5.011
 8830SOL     OW35638   6.460   1.694   4.185
 8830SOL    HW235639   6.518   1.765   4.212
 8830SOL    HW335640   6.483   1.622   4.243
 8830SOL    MW435641   6.471   1.694   4.196
 8831SOL     OW35642   7.340   1.192   4.494
 8831SOL    HW235643   7.319   1.138   4.417
 8831SOL    HW335644   7.436   1.190   4.498
 8831SOL    MW435645   7.349   1.185   4.483
 8832SOL     OW35646   6.032   1.337   5.237
 8832SOL    HW235647   5.953   1.287   5.260
 8832SOL    HW335648   6.102   1.296   5.287
 8832SOL    MW435649   6.030   1.325   5.247
 8833SOL     OW35650   7.040   0.623   4.756
 8833SOL    HW235651   6.963   0.669   4.722
 8833SOL    HW335652   7.097   0.692   4.790
 8833SOL    MW435653   7.037   0.638   4.756
 8834SOL     OW35654   5.706   1.482   3.958
 8834SOL    HW235655   5.723   1.566   4.000
 8834SOL    HW335656   5.741   1.491   3.870
 8834SOL    MW435657   5.711   1.495   3.952
 8835SOL     OW35658   6.978   1.571   4.175
 8835SOL    HW235659   7.041   1.561   4.104
 8835SOL    HW335660   6.895   1.591   4.130
 8835SOL    MW435661   6.975   1.572   4.160
 8836SOL     OW35662   7.341   0.839   5.862
 8836SOL    HW235663   7.382   0.781   5.927
 8836SOL    HW335664   7.248   0.831   5.879
 8836SOL    MW435665   7.335   0.831   5.872
 8837SOL     OW35666   6.135   1.022   6.091
 8837SOL    HW235667   6.225   0.997   6.075
 8837SOL    HW335668   6.131   1.115   6.068
 8837SOL    MW435669   6.147   1.031   6.086
 8838SOL     OW35670   5.861   0.506   6.032
 8838SOL    HW235671   5.893   0.594   6.014
 8838SOL    HW335672   5.849   0.504   6.127
 8838SOL    MW435673   5.864   0.518   6.044
 8839SOL     OW35674   6.974   1.170   5.810
 8839SOL    HW235675   6.892   1.206   5.776
 8839SOL    HW335676   7.042   1.213   5.759
 8839SOL    MW435677   6.972   1.180   5.798
 8840SOL     OW35678   6.535   0.949   6.286
 8840SOL    HW235679   6.449   0.936   6.326
 8840SOL    HW335680   6.588   0.876   6.318
 8840SOL    MW435681   6.531   0.938   6.295
 8841SOL     OW35682   6.526   1.311   6.003
 8841SOL    HW235683   6.503   1.373   6.071
 8841SOL    HW335684   6.483   1.229   6.029
 8841SOL    MW435685   6.518   1.307   6.014
 8842SOL     OW35686   5.858   1.245   6.008
 8842SOL    HW235687   5.806   1.313   5.964
 8842SOL    HW335688   5.855   1.171   5.948
 8842SOL    MW435689   5.850   1.244   5.995
 8843SOL     OW35690   6.520   1.708   5.786
 8843SOL    HW235691   6.475   1.724   5.869
 8843SOL    HW335692   6.451   1.673   5.728
 8843SOL    MW435693   6.506   1.705   5.788
 8844SOL     OW35694   7.455   0.481   5.761
 8844SOL    HW235695   7.364   0.483   5.789
 8844SOL    HW335696   7.500   0.543   5.819
 8844SOL    MW435697   7.448   0.489   5.771
 8845SOL     OW35698   7.200   1.084   6.111
 8845SOL    HW235699   7.110   1.084   6.146
 8845SOL    HW335700   7.193   1.130   6.028
 8845SOL    MW435701   7.187   1.090   6.105
 8846SOL     OW35702   6.727   0.665   6.072
 8846SOL    HW235703   6.753   0.689   5.983
 8846SOL    HW335704   6.709   0.572   6.068
 8846SOL    MW435705   6.729   0.657   6.059
 8847SOL     OW35706   7.392   1.285   5.923
 8847SOL    HW235707   7.348   1.326   5.998
 8847SOL    HW335708   7.449   1.353   5.888
 8847SOL    MW435709   7.394   1.299   5.928
 8848SOL     OW35710   6.048   1.701   6.241
 8848SOL    HW235711   6.080   1.789   6.219
 8848SOL    HW335712   6.001   1.673   6.163
 8848SOL    MW435713   6.047   1.709   6.228
 8849SOL     OW35714   5.764   1.761   5.818
 8849SOL    HW235715   5.793   1.851   5.810
 8849SOL    HW335716   5.714   1.744   5.739
 8849SOL    MW435717   5.762   1.769   5.807
 8850SOL     OW35718   7.168   1.569   5.789
 8850SOL    HW235719   7.216   1.638   5.835
 8850SOL    HW335720   7.089   1.613   5.758
 8850SOL    MW435721   7.163   1.583   5.792
 8851SOL     OW35722   6.566   0.694   5.733
 8851SOL    HW235723   6.568   0.641   5.654
 8851SOL    HW335724   6.654   0.731   5.739
 8851SOL    MW435725   6.578   0.693   5.722
 8852SOL     OW35726   7.180   0.620   6.069
 8852SOL    HW235727   7.219   0.620   6.156
 8852SOL    HW335728   7.121   0.696   6.069
 8852SOL    MW435729   7.177   0.631   6.080
 8853SOL     OW35730   6.736   1.313   5.825
 8853SOL    HW235731   6.686   1.315   5.907
 8853SOL    HW335732   6.670   1.331   5.757
 8853SOL    MW435733   6.722   1.315   5.827
 8854SOL     OW35734   6.199   1.731   5.933
 8854SOL    HW235735   6.120   1.689   5.966
 8854SOL    HW335736   6.265   1.714   6.000
 8854SOL    MW435737   6.198   1.723   5.946
 8855SOL     OW35738   6.335   1.146   5.640
 8855SOL    HW235739   6.257   1.092   5.627
 8855SOL    HW335740   6.306   1.219   5.693
 8855SOL    MW435741   6.321   1.148   5.645
 8856SOL     OW35742   6.916   1.662   5.708
 8856SOL    HW235743   6.842   1.625   5.758
 8856SOL    HW335744   6.924   1.752   5.741
 8856SOL    MW435745   6.907   1.669   5.720
 8857SOL     OW35746   7.140   1.336   5.650
 8857SOL    HW235747   7.087   1.385   5.586
 8857SOL    HW335748   7.171   1.402   5.711
 8857SOL    MW435749   7.138   1.350   5.648
 8858SOL     OW35750   5.734   1.477   6.201
 8858SOL    HW235751   5.706   1.516   6.283
 8858SOL    HW335752   5.754   1.386   6.223
 8858SOL    MW435753   5.732   1.469   6.214
 8859SOL     OW35754   6.567   1.520   6.236
 8859SOL    HW235755   6.650   1.474   6.220
 8859SOL    HW335756   6.557   1.519   6.332
 8859SOL    MW435757   6.577   1.513   6.246
 8860SOL     OW35758   6.300   1.577   5.641
 8860SOL    HW235759   6.240   1.646   5.611
 8860SOL    HW335760   6.245   1.519   5.694
 8860SOL    MW435761   6.284   1.579   5.643
 8861SOL     OW35762   5.931   1.621   6.030
 8861SOL    HW235763   5.892   1.668   5.956
 8861SOL    HW335764   5.865   1.556   6.055
 8861SOL    MW435765   5.918   1.619   6.024
 8862SOL     OW35766   6.423   1.030   6.054
 8862SOL    HW235767   6.425   1.004   5.961
 8862SOL    HW335768   6.481   0.967   6.097
 8862SOL    MW435769   6.431   1.019   6.048
 8863SOL     OW35770   7.086   0.934   5.864
 8863SOL    HW235771   7.053   1.023   5.854
 8863SOL    HW335772   7.051   0.905   5.949
 8863SOL    MW435773   7.076   0.943   5.875
 8864SOL     OW35774   6.080   0.972   5.656
 8864SOL    HW235775   6.003   0.985   5.712
 8864SOL    HW335776   6.044   0.936   5.575
 8864SOL    MW435777   6.066   0.968   5.653
 8865SOL     OW35778   6.733   0.945   5.899
 8865SOL    HW235779   6.643   0.966   5.874
 8865SOL    HW335780   6.760   1.018   5.955
 8865SOL    MW435781   6.725   0.957   5.902
 8866SOL     OW35782   6.120   1.301   6.055
 8866SOL    HW235783   6.113   1.333   6.145
 8866SOL    HW335784   6.030   1.285   6.027
 8866SOL    MW435785   6.108   1.303   6.062
 8867SOL     OW35786   6.123   0.585   5.769
 8867SOL    HW235787   6.089   0.641   5.839
 8867SOL    HW335788   6.194   0.535   5.809
 8867SOL    MW435789   6.129   0.586   5.783
 8868SOL     OW35790   7.179   0.471   5.833
 8868SOL    HW235791   7.171   0.542   5.770
 8868SOL    HW335792   7.197   0.515   5.916
 8868SOL    MW435793   7.180   0.485   5.835
 8869SOL     OW35794   6.039   0.126   6.262
 8869SOL    HW235795   6.089   0.169   6.193
 8869SOL    HW335796   5.954   0.170   6.262
 8869SOL    MW435797   6.036   0.139   6.253
 8870SOL     OW35798   6.848   0.733   5.808
 8870SOL    HW235799   6.895   0.751   5.727
 8870SOL    HW335800   6.814   0.817   5.836
 8870SOL    MW435801   6.850   0.747   5.801
 8871SOL     OW35802   7.101   0.263   6.139
 8871SOL    HW235803   7.023   0.213   6.164
 8871SOL    HW335804   7.072   0.354   6.139
 8871SOL    MW435805   7.087   0.267   6.142
 8872SOL     OW35806   6.583   1.475   5.630
 8872SOL    HW235807   6.610   1.553   5.582
 8872SOL    HW335808   6.490   1.490   5.649
 8872SOL    MW435809   6.574   1.488   5.626
 8873SOL     OW35810   5.623   0.637   6.021
 8873SOL    HW235811   5.563   0.609   6.091
 8873SOL    HW335812   5.697   0.577   6.027
 8873SOL    MW435813   5.625   0.626   6.030
 8874SOL     OW35814   6.991   0.810   6.095
 8874SOL    HW235815   6.906   0.780   6.065
 8874SOL    HW335816   6.983   0.817   6.190
 8874SOL    MW435817   6.979   0.808   6.104
 8875SOL     OW35818   6.364   0.476   5.821
 8875SOL    HW235819   6.437   0.525   5.784
 8875SOL    HW335820   6.380   0.385   5.795
 8875SOL    MW435821   6.376   0.471   5.814
 8876SOL     OW35822   5.839   0.985   5.919
 8876SOL    HW235823   5.776   1.001   5.848
 8876SOL    HW335824   5.786   0.948   5.990
 8876SOL    MW435825   5.824   0.982   5.919
 8877SOL     OW35826   6.195   1.339   5.778
 8877SOL    HW235827   6.210   1.315   5.870
 8877SOL    HW335828   6.103   1.317   5.762
 8877SOL    MW435829   6.185   1.332   5.788
 8878SOL     OW35830   6.734   1.570   5.930
 8878SOL    HW235831   6.742   1.488   5.881
 8878SOL    HW335832   6.653   1.609   5.897
 8878SOL    MW435833   6.724   1.565   5.920
 8879SOL     OW35834   6.706   0.392   6.100
 8879SOL    HW235835   6.728   0.329   6.032
 8879SOL    HW335836   6.611   0.384   6.111
 8879SOL    MW435837   6.696   0.383   6.092
 8880SOL     OW35838   7.360   1.456   6.132
 8880SOL    HW235839   7.330   1.389   6.193
 8880SOL    HW335840   7.454   1.462   6.146
 8880SOL    MW435841   7.368   1.448   6.142
 8881SOL     OW35842   6.916   1.133   6.062
 8881SOL    HW235843   6.888   1.219   6.095
 8881SOL    HW335844   6.944   1.149   5.972
 8881SOL    MW435845   6.916   1.147   6.054
 8882SOL     OW35846   5.999   0.744   6.011
 8882SOL    HW235847   5.999   0.839   5.996
 8882SOL    HW335848   6.076   0.728   6.065
 8882SOL    MW435849   6.009   0.755   6.016
 8883SOL     OW35850   7.305   1.815   5.832
 8883SOL    HW235851   7.372   1.848   5.772
 8883SOL    HW335852   7.262   1.894   5.866
 8883SOL    MW435853   7.307   1.830   5.828
 8884SOL     OW35854   5.627   1.047   5.758
 8884SOL    HW235855   5.596   1.112   5.821
 8884SOL    HW335856   5.576   0.969   5.777
 8884SOL    MW435857   5.617   1.044   5.768
 8885SOL     OW35858   6.211   1.847   5.700
 8885SOL    HW235859   6.116   1.847   5.692
 8885SOL    HW335860   6.227   1.793   5.778
 8885SOL    MW435861   6.201   1.841   5.709
 8886SOL     OW35862   7.056   0.667   5.615
 8886SOL    HW235863   6.984   0.643   5.557
 8886SOL    HW335864   7.122   0.704   5.557
 8886SOL    MW435865   7.055   0.669   5.600
 8887SOL     OW35866   6.451   0.564   6.426
 8887SOL    HW235867   6.391   0.582   6.498
 8887SOL    HW335868   6.485   0.476   6.445
 8887SOL    MW435869   6.447   0.554   6.439
 8888SOL     OW35870   6.469   0.967   5.800
 8888SOL    HW235871   6.455   0.879   5.765
 8888SOL    HW335872   6.420   1.024   5.741
 8888SOL    MW435873   6.461   0.962   5.788
 8889SOL     OW35874   6.477   0.736   6.016
 8889SOL    HW235875   6.457   0.722   5.923
 8889SOL    HW335876   6.570   0.715   6.023
 8889SOL    MW435877   6.487   0.731   6.005
 8890SOL     OW35878   6.460   1.694   6.054
 8890SOL    HW235879   6.518   1.765   6.081
 8890SOL    HW335880   6.483   1.622   6.112
 8890SOL    MW435881   6.471   1.694   6.065
 8891SOL     OW35882   5.706   1.482   5.827
 8891SOL    HW235883   5.723   1.566   5.869
 8891SOL    HW335884   5.741   1.491   5.739
 8891SOL    MW435885   5.711   1.495   5.821
 8892SOL     OW35886   6.978   1.571   6.044
 8892SOL    HW235887   7.041   1.561   5.973
 8892SOL    HW335888   6.895   1.591   5.999
 8892SOL    MW435889   6.975   1.572   6.029
 8893SOL     OW35890   7.207   2.639   1.252
 8893SOL    HW235891   7.162   2.706   1.303
 8893SOL    HW335892   7.295   2.675   1.238
 8893SOL    MW435893   7.213   2.652   1.256
 8894SOL     OW35894   6.135   2.890   0.486
 8894SOL    HW235895   6.225   2.865   0.470
 8894SOL    HW335896   6.131   2.983   0.463
 8894SOL    MW435897   6.147   2.899   0.481
 8895SOL     OW35898   7.251   3.593   0.628
 8895SOL    HW235899   7.263   3.539   0.706
 8895SOL    HW335900   7.288   3.541   0.557
 8895SOL    MW435901   7.257   3.578   0.629
 8896SOL     OW35902   6.630   3.478   1.629
 8896SOL    HW235903   6.671   3.514   1.550
 8896SOL    HW335904   6.665   3.389   1.636
 8896SOL    MW435905   6.641   3.471   1.620
 8897SOL     OW35906   7.187   3.033   1.233
 8897SOL    HW235907   7.108   2.998   1.191
 8897SOL    HW335908   7.214   3.105   1.177
 8897SOL    MW435909   7.180   3.038   1.220
 8898SOL     OW35910   6.419   2.346   0.499
 8898SOL    HW235911   6.394   2.434   0.527
 8898SOL    HW335912   6.416   2.349   0.403
 8898SOL    MW435913   6.415   2.358   0.491
 8899SOL     OW35914   5.861   2.374   0.427
 8899SOL    HW235915   5.893   2.462   0.409
 8899SOL    HW335916   5.849   2.372   0.522
 8899SOL    MW435917   5.864   2.386   0.439
 8900SOL     OW35918   5.939   2.787   1.328
 8900SOL    HW235919   6.002   2.734   1.279
 8900SOL    HW335920   5.920   2.861   1.271
 8900SOL    MW435921   5.945   2.789   1.315
 8901SOL     OW35922   6.260   2.129   0.514
 8901SOL    HW235923   6.318   2.205   0.516
 8901SOL    HW335924   6.195   2.150   0.447
 8901SOL    MW435925   6.259   2.141   0.505
 8902SOL     OW35926   6.347   3.056   0.689
 8902SOL    HW235927   6.427   3.059   0.741
 8902SOL    HW335928   6.375   3.023   0.603
 8902SOL    MW435929   6.361   3.052   0.684
 8903SOL     OW35930   6.372   3.397   1.592
 8903SOL    HW235931   6.456   3.423   1.631
 8903SOL    HW335932   6.396   3.341   1.518
 8903SOL    MW435933   6.386   3.393   1.587
 8904SOL     OW35934   6.124   2.560   0.680
 8904SOL    HW235935   6.109   2.480   0.731
 8904SOL    HW335936   6.206   2.595   0.714
 8904SOL    MW435937   6.132   2.552   0.692
 8905SOL     OW35938   6.461   3.246   1.365
 8905SOL    HW235939   6.425   3.312   1.305
 8905SOL    HW335940   6.389   3.184   1.378
 8905SOL    MW435941   6.447   3.246   1.359
 8906SOL     OW35942   6.266   2.386   1.057
 8906SOL    HW235943   6.172   2.382   1.075
 8906SOL    HW335944   6.296   2.295   1.066
 8906SOL    MW435945   6.257   2.374   1.060
 8907SOL     OW35946   6.012   2.800   0.961
 8907SOL    HW235947   5.967   2.807   0.877
 8907SOL    HW335948   5.992   2.883   1.005
 8907SOL    MW435949   6.004   2.812   0.955
 8908SOL     OW35950   5.709   3.646   0.836
 8908SOL    HW235951   5.798   3.638   0.871
 8908SOL    HW335952   5.673   3.558   0.841
 8908SOL    MW435953   5.716   3.633   0.841
 8909SOL     OW35954   5.973   3.173   0.871
 8909SOL    HW235955   5.949   3.226   0.947
 8909SOL    HW335956   6.029   3.231   0.819
 8909SOL    MW435957   5.977   3.188   0.874
 8910SOL     OW35958   6.535   2.817   0.681
 8910SOL    HW235959   6.449   2.804   0.721
 8910SOL    HW335960   6.588   2.744   0.713
 8910SOL    MW435961   6.531   2.806   0.690
 8911SOL     OW35962   5.943   3.469   1.466
 8911SOL    HW235963   5.851   3.445   1.451
 8911SOL    HW335964   5.987   3.386   1.483
 8911SOL    MW435965   5.937   3.454   1.465
 8912SOL     OW35966   6.526   3.179   0.398
 8912SOL    HW235967   6.503   3.241   0.466
 8912SOL    HW335968   6.483   3.097   0.424
 8912SOL    MW435969   6.518   3.175   0.409
 8913SOL     OW35970   7.399   2.180   0.854
 8913SOL    HW235971   7.336   2.160   0.923
 8913SOL    HW335972   7.389   2.109   0.791
 8913SOL    MW435973   7.389   2.167   0.855
 8914SOL     OW35974   7.200   2.952   0.506
 8914SOL    HW235975   7.110   2.952   0.541
 8914SOL    HW335976   7.193   2.998   0.423
 8914SOL    MW435977   7.187   2.958   0.500
 8915SOL     OW35978   7.000   2.587   1.578
 8915SOL    HW235979   7.069   2.525   1.555
 8915SOL    HW335980   6.925   2.561   1.525
 8915SOL    MW435981   7.000   2.574   1.569
 8916SOL     OW35982   5.741   3.467   1.130
 8916SOL    HW235983   5.724   3.413   1.207
 8916SOL    HW335984   5.729   3.557   1.160
 8916SOL    MW435985   5.738   3.471   1.144
 8917SOL     OW35986   6.736   2.974   1.570
 8917SOL    HW235987   6.721   3.067   1.555
 8917SOL    HW335988   6.831   2.964   1.570
 8917SOL    MW435989   6.745   2.984   1.567
 8918SOL     OW35990   6.532   2.398   1.771
 8918SOL    HW235991   6.622   2.399   1.738
 8918SOL    HW335992   6.491   2.323   1.729
 8918SOL    MW435993   6.538   2.388   1.762
 8919SOL     OW35994   7.107   2.930   0.898
 8919SOL    HW235995   7.110   2.864   0.829
 8919SOL    HW335996   7.192   2.973   0.894
 8919SOL    MW435997   7.119   2.926   0.889
 8920SOL     OW35998   6.727   2.533   0.467
 8920SOL    HW235999   6.753   2.557   0.378
 8920SOL    HW336000   6.709   2.440   0.463
 8920SOL    MW436001   6.729   2.525   0.454
 8921SOL     OW36002   6.312   2.202   1.721
 8921SOL    HW236003   6.322   2.128   1.661
 8921SOL    HW336004   6.348   2.171   1.804
 8921SOL    MW436005   6.318   2.188   1.723
 8922SOL     OW36006   6.048   3.569   0.636
 8922SOL    HW236007   6.080   3.657   0.614
 8922SOL    HW336008   6.001   3.541   0.558
 8922SOL    MW436009   6.047   3.577   0.623
 8923SOL     OW36010   7.432   1.931   0.685
 8923SOL    HW236011   7.486   1.882   0.747
 8923SOL    HW336012   7.375   1.865   0.646
 8923SOL    MW436013   7.432   1.915   0.687
 8924SOL     OW36014   6.551   1.884   1.098
 8924SOL    HW236015   6.510   1.962   1.060
 8924SOL    HW336016   6.645   1.902   1.093
 8924SOL    MW436017   6.557   1.896   1.093
 8925SOL     OW36018   7.180   2.488   0.464
 8925SOL    HW236019   7.219   2.488   0.551
 8925SOL    HW336020   7.121   2.564   0.464
 8925SOL    MW436021   7.177   2.499   0.475
 8926SOL     OW36022   6.497   2.855   1.593
 8926SOL    HW236023   6.474   2.835   1.683
 8926SOL    HW336024   6.582   2.899   1.598
 8926SOL    MW436025   6.504   2.858   1.605
 8927SOL     OW36026   6.577   1.992   1.353
 8927SOL    HW236027   6.583   1.954   1.266
 8927SOL    HW336028   6.566   2.086   1.338
 8927SOL    MW436029   6.578   2.000   1.341
 8928SOL     OW36030   6.666   2.481   1.187
 8928SOL    HW236031   6.741   2.510   1.134
 8928SOL    HW336032   6.598   2.546   1.171
 8928SOL    MW436033   6.667   2.493   1.177
 8929SOL     OW36034   7.216   2.449   1.464
 8929SOL    HW236035   7.197   2.358   1.443
 8929SOL    HW336036   7.194   2.498   1.385
 8929SOL    MW436037   7.211   2.442   1.451
 8930SOL     OW36038   7.358   3.543   1.368
 8930SOL    HW236039   7.286   3.505   1.419
 8930SOL    HW336040   7.375   3.628   1.409
 8930SOL    MW436041   7.352   3.548   1.380
 8931SOL     OW36042   6.663   2.187   1.570
 8931SOL    HW236043   6.629   2.226   1.489
 8931SOL    HW336044   6.641   2.095   1.563
 8931SOL    MW436045   6.656   2.180   1.560
 8932SOL     OW36046   7.072   3.001   1.646
 8932SOL    HW236047   7.154   3.042   1.676
 8932SOL    HW336048   7.035   2.963   1.726
 8932SOL    MW436049   7.078   3.002   1.661
 8933SOL     OW36050   7.367   2.374   0.630
 8933SOL    HW236051   7.456   2.343   0.647
 8933SOL    HW336052   7.310   2.314   0.678
 8933SOL    MW436053   7.370   2.362   0.639
 8934SOL     OW36054   5.793   2.088   0.659
 8934SOL    HW236055   5.784   2.028   0.585
 8934SOL    HW336056   5.726   2.059   0.722
 8934SOL    MW436057   5.783   2.075   0.657
 8935SOL     OW36058   5.740   2.261   1.022
 8935SOL    HW236059   5.712   2.352   1.031
 8935SOL    HW336060   5.677   2.222   0.961
 8935SOL    MW436061   5.727   2.267   1.016
 8936SOL     OW36062   6.199   3.599   0.328
 8936SOL    HW236063   6.120   3.557   0.361
 8936SOL    HW336064   6.265   3.582   0.395
 8936SOL    MW436065   6.198   3.591   0.341
 8937SOL     OW36066   7.327   3.119   1.725
 8937SOL    HW236067   7.377   3.045   1.757
 8937SOL    HW336068   7.273   3.146   1.800
 8937SOL    MW436069   7.327   3.113   1.738
 8938SOL     OW36070   7.461   2.754   1.227
 8938SOL    HW236071   7.477   2.792   1.140
 8938SOL    HW336072   7.495   2.820   1.288
 8938SOL    MW436073   7.468   2.767   1.223
 8939SOL     OW36074   7.253   3.463   0.896
 8939SOL    HW236075   7.282   3.530   0.957
 8939SOL    HW336076   7.234   3.387   0.951
 8939SOL    MW436077   7.255   3.463   0.911
 8940SOL     OW36078   5.724   2.536   1.192
 8940SOL    HW236079   5.786   2.566   1.258
 8940SOL    HW336080   5.658   2.605   1.186
 8940SOL    MW436081   5.723   2.549   1.199
 8941SOL     OW36082   5.819   3.645   1.644
 8941SOL    HW236083   5.793   3.713   1.582
 8941SOL    HW336084   5.867   3.582   1.592
 8941SOL    MW436085   5.821   3.645   1.630
 8942SOL     OW36086   5.871   2.964   1.151
 8942SOL    HW236087   5.924   3.039   1.176
 8942SOL    HW336088   5.790   3.002   1.117
 8942SOL    MW436089   5.867   2.979   1.151
 8943SOL     OW36090   6.411   2.868   1.139
 8943SOL    HW236091   6.439   2.777   1.151
 8943SOL    HW336092   6.340   2.862   1.075
 8943SOL    MW436093   6.404   2.856   1.134
 8944SOL     OW36094   5.726   2.733   0.557
 8944SOL    HW236095   5.817   2.748   0.584
 8944SOL    HW336096   5.729   2.654   0.503
 8944SOL    MW436097   5.738   2.725   0.555
 8945SOL     OW36098   5.962   2.441   1.811
 8945SOL    HW236099   5.909   2.521   1.818
 8945SOL    HW336100   6.032   2.453   1.876
 8945SOL    MW436101   5.964   2.454   1.819
 8946SOL     OW36102   6.348   1.991   1.518
 8946SOL    HW236103   6.325   1.899   1.520
 8946SOL    HW336104   6.434   1.993   1.475
 8946SOL    MW436105   6.355   1.981   1.514
 8947SOL     OW36106   6.032   2.515   1.557
 8947SOL    HW236107   6.112   2.565   1.543
 8947SOL    HW336108   6.023   2.509   1.652
 8947SOL    MW436109   6.041   2.521   1.567
 8948SOL     OW36110   6.353   3.665   0.931
 8948SOL    HW236111   6.442   3.680   0.961
 8948SOL    HW336112   6.348   3.712   0.847
 8948SOL    MW436113   6.363   3.673   0.924
 8949SOL     OW36114   7.009   2.040   1.828
 8949SOL    HW236115   7.065   1.967   1.854
 8949SOL    HW336116   6.979   2.078   1.910
 8949SOL    MW436117   7.013   2.035   1.841
 8950SOL     OW36118   5.734   3.345   0.596
 8950SOL    HW236119   5.706   3.384   0.678
 8950SOL    HW336120   5.754   3.254   0.618
 8950SOL    MW436121   5.732   3.337   0.609
 8951SOL     OW36122   6.567   3.388   0.631
 8951SOL    HW236123   6.650   3.342   0.615
 8951SOL    HW336124   6.557   3.387   0.727
 8951SOL    MW436125   6.577   3.381   0.641
 8952SOL     OW36126   7.399   2.533   0.945
 8952SOL    HW236127   7.488   2.563   0.927
 8952SOL    HW336128   7.379   2.473   0.874
 8952SOL    MW436129   7.408   2.530   0.934
 8953SOL     OW36130   7.250   2.712   1.825
 8953SOL    HW236131   7.305   2.636   1.806
 8953SOL    HW336132   7.252   2.720   1.920
 8953SOL    MW436133   7.258   2.703   1.833
 8954SOL     OW36134   6.545   2.274   1.344
 8954SOL    HW236135   6.464   2.315   1.372
 8954SOL    HW336136   6.592   2.342   1.296
 8954SOL    MW436137   6.540   2.289   1.342
 8955SOL     OW36138   6.805   2.612   0.967
 8955SOL    HW236139   6.818   2.706   0.977
 8955SOL    HW336140   6.766   2.602   0.881
 8955SOL    MW436141   6.801   2.623   0.957
 8956SOL     OW36142   6.257   2.807   0.771
 8956SOL    HW236143   6.168   2.798   0.804
 8956SOL    HW336144   6.261   2.897   0.739
 8956SOL    MW436145   6.246   2.818   0.771
 8957SOL     OW36146   7.056   2.390   0.766
 8957SOL    HW236147   7.001   2.311   0.765
 8957SOL    HW336148   7.038   2.431   0.850
 8957SOL    MW436149   7.046   2.385   0.775
 8958SOL     OW36150   6.027   2.077   1.583
 8958SOL    HW236151   5.948   2.095   1.635
 8958SOL    HW336152   6.022   2.139   1.510
 8958SOL    MW436153   6.017   2.087   1.580
 8959SOL     OW36154   6.675   2.594   0.723
 8959SOL    HW236155   6.612   2.526   0.747
 8959SOL    HW336156   6.695   2.575   0.631
 8959SOL    MW436157   6.669   2.581   0.715
 8960SOL     OW36158   5.931   3.489   0.425
 8960SOL    HW236159   5.892   3.536   0.351
 8960SOL    HW336160   5.865   3.424   0.450
 8960SOL    MW436161   5.918   3.487   0.419
 8961SOL     OW36162   6.976   3.458   1.221
 8961SOL    HW236163   6.901   3.504   1.259
 8961SOL    HW336164   6.958   3.365   1.238
 8961SOL    MW436165   6.965   3.452   1.229
 8962SOL     OW36166   6.980   3.666   0.651
 8962SOL    HW236167   6.923   3.619   0.590
 8962SOL    HW336168   7.066   3.627   0.638
 8962SOL    MW436169   6.983   3.657   0.641
 8963SOL     OW36170   6.933   2.142   0.782
 8963SOL    HW236171   6.961   2.074   0.843
 8963SOL    HW336172   6.847   2.113   0.752
 8963SOL    MW436173   6.926   2.129   0.786
 8964SOL     OW36174   5.738   3.076   0.716
 8964SOL    HW236175   5.802   3.108   0.779
 8964SOL    HW336176   5.787   3.012   0.664
 8964SOL    MW436177   5.753   3.072   0.717
 8965SOL     OW36178   6.238   3.152   1.698
 8965SOL    HW236179   6.286   3.235   1.685
 8965SOL    HW336180   6.295   3.100   1.754
 8965SOL    MW436181   6.252   3.156   1.704
 8966SOL     OW36182   5.814   3.394   1.838
 8966SOL    HW236183   5.870   3.318   1.853
 8966SOL    HW336184   5.763   3.372   1.760
 8966SOL    MW436185   5.814   3.381   1.829
 8967SOL     OW36186   7.086   2.802   0.259
 8967SOL    HW236187   7.053   2.891   0.249
 8967SOL    HW336188   7.051   2.773   0.344
 8967SOL    MW436189   7.076   2.811   0.270
 8968SOL     OW36190   6.699   3.231   1.447
 8968SOL    HW236191   6.610   3.237   1.415
 8968SOL    HW336192   6.743   3.310   1.415
 8968SOL    MW436193   6.694   3.241   1.439
 8969SOL     OW36194   5.992   1.899   1.789
 8969SOL    HW236195   5.920   1.864   1.737
 8969SOL    HW336196   6.050   1.940   1.724
 8969SOL    MW436197   5.990   1.900   1.774
 8970SOL     OW36198   6.016   3.389   1.088
 8970SOL    HW236199   6.061   3.451   1.145
 8970SOL    HW336200   5.923   3.408   1.101
 8970SOL    MW436201   6.009   3.399   1.095
 8971SOL     OW36202   7.456   2.918   1.442
 8971SOL    HW236203   7.371   2.931   1.401
 8971SOL    HW336204   7.436   2.882   1.529
 8971SOL    MW436205   7.443   2.914   1.447
 8972SOL     OW36206   6.438   3.457   1.196
 8972SOL    HW236207   6.462   3.446   1.105
 8972SOL    HW336208   6.361   3.514   1.194
 8972SOL    MW436209   6.430   3.462   1.185
 8973SOL     OW36210   6.733   2.813   0.294
 8973SOL    HW236211   6.643   2.834   0.269
 8973SOL    HW336212   6.760   2.886   0.350
 8973SOL    MW436213   6.725   2.825   0.297
 8974SOL     OW36214   6.233   3.162   0.986
 8974SOL    HW236215   6.226   3.141   1.080
 8974SOL    HW336216   6.151   3.130   0.949
 8974SOL    MW436217   6.221   3.156   0.993
 8975SOL     OW36218   7.097   2.172   1.388
 8975SOL    HW236219   7.044   2.174   1.468
 8975SOL    HW336220   7.082   2.085   1.351
 8975SOL    MW436221   7.089   2.162   1.393
 8976SOL     OW36222   7.433   2.096   1.261
 8976SOL    HW236223   7.414   2.163   1.196
 8976SOL    HW336224   7.490   2.034   1.216
 8976SOL    MW436225   7.437   2.097   1.247
 8977SOL     OW36226   5.679   3.254   1.649
 8977SOL    HW236227   5.723   3.187   1.595
 8977SOL    HW336228   5.594   3.216   1.669
 8977SOL    MW436229   5.674   3.240   1.645
 8978SOL     OW36230   6.362   1.929   0.701
 8978SOL    HW236231   6.291   1.990   0.683
 8978SOL    HW336232   6.413   1.926   0.620
 8978SOL    MW436233   6.358   1.935   0.688
 8979SOL     OW36234   6.120   3.169   0.450
 8979SOL    HW236235   6.113   3.201   0.540
 8979SOL    HW336236   6.030   3.153   0.422
 8979SOL    MW436237   6.108   3.171   0.457
 8980SOL     OW36238   6.715   3.562   1.359
 8980SOL    HW236239   6.635   3.547   1.309
 8980SOL    HW336240   6.722   3.657   1.366
 8980SOL    MW436241   6.706   3.573   1.353
 8981SOL     OW36242   6.829   3.527   0.849
 8981SOL    HW236243   6.876   3.600   0.808
 8981SOL    HW336244   6.750   3.566   0.885
 8981SOL    MW436245   6.824   3.542   0.848
 8982SOL     OW36246   7.237   3.622   1.124
 8982SOL    HW236247   7.280   3.592   1.204
 8982SOL    HW336248   7.156   3.570   1.121
 8982SOL    MW436249   7.232   3.611   1.134
 8983SOL     OW36250   6.322   2.586   1.831
 8983SOL    HW236251   6.392   2.528   1.803
 8983SOL    HW336252   6.265   2.531   1.886
 8983SOL    MW436253   6.324   2.573   1.835
 8984SOL     OW36254   7.109   2.798   1.464
 8984SOL    HW236255   7.114   2.851   1.544
 8984SOL    HW336256   7.071   2.715   1.492
 8984SOL    MW436257   7.105   2.793   1.479
 8985SOL     OW36258   6.749   1.933   1.710
 8985SOL    HW236259   6.744   1.840   1.691
 8985SOL    HW336260   6.832   1.944   1.756
 8985SOL    MW436261   6.757   1.922   1.714
 8986SOL     OW36262   7.219   3.204   0.986
 8986SOL    HW236263   7.254   3.186   0.899
 8986SOL    HW336264   7.124   3.205   0.973
 8986SOL    MW436265   7.211   3.201   0.973
 8987SOL     OW36266   6.648   2.852   1.355
 8987SOL    HW236267   6.691   2.887   1.433
 8987SOL    HW336268   6.631   2.929   1.301
 8987SOL    MW436269   6.651   2.867   1.358
 8988SOL     OW36270   6.039   1.994   0.657
 8988SOL    HW236271   6.089   2.037   0.588
 8988SOL    HW336272   5.954   2.038   0.657
 8988SOL    MW436273   6.036   2.007   0.648
 8989SOL     OW36274   5.798   3.056   1.517
 8989SOL    HW236275   5.826   3.009   1.595
 8989SOL    HW336276   5.719   3.011   1.488
 8989SOL    MW436277   5.791   3.045   1.523
 8990SOL     OW36278   6.306   2.383   1.484
 8990SOL    HW236279   6.278   2.471   1.508
 8990SOL    HW336280   6.275   2.327   1.555
 8990SOL    MW436281   6.298   2.386   1.496
 8991SOL     OW36282   5.961   2.779   0.697
 8991SOL    HW236283   6.019   2.835   0.645
 8991SOL    HW336284   6.005   2.694   0.699
 8991SOL    MW436285   5.974   2.776   0.690
 8992SOL     OW36286   7.101   2.131   0.534
 8992SOL    HW236287   7.023   2.081   0.559
 8992SOL    HW336288   7.072   2.222   0.534
 8992SOL    MW436289   7.087   2.135   0.537
 8993SOL     OW36290   6.687   2.093   0.693
 8993SOL    HW236291   6.707   2.168   0.637
 8993SOL    HW336292   6.667   2.132   0.778
 8993SOL    MW436293   6.688   2.109   0.697
 8994SOL     OW36294   7.447   2.866   1.712
 8994SOL    HW236295   7.360   2.846   1.748
 8994SOL    HW336296   7.501   2.792   1.737
 8994SOL    MW436297   7.442   2.855   1.720
 8995SOL     OW36298   5.668   3.379   0.869
 8995SOL    HW236299   5.700   3.383   0.960
 8995SOL    HW336300   5.573   3.387   0.877
 8995SOL    MW436301   5.660   3.382   0.882
 8996SOL     OW36302   5.623   2.505   0.416
 8996SOL    HW236303   5.563   2.477   0.486
 8996SOL    HW336304   5.697   2.445   0.422
 8996SOL    MW436305   5.625   2.494   0.425
 8997SOL     OW36306   7.191   3.717   1.850
 8997SOL    HW236307   7.236   3.641   1.815
 8997SOL    HW336308   7.229   3.730   1.937
 8997SOL    MW436309   7.201   3.710   1.856
 8998SOL     OW36310   6.791   3.236   0.576
 8998SOL    HW236311   6.814   3.187   0.654
 8998SOL    HW336312   6.872   3.278   0.548
 8998SOL    MW436313   6.804   3.236   0.583
 8999SOL     OW36314   6.049   2.244   1.305
 8999SOL    HW236315   6.082   2.325   1.345
 8999SOL    HW336316   6.022   2.270   1.217
 8999SOL    MW436317   6.048   2.258   1.299
 9000SOL     OW36318   6.003   2.211   1.041
 9000SOL    HW236319   6.033   2.125   1.012
 9000SOL    HW336320   5.908   2.204   1.044
 9000SOL    MW436321   5.995   2.200   1.039
 9001SOL     OW36322   6.832   2.420   1.732
 9001SOL    HW236323   6.884   2.355   1.685
 9001SOL    HW336324   6.790   2.471   1.662
 9001SOL    MW436325   6.833   2.417   1.715
 9002SOL     OW36326   6.931   2.215   1.593
 9002SOL    HW236327   6.838   2.199   1.580
 9002SOL    HW336328   6.957   2.153   1.661
 9002SOL    MW436329   6.921   2.205   1.600
 9003SOL     OW36330   6.146   1.989   0.932
 9003SOL    HW236331   6.156   1.898   0.958
 9003SOL    HW336332   6.102   1.985   0.847
 9003SOL    MW436333   6.142   1.977   0.924
 9004SOL     OW36334   6.240   3.604   1.478
 9004SOL    HW236335   6.157   3.589   1.523
 9004SOL    HW336336   6.299   3.537   1.513
 9004SOL    MW436337   6.238   3.594   1.488
 9005SOL     OW36338   7.297   2.311   1.103
 9005SOL    HW236339   7.230   2.344   1.163
 9005SOL    HW336340   7.340   2.389   1.069
 9005SOL    MW436341   7.295   2.326   1.107
 9006SOL     OW36342   7.475   3.031   1.073
 9006SOL    HW236343   7.468   2.971   0.998
 9006SOL    HW336344   7.401   3.091   1.062
 9006SOL    MW436345   7.465   3.031   1.062
 9007SOL     OW36346   6.857   2.893   0.991
 9007SOL    HW236347   6.871   2.865   1.082
 9007SOL    HW336348   6.943   2.924   0.963
 9007SOL    MW436349   6.870   2.894   1.000
 9008SOL     OW36350   6.940   2.388   1.270
 9008SOL    HW236351   6.961   2.389   1.177
 9008SOL    HW336352   6.985   2.310   1.303
 9008SOL    MW436353   6.947   2.378   1.262
 9009SOL     OW36354   7.433   2.519   1.812
 9009SOL    HW236355   7.470   2.464   1.881
 9009SOL    HW336356   7.458   2.476   1.730
 9009SOL    MW436357   7.440   2.507   1.811
 9010SOL     OW36358   6.980   2.817   1.863
 9010SOL    HW236359   7.046   2.765   1.817
 9010SOL    HW336360   7.000   2.804   1.956
 9010SOL    MW436361   6.991   2.808   1.870
 9011SOL     OW36362   6.991   2.678   0.490
 9011SOL    HW236363   6.906   2.648   0.460
 9011SOL    HW336364   6.983   2.685   0.585
 9011SOL    MW436365   6.979   2.676   0.499
 9012SOL     OW36366   6.067   3.141   1.221
 9012SOL    HW236367   6.079   3.168   1.312
 9012SOL    HW336368   6.048   3.222   1.174
 9012SOL    MW436369   6.066   3.156   1.226
 9013SOL     OW36370   6.351   2.121   1.044
 9013SOL    HW236371   6.324   2.123   1.135
 9013SOL    HW336372   6.281   2.073   0.999
 9013SOL    MW436373   6.339   2.117   1.051
 9014SOL     OW36374   6.205   3.613   1.206
 9014SOL    HW236375   6.257   3.690   1.183
 9014SOL    HW336376   6.214   3.605   1.301
 9014SOL    MW436377   6.214   3.620   1.217
 9015SOL     OW36378   7.107   3.198   1.438
 9015SOL    HW236379   7.092   3.127   1.501
 9015SOL    HW336380   7.153   3.156   1.366
 9015SOL    MW436381   7.113   3.182   1.438
 9016SOL     OW36382   6.181   2.929   1.555
 9016SOL    HW236383   6.218   2.934   1.467
 9016SOL    HW336384   6.220   3.002   1.602
 9016SOL    MW436385   6.191   2.939   1.550
 9017SOL     OW36386   6.361   2.972   1.367
 9017SOL    HW236387   6.420   2.918   1.420
 9017SOL    HW336388   6.376   2.944   1.277
 9017SOL    MW436389   6.371   2.961   1.363
 9018SOL     OW36390   7.172   3.461   1.539
 9018SOL    HW236391   7.214   3.446   1.624
 9018SOL    HW336392   7.163   3.374   1.501
 9018SOL    MW436393   7.176   3.449   1.546
 9019SOL     OW36394   6.832   1.940   1.130
 9019SOL    HW236395   6.887   1.949   1.052
 9019SOL    HW336396   6.887   1.974   1.201
 9019SOL    MW436397   6.846   1.945   1.129
 9020SOL     OW36398   5.993   3.596   0.894
 9020SOL    HW236399   5.997   3.507   0.929
 9020SOL    HW336400   6.019   3.587   0.803
 9020SOL    MW436401   5.996   3.584   0.886
 9021SOL     OW36402   6.610   3.074   1.137
 9021SOL    HW236403   6.542   3.008   1.153
 9021SOL    HW336404   6.628   3.068   1.044
 9021SOL    MW436405   6.603   3.065   1.128
 9022SOL     OW36406   5.699   3.349   1.388
 9022SOL    HW236407   5.689   3.307   1.474
 9022SOL    HW336408   5.620   3.402   1.378
 9022SOL    MW436409   5.688   3.350   1.399
 9023SOL     OW36410   6.603   2.213   0.958
 9023SOL    HW236411   6.533   2.165   1.003
 9023SOL    HW336412   6.635   2.276   1.022
 9023SOL    MW436413   6.598   2.215   0.972
 9024SOL     OW36414   6.254   2.649   1.578
 9024SOL    HW236415   6.247   2.744   1.566
 9024SOL    HW336416   6.263   2.638   1.673
 9024SOL    MW436417   6.255   2.661   1.588
 9025SOL     OW36418   5.975   3.164   1.836
 9025SOL    HW236419   6.047   3.166   1.773
 9025SOL    HW336420   5.945   3.073   1.835
 9025SOL    MW436421   5.980   3.153   1.828
 9026SOL     OW36422   7.059   1.927   1.303
 9026SOL    HW236423   7.130   1.873   1.267
 9026SOL    HW336424   7.058   1.906   1.396
 9026SOL    MW436425   7.068   1.918   1.311
 9027SOL     OW36426   7.259   3.457   1.787
 9027SOL    HW236427   7.232   3.454   1.878
 9027SOL    HW336428   7.355   3.461   1.790
 9027SOL    MW436429   7.269   3.457   1.799
 9028SOL     OW36430   6.070   2.319   0.771
 9028SOL    HW236431   6.141   2.267   0.734
 9028SOL    HW336432   6.056   2.284   0.858
 9028SOL    MW436433   6.078   2.308   0.778
 9029SOL     OW36434   5.625   3.654   1.843
 9029SOL    HW236435   5.675   3.632   1.765
 9029SOL    HW336436   5.633   3.749   1.851
 9029SOL    MW436437   5.633   3.663   1.834
 9030SOL     OW36438   6.386   3.412   0.847
 9030SOL    HW236439   6.314   3.349   0.860
 9030SOL    HW336440   6.347   3.497   0.865
 9030SOL    MW436441   6.370   3.415   0.850
 9031SOL     OW36442   5.622   2.417   1.570
 9031SOL    HW236443   5.686   2.483   1.545
 9031SOL    HW336444   5.541   2.444   1.527
 9031SOL    MW436445   5.620   2.429   1.562
 9032SOL     OW36446   7.360   3.324   0.527
 9032SOL    HW236447   7.330   3.257   0.588
 9032SOL    HW336448   7.454   3.330   0.541
 9032SOL    MW436449   7.368   3.316   0.537
 9033SOL     OW36450   6.916   3.001   0.457
 9033SOL    HW236451   6.888   3.087   0.490
 9033SOL    HW336452   6.944   3.017   0.367
 9033SOL    MW436453   6.916   3.015   0.449
 9034SOL     OW36454   6.578   1.921   0.510
 9034SOL    HW236455   6.615   1.980   0.575
 9034SOL    HW336456   6.555   1.977   0.436
 9034SOL    MW436457   6.579   1.936   0.509
 9035SOL     OW36458   7.431   2.803   0.932
 9035SOL    HW236459   7.422   2.835   0.843
 9035SOL    HW336460   7.384   2.719   0.932
 9035SOL    MW436461   7.424   2.796   0.922
 9036SOL     OW36462   5.807   2.643   1.511
 9036SOL    HW236463   5.828   2.712   1.449
 9036SOL    HW336464   5.887   2.590   1.516
 9036SOL    MW436465   5.820   2.644   1.505
 9037SOL     OW36466   7.343   2.734   0.633
 9037SOL    HW236467   7.437   2.723   0.621
 9037SOL    HW336468   7.319   2.806   0.574
 9037SOL    MW436469   7.353   2.742   0.624
 9038SOL     OW36470   5.792   2.658   1.778
 9038SOL    HW236471   5.718   2.602   1.804
 9038SOL    HW336472   5.787   2.661   1.683
 9038SOL    MW436473   5.781   2.651   1.768
 9039SOL     OW36474   5.958   1.945   1.228
 9039SOL    HW236475   6.001   2.029   1.248
 9039SOL    HW336476   6.031   1.883   1.221
 9039SOL    MW436477   5.973   1.948   1.229
 9040SOL     OW36478   5.999   2.612   0.406
 9040SOL    HW236479   5.999   2.707   0.391
 9040SOL    HW336480   6.076   2.596   0.460
 9040SOL    MW436481   6.009   2.623   0.411
 9041SOL     OW36482   6.775   2.471   1.470
 9041SOL    HW236483   6.811   2.444   1.386
 9041SOL    HW336484   6.688   2.505   1.449
 9041SOL    MW436485   6.769   2.472   1.457
 9042SOL     OW36486   5.758   2.343   0.695
 9042SOL    HW236487   5.820   2.350   0.768
 9042SOL    HW336488   5.758   2.250   0.672
 9042SOL    MW436489   5.766   2.332   0.702
 9043SOL     OW36490   6.440   2.604   1.179
 9043SOL    HW236491   6.398   2.522   1.155
 9043SOL    HW336492   6.441   2.603   1.275
 9043SOL    MW436493   6.433   2.593   1.188
 9044SOL     OW36494   7.111   3.737   1.578
 9044SOL    HW236495   7.114   3.643   1.561
 9044SOL    HW336496   7.134   3.745   1.670
 9044SOL    MW436497   7.114   3.725   1.588
 9045SOL     OW36498   6.244   2.074   1.284
 9045SOL    HW236499   6.175   2.137   1.305
 9045SOL    HW336500   6.271   2.038   1.369
 9045SOL    MW436501   6.238   2.077   1.297
 9046SOL     OW36502   7.039   1.927   0.901
 9046SOL    HW236503   7.127   1.936   0.938
 9046SOL    HW336504   7.049   1.868   0.827
 9046SOL    MW436505   7.053   1.921   0.895
 9047SOL     OW36506   7.071   2.666   0.745
 9047SOL    HW236507   7.151   2.681   0.694
 9047SOL    HW336508   7.064   2.571   0.751
 9047SOL    MW436509   7.080   2.655   0.740
 9048SOL     OW36510   6.521   2.592   1.442
 9048SOL    HW236511   6.590   2.659   1.439
 9048SOL    HW336512   6.454   2.630   1.498
 9048SOL    MW436513   6.522   2.605   1.449
 9049SOL     OW36514   5.939   2.892   1.690
 9049SOL    HW236515   5.893   2.808   1.692
 9049SOL    HW336516   5.996   2.886   1.614
 9049SOL    MW436517   5.941   2.880   1.682
 9050SOL     OW36518   6.190   3.267   0.691
 9050SOL    HW236519   6.255   3.200   0.712
 9050SOL    HW336520   6.242   3.344   0.668
 9050SOL    MW436521   6.205   3.269   0.690
 9051SOL     OW36522   6.451   2.432   0.821
 9051SOL    HW236523   6.391   2.450   0.893
 9051SOL    HW336524   6.485   2.344   0.840
 9051SOL    MW436525   6.447   2.422   0.834
 9052SOL     OW36526   7.392   1.931   1.490
 9052SOL    HW236527   7.313   1.977   1.518
 9052SOL    HW336528   7.427   1.985   1.419
 9052SOL    MW436529   7.386   1.944   1.484
 9053SOL     OW36530   6.676   3.015   0.840
 9053SOL    HW236531   6.768   2.996   0.858
 9053SOL    HW336532   6.649   2.945   0.780
 9053SOL    MW436533   6.684   3.003   0.834
 9054SOL     OW36534   6.469   2.835   0.195
 9054SOL    HW236535   6.455   2.747   0.160
 9054SOL    HW336536   6.420   2.892   0.136
 9054SOL    MW436537   6.461   2.830   0.183
 9055SOL     OW36538   6.950   3.253   0.936
 9055SOL    HW236539   6.923   3.337   0.901
 9055SOL    HW336540   6.910   3.248   1.023
 9055SOL    MW436541   6.943   3.262   0.942
 9056SOL     OW36542   6.869   3.201   1.204
 9056SOL    HW236543   6.880   3.168   1.293
 9056SOL    HW336544   6.788   3.160   1.173
 9056SOL    MW436545   6.859   3.193   1.210
 9057SOL     OW36546   5.882   2.559   0.974
 9057SOL    HW236547   5.832   2.558   1.055
 9057SOL    HW336548   5.902   2.651   0.958
 9057SOL    MW436549   5.878   2.571   0.982
 9058SOL     OW36550   6.949   3.323   1.736
 9058SOL    HW236551   6.949   3.417   1.752
 9058SOL    HW336552   6.994   3.313   1.652
 9058SOL    MW436553   6.955   3.333   1.727
 9059SOL     OW36554   6.477   2.604   0.411
 9059SOL    HW236555   6.457   2.590   0.318
 9059SOL    HW336556   6.570   2.583   0.418
 9059SOL    MW436557   6.487   2.599   0.400
 9060SOL     OW36558   5.804   2.227   1.715
 9060SOL    HW236559   5.761   2.286   1.652
 9060SOL    HW336560   5.872   2.282   1.755
 9060SOL    MW436561   5.808   2.242   1.712
 9061SOL     OW36562   6.916   2.847   1.260
 9061SOL    HW236563   6.979   2.844   1.333
 9061SOL    HW336564   6.832   2.865   1.302
 9061SOL    MW436565   6.912   2.849   1.275
 9062SOL     OW36566   6.460   3.562   0.449
 9062SOL    HW236567   6.518   3.633   0.476
 9062SOL    HW336568   6.483   3.490   0.507
 9062SOL    MW436569   6.471   3.562   0.460
 9063SOL     OW36570   7.255   2.024   1.039
 9063SOL    HW236571   7.300   1.942   1.058
 9063SOL    HW336572   7.275   2.080   1.115
 9063SOL    MW436573   7.265   2.020   1.051
 9064SOL     OW36574   5.703   1.867   1.138
 9064SOL    HW236575   5.694   1.868   1.043
 9064SOL    HW336576   5.797   1.879   1.153
 9064SOL    MW436577   5.715   1.870   1.129
 9065SOL     OW36578   7.340   3.060   0.758
 9065SOL    HW236579   7.319   3.006   0.681
 9065SOL    HW336580   7.436   3.058   0.762
 9065SOL    MW436581   7.349   3.053   0.747
 9066SOL     OW36582   6.032   3.205   1.501
 9066SOL    HW236583   5.953   3.155   1.524
 9066SOL    HW336584   6.102   3.164   1.551
 9066SOL    MW436585   6.030   3.193   1.511
 9067SOL     OW36586   7.040   2.491   1.020
 9067SOL    HW236587   6.963   2.537   0.986
 9067SOL    HW336588   7.097   2.560   1.054
 9067SOL    MW436589   7.037   2.506   1.020
 9068SOL     OW36590   5.706   3.350   0.222
 9068SOL    HW236591   5.723   3.434   0.264
 9068SOL    HW336592   5.741   3.359   0.134
 9068SOL    MW436593   5.711   3.363   0.216
 9069SOL     OW36594   6.978   3.439   0.439
 9069SOL    HW236595   7.041   3.429   0.368
 9069SOL    HW336596   6.895   3.459   0.394
 9069SOL    MW436597   6.975   3.440   0.424
 9070SOL     OW36598   7.341   2.707   2.125
 9070SOL    HW236599   7.382   2.649   2.190
 9070SOL    HW336600   7.248   2.699   2.142
 9070SOL    MW436601   7.335   2.699   2.135
 9071SOL     OW36602   6.135   2.890   2.354
 9071SOL    HW236603   6.225   2.865   2.338
 9071SOL    HW336604   6.131   2.983   2.331
 9071SOL    MW436605   6.147   2.899   2.349
 9072SOL     OW36606   7.251   3.593   2.496
 9072SOL    HW236607   7.263   3.539   2.574
 9072SOL    HW336608   7.288   3.541   2.425
 9072SOL    MW436609   7.257   3.578   2.497
 9073SOL     OW36610   6.630   3.478   3.497
 9073SOL    HW236611   6.671   3.514   3.418
 9073SOL    HW336612   6.665   3.389   3.504
 9073SOL    MW436613   6.641   3.471   3.488
 9074SOL     OW36614   7.187   3.033   3.101
 9074SOL    HW236615   7.108   2.998   3.059
 9074SOL    HW336616   7.214   3.105   3.045
 9074SOL    MW436617   7.180   3.038   3.088
 9075SOL     OW36618   6.419   2.346   2.367
 9075SOL    HW236619   6.394   2.434   2.395
 9075SOL    HW336620   6.416   2.349   2.271
 9075SOL    MW436621   6.415   2.358   2.359
 9076SOL     OW36622   5.861   2.374   2.295
 9076SOL    HW236623   5.893   2.462   2.277
 9076SOL    HW336624   5.849   2.372   2.390
 9076SOL    MW436625   5.864   2.386   2.307
 9077SOL     OW36626   5.939   2.787   3.196
 9077SOL    HW236627   6.002   2.734   3.147
 9077SOL    HW336628   5.920   2.861   3.139
 9077SOL    MW436629   5.945   2.789   3.183
 9078SOL     OW36630   6.260   2.129   2.382
 9078SOL    HW236631   6.318   2.205   2.384
 9078SOL    HW336632   6.195   2.150   2.315
 9078SOL    MW436633   6.259   2.141   2.373
 9079SOL     OW36634   6.347   3.056   2.557
 9079SOL    HW236635   6.427   3.059   2.609
 9079SOL    HW336636   6.375   3.023   2.471
 9079SOL    MW436637   6.361   3.052   2.552
 9080SOL     OW36638   6.372   3.397   3.460
 9080SOL    HW236639   6.456   3.423   3.499
 9080SOL    HW336640   6.396   3.341   3.386
 9080SOL    MW436641   6.386   3.393   3.455
 9081SOL     OW36642   6.124   2.560   2.548
 9081SOL    HW236643   6.109   2.480   2.599
 9081SOL    HW336644   6.206   2.595   2.582
 9081SOL    MW436645   6.132   2.552   2.560
 9082SOL     OW36646   6.461   3.246   3.233
 9082SOL    HW236647   6.425   3.312   3.173
 9082SOL    HW336648   6.389   3.184   3.246
 9082SOL    MW436649   6.447   3.246   3.227
 9083SOL     OW36650   6.266   2.386   2.925
 9083SOL    HW236651   6.172   2.382   2.943
 9083SOL    HW336652   6.296   2.295   2.934
 9083SOL    MW436653   6.257   2.374   2.928
 9084SOL     OW36654   6.012   2.800   2.829
 9084SOL    HW236655   5.967   2.807   2.745
 9084SOL    HW336656   5.992   2.883   2.873
 9084SOL    MW436657   6.004   2.812   2.823
 9085SOL     OW36658   5.709   3.646   2.704
 9085SOL    HW236659   5.798   3.638   2.739
 9085SOL    HW336660   5.673   3.558   2.709
 9085SOL    MW436661   5.716   3.633   2.709
 9086SOL     OW36662   6.974   3.038   2.073
 9086SOL    HW236663   6.892   3.074   2.039
 9086SOL    HW336664   7.042   3.081   2.022
 9086SOL    MW436665   6.972   3.048   2.061
 9087SOL     OW36666   5.973   3.173   2.739
 9087SOL    HW236667   5.949   3.226   2.815
 9087SOL    HW336668   6.029   3.231   2.687
 9087SOL    MW436669   5.977   3.188   2.742
 9088SOL     OW36670   6.535   2.817   2.549
 9088SOL    HW236671   6.449   2.804   2.589
 9088SOL    HW336672   6.588   2.744   2.581
 9088SOL    MW436673   6.531   2.806   2.558
 9089SOL     OW36674   5.943   3.469   3.334
 9089SOL    HW236675   5.851   3.445   3.319
 9089SOL    HW336676   5.987   3.386   3.351
 9089SOL    MW436677   5.937   3.454   3.333
 9090SOL     OW36678   6.526   3.179   2.266
 9090SOL    HW236679   6.503   3.241   2.334
 9090SOL    HW336680   6.483   3.097   2.292
 9090SOL    MW436681   6.518   3.175   2.277
 9091SOL     OW36682   7.399   2.180   2.722
 9091SOL    HW236683   7.336   2.160   2.791
 9091SOL    HW336684   7.389   2.109   2.659
 9091SOL    MW436685   7.389   2.167   2.723
 9092SOL     OW36686   6.023   2.152   2.234
 9092SOL    HW236687   5.997   2.114   2.150
 9092SOL    HW336688   5.960   2.222   2.250
 9092SOL    MW436689   6.012   2.155   2.225
 9093SOL     OW36690   5.858   3.113   2.271
 9093SOL    HW236691   5.806   3.181   2.227
 9093SOL    HW336692   5.855   3.039   2.211
 9093SOL    MW436693   5.850   3.112   2.258
 9094SOL     OW36694   6.520   3.576   2.049
 9094SOL    HW236695   6.475   3.592   2.132
 9094SOL    HW336696   6.451   3.541   1.991
 9094SOL    MW436697   6.506   3.573   2.051
 9095SOL     OW36698   7.455   2.349   2.024
 9095SOL    HW236699   7.364   2.351   2.052
 9095SOL    HW336700   7.500   2.411   2.082
 9095SOL    MW436701   7.448   2.357   2.034
 9096SOL     OW36702   7.200   2.952   2.374
 9096SOL    HW236703   7.110   2.952   2.409
 9096SOL    HW336704   7.193   2.998   2.291
 9096SOL    MW436705   7.187   2.958   2.368
 9097SOL     OW36706   7.000   2.587   3.446
 9097SOL    HW236707   7.069   2.525   3.423
 9097SOL    HW336708   6.925   2.561   3.393
 9097SOL    MW436709   7.000   2.574   3.437
 9098SOL     OW36710   5.741   3.467   2.998
 9098SOL    HW236711   5.724   3.413   3.075
 9098SOL    HW336712   5.729   3.557   3.028
 9098SOL    MW436713   5.738   3.471   3.012
 9099SOL     OW36714   6.736   2.974   3.438
 9099SOL    HW236715   6.721   3.067   3.423
 9099SOL    HW336716   6.831   2.964   3.438
 9099SOL    MW436717   6.745   2.984   3.435
 9100SOL     OW36718   6.532   2.398   3.639
 9100SOL    HW236719   6.622   2.399   3.606
 9100SOL    HW336720   6.491   2.323   3.597
 9100SOL    MW436721   6.538   2.388   3.630
 9101SOL     OW36722   7.107   2.930   2.766
 9101SOL    HW236723   7.110   2.864   2.697
 9101SOL    HW336724   7.192   2.973   2.762
 9101SOL    MW436725   7.119   2.926   2.757
 9102SOL     OW36726   6.727   2.533   2.335
 9102SOL    HW236727   6.753   2.557   2.246
 9102SOL    HW336728   6.709   2.440   2.331
 9102SOL    MW436729   6.729   2.525   2.322
 9103SOL     OW36730   7.392   3.153   2.186
 9103SOL    HW236731   7.348   3.194   2.261
 9103SOL    HW336732   7.449   3.221   2.151
 9103SOL    MW436733   7.394   3.167   2.191
 9104SOL     OW36734   6.312   2.202   3.589
 9104SOL    HW236735   6.322   2.128   3.529
 9104SOL    HW336736   6.348   2.171   3.672
 9104SOL    MW436737   6.318   2.188   3.591
 9105SOL     OW36738   6.048   3.569   2.504
 9105SOL    HW236739   6.080   3.657   2.482
 9105SOL    HW336740   6.001   3.541   2.426
 9105SOL    MW436741   6.047   3.577   2.491
 9106SOL     OW36742   7.432   1.931   2.553
 9106SOL    HW236743   7.486   1.882   2.615
 9106SOL    HW336744   7.375   1.865   2.514
 9106SOL    MW436745   7.432   1.915   2.555
 9107SOL     OW36746   5.764   3.629   2.081
 9107SOL    HW236747   5.793   3.719   2.073
 9107SOL    HW336748   5.714   3.612   2.002
 9107SOL    MW436749   5.762   3.637   2.070
 9108SOL     OW36750   6.551   1.884   2.966
 9108SOL    HW236751   6.510   1.962   2.928
 9108SOL    HW336752   6.645   1.902   2.961
 9108SOL    MW436753   6.557   1.896   2.961
 9109SOL     OW36754   7.168   3.437   2.052
 9109SOL    HW236755   7.216   3.506   2.098
 9109SOL    HW336756   7.089   3.481   2.021
 9109SOL    MW436757   7.163   3.451   2.055
 9110SOL     OW36758   6.566   2.562   1.996
 9110SOL    HW236759   6.568   2.509   1.917
 9110SOL    HW336760   6.654   2.599   2.002
 9110SOL    MW436761   6.578   2.561   1.985
 9111SOL     OW36762   7.180   2.488   2.332
 9111SOL    HW236763   7.219   2.488   2.419
 9111SOL    HW336764   7.121   2.564   2.332
 9111SOL    MW436765   7.177   2.499   2.343
 9112SOL     OW36766   6.497   2.855   3.461
 9112SOL    HW236767   6.474   2.835   3.551
 9112SOL    HW336768   6.582   2.899   3.466
 9112SOL    MW436769   6.504   2.858   3.473
 9113SOL     OW36770   6.577   1.992   3.221
 9113SOL    HW236771   6.583   1.954   3.134
 9113SOL    HW336772   6.566   2.086   3.206
 9113SOL    MW436773   6.578   2.000   3.209
 9114SOL     OW36774   6.666   2.481   3.055
 9114SOL    HW236775   6.741   2.510   3.002
 9114SOL    HW336776   6.598   2.546   3.039
 9114SOL    MW436777   6.667   2.493   3.045
 9115SOL     OW36778   7.216   2.449   3.332
 9115SOL    HW236779   7.197   2.358   3.311
 9115SOL    HW336780   7.194   2.498   3.253
 9115SOL    MW436781   7.211   2.442   3.319
 9116SOL     OW36782   7.358   3.543   3.236
 9116SOL    HW236783   7.286   3.505   3.287
 9116SOL    HW336784   7.375   3.628   3.277
 9116SOL    MW436785   7.352   3.548   3.248
 9117SOL     OW36786   6.663   2.187   3.438
 9117SOL    HW236787   6.629   2.226   3.357
 9117SOL    HW336788   6.641   2.095   3.431
 9117SOL    MW436789   6.656   2.180   3.428
 9118SOL     OW36790   7.072   3.001   3.514
 9118SOL    HW236791   7.154   3.042   3.544
 9118SOL    HW336792   7.035   2.963   3.594
 9118SOL    MW436793   7.078   3.002   3.529
 9119SOL     OW36794   7.367   2.374   2.498
 9119SOL    HW236795   7.456   2.343   2.515
 9119SOL    HW336796   7.310   2.314   2.546
 9119SOL    MW436797   7.370   2.362   2.507
 9120SOL     OW36798   5.793   2.088   2.527
 9120SOL    HW236799   5.784   2.028   2.453
 9120SOL    HW336800   5.726   2.059   2.590
 9120SOL    MW436801   5.783   2.075   2.525
 9121SOL     OW36802   6.736   3.181   2.088
 9121SOL    HW236803   6.686   3.183   2.170
 9121SOL    HW336804   6.670   3.199   2.020
 9121SOL    MW436805   6.722   3.183   2.090
 9122SOL     OW36806   5.740   2.261   2.890
 9122SOL    HW236807   5.712   2.352   2.899
 9122SOL    HW336808   5.677   2.222   2.829
 9122SOL    MW436809   5.727   2.267   2.884
 9123SOL     OW36810   6.199   3.599   2.196
 9123SOL    HW236811   6.120   3.557   2.229
 9123SOL    HW336812   6.265   3.582   2.263
 9123SOL    MW436813   6.198   3.591   2.209
 9124SOL     OW36814   7.327   3.119   3.593
 9124SOL    HW236815   7.377   3.045   3.625
 9124SOL    HW336816   7.273   3.146   3.668
 9124SOL    MW436817   7.327   3.113   3.606
 9125SOL     OW36818   6.335   3.014   1.903
 9125SOL    HW236819   6.257   2.960   1.890
 9125SOL    HW336820   6.306   3.087   1.956
 9125SOL    MW436821   6.321   3.016   1.908
 9126SOL     OW36822   7.461   2.754   3.095
 9126SOL    HW236823   7.477   2.792   3.008
 9126SOL    HW336824   7.495   2.820   3.156
 9126SOL    MW436825   7.468   2.767   3.091
 9127SOL     OW36826   7.253   3.463   2.764
 9127SOL    HW236827   7.282   3.530   2.825
 9127SOL    HW336828   7.234   3.387   2.819
 9127SOL    MW436829   7.255   3.463   2.779
 9128SOL     OW36830   6.916   3.530   1.971
 9128SOL    HW236831   6.842   3.493   2.021
 9128SOL    HW336832   6.924   3.620   2.004
 9128SOL    MW436833   6.907   3.537   1.983
 9129SOL     OW36834   5.724   2.536   3.060
 9129SOL    HW236835   5.786   2.566   3.126
 9129SOL    HW336836   5.658   2.605   3.054
 9129SOL    MW436837   5.723   2.549   3.067
 9130SOL     OW36838   7.140   3.204   1.913
 9130SOL    HW236839   7.087   3.253   1.849
 9130SOL    HW336840   7.171   3.270   1.974
 9130SOL    MW436841   7.138   3.218   1.911
 9131SOL     OW36842   6.365   2.093   1.968
 9131SOL    HW236843   6.313   2.013   1.956
 9131SOL    HW336844   6.452   2.070   1.936
 9131SOL    MW436845   6.368   2.079   1.962
 9132SOL     OW36846   5.819   3.645   3.512
 9132SOL    HW236847   5.793   3.713   3.450
 9132SOL    HW336848   5.867   3.582   3.460
 9132SOL    MW436849   5.821   3.645   3.498
 9133SOL     OW36850   5.871   2.964   3.019
 9133SOL    HW236851   5.924   3.039   3.044
 9133SOL    HW336852   5.790   3.002   2.985
 9133SOL    MW436853   5.867   2.979   3.019
 9134SOL     OW36854   6.411   2.868   3.007
 9134SOL    HW236855   6.439   2.777   3.019
 9134SOL    HW336856   6.340   2.862   2.943
 9134SOL    MW436857   6.404   2.856   3.002
 9135SOL     OW36858   5.726   2.733   2.425
 9135SOL    HW236859   5.817   2.748   2.452
 9135SOL    HW336860   5.729   2.654   2.371
 9135SOL    MW436861   5.738   2.725   2.423
 9136SOL     OW36862   5.962   2.441   3.679
 9136SOL    HW236863   5.909   2.521   3.686
 9136SOL    HW336864   6.032   2.453   3.744
 9136SOL    MW436865   5.964   2.454   3.687
 9137SOL     OW36866   6.348   1.991   3.386
 9137SOL    HW236867   6.325   1.899   3.388
 9137SOL    HW336868   6.434   1.993   3.343
 9137SOL    MW436869   6.355   1.981   3.382
 9138SOL     OW36870   6.032   2.515   3.425
 9138SOL    HW236871   6.112   2.565   3.411
 9138SOL    HW336872   6.023   2.509   3.520
 9138SOL    MW436873   6.041   2.521   3.435
 9139SOL     OW36874   6.353   3.665   2.799
 9139SOL    HW236875   6.442   3.680   2.829
 9139SOL    HW336876   6.348   3.712   2.715
 9139SOL    MW436877   6.363   3.673   2.792
 9140SOL     OW36878   7.009   2.040   3.696
 9140SOL    HW236879   7.065   1.967   3.722
 9140SOL    HW336880   6.979   2.078   3.778
 9140SOL    MW436881   7.013   2.035   3.709
 9141SOL     OW36882   5.734   3.345   2.464
 9141SOL    HW236883   5.706   3.384   2.546
 9141SOL    HW336884   5.754   3.254   2.486
 9141SOL    MW436885   5.732   3.337   2.477
 9142SOL     OW36886   6.567   3.388   2.499
 9142SOL    HW236887   6.650   3.342   2.483
 9142SOL    HW336888   6.557   3.387   2.595
 9142SOL    MW436889   6.577   3.381   2.509
 9143SOL     OW36890   7.399   2.533   2.813
 9143SOL    HW236891   7.488   2.563   2.795
 9143SOL    HW336892   7.379   2.473   2.742
 9143SOL    MW436893   7.408   2.530   2.802
 9144SOL     OW36894   7.250   2.712   3.693
 9144SOL    HW236895   7.305   2.636   3.674
 9144SOL    HW336896   7.252   2.720   3.788
 9144SOL    MW436897   7.258   2.703   3.701
 9145SOL     OW36898   6.300   3.445   1.904
 9145SOL    HW236899   6.240   3.514   1.874
 9145SOL    HW336900   6.245   3.387   1.957
 9145SOL    MW436901   6.284   3.447   1.906
 9146SOL     OW36902   6.738   2.090   2.127
 9146SOL    HW236903   6.671   2.066   2.064
 9146SOL    HW336904   6.803   2.139   2.076
 9146SOL    MW436905   6.738   2.092   2.112
 9147SOL     OW36906   6.545   2.274   3.212
 9147SOL    HW236907   6.464   2.315   3.240
 9147SOL    HW336908   6.592   2.342   3.164
 9147SOL    MW436909   6.540   2.289   3.210
 9148SOL     OW36910   6.805   2.612   2.835
 9148SOL    HW236911   6.818   2.706   2.845
 9148SOL    HW336912   6.766   2.602   2.749
 9148SOL    MW436913   6.801   2.623   2.825
 9149SOL     OW36914   6.257   2.807   2.639
 9149SOL    HW236915   6.168   2.798   2.672
 9149SOL    HW336916   6.261   2.897   2.607
 9149SOL    MW436917   6.246   2.818   2.639
 9150SOL     OW36918   7.056   2.390   2.634
 9150SOL    HW236919   7.001   2.311   2.633
 9150SOL    HW336920   7.038   2.431   2.718
 9150SOL    MW436921   7.046   2.385   2.643
 9151SOL     OW36922   6.027   2.077   3.451
 9151SOL    HW236923   5.948   2.095   3.503
 9151SOL    HW336924   6.022   2.139   3.378
 9151SOL    MW436925   6.017   2.087   3.448
 9152SOL     OW36926   6.675   2.594   2.591
 9152SOL    HW236927   6.612   2.526   2.615
 9152SOL    HW336928   6.695   2.575   2.499
 9152SOL    MW436929   6.669   2.581   2.583
 9153SOL     OW36930   5.931   3.489   2.293
 9153SOL    HW236931   5.892   3.536   2.219
 9153SOL    HW336932   5.865   3.424   2.318
 9153SOL    MW436933   5.918   3.487   2.287
 9154SOL     OW36934   6.423   2.898   2.317
 9154SOL    HW236935   6.425   2.872   2.224
 9154SOL    HW336936   6.481   2.835   2.360
 9154SOL    MW436937   6.431   2.887   2.311
 9155SOL     OW36938   6.976   3.458   3.089
 9155SOL    HW236939   6.901   3.504   3.127
 9155SOL    HW336940   6.958   3.365   3.106
 9155SOL    MW436941   6.965   3.452   3.097
 9156SOL     OW36942   6.980   3.666   2.519
 9156SOL    HW236943   6.923   3.619   2.458
 9156SOL    HW336944   7.066   3.627   2.506
 9156SOL    MW436945   6.983   3.657   2.509
 9157SOL     OW36946   6.933   2.142   2.650
 9157SOL    HW236947   6.961   2.074   2.711
 9157SOL    HW336948   6.847   2.113   2.620
 9157SOL    MW436949   6.926   2.129   2.654
 9158SOL     OW36950   5.738   3.076   2.584
 9158SOL    HW236951   5.802   3.108   2.647
 9158SOL    HW336952   5.787   3.012   2.532
 9158SOL    MW436953   5.753   3.072   2.585
 9159SOL     OW36954   6.238   3.152   3.566
 9159SOL    HW236955   6.286   3.235   3.553
 9159SOL    HW336956   6.295   3.100   3.622
 9159SOL    MW436957   6.252   3.156   3.572
 9160SOL     OW36958   5.814   3.394   3.706
 9160SOL    HW236959   5.870   3.318   3.721
 9160SOL    HW336960   5.763   3.372   3.628
 9160SOL    MW436961   5.814   3.381   3.697
 9161SOL     OW36962   6.913   2.246   1.985
 9161SOL    HW236963   6.886   2.312   1.921
 9161SOL    HW336964   6.983   2.289   2.035
 9161SOL    MW436965   6.918   2.259   1.982
 9162SOL     OW36966   6.581   1.951   1.922
 9162SOL    HW236967   6.637   1.943   1.844
 9162SOL    HW336968   6.558   1.861   1.944
 9162SOL    MW436969   6.586   1.938   1.915
 9163SOL     OW36970   7.086   2.802   2.127
 9163SOL    HW236971   7.053   2.891   2.117
 9163SOL    HW336972   7.051   2.773   2.212
 9163SOL    MW436973   7.076   2.811   2.138
 9164SOL     OW36974   6.699   3.231   3.315
 9164SOL    HW236975   6.610   3.237   3.283
 9164SOL    HW336976   6.743   3.310   3.283
 9164SOL    MW436977   6.694   3.241   3.307
 9165SOL     OW36978   5.992   1.899   3.657
 9165SOL    HW236979   5.920   1.864   3.605
 9165SOL    HW336980   6.050   1.940   3.592
 9165SOL    MW436981   5.990   1.900   3.642
 9166SOL     OW36982   6.016   3.389   2.956
 9166SOL    HW236983   6.061   3.451   3.013
 9166SOL    HW336984   5.923   3.408   2.969
 9166SOL    MW436985   6.009   3.399   2.963
 9167SOL     OW36986   7.456   2.918   3.310
 9167SOL    HW236987   7.371   2.931   3.269
 9167SOL    HW336988   7.436   2.882   3.397
 9167SOL    MW436989   7.443   2.914   3.315
 9168SOL     OW36990   6.438   3.457   3.064
 9168SOL    HW236991   6.462   3.446   2.973
 9168SOL    HW336992   6.361   3.514   3.062
 9168SOL    MW436993   6.430   3.462   3.053
 9169SOL     OW36994   6.080   2.840   1.919
 9169SOL    HW236995   6.003   2.853   1.975
 9169SOL    HW336996   6.044   2.804   1.838
 9169SOL    MW436997   6.066   2.836   1.916
 9170SOL     OW36998   6.733   2.813   2.162
 9170SOL    HW236999   6.643   2.834   2.137
 9170SOL    HW337000   6.760   2.886   2.218
 9170SOL    MW437001   6.725   2.825   2.165
 9171SOL     OW37002   6.233   3.162   2.854
 9171SOL    HW237003   6.226   3.141   2.948
 9171SOL    HW337004   6.151   3.130   2.817
 9171SOL    MW437005   6.221   3.156   2.861
 9172SOL     OW37006   7.097   2.172   3.256
 9172SOL    HW237007   7.044   2.174   3.336
 9172SOL    HW337008   7.082   2.085   3.219
 9172SOL    MW437009   7.089   2.162   3.261
 9173SOL     OW37010   7.433   2.096   3.129
 9173SOL    HW237011   7.414   2.163   3.064
 9173SOL    HW337012   7.490   2.034   3.084
 9173SOL    MW437013   7.437   2.097   3.115
 9174SOL     OW37014   5.679   3.254   3.517
 9174SOL    HW237015   5.723   3.187   3.463
 9174SOL    HW337016   5.594   3.216   3.537
 9174SOL    MW437017   5.674   3.240   3.513
 9175SOL     OW37018   6.362   1.929   2.569
 9175SOL    HW237019   6.291   1.990   2.551
 9175SOL    HW337020   6.413   1.926   2.488
 9175SOL    MW437021   6.358   1.935   2.556
 9176SOL     OW37022   6.120   3.169   2.318
 9176SOL    HW237023   6.113   3.201   2.408
 9176SOL    HW337024   6.030   3.153   2.290
 9176SOL    MW437025   6.108   3.171   2.325
 9177SOL     OW37026   6.715   3.562   3.227
 9177SOL    HW237027   6.635   3.547   3.177
 9177SOL    HW337028   6.722   3.657   3.234
 9177SOL    MW437029   6.706   3.573   3.221
 9178SOL     OW37030   6.829   3.527   2.717
 9178SOL    HW237031   6.876   3.600   2.676
 9178SOL    HW337032   6.750   3.566   2.753
 9178SOL    MW437033   6.824   3.542   2.716
 9179SOL     OW37034   7.237   3.622   2.992
 9179SOL    HW237035   7.280   3.592   3.072
 9179SOL    HW337036   7.156   3.570   2.989
 9179SOL    MW437037   7.232   3.611   3.002
 9180SOL     OW37038   6.322   2.586   3.699
 9180SOL    HW237039   6.392   2.528   3.671
 9180SOL    HW337040   6.265   2.531   3.754
 9180SOL    MW437041   6.324   2.573   3.703
 9181SOL     OW37042   7.109   2.798   3.332
 9181SOL    HW237043   7.114   2.851   3.412
 9181SOL    HW337044   7.071   2.715   3.360
 9181SOL    MW437045   7.105   2.793   3.347
 9182SOL     OW37046   6.749   1.933   3.578
 9182SOL    HW237047   6.744   1.840   3.559
 9182SOL    HW337048   6.832   1.944   3.624
 9182SOL    MW437049   6.757   1.922   3.582
 9183SOL     OW37050   6.123   2.453   2.032
 9183SOL    HW237051   6.089   2.509   2.102
 9183SOL    HW337052   6.194   2.403   2.072
 9183SOL    MW437053   6.129   2.454   2.046
 9184SOL     OW37054   7.219   3.204   2.854
 9184SOL    HW237055   7.254   3.186   2.767
 9184SOL    HW337056   7.124   3.205   2.841
 9184SOL    MW437057   7.211   3.201   2.841
 9185SOL     OW37058   6.648   2.852   3.223
 9185SOL    HW237059   6.691   2.887   3.301
 9185SOL    HW337060   6.631   2.929   3.169
 9185SOL    MW437061   6.651   2.867   3.226
 9186SOL     OW37062   7.179   2.339   2.096
 9186SOL    HW237063   7.171   2.410   2.033
 9186SOL    HW337064   7.197   2.383   2.179
 9186SOL    MW437065   7.180   2.353   2.098
 9187SOL     OW37066   6.039   1.994   2.525
 9187SOL    HW237067   6.089   2.037   2.456
 9187SOL    HW337068   5.954   2.038   2.525
 9187SOL    MW437069   6.036   2.007   2.516
 9188SOL     OW37070   5.798   3.056   3.385
 9188SOL    HW237071   5.826   3.009   3.463
 9188SOL    HW337072   5.719   3.011   3.356
 9188SOL    MW437073   5.791   3.045   3.391
 9189SOL     OW37074   6.306   2.383   3.352
 9189SOL    HW237075   6.278   2.471   3.376
 9189SOL    HW337076   6.275   2.327   3.423
 9189SOL    MW437077   6.298   2.386   3.364
 9190SOL     OW37078   6.848   2.601   2.071
 9190SOL    HW237079   6.895   2.619   1.990
 9190SOL    HW337080   6.814   2.685   2.099
 9190SOL    MW437081   6.850   2.615   2.064
 9191SOL     OW37082   5.961   2.779   2.565
 9191SOL    HW237083   6.019   2.835   2.513
 9191SOL    HW337084   6.005   2.694   2.567
 9191SOL    MW437085   5.974   2.776   2.558
 9192SOL     OW37086   7.101   2.131   2.402
 9192SOL    HW237087   7.023   2.081   2.427
 9192SOL    HW337088   7.072   2.222   2.402
 9192SOL    MW437089   7.087   2.135   2.405
 9193SOL     OW37090   6.687   2.093   2.561
 9193SOL    HW237091   6.707   2.168   2.505
 9193SOL    HW337092   6.667   2.132   2.646
 9193SOL    MW437093   6.688   2.109   2.565
 9194SOL     OW37094   6.583   3.343   1.893
 9194SOL    HW237095   6.610   3.421   1.845
 9194SOL    HW337096   6.490   3.358   1.912
 9194SOL    MW437097   6.574   3.356   1.889
 9195SOL     OW37098   7.447   2.866   3.580
 9195SOL    HW237099   7.360   2.846   3.616
 9195SOL    HW337100   7.501   2.792   3.605
 9195SOL    MW437101   7.442   2.855   3.588
 9196SOL     OW37102   5.668   3.379   2.737
 9196SOL    HW237103   5.700   3.383   2.828
 9196SOL    HW337104   5.573   3.387   2.745
 9196SOL    MW437105   5.660   3.382   2.750
 9197SOL     OW37106   5.623   2.505   2.284
 9197SOL    HW237107   5.563   2.477   2.354
 9197SOL    HW337108   5.697   2.445   2.290
 9197SOL    MW437109   5.625   2.494   2.293
 9198SOL     OW37110   7.191   3.717   3.718
 9198SOL    HW237111   7.236   3.641   3.683
 9198SOL    HW337112   7.229   3.730   3.805
 9198SOL    MW437113   7.201   3.710   3.724
 9199SOL     OW37114   6.791   3.236   2.444
 9199SOL    HW237115   6.814   3.187   2.522
 9199SOL    HW337116   6.872   3.278   2.416
 9199SOL    MW437117   6.804   3.236   2.451
 9200SOL     OW37118   6.049   2.244   3.173
 9200SOL    HW237119   6.082   2.325   3.213
 9200SOL    HW337120   6.022   2.270   3.085
 9200SOL    MW437121   6.048   2.258   3.167
 9201SOL     OW37122   6.003   2.211   2.909
 9201SOL    HW237123   6.033   2.125   2.880
 9201SOL    HW337124   5.908   2.204   2.912
 9201SOL    MW437125   5.995   2.200   2.907
 9202SOL     OW37126   6.832   2.420   3.600
 9202SOL    HW237127   6.884   2.355   3.553
 9202SOL    HW337128   6.790   2.471   3.530
 9202SOL    MW437129   6.833   2.417   3.583
 9203SOL     OW37130   6.931   2.215   3.461
 9203SOL    HW237131   6.838   2.199   3.448
 9203SOL    HW337132   6.957   2.153   3.529
 9203SOL    MW437133   6.921   2.205   3.468
 9204SOL     OW37134   6.146   1.989   2.800
 9204SOL    HW237135   6.156   1.898   2.826
 9204SOL    HW337136   6.102   1.985   2.715
 9204SOL    MW437137   6.142   1.977   2.792
 9205SOL     OW37138   6.240   3.604   3.346
 9205SOL    HW237139   6.157   3.589   3.391
 9205SOL    HW337140   6.299   3.537   3.381
 9205SOL    MW437141   6.238   3.594   3.356
 9206SOL     OW37142   7.297   2.311   2.971
 9206SOL    HW237143   7.230   2.344   3.031
 9206SOL    HW337144   7.340   2.389   2.937
 9206SOL    MW437145   7.295   2.326   2.975
 9207SOL     OW37146   7.475   3.031   2.941
 9207SOL    HW237147   7.468   2.971   2.866
 9207SOL    HW337148   7.401   3.091   2.930
 9207SOL    MW437149   7.465   3.031   2.930
 9208SOL     OW37150   6.857   2.893   2.859
 9208SOL    HW237151   6.871   2.865   2.950
 9208SOL    HW337152   6.943   2.924   2.831
 9208SOL    MW437153   6.870   2.894   2.868
 9209SOL     OW37154   6.940   2.388   3.138
 9209SOL    HW237155   6.961   2.389   3.045
 9209SOL    HW337156   6.985   2.310   3.171
 9209SOL    MW437157   6.947   2.378   3.130
 9210SOL     OW37158   7.433   2.519   3.680
 9210SOL    HW237159   7.470   2.464   3.749
 9210SOL    HW337160   7.458   2.476   3.598
 9210SOL    MW437161   7.440   2.507   3.679
 9211SOL     OW37162   6.980   2.817   3.731
 9211SOL    HW237163   7.046   2.765   3.685
 9211SOL    HW337164   7.000   2.804   3.824
 9211SOL    MW437165   6.991   2.808   3.738
 9212SOL     OW37166   6.931   1.903   2.080
 9212SOL    HW237167   7.005   1.947   2.123
 9212SOL    HW337168   6.855   1.957   2.102
 9212SOL    MW437169   6.931   1.915   2.088
 9213SOL     OW37170   6.991   2.678   2.358
 9213SOL    HW237171   6.906   2.648   2.328
 9213SOL    HW337172   6.983   2.685   2.453
 9213SOL    MW437173   6.979   2.676   2.367
 9214SOL     OW37174   6.067   3.141   3.089
 9214SOL    HW237175   6.079   3.168   3.180
 9214SOL    HW337176   6.048   3.222   3.042
 9214SOL    MW437177   6.066   3.156   3.094
 9215SOL     OW37178   6.351   2.121   2.912
 9215SOL    HW237179   6.324   2.123   3.003
 9215SOL    HW337180   6.281   2.073   2.867
 9215SOL    MW437181   6.339   2.117   2.919
 9216SOL     OW37182   6.205   3.613   3.074
 9216SOL    HW237183   6.257   3.690   3.051
 9216SOL    HW337184   6.214   3.605   3.169
 9216SOL    MW437185   6.214   3.620   3.085
 9217SOL     OW37186   7.107   3.198   3.306
 9217SOL    HW237187   7.092   3.127   3.369
 9217SOL    HW337188   7.153   3.156   3.234
 9217SOL    MW437189   7.113   3.182   3.306
 9218SOL     OW37190   6.181   2.929   3.423
 9218SOL    HW237191   6.218   2.934   3.335
 9218SOL    HW337192   6.220   3.002   3.470
 9218SOL    MW437193   6.191   2.939   3.418
 9219SOL     OW37194   6.361   2.972   3.235
 9219SOL    HW237195   6.420   2.918   3.288
 9219SOL    HW337196   6.376   2.944   3.145
 9219SOL    MW437197   6.371   2.961   3.231
 9220SOL     OW37198   6.364   2.344   2.084
 9220SOL    HW237199   6.437   2.393   2.047
 9220SOL    HW337200   6.380   2.253   2.058
 9220SOL    MW437201   6.376   2.339   2.077
 9221SOL     OW37202   7.172   3.461   3.407
 9221SOL    HW237203   7.214   3.446   3.492
 9221SOL    HW337204   7.163   3.374   3.369
 9221SOL    MW437205   7.176   3.449   3.414
 9222SOL     OW37206   6.832   1.940   2.998
 9222SOL    HW237207   6.887   1.949   2.920
 9222SOL    HW337208   6.887   1.974   3.069
 9222SOL    MW437209   6.846   1.945   2.997
 9223SOL     OW37210   5.839   2.853   2.182
 9223SOL    HW237211   5.776   2.869   2.111
 9223SOL    HW337212   5.786   2.816   2.253
 9223SOL    MW437213   5.824   2.850   2.182
 9224SOL     OW37214   6.195   3.207   2.041
 9224SOL    HW237215   6.210   3.183   2.133
 9224SOL    HW337216   6.103   3.185   2.025
 9224SOL    MW437217   6.185   3.200   2.051
 9225SOL     OW37218   6.734   3.438   2.193
 9225SOL    HW237219   6.742   3.356   2.144
 9225SOL    HW337220   6.653   3.477   2.160
 9225SOL    MW437221   6.724   3.433   2.183
 9226SOL     OW37222   5.993   3.596   2.762
 9226SOL    HW237223   5.997   3.507   2.797
 9226SOL    HW337224   6.019   3.587   2.671
 9226SOL    MW437225   5.996   3.584   2.754
 9227SOL     OW37226   6.610   3.074   3.005
 9227SOL    HW237227   6.542   3.008   3.021
 9227SOL    HW337228   6.628   3.068   2.912
 9227SOL    MW437229   6.603   3.065   2.996
 9228SOL     OW37230   5.699   3.349   3.256
 9228SOL    HW237231   5.689   3.307   3.342
 9228SOL    HW337232   5.620   3.402   3.246
 9228SOL    MW437233   5.688   3.350   3.267
 9229SOL     OW37234   6.603   2.213   2.826
 9229SOL    HW237235   6.533   2.165   2.871
 9229SOL    HW337236   6.635   2.276   2.890
 9229SOL    MW437237   6.598   2.215   2.840
 9230SOL     OW37238   6.254   2.649   3.446
 9230SOL    HW237239   6.247   2.744   3.434
 9230SOL    HW337240   6.263   2.638   3.541
 9230SOL    MW437241   6.255   2.661   3.456
 9231SOL     OW37242   5.975   3.164   3.704
 9231SOL    HW237243   6.047   3.166   3.641
 9231SOL    HW337244   5.945   3.073   3.703
 9231SOL    MW437245   5.980   3.153   3.696
 9232SOL     OW37246   7.059   1.927   3.171
 9232SOL    HW237247   7.130   1.873   3.135
 9232SOL    HW337248   7.058   1.906   3.264
 9232SOL    MW437249   7.068   1.918   3.179
 9233SOL     OW37250   7.259   3.457   3.655
 9233SOL    HW237251   7.232   3.454   3.746
 9233SOL    HW337252   7.355   3.461   3.658
 9233SOL    MW437253   7.269   3.457   3.667
 9234SOL     OW37254   6.070   2.319   2.639
 9234SOL    HW237255   6.141   2.267   2.602
 9234SOL    HW337256   6.056   2.284   2.726
 9234SOL    MW437257   6.078   2.308   2.646
 9235SOL     OW37258   5.625   3.654   3.711
 9235SOL    HW237259   5.675   3.632   3.633
 9235SOL    HW337260   5.633   3.749   3.719
 9235SOL    MW437261   5.633   3.663   3.702
 9236SOL     OW37262   6.386   3.412   2.715
 9236SOL    HW237263   6.314   3.349   2.728
 9236SOL    HW337264   6.347   3.497   2.733
 9236SOL    MW437265   6.370   3.415   2.718
 9237SOL     OW37266   6.706   2.260   2.363
 9237SOL    HW237267   6.728   2.197   2.295
 9237SOL    HW337268   6.611   2.252   2.374
 9237SOL    MW437269   6.696   2.251   2.355
 9238SOL     OW37270   5.791   1.950   2.295
 9238SOL    HW237271   5.862   1.971   2.234
 9238SOL    HW337272   5.745   1.878   2.253
 9238SOL    MW437273   5.795   1.944   2.281
 9239SOL     OW37274   5.622   2.417   3.438
 9239SOL    HW237275   5.686   2.483   3.413
 9239SOL    HW337276   5.541   2.444   3.395
 9239SOL    MW437277   5.620   2.429   3.430
 9240SOL     OW37278   7.360   3.324   2.395
 9240SOL    HW237279   7.330   3.257   2.456
 9240SOL    HW337280   7.454   3.330   2.409
 9240SOL    MW437281   7.368   3.316   2.405
 9241SOL     OW37282   6.916   3.001   2.325
 9241SOL    HW237283   6.888   3.087   2.358
 9241SOL    HW337284   6.944   3.017   2.235
 9241SOL    MW437285   6.916   3.015   2.317
 9242SOL     OW37286   6.578   1.921   2.378
 9242SOL    HW237287   6.615   1.980   2.443
 9242SOL    HW337288   6.555   1.977   2.304
 9242SOL    MW437289   6.579   1.936   2.377
 9243SOL     OW37290   7.431   2.803   2.800
 9243SOL    HW237291   7.422   2.835   2.711
 9243SOL    HW337292   7.384   2.719   2.800
 9243SOL    MW437293   7.424   2.796   2.790
 9244SOL     OW37294   5.807   2.643   3.379
 9244SOL    HW237295   5.828   2.712   3.317
 9244SOL    HW337296   5.887   2.590   3.384
 9244SOL    MW437297   5.820   2.644   3.373
 9245SOL     OW37298   7.343   2.734   2.501
 9245SOL    HW237299   7.437   2.723   2.489
 9245SOL    HW337300   7.319   2.806   2.442
 9245SOL    MW437301   7.353   2.742   2.492
 9246SOL     OW37302   5.792   2.658   3.646
 9246SOL    HW237303   5.718   2.602   3.672
 9246SOL    HW337304   5.787   2.661   3.551
 9246SOL    MW437305   5.781   2.651   3.636
 9247SOL     OW37306   5.958   1.945   3.096
 9247SOL    HW237307   6.001   2.029   3.116
 9247SOL    HW337308   6.031   1.883   3.089
 9247SOL    MW437309   5.973   1.948   3.097
 9248SOL     OW37310   5.999   2.612   2.274
 9248SOL    HW237311   5.999   2.707   2.259
 9248SOL    HW337312   6.076   2.596   2.328
 9248SOL    MW437313   6.009   2.623   2.279
 9249SOL     OW37314   6.775   2.471   3.338
 9249SOL    HW237315   6.811   2.444   3.254
 9249SOL    HW337316   6.688   2.505   3.317
 9249SOL    MW437317   6.769   2.472   3.325
 9250SOL     OW37318   5.758   2.343   2.563
 9250SOL    HW237319   5.820   2.350   2.636
 9250SOL    HW337320   5.758   2.250   2.540
 9250SOL    MW437321   5.766   2.332   2.570
 9251SOL     OW37322   7.305   3.683   2.095
 9251SOL    HW237323   7.372   3.716   2.035
 9251SOL    HW337324   7.262   3.762   2.129
 9251SOL    MW437325   7.307   3.698   2.091
 9252SOL     OW37326   6.440   2.604   3.047
 9252SOL    HW237327   6.398   2.522   3.023
 9252SOL    HW337328   6.441   2.603   3.143
 9252SOL    MW437329   6.433   2.593   3.056
 9253SOL     OW37330   7.111   3.737   3.446
 9253SOL    HW237331   7.114   3.643   3.429
 9253SOL    HW337332   7.134   3.745   3.538
 9253SOL    MW437333   7.114   3.725   3.456
 9254SOL     OW37334   6.244   2.074   3.152
 9254SOL    HW237335   6.175   2.137   3.173
 9254SOL    HW337336   6.271   2.038   3.237
 9254SOL    MW437337   6.238   2.077   3.165
 9255SOL     OW37338   5.627   2.915   2.021
 9255SOL    HW237339   5.596   2.980   2.084
 9255SOL    HW337340   5.576   2.837   2.040
 9255SOL    MW437341   5.617   2.912   2.031
 9256SOL     OW37342   7.039   1.927   2.769
 9256SOL    HW237343   7.127   1.936   2.806
 9256SOL    HW337344   7.049   1.868   2.695
 9256SOL    MW437345   7.053   1.921   2.763
 9257SOL     OW37346   7.071   2.666   2.613
 9257SOL    HW237347   7.151   2.681   2.562
 9257SOL    HW337348   7.064   2.571   2.619
 9257SOL    MW437349   7.080   2.655   2.608
 9258SOL     OW37350   6.211   3.715   1.963
 9258SOL    HW237351   6.116   3.715   1.955
 9258SOL    HW337352   6.227   3.661   2.041
 9258SOL    MW437353   6.201   3.709   1.972
 9259SOL     OW37354   6.521   2.592   3.310
 9259SOL    HW237355   6.590   2.659   3.307
 9259SOL    HW337356   6.454   2.630   3.366
 9259SOL    MW437357   6.522   2.605   3.317
 9260SOL     OW37358   5.939   2.892   3.558
 9260SOL    HW237359   5.893   2.808   3.560
 9260SOL    HW337360   5.996   2.886   3.482
 9260SOL    MW437361   5.941   2.880   3.550
 9261SOL     OW37362   7.056   2.535   1.879
 9261SOL    HW237363   6.984   2.511   1.821
 9261SOL    HW337364   7.122   2.572   1.821
 9261SOL    MW437365   7.055   2.537   1.864
 9262SOL     OW37366   6.190   3.267   2.559
 9262SOL    HW237367   6.255   3.200   2.580
 9262SOL    HW337368   6.242   3.344   2.536
 9262SOL    MW437369   6.205   3.269   2.558
 9263SOL     OW37370   6.451   2.432   2.689
 9263SOL    HW237371   6.391   2.450   2.761
 9263SOL    HW337372   6.485   2.344   2.708
 9263SOL    MW437373   6.447   2.422   2.702
 9264SOL     OW37374   7.392   1.931   3.358
 9264SOL    HW237375   7.313   1.977   3.386
 9264SOL    HW337376   7.427   1.985   3.287
 9264SOL    MW437377   7.386   1.944   3.352
 9265SOL     OW37378   6.676   3.015   2.708
 9265SOL    HW237379   6.768   2.996   2.726
 9265SOL    HW337380   6.649   2.945   2.648
 9265SOL    MW437381   6.684   3.003   2.702
 9266SOL     OW37382   6.469   2.835   2.063
 9266SOL    HW237383   6.455   2.747   2.028
 9266SOL    HW337384   6.420   2.892   2.004
 9266SOL    MW437385   6.461   2.830   2.051
 9267SOL     OW37386   6.950   3.253   2.804
 9267SOL    HW237387   6.923   3.337   2.769
 9267SOL    HW337388   6.910   3.248   2.891
 9267SOL    MW437389   6.943   3.262   2.810
 9268SOL     OW37390   6.869   3.201   3.072
 9268SOL    HW237391   6.880   3.168   3.161
 9268SOL    HW337392   6.788   3.160   3.041
 9268SOL    MW437393   6.859   3.193   3.078
 9269SOL     OW37394   5.882   2.559   2.842
 9269SOL    HW237395   5.832   2.558   2.923
 9269SOL    HW337396   5.902   2.651   2.826
 9269SOL    MW437397   5.878   2.571   2.850
 9270SOL     OW37398   6.949   3.323   3.604
 9270SOL    HW237399   6.949   3.417   3.620
 9270SOL    HW337400   6.994   3.313   3.520
 9270SOL    MW437401   6.955   3.333   3.595
 9271SOL     OW37402   7.188   2.041   2.165
 9271SOL    HW237403   7.181   2.045   2.260
 9271SOL    HW337404   7.200   2.132   2.138
 9271SOL    MW437405   7.189   2.054   2.173
 9272SOL     OW37406   6.477   2.604   2.279
 9272SOL    HW237407   6.457   2.590   2.186
 9272SOL    HW337408   6.570   2.583   2.286
 9272SOL    MW437409   6.487   2.599   2.268
 9273SOL     OW37410   5.804   2.227   3.583
 9273SOL    HW237411   5.761   2.286   3.520
 9273SOL    HW337412   5.872   2.282   3.623
 9273SOL    MW437413   5.808   2.242   3.580
 9274SOL     OW37414   6.916   2.847   3.128
 9274SOL    HW237415   6.979   2.844   3.201
 9274SOL    HW337416   6.832   2.865   3.170
 9274SOL    MW437417   6.912   2.849   3.143
 9275SOL     OW37418   6.460   3.562   2.317
 9275SOL    HW237419   6.518   3.633   2.344
 9275SOL    HW337420   6.483   3.490   2.375
 9275SOL    MW437421   6.471   3.562   2.328
 9276SOL     OW37422   7.255   2.024   2.907
 9276SOL    HW237423   7.300   1.942   2.926
 9276SOL    HW337424   7.275   2.080   2.983
 9276SOL    MW437425   7.265   2.020   2.919
 9277SOL     OW37426   5.703   1.867   3.006
 9277SOL    HW237427   5.694   1.868   2.911
 9277SOL    HW337428   5.797   1.879   3.021
 9277SOL    MW437429   5.715   1.870   2.997
 9278SOL     OW37430   7.340   3.060   2.626
 9278SOL    HW237431   7.319   3.006   2.549
 9278SOL    HW337432   7.436   3.058   2.630
 9278SOL    MW437433   7.349   3.053   2.615
 9279SOL     OW37434   6.032   3.205   3.369
 9279SOL    HW237435   5.953   3.155   3.392
 9279SOL    HW337436   6.102   3.164   3.419
 9279SOL    MW437437   6.030   3.193   3.379
 9280SOL     OW37438   5.916   1.994   2.052
 9280SOL    HW237439   5.845   2.049   2.020
 9280SOL    HW337440   5.958   1.960   1.973
 9280SOL    MW437441   5.912   1.996   2.038
 9281SOL     OW37442   7.040   2.491   2.888
 9281SOL    HW237443   6.963   2.537   2.854
 9281SOL    HW337444   7.097   2.560   2.922
 9281SOL    MW437445   7.037   2.506   2.888
 9282SOL     OW37446   5.672   2.093   1.901
 9282SOL    HW237447   5.639   2.172   1.945
 9282SOL    HW337448   5.727   2.126   1.830
 9282SOL    MW437449   5.675   2.107   1.898
 9283SOL     OW37450   5.706   3.350   2.090
 9283SOL    HW237451   5.723   3.434   2.132
 9283SOL    HW337452   5.741   3.359   2.002
 9283SOL    MW437453   5.711   3.363   2.084
 9284SOL     OW37454   6.978   3.439   2.307
 9284SOL    HW237455   7.041   3.429   2.236
 9284SOL    HW337456   6.895   3.459   2.262
 9284SOL    MW437457   6.975   3.440   2.292
 9285SOL     OW37458   7.341   2.707   3.993
 9285SOL    HW237459   7.382   2.649   4.058
 9285SOL    HW337460   7.248   2.699   4.010
 9285SOL    MW437461   7.335   2.699   4.003
 9286SOL     OW37462   7.207   2.639   4.988
 9286SOL    HW237463   7.162   2.706   5.039
 9286SOL    HW337464   7.295   2.675   4.974
 9286SOL    MW437465   7.213   2.652   4.992
 9287SOL     OW37466   6.135   2.890   4.222
 9287SOL    HW237467   6.225   2.865   4.206
 9287SOL    HW337468   6.131   2.983   4.199
 9287SOL    MW437469   6.147   2.899   4.217
 9288SOL     OW37470   7.251   3.593   4.364
 9288SOL    HW237471   7.263   3.539   4.442
 9288SOL    HW337472   7.288   3.541   4.293
 9288SOL    MW437473   7.257   3.578   4.365
 9289SOL     OW37474   6.630   3.478   5.365
 9289SOL    HW237475   6.671   3.514   5.286
 9289SOL    HW337476   6.665   3.389   5.372
 9289SOL    MW437477   6.641   3.471   5.356
 9290SOL     OW37478   7.187   3.033   4.969
 9290SOL    HW237479   7.108   2.998   4.927
 9290SOL    HW337480   7.214   3.105   4.913
 9290SOL    MW437481   7.180   3.038   4.956
 9291SOL     OW37482   6.419   2.346   4.235
 9291SOL    HW237483   6.394   2.434   4.263
 9291SOL    HW337484   6.416   2.349   4.139
 9291SOL    MW437485   6.415   2.358   4.227
 9292SOL     OW37486   5.861   2.374   4.163
 9292SOL    HW237487   5.893   2.462   4.145
 9292SOL    HW337488   5.849   2.372   4.258
 9292SOL    MW437489   5.864   2.386   4.175
 9293SOL     OW37490   5.939   2.787   5.064
 9293SOL    HW237491   6.002   2.734   5.015
 9293SOL    HW337492   5.920   2.861   5.007
 9293SOL    MW437493   5.945   2.789   5.051
 9294SOL     OW37494   6.260   2.129   4.250
 9294SOL    HW237495   6.318   2.205   4.252
 9294SOL    HW337496   6.195   2.150   4.183
 9294SOL    MW437497   6.259   2.141   4.241
 9295SOL     OW37498   6.347   3.056   4.425
 9295SOL    HW237499   6.427   3.059   4.477
 9295SOL    HW337500   6.375   3.023   4.339
 9295SOL    MW437501   6.361   3.052   4.420
 9296SOL     OW37502   6.372   3.397   5.328
 9296SOL    HW237503   6.456   3.423   5.367
 9296SOL    HW337504   6.396   3.341   5.254
 9296SOL    MW437505   6.386   3.393   5.323
 9297SOL     OW37506   6.124   2.560   4.416
 9297SOL    HW237507   6.109   2.480   4.467
 9297SOL    HW337508   6.206   2.595   4.450
 9297SOL    MW437509   6.132   2.552   4.428
 9298SOL     OW37510   6.461   3.246   5.101
 9298SOL    HW237511   6.425   3.312   5.041
 9298SOL    HW337512   6.389   3.184   5.114
 9298SOL    MW437513   6.447   3.246   5.095
 9299SOL     OW37514   6.266   2.386   4.793
 9299SOL    HW237515   6.172   2.382   4.811
 9299SOL    HW337516   6.296   2.295   4.802
 9299SOL    MW437517   6.257   2.374   4.796
 9300SOL     OW37518   6.012   2.800   4.697
 9300SOL    HW237519   5.967   2.807   4.613
 9300SOL    HW337520   5.992   2.883   4.741
 9300SOL    MW437521   6.004   2.812   4.691
 9301SOL     OW37522   5.709   3.646   4.572
 9301SOL    HW237523   5.798   3.638   4.607
 9301SOL    HW337524   5.673   3.558   4.577
 9301SOL    MW437525   5.716   3.633   4.577
 9302SOL     OW37526   6.974   3.038   3.941
 9302SOL    HW237527   6.892   3.074   3.907
 9302SOL    HW337528   7.042   3.081   3.890
 9302SOL    MW437529   6.972   3.048   3.929
 9303SOL     OW37530   5.973   3.173   4.607
 9303SOL    HW237531   5.949   3.226   4.683
 9303SOL    HW337532   6.029   3.231   4.555
 9303SOL    MW437533   5.977   3.188   4.610
 9304SOL     OW37534   6.535   2.817   4.417
 9304SOL    HW237535   6.449   2.804   4.457
 9304SOL    HW337536   6.588   2.744   4.449
 9304SOL    MW437537   6.531   2.806   4.426
 9305SOL     OW37538   5.943   3.469   5.202
 9305SOL    HW237539   5.851   3.445   5.187
 9305SOL    HW337540   5.987   3.386   5.219
 9305SOL    MW437541   5.937   3.454   5.201
 9306SOL     OW37542   6.526   3.179   4.134
 9306SOL    HW237543   6.503   3.241   4.202
 9306SOL    HW337544   6.483   3.097   4.160
 9306SOL    MW437545   6.518   3.175   4.145
 9307SOL     OW37546   7.399   2.180   4.590
 9307SOL    HW237547   7.336   2.160   4.659
 9307SOL    HW337548   7.389   2.109   4.527
 9307SOL    MW437549   7.389   2.167   4.591
 9308SOL     OW37550   6.023   2.152   4.102
 9308SOL    HW237551   5.997   2.114   4.018
 9308SOL    HW337552   5.960   2.222   4.118
 9308SOL    MW437553   6.012   2.155   4.093
 9309SOL     OW37554   5.858   3.113   4.139
 9309SOL    HW237555   5.806   3.181   4.095
 9309SOL    HW337556   5.855   3.039   4.079
 9309SOL    MW437557   5.850   3.112   4.126
 9310SOL     OW37558   6.520   3.576   3.917
 9310SOL    HW237559   6.475   3.592   4.000
 9310SOL    HW337560   6.451   3.541   3.859
 9310SOL    MW437561   6.506   3.573   3.919
 9311SOL     OW37562   7.455   2.349   3.892
 9311SOL    HW237563   7.364   2.351   3.920
 9311SOL    HW337564   7.500   2.411   3.950
 9311SOL    MW437565   7.448   2.357   3.902
 9312SOL     OW37566   7.200   2.952   4.242
 9312SOL    HW237567   7.110   2.952   4.277
 9312SOL    HW337568   7.193   2.998   4.159
 9312SOL    MW437569   7.187   2.958   4.236
 9313SOL     OW37570   7.000   2.587   5.314
 9313SOL    HW237571   7.069   2.525   5.291
 9313SOL    HW337572   6.925   2.561   5.261
 9313SOL    MW437573   7.000   2.574   5.305
 9314SOL     OW37574   5.741   3.467   4.866
 9314SOL    HW237575   5.724   3.413   4.943
 9314SOL    HW337576   5.729   3.557   4.896
 9314SOL    MW437577   5.738   3.471   4.880
 9315SOL     OW37578   6.736   2.974   5.306
 9315SOL    HW237579   6.721   3.067   5.291
 9315SOL    HW337580   6.831   2.964   5.306
 9315SOL    MW437581   6.745   2.984   5.303
 9316SOL     OW37582   6.532   2.398   5.507
 9316SOL    HW237583   6.622   2.399   5.474
 9316SOL    HW337584   6.491   2.323   5.465
 9316SOL    MW437585   6.538   2.388   5.498
 9317SOL     OW37586   7.107   2.930   4.634
 9317SOL    HW237587   7.110   2.864   4.565
 9317SOL    HW337588   7.192   2.973   4.630
 9317SOL    MW437589   7.119   2.926   4.625
 9318SOL     OW37590   6.727   2.533   4.203
 9318SOL    HW237591   6.753   2.557   4.114
 9318SOL    HW337592   6.709   2.440   4.199
 9318SOL    MW437593   6.729   2.525   4.190
 9319SOL     OW37594   7.392   3.153   4.054
 9319SOL    HW237595   7.348   3.194   4.129
 9319SOL    HW337596   7.449   3.221   4.019
 9319SOL    MW437597   7.394   3.167   4.059
 9320SOL     OW37598   6.312   2.202   5.457
 9320SOL    HW237599   6.322   2.128   5.397
 9320SOL    HW337600   6.348   2.171   5.540
 9320SOL    MW437601   6.318   2.188   5.459
 9321SOL     OW37602   6.048   3.569   4.372
 9321SOL    HW237603   6.080   3.657   4.350
 9321SOL    HW337604   6.001   3.541   4.294
 9321SOL    MW437605   6.047   3.577   4.359
 9322SOL     OW37606   7.432   1.931   4.421
 9322SOL    HW237607   7.486   1.882   4.483
 9322SOL    HW337608   7.375   1.865   4.382
 9322SOL    MW437609   7.432   1.915   4.423
 9323SOL     OW37610   5.764   3.629   3.949
 9323SOL    HW237611   5.793   3.719   3.941
 9323SOL    HW337612   5.714   3.612   3.870
 9323SOL    MW437613   5.762   3.637   3.938
 9324SOL     OW37614   6.551   1.884   4.834
 9324SOL    HW237615   6.510   1.962   4.796
 9324SOL    HW337616   6.645   1.902   4.829
 9324SOL    MW437617   6.557   1.896   4.829
 9325SOL     OW37618   7.168   3.437   3.920
 9325SOL    HW237619   7.216   3.506   3.966
 9325SOL    HW337620   7.089   3.481   3.889
 9325SOL    MW437621   7.163   3.451   3.923
 9326SOL     OW37622   6.566   2.562   3.864
 9326SOL    HW237623   6.568   2.509   3.785
 9326SOL    HW337624   6.654   2.599   3.870
 9326SOL    MW437625   6.578   2.561   3.853
 9327SOL     OW37626   7.180   2.488   4.200
 9327SOL    HW237627   7.219   2.488   4.287
 9327SOL    HW337628   7.121   2.564   4.200
 9327SOL    MW437629   7.177   2.499   4.211
 9328SOL     OW37630   6.497   2.855   5.329
 9328SOL    HW237631   6.474   2.835   5.419
 9328SOL    HW337632   6.582   2.899   5.334
 9328SOL    MW437633   6.504   2.858   5.341
 9329SOL     OW37634   6.577   1.992   5.089
 9329SOL    HW237635   6.583   1.954   5.002
 9329SOL    HW337636   6.566   2.086   5.074
 9329SOL    MW437637   6.578   2.000   5.077
 9330SOL     OW37638   6.666   2.481   4.923
 9330SOL    HW237639   6.741   2.510   4.870
 9330SOL    HW337640   6.598   2.546   4.907
 9330SOL    MW437641   6.667   2.493   4.913
 9331SOL     OW37642   7.216   2.449   5.200
 9331SOL    HW237643   7.197   2.358   5.179
 9331SOL    HW337644   7.194   2.498   5.121
 9331SOL    MW437645   7.211   2.442   5.187
 9332SOL     OW37646   7.358   3.543   5.104
 9332SOL    HW237647   7.286   3.505   5.155
 9332SOL    HW337648   7.375   3.628   5.145
 9332SOL    MW437649   7.352   3.548   5.116
 9333SOL     OW37650   6.663   2.187   5.306
 9333SOL    HW237651   6.629   2.226   5.225
 9333SOL    HW337652   6.641   2.095   5.299
 9333SOL    MW437653   6.656   2.180   5.296
 9334SOL     OW37654   7.072   3.001   5.382
 9334SOL    HW237655   7.154   3.042   5.412
 9334SOL    HW337656   7.035   2.963   5.462
 9334SOL    MW437657   7.078   3.002   5.397
 9335SOL     OW37658   7.367   2.374   4.366
 9335SOL    HW237659   7.456   2.343   4.383
 9335SOL    HW337660   7.310   2.314   4.414
 9335SOL    MW437661   7.370   2.362   4.375
 9336SOL     OW37662   5.793   2.088   4.395
 9336SOL    HW237663   5.784   2.028   4.321
 9336SOL    HW337664   5.726   2.059   4.458
 9336SOL    MW437665   5.783   2.075   4.393
 9337SOL     OW37666   6.736   3.181   3.956
 9337SOL    HW237667   6.686   3.183   4.038
 9337SOL    HW337668   6.670   3.199   3.888
 9337SOL    MW437669   6.722   3.183   3.958
 9338SOL     OW37670   5.740   2.261   4.758
 9338SOL    HW237671   5.712   2.352   4.767
 9338SOL    HW337672   5.677   2.222   4.697
 9338SOL    MW437673   5.727   2.267   4.752
 9339SOL     OW37674   6.199   3.599   4.064
 9339SOL    HW237675   6.120   3.557   4.097
 9339SOL    HW337676   6.265   3.582   4.131
 9339SOL    MW437677   6.198   3.591   4.077
 9340SOL     OW37678   7.327   3.119   5.461
 9340SOL    HW237679   7.377   3.045   5.493
 9340SOL    HW337680   7.273   3.146   5.536
 9340SOL    MW437681   7.327   3.113   5.474
 9341SOL     OW37682   6.335   3.014   3.771
 9341SOL    HW237683   6.257   2.960   3.758
 9341SOL    HW337684   6.306   3.087   3.824
 9341SOL    MW437685   6.321   3.016   3.776
 9342SOL     OW37686   7.461   2.754   4.963
 9342SOL    HW237687   7.477   2.792   4.876
 9342SOL    HW337688   7.495   2.820   5.024
 9342SOL    MW437689   7.468   2.767   4.959
 9343SOL     OW37690   7.253   3.463   4.632
 9343SOL    HW237691   7.282   3.530   4.693
 9343SOL    HW337692   7.234   3.387   4.687
 9343SOL    MW437693   7.255   3.463   4.647
 9344SOL     OW37694   6.916   3.530   3.839
 9344SOL    HW237695   6.842   3.493   3.889
 9344SOL    HW337696   6.924   3.620   3.872
 9344SOL    MW437697   6.907   3.537   3.851
 9345SOL     OW37698   5.724   2.536   4.928
 9345SOL    HW237699   5.786   2.566   4.994
 9345SOL    HW337700   5.658   2.605   4.922
 9345SOL    MW437701   5.723   2.549   4.935
 9346SOL     OW37702   7.140   3.204   3.781
 9346SOL    HW237703   7.087   3.253   3.717
 9346SOL    HW337704   7.171   3.270   3.842
 9346SOL    MW437705   7.138   3.218   3.779
 9347SOL     OW37706   6.365   2.093   3.836
 9347SOL    HW237707   6.313   2.013   3.824
 9347SOL    HW337708   6.452   2.070   3.804
 9347SOL    MW437709   6.368   2.079   3.830
 9348SOL     OW37710   5.819   3.645   5.380
 9348SOL    HW237711   5.793   3.713   5.318
 9348SOL    HW337712   5.867   3.582   5.328
 9348SOL    MW437713   5.821   3.645   5.366
 9349SOL     OW37714   5.871   2.964   4.887
 9349SOL    HW237715   5.924   3.039   4.912
 9349SOL    HW337716   5.790   3.002   4.853
 9349SOL    MW437717   5.867   2.979   4.887
 9350SOL     OW37718   6.411   2.868   4.875
 9350SOL    HW237719   6.439   2.777   4.887
 9350SOL    HW337720   6.340   2.862   4.811
 9350SOL    MW437721   6.404   2.856   4.870
 9351SOL     OW37722   5.726   2.733   4.293
 9351SOL    HW237723   5.817   2.748   4.320
 9351SOL    HW337724   5.729   2.654   4.239
 9351SOL    MW437725   5.738   2.725   4.291
 9352SOL     OW37726   5.962   2.441   5.547
 9352SOL    HW237727   5.909   2.521   5.554
 9352SOL    HW337728   6.032   2.453   5.612
 9352SOL    MW437729   5.964   2.454   5.555
 9353SOL     OW37730   6.348   1.991   5.254
 9353SOL    HW237731   6.325   1.899   5.256
 9353SOL    HW337732   6.434   1.993   5.211
 9353SOL    MW437733   6.355   1.981   5.250
 9354SOL     OW37734   6.032   2.515   5.293
 9354SOL    HW237735   6.112   2.565   5.279
 9354SOL    HW337736   6.023   2.509   5.388
 9354SOL    MW437737   6.041   2.521   5.303
 9355SOL     OW37738   6.353   3.665   4.667
 9355SOL    HW237739   6.442   3.680   4.697
 9355SOL    HW337740   6.348   3.712   4.583
 9355SOL    MW437741   6.363   3.673   4.660
 9356SOL     OW37742   7.009   2.040   5.564
 9356SOL    HW237743   7.065   1.967   5.590
 9356SOL    HW337744   6.979   2.078   5.646
 9356SOL    MW437745   7.013   2.035   5.577
 9357SOL     OW37746   6.567   3.388   4.367
 9357SOL    HW237747   6.650   3.342   4.351
 9357SOL    HW337748   6.557   3.387   4.463
 9357SOL    MW437749   6.577   3.381   4.377
 9358SOL     OW37750   7.399   2.533   4.681
 9358SOL    HW237751   7.488   2.563   4.663
 9358SOL    HW337752   7.379   2.473   4.610
 9358SOL    MW437753   7.408   2.530   4.670
 9359SOL     OW37754   7.250   2.712   5.561
 9359SOL    HW237755   7.305   2.636   5.542
 9359SOL    HW337756   7.252   2.720   5.656
 9359SOL    MW437757   7.258   2.703   5.569
 9360SOL     OW37758   6.300   3.445   3.772
 9360SOL    HW237759   6.240   3.514   3.742
 9360SOL    HW337760   6.245   3.387   3.825
 9360SOL    MW437761   6.284   3.447   3.774
 9361SOL     OW37762   6.738   2.090   3.995
 9361SOL    HW237763   6.671   2.066   3.932
 9361SOL    HW337764   6.803   2.139   3.944
 9361SOL    MW437765   6.738   2.092   3.980
 9362SOL     OW37766   6.545   2.274   5.080
 9362SOL    HW237767   6.464   2.315   5.108
 9362SOL    HW337768   6.592   2.342   5.032
 9362SOL    MW437769   6.540   2.289   5.078
 9363SOL     OW37770   6.805   2.612   4.703
 9363SOL    HW237771   6.818   2.706   4.713
 9363SOL    HW337772   6.766   2.602   4.617
 9363SOL    MW437773   6.801   2.623   4.693
 9364SOL     OW37774   6.257   2.807   4.507
 9364SOL    HW237775   6.168   2.798   4.540
 9364SOL    HW337776   6.261   2.897   4.475
 9364SOL    MW437777   6.246   2.818   4.507
 9365SOL     OW37778   7.056   2.390   4.502
 9365SOL    HW237779   7.001   2.311   4.501
 9365SOL    HW337780   7.038   2.431   4.586
 9365SOL    MW437781   7.046   2.385   4.511
 9366SOL     OW37782   6.027   2.077   5.319
 9366SOL    HW237783   5.948   2.095   5.371
 9366SOL    HW337784   6.022   2.139   5.246
 9366SOL    MW437785   6.017   2.087   5.316
 9367SOL     OW37786   6.675   2.594   4.459
 9367SOL    HW237787   6.612   2.526   4.483
 9367SOL    HW337788   6.695   2.575   4.367
 9367SOL    MW437789   6.669   2.581   4.451
 9368SOL     OW37790   5.931   3.489   4.161
 9368SOL    HW237791   5.892   3.536   4.087
 9368SOL    HW337792   5.865   3.424   4.186
 9368SOL    MW437793   5.918   3.487   4.155
 9369SOL     OW37794   6.423   2.898   4.185
 9369SOL    HW237795   6.425   2.872   4.092
 9369SOL    HW337796   6.481   2.835   4.228
 9369SOL    MW437797   6.431   2.887   4.179
 9370SOL     OW37798   6.976   3.458   4.957
 9370SOL    HW237799   6.901   3.504   4.995
 9370SOL    HW337800   6.958   3.365   4.974
 9370SOL    MW437801   6.965   3.452   4.965
 9371SOL     OW37802   6.980   3.666   4.387
 9371SOL    HW237803   6.923   3.619   4.326
 9371SOL    HW337804   7.066   3.627   4.374
 9371SOL    MW437805   6.983   3.657   4.377
 9372SOL     OW37806   6.933   2.142   4.518
 9372SOL    HW237807   6.961   2.074   4.579
 9372SOL    HW337808   6.847   2.113   4.488
 9372SOL    MW437809   6.926   2.129   4.522
 9373SOL     OW37810   5.738   3.076   4.452
 9373SOL    HW237811   5.802   3.108   4.515
 9373SOL    HW337812   5.787   3.012   4.400
 9373SOL    MW437813   5.753   3.072   4.453
 9374SOL     OW37814   6.238   3.152   5.434
 9374SOL    HW237815   6.286   3.235   5.421
 9374SOL    HW337816   6.295   3.100   5.490
 9374SOL    MW437817   6.252   3.156   5.440
 9375SOL     OW37818   5.814   3.394   5.574
 9375SOL    HW237819   5.870   3.318   5.589
 9375SOL    HW337820   5.763   3.372   5.496
 9375SOL    MW437821   5.814   3.381   5.565
 9376SOL     OW37822   6.913   2.246   3.853
 9376SOL    HW237823   6.886   2.312   3.789
 9376SOL    HW337824   6.983   2.289   3.903
 9376SOL    MW437825   6.918   2.259   3.850
 9377SOL     OW37826   6.581   1.951   3.790
 9377SOL    HW237827   6.637   1.943   3.712
 9377SOL    HW337828   6.558   1.861   3.812
 9377SOL    MW437829   6.586   1.938   3.783
 9378SOL     OW37830   7.086   2.802   3.995
 9378SOL    HW237831   7.053   2.891   3.985
 9378SOL    HW337832   7.051   2.773   4.080
 9378SOL    MW437833   7.076   2.811   4.006
 9379SOL     OW37834   6.699   3.231   5.183
 9379SOL    HW237835   6.610   3.237   5.151
 9379SOL    HW337836   6.743   3.310   5.151
 9379SOL    MW437837   6.694   3.241   5.175
 9380SOL     OW37838   5.992   1.899   5.525
 9380SOL    HW237839   5.920   1.864   5.473
 9380SOL    HW337840   6.050   1.940   5.460
 9380SOL    MW437841   5.990   1.900   5.510
 9381SOL     OW37842   6.016   3.389   4.824
 9381SOL    HW237843   6.061   3.451   4.881
 9381SOL    HW337844   5.923   3.408   4.837
 9381SOL    MW437845   6.009   3.399   4.831
 9382SOL     OW37846   7.456   2.918   5.178
 9382SOL    HW237847   7.371   2.931   5.137
 9382SOL    HW337848   7.436   2.882   5.265
 9382SOL    MW437849   7.443   2.914   5.183
 9383SOL     OW37850   6.438   3.457   4.932
 9383SOL    HW237851   6.462   3.446   4.841
 9383SOL    HW337852   6.361   3.514   4.930
 9383SOL    MW437853   6.430   3.462   4.921
 9384SOL     OW37854   6.080   2.840   3.787
 9384SOL    HW237855   6.003   2.853   3.843
 9384SOL    HW337856   6.044   2.804   3.706
 9384SOL    MW437857   6.066   2.836   3.784
 9385SOL     OW37858   6.733   2.813   4.030
 9385SOL    HW237859   6.643   2.834   4.005
 9385SOL    HW337860   6.760   2.886   4.086
 9385SOL    MW437861   6.725   2.825   4.033
 9386SOL     OW37862   6.233   3.162   4.722
 9386SOL    HW237863   6.226   3.141   4.816
 9386SOL    HW337864   6.151   3.130   4.685
 9386SOL    MW437865   6.221   3.156   4.729
 9387SOL     OW37866   7.097   2.172   5.124
 9387SOL    HW237867   7.044   2.174   5.204
 9387SOL    HW337868   7.082   2.085   5.087
 9387SOL    MW437869   7.089   2.162   5.129
 9388SOL     OW37870   7.433   2.096   4.997
 9388SOL    HW237871   7.414   2.163   4.932
 9388SOL    HW337872   7.490   2.034   4.952
 9388SOL    MW437873   7.437   2.097   4.983
 9389SOL     OW37874   5.679   3.254   5.385
 9389SOL    HW237875   5.723   3.187   5.331
 9389SOL    HW337876   5.594   3.216   5.405
 9389SOL    MW437877   5.674   3.240   5.381
 9390SOL     OW37878   6.362   1.929   4.437
 9390SOL    HW237879   6.291   1.990   4.419
 9390SOL    HW337880   6.413   1.926   4.356
 9390SOL    MW437881   6.358   1.935   4.424
 9391SOL     OW37882   6.120   3.169   4.186
 9391SOL    HW237883   6.113   3.201   4.276
 9391SOL    HW337884   6.030   3.153   4.158
 9391SOL    MW437885   6.108   3.171   4.193
 9392SOL     OW37886   6.715   3.562   5.095
 9392SOL    HW237887   6.635   3.547   5.045
 9392SOL    HW337888   6.722   3.657   5.102
 9392SOL    MW437889   6.706   3.573   5.089
 9393SOL     OW37890   6.829   3.527   4.585
 9393SOL    HW237891   6.876   3.600   4.544
 9393SOL    HW337892   6.750   3.566   4.621
 9393SOL    MW437893   6.824   3.542   4.584
 9394SOL     OW37894   7.237   3.622   4.860
 9394SOL    HW237895   7.280   3.592   4.940
 9394SOL    HW337896   7.156   3.570   4.857
 9394SOL    MW437897   7.232   3.611   4.870
 9395SOL     OW37898   6.322   2.586   5.567
 9395SOL    HW237899   6.392   2.528   5.539
 9395SOL    HW337900   6.265   2.531   5.622
 9395SOL    MW437901   6.324   2.573   5.571
 9396SOL     OW37902   7.109   2.798   5.200
 9396SOL    HW237903   7.114   2.851   5.280
 9396SOL    HW337904   7.071   2.715   5.228
 9396SOL    MW437905   7.105   2.793   5.215
 9397SOL     OW37906   6.749   1.933   5.446
 9397SOL    HW237907   6.744   1.840   5.427
 9397SOL    HW337908   6.832   1.944   5.492
 9397SOL    MW437909   6.757   1.922   5.450
 9398SOL     OW37910   6.123   2.453   3.900
 9398SOL    HW237911   6.089   2.509   3.970
 9398SOL    HW337912   6.194   2.403   3.940
 9398SOL    MW437913   6.129   2.454   3.914
 9399SOL     OW37914   7.219   3.204   4.722
 9399SOL    HW237915   7.254   3.186   4.635
 9399SOL    HW337916   7.124   3.205   4.709
 9399SOL    MW437917   7.211   3.201   4.709
 9400SOL     OW37918   6.648   2.852   5.091
 9400SOL    HW237919   6.691   2.887   5.169
 9400SOL    HW337920   6.631   2.929   5.037
 9400SOL    MW437921   6.651   2.867   5.094
 9401SOL     OW37922   7.179   2.339   3.964
 9401SOL    HW237923   7.171   2.410   3.901
 9401SOL    HW337924   7.197   2.383   4.047
 9401SOL    MW437925   7.180   2.353   3.966
 9402SOL     OW37926   6.039   1.994   4.393
 9402SOL    HW237927   6.089   2.037   4.324
 9402SOL    HW337928   5.954   2.038   4.393
 9402SOL    MW437929   6.036   2.007   4.384
 9403SOL     OW37930   5.798   3.056   5.253
 9403SOL    HW237931   5.826   3.009   5.331
 9403SOL    HW337932   5.719   3.011   5.224
 9403SOL    MW437933   5.791   3.045   5.259
 9404SOL     OW37934   6.306   2.383   5.220
 9404SOL    HW237935   6.278   2.471   5.244
 9404SOL    HW337936   6.275   2.327   5.291
 9404SOL    MW437937   6.298   2.386   5.232
 9405SOL     OW37938   6.848   2.601   3.939
 9405SOL    HW237939   6.895   2.619   3.858
 9405SOL    HW337940   6.814   2.685   3.967
 9405SOL    MW437941   6.850   2.615   3.932
 9406SOL     OW37942   5.961   2.779   4.433
 9406SOL    HW237943   6.019   2.835   4.381
 9406SOL    HW337944   6.005   2.694   4.435
 9406SOL    MW437945   5.974   2.776   4.426
 9407SOL     OW37946   7.101   2.131   4.270
 9407SOL    HW237947   7.023   2.081   4.295
 9407SOL    HW337948   7.072   2.222   4.270
 9407SOL    MW437949   7.087   2.135   4.273
 9408SOL     OW37950   6.687   2.093   4.429
 9408SOL    HW237951   6.707   2.168   4.373
 9408SOL    HW337952   6.667   2.132   4.514
 9408SOL    MW437953   6.688   2.109   4.433
 9409SOL     OW37954   6.583   3.343   3.761
 9409SOL    HW237955   6.610   3.421   3.713
 9409SOL    HW337956   6.490   3.358   3.780
 9409SOL    MW437957   6.574   3.356   3.757
 9410SOL     OW37958   7.447   2.866   5.448
 9410SOL    HW237959   7.360   2.846   5.484
 9410SOL    HW337960   7.501   2.792   5.473
 9410SOL    MW437961   7.442   2.855   5.456
 9411SOL     OW37962   5.668   3.379   4.605
 9411SOL    HW237963   5.700   3.383   4.696
 9411SOL    HW337964   5.573   3.387   4.613
 9411SOL    MW437965   5.660   3.382   4.618
 9412SOL     OW37966   5.623   2.505   4.152
 9412SOL    HW237967   5.563   2.477   4.222
 9412SOL    HW337968   5.697   2.445   4.158
 9412SOL    MW437969   5.625   2.494   4.161
 9413SOL     OW37970   7.191   3.717   5.586
 9413SOL    HW237971   7.236   3.641   5.551
 9413SOL    HW337972   7.229   3.730   5.673
 9413SOL    MW437973   7.201   3.710   5.592
 9414SOL     OW37974   6.791   3.236   4.312
 9414SOL    HW237975   6.814   3.187   4.390
 9414SOL    HW337976   6.872   3.278   4.284
 9414SOL    MW437977   6.804   3.236   4.319
 9415SOL     OW37978   6.049   2.244   5.041
 9415SOL    HW237979   6.082   2.325   5.081
 9415SOL    HW337980   6.022   2.270   4.953
 9415SOL    MW437981   6.048   2.258   5.035
 9416SOL     OW37982   6.003   2.211   4.777
 9416SOL    HW237983   6.033   2.125   4.748
 9416SOL    HW337984   5.908   2.204   4.780
 9416SOL    MW437985   5.995   2.200   4.775
 9417SOL     OW37986   6.832   2.420   5.468
 9417SOL    HW237987   6.884   2.355   5.421
 9417SOL    HW337988   6.790   2.471   5.398
 9417SOL    MW437989   6.833   2.417   5.451
 9418SOL     OW37990   6.931   2.215   5.329
 9418SOL    HW237991   6.838   2.199   5.316
 9418SOL    HW337992   6.957   2.153   5.397
 9418SOL    MW437993   6.921   2.205   5.336
 9419SOL     OW37994   6.146   1.989   4.668
 9419SOL    HW237995   6.156   1.898   4.694
 9419SOL    HW337996   6.102   1.985   4.583
 9419SOL    MW437997   6.142   1.977   4.660
 9420SOL     OW37998   6.240   3.604   5.214
 9420SOL    HW237999   6.157   3.589   5.259
 9420SOL    HW338000   6.299   3.537   5.249
 9420SOL    MW438001   6.238   3.594   5.224
 9421SOL     OW38002   7.297   2.311   4.839
 9421SOL    HW238003   7.230   2.344   4.899
 9421SOL    HW338004   7.340   2.389   4.805
 9421SOL    MW438005   7.295   2.326   4.843
 9422SOL     OW38006   7.475   3.031   4.809
 9422SOL    HW238007   7.468   2.971   4.734
 9422SOL    HW338008   7.401   3.091   4.798
 9422SOL    MW438009   7.465   3.031   4.798
 9423SOL     OW38010   6.857   2.893   4.727
 9423SOL    HW238011   6.871   2.865   4.818
 9423SOL    HW338012   6.943   2.924   4.699
 9423SOL    MW438013   6.870   2.894   4.736
 9424SOL     OW38014   6.940   2.388   5.006
 9424SOL    HW238015   6.961   2.389   4.913
 9424SOL    HW338016   6.985   2.310   5.039
 9424SOL    MW438017   6.947   2.378   4.998
 9425SOL     OW38018   7.433   2.519   5.548
 9425SOL    HW238019   7.470   2.464   5.617
 9425SOL    HW338020   7.458   2.476   5.466
 9425SOL    MW438021   7.440   2.507   5.547
 9426SOL     OW38022   6.980   2.817   5.600
 9426SOL    HW238023   7.046   2.765   5.554
 9426SOL    HW338024   7.000   2.804   5.693
 9426SOL    MW438025   6.991   2.808   5.607
 9427SOL     OW38026   6.931   1.903   3.948
 9427SOL    HW238027   7.005   1.947   3.991
 9427SOL    HW338028   6.855   1.957   3.970
 9427SOL    MW438029   6.931   1.915   3.956
 9428SOL     OW38030   6.991   2.678   4.226
 9428SOL    HW238031   6.906   2.648   4.196
 9428SOL    HW338032   6.983   2.685   4.321
 9428SOL    MW438033   6.979   2.676   4.235
 9429SOL     OW38034   6.067   3.141   4.957
 9429SOL    HW238035   6.079   3.168   5.048
 9429SOL    HW338036   6.048   3.222   4.910
 9429SOL    MW438037   6.066   3.156   4.962
 9430SOL     OW38038   6.351   2.121   4.780
 9430SOL    HW238039   6.324   2.123   4.871
 9430SOL    HW338040   6.281   2.073   4.735
 9430SOL    MW438041   6.339   2.117   4.787
 9431SOL     OW38042   6.205   3.613   4.942
 9431SOL    HW238043   6.257   3.690   4.919
 9431SOL    HW338044   6.214   3.605   5.037
 9431SOL    MW438045   6.214   3.620   4.953
 9432SOL     OW38046   7.107   3.198   5.174
 9432SOL    HW238047   7.092   3.127   5.237
 9432SOL    HW338048   7.153   3.156   5.102
 9432SOL    MW438049   7.113   3.182   5.174
 9433SOL     OW38050   6.181   2.929   5.291
 9433SOL    HW238051   6.218   2.934   5.203
 9433SOL    HW338052   6.220   3.002   5.338
 9433SOL    MW438053   6.191   2.939   5.286
 9434SOL     OW38054   6.361   2.972   5.103
 9434SOL    HW238055   6.420   2.918   5.156
 9434SOL    HW338056   6.376   2.944   5.013
 9434SOL    MW438057   6.371   2.961   5.099
 9435SOL     OW38058   6.364   2.344   3.952
 9435SOL    HW238059   6.437   2.393   3.915
 9435SOL    HW338060   6.380   2.253   3.926
 9435SOL    MW438061   6.376   2.339   3.945
 9436SOL     OW38062   7.172   3.461   5.275
 9436SOL    HW238063   7.214   3.446   5.360
 9436SOL    HW338064   7.163   3.374   5.237
 9436SOL    MW438065   7.176   3.449   5.282
 9437SOL     OW38066   6.832   1.940   4.866
 9437SOL    HW238067   6.887   1.949   4.788
 9437SOL    HW338068   6.887   1.974   4.937
 9437SOL    MW438069   6.846   1.945   4.865
 9438SOL     OW38070   5.839   2.853   4.050
 9438SOL    HW238071   5.776   2.869   3.979
 9438SOL    HW338072   5.786   2.816   4.121
 9438SOL    MW438073   5.824   2.850   4.050
 9439SOL     OW38074   6.195   3.207   3.909
 9439SOL    HW238075   6.210   3.183   4.001
 9439SOL    HW338076   6.103   3.185   3.893
 9439SOL    MW438077   6.185   3.200   3.919
 9440SOL     OW38078   6.734   3.438   4.061
 9440SOL    HW238079   6.742   3.356   4.012
 9440SOL    HW338080   6.653   3.477   4.028
 9440SOL    MW438081   6.724   3.433   4.051
 9441SOL     OW38082   5.993   3.596   4.630
 9441SOL    HW238083   5.997   3.507   4.665
 9441SOL    HW338084   6.019   3.587   4.539
 9441SOL    MW438085   5.996   3.584   4.622
 9442SOL     OW38086   6.610   3.074   4.873
 9442SOL    HW238087   6.542   3.008   4.889
 9442SOL    HW338088   6.628   3.068   4.780
 9442SOL    MW438089   6.603   3.065   4.864
 9443SOL     OW38090   5.699   3.349   5.124
 9443SOL    HW238091   5.689   3.307   5.210
 9443SOL    HW338092   5.620   3.402   5.114
 9443SOL    MW438093   5.688   3.350   5.135
 9444SOL     OW38094   6.603   2.213   4.694
 9444SOL    HW238095   6.533   2.165   4.739
 9444SOL    HW338096   6.635   2.276   4.758
 9444SOL    MW438097   6.598   2.215   4.708
 9445SOL     OW38098   6.254   2.649   5.314
 9445SOL    HW238099   6.247   2.744   5.302
 9445SOL    HW338100   6.263   2.638   5.409
 9445SOL    MW438101   6.255   2.661   5.324
 9446SOL     OW38102   5.975   3.164   5.572
 9446SOL    HW238103   6.047   3.166   5.509
 9446SOL    HW338104   5.945   3.073   5.571
 9446SOL    MW438105   5.980   3.153   5.564
 9447SOL     OW38106   7.059   1.927   5.039
 9447SOL    HW238107   7.130   1.873   5.003
 9447SOL    HW338108   7.058   1.906   5.132
 9447SOL    MW438109   7.068   1.918   5.047
 9448SOL     OW38110   7.259   3.457   5.523
 9448SOL    HW238111   7.232   3.454   5.614
 9448SOL    HW338112   7.355   3.461   5.526
 9448SOL    MW438113   7.269   3.457   5.535
 9449SOL     OW38114   6.070   2.319   4.507
 9449SOL    HW238115   6.141   2.267   4.470
 9449SOL    HW338116   6.056   2.284   4.594
 9449SOL    MW438117   6.078   2.308   4.514
 9450SOL     OW38118   5.625   3.654   5.579
 9450SOL    HW238119   5.675   3.632   5.501
 9450SOL    HW338120   5.633   3.749   5.587
 9450SOL    MW438121   5.633   3.663   5.570
 9451SOL     OW38122   6.386   3.412   4.583
 9451SOL    HW238123   6.314   3.349   4.596
 9451SOL    HW338124   6.347   3.497   4.601
 9451SOL    MW438125   6.370   3.415   4.586
 9452SOL     OW38126   6.706   2.260   4.231
 9452SOL    HW238127   6.728   2.197   4.163
 9452SOL    HW338128   6.611   2.252   4.242
 9452SOL    MW438129   6.696   2.251   4.223
 9453SOL     OW38130   5.791   1.950   4.163
 9453SOL    HW238131   5.862   1.971   4.102
 9453SOL    HW338132   5.745   1.878   4.121
 9453SOL    MW438133   5.795   1.944   4.149
 9454SOL     OW38134   5.622   2.417   5.306
 9454SOL    HW238135   5.686   2.483   5.281
 9454SOL    HW338136   5.541   2.444   5.263
 9454SOL    MW438137   5.620   2.429   5.298
 9455SOL     OW38138   7.360   3.324   4.263
 9455SOL    HW238139   7.330   3.257   4.324
 9455SOL    HW338140   7.454   3.330   4.277
 9455SOL    MW438141   7.368   3.316   4.273
 9456SOL     OW38142   6.916   3.001   4.193
 9456SOL    HW238143   6.888   3.087   4.226
 9456SOL    HW338144   6.944   3.017   4.103
 9456SOL    MW438145   6.916   3.015   4.185
 9457SOL     OW38146   6.578   1.921   4.246
 9457SOL    HW238147   6.615   1.980   4.311
 9457SOL    HW338148   6.555   1.977   4.172
 9457SOL    MW438149   6.579   1.936   4.245
 9458SOL     OW38150   7.431   2.803   4.668
 9458SOL    HW238151   7.422   2.835   4.579
 9458SOL    HW338152   7.384   2.719   4.668
 9458SOL    MW438153   7.424   2.796   4.658
 9459SOL     OW38154   5.807   2.643   5.247
 9459SOL    HW238155   5.828   2.712   5.185
 9459SOL    HW338156   5.887   2.590   5.252
 9459SOL    MW438157   5.820   2.644   5.241
 9460SOL     OW38158   7.343   2.734   4.369
 9460SOL    HW238159   7.437   2.723   4.357
 9460SOL    HW338160   7.319   2.806   4.310
 9460SOL    MW438161   7.353   2.742   4.360
 9461SOL     OW38162   5.792   2.658   5.514
 9461SOL    HW238163   5.718   2.602   5.540
 9461SOL    HW338164   5.787   2.661   5.419
 9461SOL    MW438165   5.781   2.651   5.504
 9462SOL     OW38166   5.958   1.945   4.964
 9462SOL    HW238167   6.001   2.029   4.984
 9462SOL    HW338168   6.031   1.883   4.957
 9462SOL    MW438169   5.973   1.948   4.965
 9463SOL     OW38170   5.999   2.612   4.142
 9463SOL    HW238171   5.999   2.707   4.127
 9463SOL    HW338172   6.076   2.596   4.196
 9463SOL    MW438173   6.009   2.623   4.147
 9464SOL     OW38174   6.775   2.471   5.206
 9464SOL    HW238175   6.811   2.444   5.122
 9464SOL    HW338176   6.688   2.505   5.185
 9464SOL    MW438177   6.769   2.472   5.193
 9465SOL     OW38178   5.758   2.343   4.431
 9465SOL    HW238179   5.820   2.350   4.504
 9465SOL    HW338180   5.758   2.250   4.408
 9465SOL    MW438181   5.766   2.332   4.438
 9466SOL     OW38182   7.305   3.683   3.963
 9466SOL    HW238183   7.372   3.716   3.903
 9466SOL    HW338184   7.262   3.762   3.997
 9466SOL    MW438185   7.307   3.698   3.959
 9467SOL     OW38186   6.440   2.604   4.915
 9467SOL    HW238187   6.398   2.522   4.891
 9467SOL    HW338188   6.441   2.603   5.011
 9467SOL    MW438189   6.433   2.593   4.924
 9468SOL     OW38190   7.111   3.737   5.314
 9468SOL    HW238191   7.114   3.643   5.297
 9468SOL    HW338192   7.134   3.745   5.406
 9468SOL    MW438193   7.114   3.725   5.324
 9469SOL     OW38194   6.244   2.074   5.020
 9469SOL    HW238195   6.175   2.137   5.041
 9469SOL    HW338196   6.271   2.038   5.105
 9469SOL    MW438197   6.238   2.077   5.033
 9470SOL     OW38198   5.627   2.915   3.889
 9470SOL    HW238199   5.596   2.980   3.952
 9470SOL    HW338200   5.576   2.837   3.908
 9470SOL    MW438201   5.617   2.912   3.899
 9471SOL     OW38202   7.039   1.927   4.637
 9471SOL    HW238203   7.127   1.936   4.674
 9471SOL    HW338204   7.049   1.868   4.563
 9471SOL    MW438205   7.053   1.921   4.631
 9472SOL     OW38206   7.071   2.666   4.481
 9472SOL    HW238207   7.151   2.681   4.430
 9472SOL    HW338208   7.064   2.571   4.487
 9472SOL    MW438209   7.080   2.655   4.476
 9473SOL     OW38210   6.211   3.715   3.831
 9473SOL    HW238211   6.116   3.715   3.823
 9473SOL    HW338212   6.227   3.661   3.909
 9473SOL    MW438213   6.201   3.709   3.840
 9474SOL     OW38214   6.521   2.592   5.178
 9474SOL    HW238215   6.590   2.659   5.175
 9474SOL    HW338216   6.454   2.630   5.234
 9474SOL    MW438217   6.522   2.605   5.185
 9475SOL     OW38218   5.939   2.892   5.426
 9475SOL    HW238219   5.893   2.808   5.428
 9475SOL    HW338220   5.996   2.886   5.350
 9475SOL    MW438221   5.941   2.880   5.418
 9476SOL     OW38222   7.056   2.535   3.747
 9476SOL    HW238223   6.984   2.511   3.689
 9476SOL    HW338224   7.122   2.572   3.689
 9476SOL    MW438225   7.055   2.537   3.732
 9477SOL     OW38226   6.190   3.267   4.427
 9477SOL    HW238227   6.255   3.200   4.448
 9477SOL    HW338228   6.242   3.344   4.404
 9477SOL    MW438229   6.205   3.269   4.426
 9478SOL     OW38230   6.451   2.432   4.557
 9478SOL    HW238231   6.391   2.450   4.629
 9478SOL    HW338232   6.485   2.344   4.576
 9478SOL    MW438233   6.447   2.422   4.570
 9479SOL     OW38234   7.392   1.931   5.226
 9479SOL    HW238235   7.313   1.977   5.254
 9479SOL    HW338236   7.427   1.985   5.155
 9479SOL    MW438237   7.386   1.944   5.220
 9480SOL     OW38238   6.676   3.015   4.576
 9480SOL    HW238239   6.768   2.996   4.594
 9480SOL    HW338240   6.649   2.945   4.516
 9480SOL    MW438241   6.684   3.003   4.570
 9481SOL     OW38242   6.469   2.835   3.931
 9481SOL    HW238243   6.455   2.747   3.896
 9481SOL    HW338244   6.420   2.892   3.872
 9481SOL    MW438245   6.461   2.830   3.919
 9482SOL     OW38246   6.950   3.253   4.672
 9482SOL    HW238247   6.923   3.337   4.637
 9482SOL    HW338248   6.910   3.248   4.759
 9482SOL    MW438249   6.943   3.262   4.678
 9483SOL     OW38250   6.869   3.201   4.940
 9483SOL    HW238251   6.880   3.168   5.029
 9483SOL    HW338252   6.788   3.160   4.909
 9483SOL    MW438253   6.859   3.193   4.946
 9484SOL     OW38254   5.882   2.559   4.710
 9484SOL    HW238255   5.832   2.558   4.791
 9484SOL    HW338256   5.902   2.651   4.694
 9484SOL    MW438257   5.878   2.571   4.718
 9485SOL     OW38258   6.949   3.323   5.472
 9485SOL    HW238259   6.949   3.417   5.488
 9485SOL    HW338260   6.994   3.313   5.388
 9485SOL    MW438261   6.955   3.333   5.463
 9486SOL     OW38262   7.188   2.041   4.033
 9486SOL    HW238263   7.181   2.045   4.128
 9486SOL    HW338264   7.200   2.132   4.006
 9486SOL    MW438265   7.189   2.054   4.041
 9487SOL     OW38266   6.477   2.604   4.147
 9487SOL    HW238267   6.457   2.590   4.054
 9487SOL    HW338268   6.570   2.583   4.154
 9487SOL    MW438269   6.487   2.599   4.136
 9488SOL     OW38270   5.804   2.227   5.451
 9488SOL    HW238271   5.761   2.286   5.388
 9488SOL    HW338272   5.872   2.282   5.491
 9488SOL    MW438273   5.808   2.242   5.448
 9489SOL     OW38274   6.916   2.847   4.996
 9489SOL    HW238275   6.979   2.844   5.069
 9489SOL    HW338276   6.832   2.865   5.038
 9489SOL    MW438277   6.912   2.849   5.011
 9490SOL     OW38278   6.460   3.562   4.185
 9490SOL    HW238279   6.518   3.633   4.212
 9490SOL    HW338280   6.483   3.490   4.243
 9490SOL    MW438281   6.471   3.562   4.196
 9491SOL     OW38282   7.255   2.024   4.775
 9491SOL    HW238283   7.300   1.942   4.794
 9491SOL    HW338284   7.275   2.080   4.851
 9491SOL    MW438285   7.265   2.020   4.787
 9492SOL     OW38286   5.703   1.867   4.874
 9492SOL    HW238287   5.694   1.868   4.779
 9492SOL    HW338288   5.797   1.879   4.889
 9492SOL    MW438289   5.715   1.870   4.865
 9493SOL     OW38290   7.340   3.060   4.494
 9493SOL    HW238291   7.319   3.006   4.417
 9493SOL    HW338292   7.436   3.058   4.498
 9493SOL    MW438293   7.349   3.053   4.483
 9494SOL     OW38294   6.032   3.205   5.237
 9494SOL    HW238295   5.953   3.155   5.260
 9494SOL    HW338296   6.102   3.164   5.287
 9494SOL    MW438297   6.030   3.193   5.247
 9495SOL     OW38298   5.916   1.994   3.920
 9495SOL    HW238299   5.845   2.049   3.888
 9495SOL    HW338300   5.958   1.960   3.841
 9495SOL    MW438301   5.912   1.996   3.906
 9496SOL     OW38302   7.040   2.491   4.756
 9496SOL    HW238303   6.963   2.537   4.722
 9496SOL    HW338304   7.097   2.560   4.790
 9496SOL    MW438305   7.037   2.506   4.756
 9497SOL     OW38306   5.672   2.093   3.769
 9497SOL    HW238307   5.639   2.172   3.813
 9497SOL    HW338308   5.727   2.126   3.698
 9497SOL    MW438309   5.675   2.107   3.766
 9498SOL     OW38310   5.706   3.350   3.958
 9498SOL    HW238311   5.723   3.434   4.000
 9498SOL    HW338312   5.741   3.359   3.870
 9498SOL    MW438313   5.711   3.363   3.952
 9499SOL     OW38314   6.978   3.439   4.175
 9499SOL    HW238315   7.041   3.429   4.104
 9499SOL    HW338316   6.895   3.459   4.130
 9499SOL    MW438317   6.975   3.440   4.160
 9500SOL     OW38318   7.341   2.707   5.862
 9500SOL    HW238319   7.382   2.649   5.927
 9500SOL    HW338320   7.248   2.699   5.879
 9500SOL    MW438321   7.335   2.699   5.872
 9501SOL     OW38322   6.135   2.890   6.091
 9501SOL    HW238323   6.225   2.865   6.075
 9501SOL    HW338324   6.131   2.983   6.068
 9501SOL    MW438325   6.147   2.899   6.086
 9502SOL     OW38326   5.861   2.374   6.032
 9502SOL    HW238327   5.893   2.462   6.014
 9502SOL    HW338328   5.849   2.372   6.127
 9502SOL    MW438329   5.864   2.386   6.044
 9503SOL     OW38330   6.974   3.038   5.810
 9503SOL    HW238331   6.892   3.074   5.776
 9503SOL    HW338332   7.042   3.081   5.759
 9503SOL    MW438333   6.972   3.048   5.798
 9504SOL     OW38334   6.535   2.817   6.286
 9504SOL    HW238335   6.449   2.804   6.326
 9504SOL    HW338336   6.588   2.744   6.318
 9504SOL    MW438337   6.531   2.806   6.295
 9505SOL     OW38338   6.526   3.179   6.003
 9505SOL    HW238339   6.503   3.241   6.071
 9505SOL    HW338340   6.483   3.097   6.029
 9505SOL    MW438341   6.518   3.175   6.014
 9506SOL     OW38342   6.023   2.152   5.971
 9506SOL    HW238343   5.997   2.114   5.887
 9506SOL    HW338344   5.960   2.222   5.987
 9506SOL    MW438345   6.012   2.155   5.962
 9507SOL     OW38346   5.858   3.113   6.008
 9507SOL    HW238347   5.806   3.181   5.964
 9507SOL    HW338348   5.855   3.039   5.948
 9507SOL    MW438349   5.850   3.112   5.995
 9508SOL     OW38350   6.520   3.576   5.786
 9508SOL    HW238351   6.475   3.592   5.869
 9508SOL    HW338352   6.451   3.541   5.728
 9508SOL    MW438353   6.506   3.573   5.788
 9509SOL     OW38354   7.455   2.349   5.761
 9509SOL    HW238355   7.364   2.351   5.789
 9509SOL    HW338356   7.500   2.411   5.819
 9509SOL    MW438357   7.448   2.357   5.771
 9510SOL     OW38358   7.200   2.952   6.111
 9510SOL    HW238359   7.110   2.952   6.146
 9510SOL    HW338360   7.193   2.998   6.028
 9510SOL    MW438361   7.187   2.958   6.105
 9511SOL     OW38362   6.727   2.533   6.072
 9511SOL    HW238363   6.753   2.557   5.983
 9511SOL    HW338364   6.709   2.440   6.068
 9511SOL    MW438365   6.729   2.525   6.059
 9512SOL     OW38366   7.392   3.153   5.923
 9512SOL    HW238367   7.348   3.194   5.998
 9512SOL    HW338368   7.449   3.221   5.888
 9512SOL    MW438369   7.394   3.167   5.928
 9513SOL     OW38370   5.764   3.629   5.818
 9513SOL    HW238371   5.793   3.719   5.810
 9513SOL    HW338372   5.714   3.612   5.739
 9513SOL    MW438373   5.762   3.637   5.807
 9514SOL     OW38374   7.168   3.437   5.789
 9514SOL    HW238375   7.216   3.506   5.835
 9514SOL    HW338376   7.089   3.481   5.758
 9514SOL    MW438377   7.163   3.451   5.792
 9515SOL     OW38378   6.566   2.562   5.733
 9515SOL    HW238379   6.568   2.509   5.654
 9515SOL    HW338380   6.654   2.599   5.739
 9515SOL    MW438381   6.578   2.561   5.722
 9516SOL     OW38382   7.180   2.488   6.069
 9516SOL    HW238383   7.219   2.488   6.156
 9516SOL    HW338384   7.121   2.564   6.069
 9516SOL    MW438385   7.177   2.499   6.080
 9517SOL     OW38386   6.736   3.181   5.825
 9517SOL    HW238387   6.686   3.183   5.907
 9517SOL    HW338388   6.670   3.199   5.757
 9517SOL    MW438389   6.722   3.183   5.827
 9518SOL     OW38390   6.199   3.599   5.933
 9518SOL    HW238391   6.120   3.557   5.966
 9518SOL    HW338392   6.265   3.582   6.000
 9518SOL    MW438393   6.198   3.591   5.946
 9519SOL     OW38394   6.335   3.014   5.640
 9519SOL    HW238395   6.257   2.960   5.627
 9519SOL    HW338396   6.306   3.087   5.693
 9519SOL    MW438397   6.321   3.016   5.645
 9520SOL     OW38398   6.916   3.530   5.708
 9520SOL    HW238399   6.842   3.493   5.758
 9520SOL    HW338400   6.924   3.620   5.741
 9520SOL    MW438401   6.907   3.537   5.720
 9521SOL     OW38402   7.140   3.204   5.650
 9521SOL    HW238403   7.087   3.253   5.586
 9521SOL    HW338404   7.171   3.270   5.711
 9521SOL    MW438405   7.138   3.218   5.648
 9522SOL     OW38406   6.365   2.093   5.705
 9522SOL    HW238407   6.313   2.013   5.693
 9522SOL    HW338408   6.452   2.070   5.673
 9522SOL    MW438409   6.368   2.079   5.699
 9523SOL     OW38410   5.734   3.345   6.201
 9523SOL    HW238411   5.706   3.384   6.283
 9523SOL    HW338412   5.754   3.254   6.223
 9523SOL    MW438413   5.732   3.337   6.214
 9524SOL     OW38414   6.567   3.388   6.236
 9524SOL    HW238415   6.650   3.342   6.220
 9524SOL    HW338416   6.557   3.387   6.332
 9524SOL    MW438417   6.577   3.381   6.246
 9525SOL     OW38418   6.300   3.445   5.641
 9525SOL    HW238419   6.240   3.514   5.611
 9525SOL    HW338420   6.245   3.387   5.694
 9525SOL    MW438421   6.284   3.447   5.643
 9526SOL     OW38422   6.738   2.090   5.864
 9526SOL    HW238423   6.671   2.066   5.801
 9526SOL    HW338424   6.803   2.139   5.813
 9526SOL    MW438425   6.738   2.092   5.849
 9527SOL     OW38426   5.931   3.489   6.030
 9527SOL    HW238427   5.892   3.536   5.956
 9527SOL    HW338428   5.865   3.424   6.055
 9527SOL    MW438429   5.918   3.487   6.024
 9528SOL     OW38430   6.423   2.898   6.054
 9528SOL    HW238431   6.425   2.872   5.961
 9528SOL    HW338432   6.481   2.835   6.097
 9528SOL    MW438433   6.431   2.887   6.048
 9529SOL     OW38434   6.913   2.246   5.722
 9529SOL    HW238435   6.886   2.312   5.658
 9529SOL    HW338436   6.983   2.289   5.772
 9529SOL    MW438437   6.918   2.259   5.719
 9530SOL     OW38438   6.581   1.951   5.659
 9530SOL    HW238439   6.637   1.943   5.581
 9530SOL    HW338440   6.558   1.861   5.681
 9530SOL    MW438441   6.586   1.938   5.652
 9531SOL     OW38442   7.086   2.802   5.864
 9531SOL    HW238443   7.053   2.891   5.854
 9531SOL    HW338444   7.051   2.773   5.949
 9531SOL    MW438445   7.076   2.811   5.875
 9532SOL     OW38446   6.080   2.840   5.656
 9532SOL    HW238447   6.003   2.853   5.712
 9532SOL    HW338448   6.044   2.804   5.575
 9532SOL    MW438449   6.066   2.836   5.653
 9533SOL     OW38450   6.733   2.813   5.899
 9533SOL    HW238451   6.643   2.834   5.874
 9533SOL    HW338452   6.760   2.886   5.955
 9533SOL    MW438453   6.725   2.825   5.902
 9534SOL     OW38454   6.120   3.169   6.055
 9534SOL    HW238455   6.113   3.201   6.145
 9534SOL    HW338456   6.030   3.153   6.027
 9534SOL    MW438457   6.108   3.171   6.062
 9535SOL     OW38458   6.123   2.453   5.769
 9535SOL    HW238459   6.089   2.509   5.839
 9535SOL    HW338460   6.194   2.403   5.809
 9535SOL    MW438461   6.129   2.454   5.783
 9536SOL     OW38462   7.179   2.339   5.833
 9536SOL    HW238463   7.171   2.410   5.770
 9536SOL    HW338464   7.197   2.383   5.916
 9536SOL    MW438465   7.180   2.353   5.835
 9537SOL     OW38466   6.039   1.994   6.262
 9537SOL    HW238467   6.089   2.037   6.193
 9537SOL    HW338468   5.954   2.038   6.262
 9537SOL    MW438469   6.036   2.007   6.253
 9538SOL     OW38470   6.848   2.601   5.808
 9538SOL    HW238471   6.895   2.619   5.727
 9538SOL    HW338472   6.814   2.685   5.836
 9538SOL    MW438473   6.850   2.615   5.801
 9539SOL     OW38474   7.101   2.131   6.139
 9539SOL    HW238475   7.023   2.081   6.164
 9539SOL    HW338476   7.072   2.222   6.139
 9539SOL    MW438477   7.087   2.135   6.142
 9540SOL     OW38478   6.583   3.343   5.630
 9540SOL    HW238479   6.610   3.421   5.582
 9540SOL    HW338480   6.490   3.358   5.649
 9540SOL    MW438481   6.574   3.356   5.626
 9541SOL     OW38482   5.623   2.505   6.021
 9541SOL    HW238483   5.563   2.477   6.091
 9541SOL    HW338484   5.697   2.445   6.027
 9541SOL    MW438485   5.625   2.494   6.030
 9542SOL     OW38486   6.931   1.903   5.817
 9542SOL    HW238487   7.005   1.947   5.860
 9542SOL    HW338488   6.855   1.957   5.839
 9542SOL    MW438489   6.931   1.915   5.825
 9543SOL     OW38490   6.991   2.678   6.095
 9543SOL    HW238491   6.906   2.648   6.065
 9543SOL    HW338492   6.983   2.685   6.190
 9543SOL    MW438493   6.979   2.676   6.104
 9544SOL     OW38494   6.364   2.344   5.821
 9544SOL    HW238495   6.437   2.393   5.784
 9544SOL    HW338496   6.380   2.253   5.795
 9544SOL    MW438497   6.376   2.339   5.814
 9545SOL     OW38498   5.839   2.853   5.919
 9545SOL    HW238499   5.776   2.869   5.848
 9545SOL    HW338500   5.786   2.816   5.990
 9545SOL    MW438501   5.824   2.850   5.919
 9546SOL     OW38502   6.195   3.207   5.778
 9546SOL    HW238503   6.210   3.183   5.870
 9546SOL    HW338504   6.103   3.185   5.762
 9546SOL    MW438505   6.185   3.200   5.788
 9547SOL     OW38506   6.734   3.438   5.930
 9547SOL    HW238507   6.742   3.356   5.881
 9547SOL    HW338508   6.653   3.477   5.897
 9547SOL    MW438509   6.724   3.433   5.920
 9548SOL     OW38510   6.706   2.260   6.100
 9548SOL    HW238511   6.728   2.197   6.032
 9548SOL    HW338512   6.611   2.252   6.111
 9548SOL    MW438513   6.696   2.251   6.092
 9549SOL     OW38514   5.791   1.950   6.032
 9549SOL    HW238515   5.862   1.971   5.971
 9549SOL    HW338516   5.745   1.878   5.990
 9549SOL    MW438517   5.795   1.944   6.018
 9550SOL     OW38518   7.360   3.324   6.132
 9550SOL    HW238519   7.330   3.257   6.193
 9550SOL    HW338520   7.454   3.330   6.146
 9550SOL    MW438521   7.368   3.316   6.142
 9551SOL     OW38522   6.916   3.001   6.062
 9551SOL    HW238523   6.888   3.087   6.095
 9551SOL    HW338524   6.944   3.017   5.972
 9551SOL    MW438525   6.916   3.015   6.054
 9552SOL     OW38526   6.578   1.921   6.115
 9552SOL    HW238527   6.615   1.980   6.180
 9552SOL    HW338528   6.555   1.977   6.041
 9552SOL    MW438529   6.579   1.936   6.114
 9553SOL     OW38530   5.999   2.612   6.011
 9553SOL    HW238531   5.999   2.707   5.996
 9553SOL    HW338532   6.076   2.596   6.065
 9553SOL    MW438533   6.009   2.623   6.016
 9554SOL     OW38534   7.305   3.683   5.832
 9554SOL    HW238535   7.372   3.716   5.772
 9554SOL    HW338536   7.262   3.762   5.866
 9554SOL    MW438537   7.307   3.698   5.828
 9555SOL     OW38538   5.627   2.915   5.758
 9555SOL    HW238539   5.596   2.980   5.821
 9555SOL    HW338540   5.576   2.837   5.777
 9555SOL    MW438541   5.617   2.912   5.768
 9556SOL     OW38542   6.211   3.715   5.700
 9556SOL    HW238543   6.116   3.715   5.692
 9556SOL    HW338544   6.227   3.661   5.778
 9556SOL    MW438545   6.201   3.709   5.709
 9557SOL     OW38546   7.056   2.535   5.615
 9557SOL    HW238547   6.984   2.511   5.557
 9557SOL    HW338548   7.122   2.572   5.557
 9557SOL    MW438549   7.055   2.537   5.600
 9558SOL     OW38550   6.451   2.432   6.426
 9558SOL    HW238551   6.391   2.450   6.498
 9558SOL    HW338552   6.485   2.344   6.445
 9558SOL    MW438553   6.447   2.422   6.439
 9559SOL     OW38554   6.469   2.835   5.800
 9559SOL    HW238555   6.455   2.747   5.765
 9559SOL    HW338556   6.420   2.892   5.741
 9559SOL    MW438557   6.461   2.830   5.788
 9560SOL     OW38558   7.188   2.041   5.902
 9560SOL    HW238559   7.181   2.045   5.997
 9560SOL    HW338560   7.200   2.132   5.875
 9560SOL    MW438561   7.189   2.054   5.910
 9561SOL     OW38562   6.477   2.604   6.016
 9561SOL    HW238563   6.457   2.590   5.923
 9561SOL    HW338564   6.570   2.583   6.023
 9561SOL    MW438565   6.487   2.599   6.005
 9562SOL     OW38566   6.460   3.562   6.054
 9562SOL    HW238567   6.518   3.633   6.081
 9562SOL    HW338568   6.483   3.490   6.112
 9562SOL    MW438569   6.471   3.562   6.065
 9563SOL     OW38570   5.916   1.994   5.789
 9563SOL    HW238571   5.845   2.049   5.757
 9563SOL    HW338572   5.958   1.960   5.710
 9563SOL    MW438573   5.912   1.996   5.775
 9564SOL     OW38574   5.672   2.093   5.638
 9564SOL    HW238575   5.639   2.172   5.682
 9564SOL    HW338576   5.727   2.126   5.567
 9564SOL    MW438577   5.675   2.107   5.635
 9565SOL     OW38578   5.706   3.350   5.827
 9565SOL    HW238579   5.723   3.434   5.869
 9565SOL    HW338580   5.741   3.359   5.739
 9565SOL    MW438581   5.711   3.363   5.821
 9566SOL     OW38582   6.978   3.439   6.044
 9566SOL    HW238583   7.041   3.429   5.973
 9566SOL    HW338584   6.895   3.459   5.999
 9566SOL    MW438585   6.975   3.440   6.029
 9567SOL     OW38586   7.341   4.575   0.257
 9567SOL    HW238587   7.382   4.517   0.322
 9567SOL    HW338588   7.248   4.567   0.274
 9567SOL    MW438589   7.335   4.567   0.267
 9568SOL     OW38590   7.207   4.507   1.252
 9568SOL    HW238591   7.162   4.574   1.303
 9568SOL    HW338592   7.295   4.543   1.238
 9568SOL    MW438593   7.213   4.520   1.256
 9569SOL     OW38594   6.135   4.758   0.486
 9569SOL    HW238595   6.225   4.733   0.470
 9569SOL    HW338596   6.131   4.851   0.463
 9569SOL    MW438597   6.147   4.767   0.481
 9570SOL     OW38598   7.251   5.461   0.628
 9570SOL    HW238599   7.263   5.407   0.706
 9570SOL    HW338600   7.288   5.409   0.557
 9570SOL    MW438601   7.257   5.446   0.629
 9571SOL     OW38602   6.630   5.346   1.629
 9571SOL    HW238603   6.671   5.382   1.550
 9571SOL    HW338604   6.665   5.257   1.636
 9571SOL    MW438605   6.641   5.339   1.620
 9572SOL     OW38606   7.187   4.901   1.233
 9572SOL    HW238607   7.108   4.866   1.191
 9572SOL    HW338608   7.214   4.973   1.177
 9572SOL    MW438609   7.180   4.906   1.220
 9573SOL     OW38610   6.419   4.214   0.499
 9573SOL    HW238611   6.394   4.302   0.527
 9573SOL    HW338612   6.416   4.217   0.403
 9573SOL    MW438613   6.415   4.226   0.491
 9574SOL     OW38614   5.861   4.242   0.427
 9574SOL    HW238615   5.893   4.330   0.409
 9574SOL    HW338616   5.849   4.240   0.522
 9574SOL    MW438617   5.864   4.254   0.439
 9575SOL     OW38618   5.939   4.655   1.328
 9575SOL    HW238619   6.002   4.602   1.279
 9575SOL    HW338620   5.920   4.729   1.271
 9575SOL    MW438621   5.945   4.657   1.315
 9576SOL     OW38622   6.260   3.997   0.514
 9576SOL    HW238623   6.318   4.073   0.516
 9576SOL    HW338624   6.195   4.018   0.447
 9576SOL    MW438625   6.259   4.009   0.505
 9577SOL     OW38626   6.347   4.924   0.689
 9577SOL    HW238627   6.427   4.927   0.741
 9577SOL    HW338628   6.375   4.891   0.603
 9577SOL    MW438629   6.361   4.920   0.684
 9578SOL     OW38630   6.372   5.265   1.592
 9578SOL    HW238631   6.456   5.291   1.631
 9578SOL    HW338632   6.396   5.209   1.518
 9578SOL    MW438633   6.386   5.261   1.587
 9579SOL     OW38634   6.124   4.428   0.680
 9579SOL    HW238635   6.109   4.348   0.731
 9579SOL    HW338636   6.206   4.463   0.714
 9579SOL    MW438637   6.132   4.420   0.692
 9580SOL     OW38638   6.461   5.114   1.365
 9580SOL    HW238639   6.425   5.180   1.305
 9580SOL    HW338640   6.389   5.052   1.378
 9580SOL    MW438641   6.447   5.114   1.359
 9581SOL     OW38642   6.266   4.254   1.057
 9581SOL    HW238643   6.172   4.250   1.075
 9581SOL    HW338644   6.296   4.163   1.066
 9581SOL    MW438645   6.257   4.242   1.060
 9582SOL     OW38646   6.012   4.668   0.961
 9582SOL    HW238647   5.967   4.675   0.877
 9582SOL    HW338648   5.992   4.751   1.005
 9582SOL    MW438649   6.004   4.680   0.955
 9583SOL     OW38650   5.709   5.514   0.836
 9583SOL    HW238651   5.798   5.506   0.871
 9583SOL    HW338652   5.673   5.426   0.841
 9583SOL    MW438653   5.716   5.501   0.841
 9584SOL     OW38654   6.974   4.906   0.205
 9584SOL    HW238655   6.892   4.942   0.171
 9584SOL    HW338656   7.042   4.949   0.154
 9584SOL    MW438657   6.972   4.916   0.193
 9585SOL     OW38658   5.973   5.041   0.871
 9585SOL    HW238659   5.949   5.094   0.947
 9585SOL    HW338660   6.029   5.099   0.819
 9585SOL    MW438661   5.977   5.056   0.874
 9586SOL     OW38662   6.535   4.685   0.681
 9586SOL    HW238663   6.449   4.672   0.721
 9586SOL    HW338664   6.588   4.612   0.713
 9586SOL    MW438665   6.531   4.674   0.690
 9587SOL     OW38666   5.943   5.337   1.466
 9587SOL    HW238667   5.851   5.313   1.451
 9587SOL    HW338668   5.987   5.254   1.483
 9587SOL    MW438669   5.937   5.322   1.465
 9588SOL     OW38670   6.526   5.047   0.398
 9588SOL    HW238671   6.503   5.109   0.466
 9588SOL    HW338672   6.483   4.965   0.424
 9588SOL    MW438673   6.518   5.043   0.409
 9589SOL     OW38674   7.399   4.048   0.854
 9589SOL    HW238675   7.336   4.028   0.923
 9589SOL    HW338676   7.389   3.977   0.791
 9589SOL    MW438677   7.389   4.035   0.855
 9590SOL     OW38678   7.200   4.820   0.506
 9590SOL    HW238679   7.110   4.820   0.541
 9590SOL    HW338680   7.193   4.866   0.423
 9590SOL    MW438681   7.187   4.826   0.500
 9591SOL     OW38682   7.000   4.455   1.578
 9591SOL    HW238683   7.069   4.393   1.555
 9591SOL    HW338684   6.925   4.429   1.525
 9591SOL    MW438685   7.000   4.442   1.569
 9592SOL     OW38686   5.741   5.335   1.130
 9592SOL    HW238687   5.724   5.281   1.207
 9592SOL    HW338688   5.729   5.425   1.160
 9592SOL    MW438689   5.738   5.339   1.144
 9593SOL     OW38690   6.736   4.842   1.570
 9593SOL    HW238691   6.721   4.935   1.555
 9593SOL    HW338692   6.831   4.832   1.570
 9593SOL    MW438693   6.745   4.852   1.567
 9594SOL     OW38694   6.532   4.266   1.771
 9594SOL    HW238695   6.622   4.267   1.738
 9594SOL    HW338696   6.491   4.191   1.729
 9594SOL    MW438697   6.538   4.256   1.762
 9595SOL     OW38698   7.107   4.798   0.898
 9595SOL    HW238699   7.110   4.732   0.829
 9595SOL    HW338700   7.192   4.841   0.894
 9595SOL    MW438701   7.119   4.794   0.889
 9596SOL     OW38702   6.312   4.070   1.721
 9596SOL    HW238703   6.322   3.996   1.661
 9596SOL    HW338704   6.348   4.039   1.804
 9596SOL    MW438705   6.318   4.056   1.723
 9597SOL     OW38706   6.048   5.437   0.636
 9597SOL    HW238707   6.080   5.525   0.614
 9597SOL    HW338708   6.001   5.409   0.558
 9597SOL    MW438709   6.047   5.445   0.623
 9598SOL     OW38710   7.432   3.799   0.685
 9598SOL    HW238711   7.486   3.750   0.747
 9598SOL    HW338712   7.375   3.733   0.646
 9598SOL    MW438713   7.432   3.783   0.687
 9599SOL     OW38714   6.551   3.752   1.098
 9599SOL    HW238715   6.510   3.830   1.060
 9599SOL    HW338716   6.645   3.770   1.093
 9599SOL    MW438717   6.557   3.764   1.093
 9600SOL     OW38718   7.180   4.356   0.464
 9600SOL    HW238719   7.219   4.356   0.551
 9600SOL    HW338720   7.121   4.432   0.464
 9600SOL    MW438721   7.177   4.367   0.475
 9601SOL     OW38722   6.497   4.723   1.593
 9601SOL    HW238723   6.474   4.703   1.683
 9601SOL    HW338724   6.582   4.767   1.598
 9601SOL    MW438725   6.504   4.726   1.605
 9602SOL     OW38726   6.577   3.860   1.353
 9602SOL    HW238727   6.583   3.822   1.266
 9602SOL    HW338728   6.566   3.954   1.338
 9602SOL    MW438729   6.578   3.868   1.341
 9603SOL     OW38730   6.666   4.349   1.187
 9603SOL    HW238731   6.741   4.378   1.134
 9603SOL    HW338732   6.598   4.414   1.171
 9603SOL    MW438733   6.667   4.361   1.177
 9604SOL     OW38734   7.216   4.317   1.464
 9604SOL    HW238735   7.197   4.226   1.443
 9604SOL    HW338736   7.194   4.366   1.385
 9604SOL    MW438737   7.211   4.310   1.451
 9605SOL     OW38738   7.358   5.411   1.368
 9605SOL    HW238739   7.286   5.373   1.419
 9605SOL    HW338740   7.375   5.496   1.409
 9605SOL    MW438741   7.352   5.416   1.380
 9606SOL     OW38742   6.663   4.055   1.570
 9606SOL    HW238743   6.629   4.094   1.489
 9606SOL    HW338744   6.641   3.963   1.563
 9606SOL    MW438745   6.656   4.048   1.560
 9607SOL     OW38746   7.072   4.869   1.646
 9607SOL    HW238747   7.154   4.910   1.676
 9607SOL    HW338748   7.035   4.831   1.726
 9607SOL    MW438749   7.078   4.870   1.661
 9608SOL     OW38750   7.367   4.242   0.630
 9608SOL    HW238751   7.456   4.211   0.647
 9608SOL    HW338752   7.310   4.182   0.678
 9608SOL    MW438753   7.370   4.230   0.639
 9609SOL     OW38754   5.793   3.956   0.659
 9609SOL    HW238755   5.784   3.896   0.585
 9609SOL    HW338756   5.726   3.927   0.722
 9609SOL    MW438757   5.783   3.943   0.657
 9610SOL     OW38758   6.736   5.049   0.220
 9610SOL    HW238759   6.686   5.051   0.302
 9610SOL    HW338760   6.670   5.067   0.152
 9610SOL    MW438761   6.722   5.051   0.222
 9611SOL     OW38762   5.740   4.129   1.022
 9611SOL    HW238763   5.712   4.220   1.031
 9611SOL    HW338764   5.677   4.090   0.961
 9611SOL    MW438765   5.727   4.135   1.016
 9612SOL     OW38766   6.199   5.467   0.328
 9612SOL    HW238767   6.120   5.425   0.361
 9612SOL    HW338768   6.265   5.450   0.395
 9612SOL    MW438769   6.198   5.459   0.341
 9613SOL     OW38770   7.327   4.987   1.725
 9613SOL    HW238771   7.377   4.913   1.757
 9613SOL    HW338772   7.273   5.014   1.800
 9613SOL    MW438773   7.327   4.981   1.738
 9614SOL     OW38774   7.461   4.622   1.227
 9614SOL    HW238775   7.477   4.660   1.140
 9614SOL    HW338776   7.495   4.688   1.288
 9614SOL    MW438777   7.468   4.635   1.223
 9615SOL     OW38778   7.253   5.331   0.896
 9615SOL    HW238779   7.282   5.398   0.957
 9615SOL    HW338780   7.234   5.255   0.951
 9615SOL    MW438781   7.255   5.331   0.911
 9616SOL     OW38782   5.724   4.404   1.192
 9616SOL    HW238783   5.786   4.434   1.258
 9616SOL    HW338784   5.658   4.473   1.186
 9616SOL    MW438785   5.723   4.417   1.199
 9617SOL     OW38786   5.819   5.513   1.644
 9617SOL    HW238787   5.793   5.581   1.582
 9617SOL    HW338788   5.867   5.450   1.592
 9617SOL    MW438789   5.821   5.513   1.630
 9618SOL     OW38790   5.871   4.832   1.151
 9618SOL    HW238791   5.924   4.907   1.176
 9618SOL    HW338792   5.790   4.870   1.117
 9618SOL    MW438793   5.867   4.847   1.151
 9619SOL     OW38794   6.411   4.736   1.139
 9619SOL    HW238795   6.439   4.645   1.151
 9619SOL    HW338796   6.340   4.730   1.075
 9619SOL    MW438797   6.404   4.724   1.134
 9620SOL     OW38798   5.726   4.601   0.557
 9620SOL    HW238799   5.817   4.616   0.584
 9620SOL    HW338800   5.729   4.522   0.503
 9620SOL    MW438801   5.738   4.593   0.555
 9621SOL     OW38802   5.962   4.309   1.811
 9621SOL    HW238803   5.909   4.389   1.818
 9621SOL    HW338804   6.032   4.321   1.876
 9621SOL    MW438805   5.964   4.322   1.819
 9622SOL     OW38806   6.348   3.859   1.518
 9622SOL    HW238807   6.325   3.767   1.520
 9622SOL    HW338808   6.434   3.861   1.475
 9622SOL    MW438809   6.355   3.849   1.514
 9623SOL     OW38810   6.032   4.383   1.557
 9623SOL    HW238811   6.112   4.433   1.543
 9623SOL    HW338812   6.023   4.377   1.652
 9623SOL    MW438813   6.041   4.389   1.567
 9624SOL     OW38814   6.353   5.533   0.931
 9624SOL    HW238815   6.442   5.548   0.961
 9624SOL    HW338816   6.348   5.580   0.847
 9624SOL    MW438817   6.363   5.541   0.924
 9625SOL     OW38818   7.009   3.908   1.828
 9625SOL    HW238819   7.065   3.835   1.854
 9625SOL    HW338820   6.979   3.946   1.910
 9625SOL    MW438821   7.013   3.903   1.841
 9626SOL     OW38822   5.734   5.213   0.596
 9626SOL    HW238823   5.706   5.252   0.678
 9626SOL    HW338824   5.754   5.122   0.618
 9626SOL    MW438825   5.732   5.205   0.609
 9627SOL     OW38826   6.567   5.256   0.631
 9627SOL    HW238827   6.650   5.210   0.615
 9627SOL    HW338828   6.557   5.255   0.727
 9627SOL    MW438829   6.577   5.249   0.641
 9628SOL     OW38830   7.399   4.401   0.945
 9628SOL    HW238831   7.488   4.431   0.927
 9628SOL    HW338832   7.379   4.341   0.874
 9628SOL    MW438833   7.408   4.398   0.934
 9629SOL     OW38834   7.250   4.580   1.825
 9629SOL    HW238835   7.305   4.504   1.806
 9629SOL    HW338836   7.252   4.588   1.920
 9629SOL    MW438837   7.258   4.571   1.833
 9630SOL     OW38838   6.545   4.142   1.344
 9630SOL    HW238839   6.464   4.183   1.372
 9630SOL    HW338840   6.592   4.210   1.296
 9630SOL    MW438841   6.540   4.157   1.342
 9631SOL     OW38842   6.805   4.480   0.967
 9631SOL    HW238843   6.818   4.574   0.977
 9631SOL    HW338844   6.766   4.470   0.881
 9631SOL    MW438845   6.801   4.491   0.957
 9632SOL     OW38846   6.257   4.675   0.771
 9632SOL    HW238847   6.168   4.666   0.804
 9632SOL    HW338848   6.261   4.765   0.739
 9632SOL    MW438849   6.246   4.686   0.771
 9633SOL     OW38850   7.056   4.258   0.766
 9633SOL    HW238851   7.001   4.179   0.765
 9633SOL    HW338852   7.038   4.299   0.850
 9633SOL    MW438853   7.046   4.253   0.775
 9634SOL     OW38854   6.027   3.945   1.583
 9634SOL    HW238855   5.948   3.963   1.635
 9634SOL    HW338856   6.022   4.007   1.510
 9634SOL    MW438857   6.017   3.955   1.580
 9635SOL     OW38858   6.675   4.462   0.723
 9635SOL    HW238859   6.612   4.394   0.747
 9635SOL    HW338860   6.695   4.443   0.631
 9635SOL    MW438861   6.669   4.449   0.715
 9636SOL     OW38862   6.423   4.766   0.449
 9636SOL    HW238863   6.425   4.740   0.356
 9636SOL    HW338864   6.481   4.703   0.492
 9636SOL    MW438865   6.431   4.755   0.443
 9637SOL     OW38866   6.976   5.326   1.221
 9637SOL    HW238867   6.901   5.372   1.259
 9637SOL    HW338868   6.958   5.233   1.238
 9637SOL    MW438869   6.965   5.320   1.229
 9638SOL     OW38870   6.980   5.534   0.651
 9638SOL    HW238871   6.923   5.487   0.590
 9638SOL    HW338872   7.066   5.495   0.638
 9638SOL    MW438873   6.983   5.525   0.641
 9639SOL     OW38874   6.933   4.010   0.782
 9639SOL    HW238875   6.961   3.942   0.843
 9639SOL    HW338876   6.847   3.981   0.752
 9639SOL    MW438877   6.926   3.997   0.786
 9640SOL     OW38878   5.738   4.944   0.716
 9640SOL    HW238879   5.802   4.976   0.779
 9640SOL    HW338880   5.787   4.880   0.664
 9640SOL    MW438881   5.753   4.940   0.717
 9641SOL     OW38882   6.238   5.020   1.698
 9641SOL    HW238883   6.286   5.103   1.685
 9641SOL    HW338884   6.295   4.968   1.754
 9641SOL    MW438885   6.252   5.024   1.704
 9642SOL     OW38886   5.814   5.262   1.838
 9642SOL    HW238887   5.870   5.186   1.853
 9642SOL    HW338888   5.763   5.240   1.760
 9642SOL    MW438889   5.814   5.249   1.829
 9643SOL     OW38890   6.699   5.099   1.447
 9643SOL    HW238891   6.610   5.105   1.415
 9643SOL    HW338892   6.743   5.178   1.415
 9643SOL    MW438893   6.694   5.109   1.439
 9644SOL     OW38894   5.992   3.767   1.789
 9644SOL    HW238895   5.920   3.732   1.737
 9644SOL    HW338896   6.050   3.808   1.724
 9644SOL    MW438897   5.990   3.768   1.774
 9645SOL     OW38898   6.016   5.257   1.088
 9645SOL    HW238899   6.061   5.319   1.145
 9645SOL    HW338900   5.923   5.276   1.101
 9645SOL    MW438901   6.009   5.267   1.095
 9646SOL     OW38902   7.456   4.786   1.442
 9646SOL    HW238903   7.371   4.799   1.401
 9646SOL    HW338904   7.436   4.750   1.529
 9646SOL    MW438905   7.443   4.782   1.447
 9647SOL     OW38906   6.438   5.325   1.196
 9647SOL    HW238907   6.462   5.314   1.105
 9647SOL    HW338908   6.361   5.382   1.194
 9647SOL    MW438909   6.430   5.330   1.185
 9648SOL     OW38910   6.233   5.030   0.986
 9648SOL    HW238911   6.226   5.009   1.080
 9648SOL    HW338912   6.151   4.998   0.949
 9648SOL    MW438913   6.221   5.024   0.993
 9649SOL     OW38914   7.097   4.040   1.388
 9649SOL    HW238915   7.044   4.042   1.468
 9649SOL    HW338916   7.082   3.953   1.351
 9649SOL    MW438917   7.089   4.030   1.393
 9650SOL     OW38918   7.433   3.964   1.261
 9650SOL    HW238919   7.414   4.031   1.196
 9650SOL    HW338920   7.490   3.902   1.216
 9650SOL    MW438921   7.437   3.965   1.247
 9651SOL     OW38922   5.679   5.122   1.649
 9651SOL    HW238923   5.723   5.055   1.595
 9651SOL    HW338924   5.594   5.084   1.669
 9651SOL    MW438925   5.674   5.108   1.645
 9652SOL     OW38926   6.362   3.797   0.701
 9652SOL    HW238927   6.291   3.858   0.683
 9652SOL    HW338928   6.413   3.794   0.620
 9652SOL    MW438929   6.358   3.803   0.688
 9653SOL     OW38930   6.120   5.037   0.450
 9653SOL    HW238931   6.113   5.069   0.540
 9653SOL    HW338932   6.030   5.021   0.422
 9653SOL    MW438933   6.108   5.039   0.457
 9654SOL     OW38934   6.715   5.430   1.359
 9654SOL    HW238935   6.635   5.415   1.309
 9654SOL    HW338936   6.722   5.525   1.366
 9654SOL    MW438937   6.706   5.441   1.353
 9655SOL     OW38938   6.829   5.395   0.849
 9655SOL    HW238939   6.876   5.468   0.808
 9655SOL    HW338940   6.750   5.434   0.885
 9655SOL    MW438941   6.824   5.410   0.848
 9656SOL     OW38942   7.237   5.490   1.124
 9656SOL    HW238943   7.280   5.460   1.204
 9656SOL    HW338944   7.156   5.438   1.121
 9656SOL    MW438945   7.232   5.479   1.134
 9657SOL     OW38946   6.322   4.454   1.831
 9657SOL    HW238947   6.392   4.396   1.803
 9657SOL    HW338948   6.265   4.399   1.886
 9657SOL    MW438949   6.324   4.441   1.835
 9658SOL     OW38950   7.109   4.666   1.464
 9658SOL    HW238951   7.114   4.719   1.544
 9658SOL    HW338952   7.071   4.583   1.492
 9658SOL    MW438953   7.105   4.661   1.479
 9659SOL     OW38954   6.749   3.801   1.710
 9659SOL    HW238955   6.744   3.708   1.691
 9659SOL    HW338956   6.832   3.812   1.756
 9659SOL    MW438957   6.757   3.790   1.714
 9660SOL     OW38958   7.219   5.072   0.986
 9660SOL    HW238959   7.254   5.054   0.899
 9660SOL    HW338960   7.124   5.073   0.973
 9660SOL    MW438961   7.211   5.069   0.973
 9661SOL     OW38962   6.648   4.720   1.355
 9661SOL    HW238963   6.691   4.755   1.433
 9661SOL    HW338964   6.631   4.797   1.301
 9661SOL    MW438965   6.651   4.735   1.358
 9662SOL     OW38966   7.179   4.207   0.228
 9662SOL    HW238967   7.171   4.278   0.165
 9662SOL    HW338968   7.197   4.251   0.311
 9662SOL    MW438969   7.180   4.221   0.230
 9663SOL     OW38970   6.039   3.862   0.657
 9663SOL    HW238971   6.089   3.905   0.588
 9663SOL    HW338972   5.954   3.906   0.657
 9663SOL    MW438973   6.036   3.875   0.648
 9664SOL     OW38974   5.798   4.924   1.517
 9664SOL    HW238975   5.826   4.877   1.595
 9664SOL    HW338976   5.719   4.879   1.488
 9664SOL    MW438977   5.791   4.913   1.523
 9665SOL     OW38978   6.306   4.251   1.484
 9665SOL    HW238979   6.278   4.339   1.508
 9665SOL    HW338980   6.275   4.195   1.555
 9665SOL    MW438981   6.298   4.254   1.496
 9666SOL     OW38982   5.961   4.647   0.697
 9666SOL    HW238983   6.019   4.703   0.645
 9666SOL    HW338984   6.005   4.562   0.699
 9666SOL    MW438985   5.974   4.644   0.690
 9667SOL     OW38986   7.101   3.999   0.534
 9667SOL    HW238987   7.023   3.949   0.559
 9667SOL    HW338988   7.072   4.090   0.534
 9667SOL    MW438989   7.087   4.003   0.537
 9668SOL     OW38990   6.687   3.961   0.693
 9668SOL    HW238991   6.707   4.036   0.637
 9668SOL    HW338992   6.667   4.000   0.778
 9668SOL    MW438993   6.688   3.977   0.697
 9669SOL     OW38994   7.447   4.734   1.712
 9669SOL    HW238995   7.360   4.714   1.748
 9669SOL    HW338996   7.501   4.660   1.737
 9669SOL    MW438997   7.442   4.723   1.720
 9670SOL     OW38998   5.668   5.247   0.869
 9670SOL    HW238999   5.700   5.251   0.960
 9670SOL    HW339000   5.573   5.255   0.877
 9670SOL    MW439001   5.660   5.250   0.882
 9671SOL     OW39002   5.623   4.373   0.416
 9671SOL    HW239003   5.563   4.345   0.486
 9671SOL    HW339004   5.697   4.313   0.422
 9671SOL    MW439005   5.625   4.362   0.425
 9672SOL     OW39006   7.191   5.585   1.850
 9672SOL    HW239007   7.236   5.509   1.815
 9672SOL    HW339008   7.229   5.598   1.937
 9672SOL    MW439009   7.201   5.578   1.856
 9673SOL     OW39010   6.791   5.104   0.576
 9673SOL    HW239011   6.814   5.055   0.654
 9673SOL    HW339012   6.872   5.146   0.548
 9673SOL    MW439013   6.804   5.104   0.583
 9674SOL     OW39014   6.049   4.112   1.305
 9674SOL    HW239015   6.082   4.193   1.345
 9674SOL    HW339016   6.022   4.138   1.217
 9674SOL    MW439017   6.048   4.126   1.299
 9675SOL     OW39018   6.003   4.079   1.041
 9675SOL    HW239019   6.033   3.993   1.012
 9675SOL    HW339020   5.908   4.072   1.044
 9675SOL    MW439021   5.995   4.068   1.039
 9676SOL     OW39022   6.832   4.288   1.732
 9676SOL    HW239023   6.884   4.223   1.685
 9676SOL    HW339024   6.790   4.339   1.662
 9676SOL    MW439025   6.833   4.285   1.715
 9677SOL     OW39026   6.931   4.083   1.593
 9677SOL    HW239027   6.838   4.067   1.580
 9677SOL    HW339028   6.957   4.021   1.661
 9677SOL    MW439029   6.921   4.073   1.600
 9678SOL     OW39030   6.146   3.857   0.932
 9678SOL    HW239031   6.156   3.766   0.958
 9678SOL    HW339032   6.102   3.853   0.847
 9678SOL    MW439033   6.142   3.845   0.924
 9679SOL     OW39034   6.240   5.472   1.478
 9679SOL    HW239035   6.157   5.457   1.523
 9679SOL    HW339036   6.299   5.405   1.513
 9679SOL    MW439037   6.238   5.462   1.488
 9680SOL     OW39038   7.297   4.179   1.103
 9680SOL    HW239039   7.230   4.212   1.163
 9680SOL    HW339040   7.340   4.257   1.069
 9680SOL    MW439041   7.295   4.194   1.107
 9681SOL     OW39042   7.475   4.899   1.073
 9681SOL    HW239043   7.468   4.839   0.998
 9681SOL    HW339044   7.401   4.959   1.062
 9681SOL    MW439045   7.465   4.899   1.062
 9682SOL     OW39046   6.857   4.761   0.991
 9682SOL    HW239047   6.871   4.733   1.082
 9682SOL    HW339048   6.943   4.792   0.963
 9682SOL    MW439049   6.870   4.762   1.000
 9683SOL     OW39050   6.940   4.256   1.270
 9683SOL    HW239051   6.961   4.257   1.177
 9683SOL    HW339052   6.985   4.178   1.303
 9683SOL    MW439053   6.947   4.246   1.262
 9684SOL     OW39054   7.433   4.387   1.812
 9684SOL    HW239055   7.470   4.332   1.881
 9684SOL    HW339056   7.458   4.344   1.730
 9684SOL    MW439057   7.440   4.375   1.811
 9685SOL     OW39058   6.980   4.685   1.863
 9685SOL    HW239059   7.046   4.633   1.817
 9685SOL    HW339060   7.000   4.672   1.956
 9685SOL    MW439061   6.991   4.676   1.870
 9686SOL     OW39062   6.067   5.009   1.221
 9686SOL    HW239063   6.079   5.036   1.312
 9686SOL    HW339064   6.048   5.090   1.174
 9686SOL    MW439065   6.066   5.024   1.226
 9687SOL     OW39066   6.351   3.989   1.044
 9687SOL    HW239067   6.324   3.991   1.135
 9687SOL    HW339068   6.281   3.941   0.999
 9687SOL    MW439069   6.339   3.985   1.051
 9688SOL     OW39070   6.205   5.481   1.206
 9688SOL    HW239071   6.257   5.558   1.183
 9688SOL    HW339072   6.214   5.473   1.301
 9688SOL    MW439073   6.214   5.488   1.217
 9689SOL     OW39074   7.107   5.066   1.438
 9689SOL    HW239075   7.092   4.995   1.501
 9689SOL    HW339076   7.153   5.024   1.366
 9689SOL    MW439077   7.113   5.050   1.438
 9690SOL     OW39078   6.181   4.797   1.555
 9690SOL    HW239079   6.218   4.802   1.467
 9690SOL    HW339080   6.220   4.870   1.602
 9690SOL    MW439081   6.191   4.807   1.550
 9691SOL     OW39082   6.361   4.840   1.367
 9691SOL    HW239083   6.420   4.786   1.420
 9691SOL    HW339084   6.376   4.812   1.277
 9691SOL    MW439085   6.371   4.829   1.363
 9692SOL     OW39086   7.172   5.329   1.539
 9692SOL    HW239087   7.214   5.314   1.624
 9692SOL    HW339088   7.163   5.242   1.501
 9692SOL    MW439089   7.176   5.317   1.546
 9693SOL     OW39090   6.832   3.808   1.130
 9693SOL    HW239091   6.887   3.817   1.052
 9693SOL    HW339092   6.887   3.842   1.201
 9693SOL    MW439093   6.846   3.813   1.129
 9694SOL     OW39094   5.839   4.721   0.314
 9694SOL    HW239095   5.776   4.737   0.243
 9694SOL    HW339096   5.786   4.684   0.385
 9694SOL    MW439097   5.824   4.718   0.314
 9695SOL     OW39098   6.734   5.306   0.325
 9695SOL    HW239099   6.742   5.224   0.276
 9695SOL    HW339100   6.653   5.345   0.292
 9695SOL    MW439101   6.724   5.301   0.315
 9696SOL     OW39102   5.993   5.464   0.894
 9696SOL    HW239103   5.997   5.375   0.929
 9696SOL    HW339104   6.019   5.455   0.803
 9696SOL    MW439105   5.996   5.452   0.886
 9697SOL     OW39106   6.610   4.942   1.137
 9697SOL    HW239107   6.542   4.876   1.153
 9697SOL    HW339108   6.628   4.936   1.044
 9697SOL    MW439109   6.603   4.933   1.128
 9698SOL     OW39110   5.699   5.217   1.388
 9698SOL    HW239111   5.689   5.175   1.474
 9698SOL    HW339112   5.620   5.270   1.378
 9698SOL    MW439113   5.688   5.218   1.399
 9699SOL     OW39114   6.603   4.081   0.958
 9699SOL    HW239115   6.533   4.033   1.003
 9699SOL    HW339116   6.635   4.144   1.022
 9699SOL    MW439117   6.598   4.083   0.972
 9700SOL     OW39118   6.254   4.517   1.578
 9700SOL    HW239119   6.247   4.612   1.566
 9700SOL    HW339120   6.263   4.506   1.673
 9700SOL    MW439121   6.255   4.529   1.588
 9701SOL     OW39122   5.975   5.032   1.836
 9701SOL    HW239123   6.047   5.034   1.773
 9701SOL    HW339124   5.945   4.941   1.835
 9701SOL    MW439125   5.980   5.021   1.828
 9702SOL     OW39126   7.059   3.795   1.303
 9702SOL    HW239127   7.130   3.741   1.267
 9702SOL    HW339128   7.058   3.774   1.396
 9702SOL    MW439129   7.068   3.786   1.311
 9703SOL     OW39130   7.259   5.325   1.787
 9703SOL    HW239131   7.232   5.322   1.878
 9703SOL    HW339132   7.355   5.329   1.790
 9703SOL    MW439133   7.269   5.325   1.799
 9704SOL     OW39134   6.070   4.187   0.771
 9704SOL    HW239135   6.141   4.135   0.734
 9704SOL    HW339136   6.056   4.152   0.858
 9704SOL    MW439137   6.078   4.176   0.778
 9705SOL     OW39138   5.625   5.522   1.843
 9705SOL    HW239139   5.675   5.500   1.765
 9705SOL    HW339140   5.633   5.617   1.851
 9705SOL    MW439141   5.633   5.531   1.834
 9706SOL     OW39142   6.386   5.280   0.847
 9706SOL    HW239143   6.314   5.217   0.860
 9706SOL    HW339144   6.347   5.365   0.865
 9706SOL    MW439145   6.370   5.283   0.850
 9707SOL     OW39146   6.706   4.128   0.495
 9707SOL    HW239147   6.728   4.065   0.427
 9707SOL    HW339148   6.611   4.120   0.506
 9707SOL    MW439149   6.696   4.119   0.487
 9708SOL     OW39150   5.622   4.285   1.570
 9708SOL    HW239151   5.686   4.351   1.545
 9708SOL    HW339152   5.541   4.312   1.527
 9708SOL    MW439153   5.620   4.297   1.562
 9709SOL     OW39154   7.360   5.192   0.527
 9709SOL    HW239155   7.330   5.125   0.588
 9709SOL    HW339156   7.454   5.198   0.541
 9709SOL    MW439157   7.368   5.184   0.537
 9710SOL     OW39158   6.916   4.869   0.457
 9710SOL    HW239159   6.888   4.955   0.490
 9710SOL    HW339160   6.944   4.885   0.367
 9710SOL    MW439161   6.916   4.883   0.449
 9711SOL     OW39162   6.578   3.789   0.510
 9711SOL    HW239163   6.615   3.848   0.575
 9711SOL    HW339164   6.555   3.845   0.436
 9711SOL    MW439165   6.579   3.804   0.509
 9712SOL     OW39166   7.431   4.671   0.932
 9712SOL    HW239167   7.422   4.703   0.843
 9712SOL    HW339168   7.384   4.587   0.932
 9712SOL    MW439169   7.424   4.664   0.922
 9713SOL     OW39170   5.807   4.511   1.511
 9713SOL    HW239171   5.828   4.580   1.449
 9713SOL    HW339172   5.887   4.458   1.516
 9713SOL    MW439173   5.820   4.512   1.505
 9714SOL     OW39174   7.343   4.602   0.633
 9714SOL    HW239175   7.437   4.591   0.621
 9714SOL    HW339176   7.319   4.674   0.574
 9714SOL    MW439177   7.353   4.610   0.624
 9715SOL     OW39178   5.792   4.526   1.778
 9715SOL    HW239179   5.718   4.470   1.804
 9715SOL    HW339180   5.787   4.529   1.683
 9715SOL    MW439181   5.781   4.519   1.768
 9716SOL     OW39182   5.958   3.813   1.228
 9716SOL    HW239183   6.001   3.897   1.248
 9716SOL    HW339184   6.031   3.751   1.221
 9716SOL    MW439185   5.973   3.816   1.229
 9717SOL     OW39186   5.999   4.480   0.406
 9717SOL    HW239187   5.999   4.575   0.391
 9717SOL    HW339188   6.076   4.464   0.460
 9717SOL    MW439189   6.009   4.491   0.411
 9718SOL     OW39190   6.775   4.339   1.470
 9718SOL    HW239191   6.811   4.312   1.386
 9718SOL    HW339192   6.688   4.373   1.449
 9718SOL    MW439193   6.769   4.340   1.457
 9719SOL     OW39194   5.758   4.211   0.695
 9719SOL    HW239195   5.820   4.218   0.768
 9719SOL    HW339196   5.758   4.118   0.672
 9719SOL    MW439197   5.766   4.200   0.702
 9720SOL     OW39198   6.440   4.472   1.179
 9720SOL    HW239199   6.398   4.390   1.155
 9720SOL    HW339200   6.441   4.471   1.275
 9720SOL    MW439201   6.433   4.461   1.188
 9721SOL     OW39202   7.111   5.605   1.578
 9721SOL    HW239203   7.114   5.511   1.561
 9721SOL    HW339204   7.134   5.613   1.670
 9721SOL    MW439205   7.114   5.593   1.588
 9722SOL     OW39206   6.244   3.942   1.284
 9722SOL    HW239207   6.175   4.005   1.305
 9722SOL    HW339208   6.271   3.906   1.369
 9722SOL    MW439209   6.238   3.945   1.297
 9723SOL     OW39210   5.627   4.783   0.153
 9723SOL    HW239211   5.596   4.848   0.216
 9723SOL    HW339212   5.576   4.705   0.172
 9723SOL    MW439213   5.617   4.780   0.163
 9724SOL     OW39214   7.039   3.795   0.901
 9724SOL    HW239215   7.127   3.804   0.938
 9724SOL    HW339216   7.049   3.736   0.827
 9724SOL    MW439217   7.053   3.789   0.895
 9725SOL     OW39218   7.071   4.534   0.745
 9725SOL    HW239219   7.151   4.549   0.694
 9725SOL    HW339220   7.064   4.439   0.751
 9725SOL    MW439221   7.080   4.523   0.740
 9726SOL     OW39222   6.521   4.460   1.442
 9726SOL    HW239223   6.590   4.527   1.439
 9726SOL    HW339224   6.454   4.498   1.498
 9726SOL    MW439225   6.522   4.473   1.449
 9727SOL     OW39226   5.939   4.760   1.690
 9727SOL    HW239227   5.893   4.676   1.692
 9727SOL    HW339228   5.996   4.754   1.614
 9727SOL    MW439229   5.941   4.748   1.682
 9728SOL     OW39230   6.190   5.135   0.691
 9728SOL    HW239231   6.255   5.068   0.712
 9728SOL    HW339232   6.242   5.212   0.668
 9728SOL    MW439233   6.205   5.137   0.690
 9729SOL     OW39234   6.451   4.300   0.821
 9729SOL    HW239235   6.391   4.318   0.893
 9729SOL    HW339236   6.485   4.212   0.840
 9729SOL    MW439237   6.447   4.290   0.834
 9730SOL     OW39238   7.392   3.799   1.490
 9730SOL    HW239239   7.313   3.845   1.518
 9730SOL    HW339240   7.427   3.853   1.419
 9730SOL    MW439241   7.386   3.812   1.484
 9731SOL     OW39242   6.676   4.883   0.840
 9731SOL    HW239243   6.768   4.864   0.858
 9731SOL    HW339244   6.649   4.813   0.780
 9731SOL    MW439245   6.684   4.871   0.834
 9732SOL     OW39246   6.950   5.121   0.936
 9732SOL    HW239247   6.923   5.205   0.901
 9732SOL    HW339248   6.910   5.116   1.023
 9732SOL    MW439249   6.943   5.130   0.942
 9733SOL     OW39250   6.869   5.069   1.204
 9733SOL    HW239251   6.880   5.036   1.293
 9733SOL    HW339252   6.788   5.028   1.173
 9733SOL    MW439253   6.859   5.061   1.210
 9734SOL     OW39254   5.882   4.427   0.974
 9734SOL    HW239255   5.832   4.426   1.055
 9734SOL    HW339256   5.902   4.519   0.958
 9734SOL    MW439257   5.878   4.439   0.982
 9735SOL     OW39258   6.949   5.191   1.736
 9735SOL    HW239259   6.949   5.285   1.752
 9735SOL    HW339260   6.994   5.181   1.652
 9735SOL    MW439261   6.955   5.201   1.727
 9736SOL     OW39262   6.477   4.472   0.411
 9736SOL    HW239263   6.457   4.458   0.318
 9736SOL    HW339264   6.570   4.451   0.418
 9736SOL    MW439265   6.487   4.467   0.400
 9737SOL     OW39266   5.804   4.095   1.715
 9737SOL    HW239267   5.761   4.154   1.652
 9737SOL    HW339268   5.872   4.150   1.755
 9737SOL    MW439269   5.808   4.110   1.712
 9738SOL     OW39270   6.916   4.715   1.260
 9738SOL    HW239271   6.979   4.712   1.333
 9738SOL    HW339272   6.832   4.733   1.302
 9738SOL    MW439273   6.912   4.717   1.275
 9739SOL     OW39274   6.460   5.430   0.449
 9739SOL    HW239275   6.518   5.501   0.476
 9739SOL    HW339276   6.483   5.358   0.507
 9739SOL    MW439277   6.471   5.430   0.460
 9740SOL     OW39278   7.255   3.892   1.039
 9740SOL    HW239279   7.300   3.810   1.058
 9740SOL    HW339280   7.275   3.948   1.115
 9740SOL    MW439281   7.265   3.888   1.051
 9741SOL     OW39282   5.703   3.735   1.138
 9741SOL    HW239283   5.694   3.736   1.043
 9741SOL    HW339284   5.797   3.747   1.153
 9741SOL    MW439285   5.715   3.738   1.129
 9742SOL     OW39286   7.340   4.928   0.758
 9742SOL    HW239287   7.319   4.874   0.681
 9742SOL    HW339288   7.436   4.926   0.762
 9742SOL    MW439289   7.349   4.921   0.747
 9743SOL     OW39290   6.032   5.073   1.501
 9743SOL    HW239291   5.953   5.023   1.524
 9743SOL    HW339292   6.102   5.032   1.551
 9743SOL    MW439293   6.030   5.061   1.511
 9744SOL     OW39294   5.916   3.862   0.184
 9744SOL    HW239295   5.845   3.917   0.152
 9744SOL    HW339296   5.958   3.828   0.105
 9744SOL    MW439297   5.912   3.864   0.170
 9745SOL     OW39298   7.040   4.359   1.020
 9745SOL    HW239299   6.963   4.405   0.986
 9745SOL    HW339300   7.097   4.428   1.054
 9745SOL    MW439301   7.037   4.374   1.020
 9746SOL     OW39302   7.341   4.575   2.125
 9746SOL    HW239303   7.382   4.517   2.190
 9746SOL    HW339304   7.248   4.567   2.142
 9746SOL    MW439305   7.335   4.567   2.135
 9747SOL     OW39306   7.207   4.507   3.120
 9747SOL    HW239307   7.162   4.574   3.171
 9747SOL    HW339308   7.295   4.543   3.106
 9747SOL    MW439309   7.213   4.520   3.124
 9748SOL     OW39310   6.135   4.758   2.354
 9748SOL    HW239311   6.225   4.733   2.338
 9748SOL    HW339312   6.131   4.851   2.331
 9748SOL    MW439313   6.147   4.767   2.349
 9749SOL     OW39314   7.251   5.461   2.496
 9749SOL    HW239315   7.263   5.407   2.574
 9749SOL    HW339316   7.288   5.409   2.425
 9749SOL    MW439317   7.257   5.446   2.497
 9750SOL     OW39318   6.630   5.346   3.497
 9750SOL    HW239319   6.671   5.382   3.418
 9750SOL    HW339320   6.665   5.257   3.504
 9750SOL    MW439321   6.641   5.339   3.488
 9751SOL     OW39322   7.187   4.901   3.101
 9751SOL    HW239323   7.108   4.866   3.059
 9751SOL    HW339324   7.214   4.973   3.045
 9751SOL    MW439325   7.180   4.906   3.088
 9752SOL     OW39326   6.419   4.214   2.367
 9752SOL    HW239327   6.394   4.302   2.395
 9752SOL    HW339328   6.416   4.217   2.271
 9752SOL    MW439329   6.415   4.226   2.359
 9753SOL     OW39330   5.861   4.242   2.295
 9753SOL    HW239331   5.893   4.330   2.277
 9753SOL    HW339332   5.849   4.240   2.390
 9753SOL    MW439333   5.864   4.254   2.307
 9754SOL     OW39334   5.939   4.655   3.196
 9754SOL    HW239335   6.002   4.602   3.147
 9754SOL    HW339336   5.920   4.729   3.139
 9754SOL    MW439337   5.945   4.657   3.183
 9755SOL     OW39338   6.260   3.997   2.382
 9755SOL    HW239339   6.318   4.073   2.384
 9755SOL    HW339340   6.195   4.018   2.315
 9755SOL    MW439341   6.259   4.009   2.373
 9756SOL     OW39342   6.347   4.924   2.557
 9756SOL    HW239343   6.427   4.927   2.609
 9756SOL    HW339344   6.375   4.891   2.471
 9756SOL    MW439345   6.361   4.920   2.552
 9757SOL     OW39346   6.372   5.265   3.460
 9757SOL    HW239347   6.456   5.291   3.499
 9757SOL    HW339348   6.396   5.209   3.386
 9757SOL    MW439349   6.386   5.261   3.455
 9758SOL     OW39350   6.124   4.428   2.548
 9758SOL    HW239351   6.109   4.348   2.599
 9758SOL    HW339352   6.206   4.463   2.582
 9758SOL    MW439353   6.132   4.420   2.560
 9759SOL     OW39354   6.461   5.114   3.233
 9759SOL    HW239355   6.425   5.180   3.173
 9759SOL    HW339356   6.389   5.052   3.246
 9759SOL    MW439357   6.447   5.114   3.227
 9760SOL     OW39358   6.266   4.254   2.925
 9760SOL    HW239359   6.172   4.250   2.943
 9760SOL    HW339360   6.296   4.163   2.934
 9760SOL    MW439361   6.257   4.242   2.928
 9761SOL     OW39362   6.012   4.668   2.829
 9761SOL    HW239363   5.967   4.675   2.745
 9761SOL    HW339364   5.992   4.751   2.873
 9761SOL    MW439365   6.004   4.680   2.823
 9762SOL     OW39366   5.709   5.514   2.704
 9762SOL    HW239367   5.798   5.506   2.739
 9762SOL    HW339368   5.673   5.426   2.709
 9762SOL    MW439369   5.716   5.501   2.709
 9763SOL     OW39370   6.974   4.906   2.073
 9763SOL    HW239371   6.892   4.942   2.039
 9763SOL    HW339372   7.042   4.949   2.022
 9763SOL    MW439373   6.972   4.916   2.061
 9764SOL     OW39374   5.973   5.041   2.739
 9764SOL    HW239375   5.949   5.094   2.815
 9764SOL    HW339376   6.029   5.099   2.687
 9764SOL    MW439377   5.977   5.056   2.742
 9765SOL     OW39378   6.535   4.685   2.549
 9765SOL    HW239379   6.449   4.672   2.589
 9765SOL    HW339380   6.588   4.612   2.581
 9765SOL    MW439381   6.531   4.674   2.558
 9766SOL     OW39382   5.943   5.337   3.334
 9766SOL    HW239383   5.851   5.313   3.319
 9766SOL    HW339384   5.987   5.254   3.351
 9766SOL    MW439385   5.937   5.322   3.333
 9767SOL     OW39386   6.526   5.047   2.266
 9767SOL    HW239387   6.503   5.109   2.334
 9767SOL    HW339388   6.483   4.965   2.292
 9767SOL    MW439389   6.518   5.043   2.277
 9768SOL     OW39390   7.399   4.048   2.722
 9768SOL    HW239391   7.336   4.028   2.791
 9768SOL    HW339392   7.389   3.977   2.659
 9768SOL    MW439393   7.389   4.035   2.723
 9769SOL     OW39394   6.023   4.020   2.234
 9769SOL    HW239395   5.997   3.982   2.150
 9769SOL    HW339396   5.960   4.090   2.250
 9769SOL    MW439397   6.012   4.023   2.225
 9770SOL     OW39398   5.858   4.981   2.271
 9770SOL    HW239399   5.806   5.049   2.227
 9770SOL    HW339400   5.855   4.907   2.211
 9770SOL    MW439401   5.850   4.980   2.258
 9771SOL     OW39402   6.520   5.444   2.049
 9771SOL    HW239403   6.475   5.460   2.132
 9771SOL    HW339404   6.451   5.409   1.991
 9771SOL    MW439405   6.506   5.441   2.051
 9772SOL     OW39406   7.455   4.217   2.024
 9772SOL    HW239407   7.364   4.219   2.052
 9772SOL    HW339408   7.500   4.279   2.082
 9772SOL    MW439409   7.448   4.225   2.034
 9773SOL     OW39410   7.200   4.820   2.374
 9773SOL    HW239411   7.110   4.820   2.409
 9773SOL    HW339412   7.193   4.866   2.291
 9773SOL    MW439413   7.187   4.826   2.368
 9774SOL     OW39414   7.000   4.455   3.446
 9774SOL    HW239415   7.069   4.393   3.423
 9774SOL    HW339416   6.925   4.429   3.393
 9774SOL    MW439417   7.000   4.442   3.437
 9775SOL     OW39418   5.741   5.335   2.998
 9775SOL    HW239419   5.724   5.281   3.075
 9775SOL    HW339420   5.729   5.425   3.028
 9775SOL    MW439421   5.738   5.339   3.012
 9776SOL     OW39422   6.736   4.842   3.438
 9776SOL    HW239423   6.721   4.935   3.423
 9776SOL    HW339424   6.831   4.832   3.438
 9776SOL    MW439425   6.745   4.852   3.435
 9777SOL     OW39426   6.532   4.266   3.639
 9777SOL    HW239427   6.622   4.267   3.606
 9777SOL    HW339428   6.491   4.191   3.597
 9777SOL    MW439429   6.538   4.256   3.630
 9778SOL     OW39430   7.107   4.798   2.766
 9778SOL    HW239431   7.110   4.732   2.697
 9778SOL    HW339432   7.192   4.841   2.762
 9778SOL    MW439433   7.119   4.794   2.757
 9779SOL     OW39434   6.727   4.401   2.335
 9779SOL    HW239435   6.753   4.425   2.246
 9779SOL    HW339436   6.709   4.308   2.331
 9779SOL    MW439437   6.729   4.393   2.322
 9780SOL     OW39438   7.392   5.021   2.186
 9780SOL    HW239439   7.348   5.062   2.261
 9780SOL    HW339440   7.449   5.089   2.151
 9780SOL    MW439441   7.394   5.035   2.191
 9781SOL     OW39442   6.312   4.070   3.589
 9781SOL    HW239443   6.322   3.996   3.529
 9781SOL    HW339444   6.348   4.039   3.672
 9781SOL    MW439445   6.318   4.056   3.591
 9782SOL     OW39446   6.048   5.437   2.504
 9782SOL    HW239447   6.080   5.525   2.482
 9782SOL    HW339448   6.001   5.409   2.426
 9782SOL    MW439449   6.047   5.445   2.491
 9783SOL     OW39450   7.432   3.799   2.553
 9783SOL    HW239451   7.486   3.750   2.615
 9783SOL    HW339452   7.375   3.733   2.514
 9783SOL    MW439453   7.432   3.783   2.555
 9784SOL     OW39454   5.764   5.497   2.081
 9784SOL    HW239455   5.793   5.587   2.073
 9784SOL    HW339456   5.714   5.480   2.002
 9784SOL    MW439457   5.762   5.505   2.070
 9785SOL     OW39458   6.551   3.752   2.966
 9785SOL    HW239459   6.510   3.830   2.928
 9785SOL    HW339460   6.645   3.770   2.961
 9785SOL    MW439461   6.557   3.764   2.961
 9786SOL     OW39462   7.168   5.305   2.052
 9786SOL    HW239463   7.216   5.374   2.098
 9786SOL    HW339464   7.089   5.349   2.021
 9786SOL    MW439465   7.163   5.319   2.055
 9787SOL     OW39466   6.566   4.430   1.996
 9787SOL    HW239467   6.568   4.377   1.917
 9787SOL    HW339468   6.654   4.467   2.002
 9787SOL    MW439469   6.578   4.429   1.985
 9788SOL     OW39470   7.180   4.356   2.332
 9788SOL    HW239471   7.219   4.356   2.419
 9788SOL    HW339472   7.121   4.432   2.332
 9788SOL    MW439473   7.177   4.367   2.343
 9789SOL     OW39474   6.497   4.723   3.461
 9789SOL    HW239475   6.474   4.703   3.551
 9789SOL    HW339476   6.582   4.767   3.466
 9789SOL    MW439477   6.504   4.726   3.473
 9790SOL     OW39478   6.577   3.860   3.221
 9790SOL    HW239479   6.583   3.822   3.134
 9790SOL    HW339480   6.566   3.954   3.206
 9790SOL    MW439481   6.578   3.868   3.209
 9791SOL     OW39482   6.666   4.349   3.055
 9791SOL    HW239483   6.741   4.378   3.002
 9791SOL    HW339484   6.598   4.414   3.039
 9791SOL    MW439485   6.667   4.361   3.045
 9792SOL     OW39486   7.216   4.317   3.332
 9792SOL    HW239487   7.197   4.226   3.311
 9792SOL    HW339488   7.194   4.366   3.253
 9792SOL    MW439489   7.211   4.310   3.319
 9793SOL     OW39490   7.358   5.411   3.236
 9793SOL    HW239491   7.286   5.373   3.287
 9793SOL    HW339492   7.375   5.496   3.277
 9793SOL    MW439493   7.352   5.416   3.248
 9794SOL     OW39494   7.072   4.869   3.514
 9794SOL    HW239495   7.154   4.910   3.544
 9794SOL    HW339496   7.035   4.831   3.594
 9794SOL    MW439497   7.078   4.870   3.529
 9795SOL     OW39498   7.367   4.242   2.498
 9795SOL    HW239499   7.456   4.211   2.515
 9795SOL    HW339500   7.310   4.182   2.546
 9795SOL    MW439501   7.370   4.230   2.507
 9796SOL     OW39502   5.793   3.956   2.527
 9796SOL    HW239503   5.784   3.896   2.453
 9796SOL    HW339504   5.726   3.927   2.590
 9796SOL    MW439505   5.783   3.943   2.525
 9797SOL     OW39506   6.736   5.049   2.088
 9797SOL    HW239507   6.686   5.051   2.170
 9797SOL    HW339508   6.670   5.067   2.020
 9797SOL    MW439509   6.722   5.051   2.090
 9798SOL     OW39510   5.740   4.129   2.890
 9798SOL    HW239511   5.712   4.220   2.899
 9798SOL    HW339512   5.677   4.090   2.829
 9798SOL    MW439513   5.727   4.135   2.884
 9799SOL     OW39514   6.199   5.467   2.196
 9799SOL    HW239515   6.120   5.425   2.229
 9799SOL    HW339516   6.265   5.450   2.263
 9799SOL    MW439517   6.198   5.459   2.209
 9800SOL     OW39518   7.327   4.987   3.593
 9800SOL    HW239519   7.377   4.913   3.625
 9800SOL    HW339520   7.273   5.014   3.668
 9800SOL    MW439521   7.327   4.981   3.606
 9801SOL     OW39522   6.335   4.882   1.903
 9801SOL    HW239523   6.257   4.828   1.890
 9801SOL    HW339524   6.306   4.955   1.956
 9801SOL    MW439525   6.321   4.884   1.908
 9802SOL     OW39526   7.461   4.622   3.095
 9802SOL    HW239527   7.477   4.660   3.008
 9802SOL    HW339528   7.495   4.688   3.156
 9802SOL    MW439529   7.468   4.635   3.091
 9803SOL     OW39530   7.253   5.331   2.764
 9803SOL    HW239531   7.282   5.398   2.825
 9803SOL    HW339532   7.234   5.255   2.819
 9803SOL    MW439533   7.255   5.331   2.779
 9804SOL     OW39534   6.916   5.398   1.971
 9804SOL    HW239535   6.842   5.361   2.021
 9804SOL    HW339536   6.924   5.488   2.004
 9804SOL    MW439537   6.907   5.405   1.983
 9805SOL     OW39538   5.724   4.404   3.060
 9805SOL    HW239539   5.786   4.434   3.126
 9805SOL    HW339540   5.658   4.473   3.054
 9805SOL    MW439541   5.723   4.417   3.067
 9806SOL     OW39542   7.140   5.072   1.913
 9806SOL    HW239543   7.087   5.121   1.849
 9806SOL    HW339544   7.171   5.138   1.974
 9806SOL    MW439545   7.138   5.086   1.911
 9807SOL     OW39546   6.365   3.961   1.968
 9807SOL    HW239547   6.313   3.881   1.956
 9807SOL    HW339548   6.452   3.938   1.936
 9807SOL    MW439549   6.368   3.947   1.962
 9808SOL     OW39550   5.819   5.513   3.512
 9808SOL    HW239551   5.793   5.581   3.450
 9808SOL    HW339552   5.867   5.450   3.460
 9808SOL    MW439553   5.821   5.513   3.498
 9809SOL     OW39554   5.871   4.832   3.019
 9809SOL    HW239555   5.924   4.907   3.044
 9809SOL    HW339556   5.790   4.870   2.985
 9809SOL    MW439557   5.867   4.847   3.019
 9810SOL     OW39558   6.411   4.736   3.007
 9810SOL    HW239559   6.439   4.645   3.019
 9810SOL    HW339560   6.340   4.730   2.943
 9810SOL    MW439561   6.404   4.724   3.002
 9811SOL     OW39562   5.726   4.601   2.425
 9811SOL    HW239563   5.817   4.616   2.452
 9811SOL    HW339564   5.729   4.522   2.371
 9811SOL    MW439565   5.738   4.593   2.423
 9812SOL     OW39566   5.962   4.309   3.679
 9812SOL    HW239567   5.909   4.389   3.686
 9812SOL    HW339568   6.032   4.321   3.744
 9812SOL    MW439569   5.964   4.322   3.687
 9813SOL     OW39570   6.348   3.859   3.386
 9813SOL    HW239571   6.325   3.767   3.388
 9813SOL    HW339572   6.434   3.861   3.343
 9813SOL    MW439573   6.355   3.849   3.382
 9814SOL     OW39574   6.032   4.383   3.425
 9814SOL    HW239575   6.112   4.433   3.411
 9814SOL    HW339576   6.023   4.377   3.520
 9814SOL    MW439577   6.041   4.389   3.435
 9815SOL     OW39578   6.353   5.533   2.799
 9815SOL    HW239579   6.442   5.548   2.829
 9815SOL    HW339580   6.348   5.580   2.715
 9815SOL    MW439581   6.363   5.541   2.792
 9816SOL     OW39582   7.009   3.908   3.696
 9816SOL    HW239583   7.065   3.835   3.722
 9816SOL    HW339584   6.979   3.946   3.778
 9816SOL    MW439585   7.013   3.903   3.709
 9817SOL     OW39586   5.734   5.213   2.464
 9817SOL    HW239587   5.706   5.252   2.546
 9817SOL    HW339588   5.754   5.122   2.486
 9817SOL    MW439589   5.732   5.205   2.477
 9818SOL     OW39590   6.567   5.256   2.499
 9818SOL    HW239591   6.650   5.210   2.483
 9818SOL    HW339592   6.557   5.255   2.595
 9818SOL    MW439593   6.577   5.249   2.509
 9819SOL     OW39594   7.399   4.401   2.813
 9819SOL    HW239595   7.488   4.431   2.795
 9819SOL    HW339596   7.379   4.341   2.742
 9819SOL    MW439597   7.408   4.398   2.802
 9820SOL     OW39598   7.250   4.580   3.693
 9820SOL    HW239599   7.305   4.504   3.674
 9820SOL    HW339600   7.252   4.588   3.788
 9820SOL    MW439601   7.258   4.571   3.701
 9821SOL     OW39602   6.300   5.313   1.904
 9821SOL    HW239603   6.240   5.382   1.874
 9821SOL    HW339604   6.245   5.255   1.957
 9821SOL    MW439605   6.284   5.315   1.906
 9822SOL     OW39606   6.738   3.958   2.127
 9822SOL    HW239607   6.671   3.934   2.064
 9822SOL    HW339608   6.803   4.007   2.076
 9822SOL    MW439609   6.738   3.960   2.112
 9823SOL     OW39610   6.545   4.142   3.212
 9823SOL    HW239611   6.464   4.183   3.240
 9823SOL    HW339612   6.592   4.210   3.164
 9823SOL    MW439613   6.540   4.157   3.210
 9824SOL     OW39614   6.805   4.480   2.835
 9824SOL    HW239615   6.818   4.574   2.845
 9824SOL    HW339616   6.766   4.470   2.749
 9824SOL    MW439617   6.801   4.491   2.825
 9825SOL     OW39618   6.257   4.675   2.639
 9825SOL    HW239619   6.168   4.666   2.672
 9825SOL    HW339620   6.261   4.765   2.607
 9825SOL    MW439621   6.246   4.686   2.639
 9826SOL     OW39622   7.056   4.258   2.634
 9826SOL    HW239623   7.001   4.179   2.633
 9826SOL    HW339624   7.038   4.299   2.718
 9826SOL    MW439625   7.046   4.253   2.643
 9827SOL     OW39626   6.027   3.945   3.451
 9827SOL    HW239627   5.948   3.963   3.503
 9827SOL    HW339628   6.022   4.007   3.378
 9827SOL    MW439629   6.017   3.955   3.448
 9828SOL     OW39630   6.675   4.462   2.591
 9828SOL    HW239631   6.612   4.394   2.615
 9828SOL    HW339632   6.695   4.443   2.499
 9828SOL    MW439633   6.669   4.449   2.583
 9829SOL     OW39634   5.931   5.357   2.293
 9829SOL    HW239635   5.892   5.404   2.219
 9829SOL    HW339636   5.865   5.292   2.318
 9829SOL    MW439637   5.918   5.355   2.287
 9830SOL     OW39638   6.423   4.766   2.317
 9830SOL    HW239639   6.425   4.740   2.224
 9830SOL    HW339640   6.481   4.703   2.360
 9830SOL    MW439641   6.431   4.755   2.311
 9831SOL     OW39642   6.976   5.326   3.089
 9831SOL    HW239643   6.901   5.372   3.127
 9831SOL    HW339644   6.958   5.233   3.106
 9831SOL    MW439645   6.965   5.320   3.097
 9832SOL     OW39646   6.980   5.534   2.519
 9832SOL    HW239647   6.923   5.487   2.458
 9832SOL    HW339648   7.066   5.495   2.506
 9832SOL    MW439649   6.983   5.525   2.509
 9833SOL     OW39650   6.933   4.010   2.650
 9833SOL    HW239651   6.961   3.942   2.711
 9833SOL    HW339652   6.847   3.981   2.620
 9833SOL    MW439653   6.926   3.997   2.654
 9834SOL     OW39654   5.738   4.944   2.584
 9834SOL    HW239655   5.802   4.976   2.647
 9834SOL    HW339656   5.787   4.880   2.532
 9834SOL    MW439657   5.753   4.940   2.585
 9835SOL     OW39658   5.814   5.262   3.706
 9835SOL    HW239659   5.870   5.186   3.721
 9835SOL    HW339660   5.763   5.240   3.628
 9835SOL    MW439661   5.814   5.249   3.697
 9836SOL     OW39662   6.913   4.114   1.985
 9836SOL    HW239663   6.886   4.180   1.921
 9836SOL    HW339664   6.983   4.157   2.035
 9836SOL    MW439665   6.918   4.127   1.982
 9837SOL     OW39666   6.581   3.819   1.922
 9837SOL    HW239667   6.637   3.811   1.844
 9837SOL    HW339668   6.558   3.729   1.944
 9837SOL    MW439669   6.586   3.806   1.915
 9838SOL     OW39670   7.086   4.670   2.127
 9838SOL    HW239671   7.053   4.759   2.117
 9838SOL    HW339672   7.051   4.641   2.212
 9838SOL    MW439673   7.076   4.679   2.138
 9839SOL     OW39674   6.699   5.099   3.315
 9839SOL    HW239675   6.610   5.105   3.283
 9839SOL    HW339676   6.743   5.178   3.283
 9839SOL    MW439677   6.694   5.109   3.307
 9840SOL     OW39678   5.992   3.767   3.657
 9840SOL    HW239679   5.920   3.732   3.605
 9840SOL    HW339680   6.050   3.808   3.592
 9840SOL    MW439681   5.990   3.768   3.642
 9841SOL     OW39682   6.016   5.257   2.956
 9841SOL    HW239683   6.061   5.319   3.013
 9841SOL    HW339684   5.923   5.276   2.969
 9841SOL    MW439685   6.009   5.267   2.963
 9842SOL     OW39686   7.456   4.786   3.310
 9842SOL    HW239687   7.371   4.799   3.269
 9842SOL    HW339688   7.436   4.750   3.397
 9842SOL    MW439689   7.443   4.782   3.315
 9843SOL     OW39690   6.438   5.325   3.064
 9843SOL    HW239691   6.462   5.314   2.973
 9843SOL    HW339692   6.361   5.382   3.062
 9843SOL    MW439693   6.430   5.330   3.053
 9844SOL     OW39694   6.080   4.708   1.919
 9844SOL    HW239695   6.003   4.721   1.975
 9844SOL    HW339696   6.044   4.672   1.838
 9844SOL    MW439697   6.066   4.704   1.916
 9845SOL     OW39698   6.733   4.681   2.162
 9845SOL    HW239699   6.643   4.702   2.137
 9845SOL    HW339700   6.760   4.754   2.218
 9845SOL    MW439701   6.725   4.693   2.165
 9846SOL     OW39702   6.233   5.030   2.854
 9846SOL    HW239703   6.226   5.009   2.948
 9846SOL    HW339704   6.151   4.998   2.817
 9846SOL    MW439705   6.221   5.024   2.861
 9847SOL     OW39706   7.097   4.040   3.256
 9847SOL    HW239707   7.044   4.042   3.336
 9847SOL    HW339708   7.082   3.953   3.219
 9847SOL    MW439709   7.089   4.030   3.261
 9848SOL     OW39710   7.433   3.964   3.129
 9848SOL    HW239711   7.414   4.031   3.064
 9848SOL    HW339712   7.490   3.902   3.084
 9848SOL    MW439713   7.437   3.965   3.115
 9849SOL     OW39714   5.679   5.122   3.517
 9849SOL    HW239715   5.723   5.055   3.463
 9849SOL    HW339716   5.594   5.084   3.537
 9849SOL    MW439717   5.674   5.108   3.513
 9850SOL     OW39718   6.362   3.797   2.569
 9850SOL    HW239719   6.291   3.858   2.551
 9850SOL    HW339720   6.413   3.794   2.488
 9850SOL    MW439721   6.358   3.803   2.556
 9851SOL     OW39722   6.120   5.037   2.318
 9851SOL    HW239723   6.113   5.069   2.408
 9851SOL    HW339724   6.030   5.021   2.290
 9851SOL    MW439725   6.108   5.039   2.325
 9852SOL     OW39726   6.715   5.430   3.227
 9852SOL    HW239727   6.635   5.415   3.177
 9852SOL    HW339728   6.722   5.525   3.234
 9852SOL    MW439729   6.706   5.441   3.221
 9853SOL     OW39730   6.829   5.395   2.717
 9853SOL    HW239731   6.876   5.468   2.676
 9853SOL    HW339732   6.750   5.434   2.753
 9853SOL    MW439733   6.824   5.410   2.716
 9854SOL     OW39734   7.237   5.490   2.992
 9854SOL    HW239735   7.280   5.460   3.072
 9854SOL    HW339736   7.156   5.438   2.989
 9854SOL    MW439737   7.232   5.479   3.002
 9855SOL     OW39738   6.322   4.454   3.699
 9855SOL    HW239739   6.392   4.396   3.671
 9855SOL    HW339740   6.265   4.399   3.754
 9855SOL    MW439741   6.324   4.441   3.703
 9856SOL     OW39742   7.109   4.666   3.332
 9856SOL    HW239743   7.114   4.719   3.412
 9856SOL    HW339744   7.071   4.583   3.360
 9856SOL    MW439745   7.105   4.661   3.347
 9857SOL     OW39746   6.749   3.801   3.578
 9857SOL    HW239747   6.744   3.708   3.559
 9857SOL    HW339748   6.832   3.812   3.624
 9857SOL    MW439749   6.757   3.790   3.582
 9858SOL     OW39750   6.123   4.321   2.032
 9858SOL    HW239751   6.089   4.377   2.102
 9858SOL    HW339752   6.194   4.271   2.072
 9858SOL    MW439753   6.129   4.322   2.046
 9859SOL     OW39754   7.219   5.072   2.854
 9859SOL    HW239755   7.254   5.054   2.767
 9859SOL    HW339756   7.124   5.073   2.841
 9859SOL    MW439757   7.211   5.069   2.841
 9860SOL     OW39758   6.648   4.720   3.223
 9860SOL    HW239759   6.691   4.755   3.301
 9860SOL    HW339760   6.631   4.797   3.169
 9860SOL    MW439761   6.651   4.735   3.226
 9861SOL     OW39762   7.179   4.207   2.096
 9861SOL    HW239763   7.171   4.278   2.033
 9861SOL    HW339764   7.197   4.251   2.179
 9861SOL    MW439765   7.180   4.221   2.098
 9862SOL     OW39766   6.039   3.862   2.525
 9862SOL    HW239767   6.089   3.905   2.456
 9862SOL    HW339768   5.954   3.906   2.525
 9862SOL    MW439769   6.036   3.875   2.516
 9863SOL     OW39770   5.798   4.924   3.385
 9863SOL    HW239771   5.826   4.877   3.463
 9863SOL    HW339772   5.719   4.879   3.356
 9863SOL    MW439773   5.791   4.913   3.391
 9864SOL     OW39774   6.306   4.251   3.352
 9864SOL    HW239775   6.278   4.339   3.376
 9864SOL    HW339776   6.275   4.195   3.423
 9864SOL    MW439777   6.298   4.254   3.364
 9865SOL     OW39778   6.848   4.469   2.071
 9865SOL    HW239779   6.895   4.487   1.990
 9865SOL    HW339780   6.814   4.553   2.099
 9865SOL    MW439781   6.850   4.483   2.064
 9866SOL     OW39782   5.961   4.647   2.565
 9866SOL    HW239783   6.019   4.703   2.513
 9866SOL    HW339784   6.005   4.562   2.567
 9866SOL    MW439785   5.974   4.644   2.558
 9867SOL     OW39786   7.101   3.999   2.402
 9867SOL    HW239787   7.023   3.949   2.427
 9867SOL    HW339788   7.072   4.090   2.402
 9867SOL    MW439789   7.087   4.003   2.405
 9868SOL     OW39790   6.687   3.961   2.561
 9868SOL    HW239791   6.707   4.036   2.505
 9868SOL    HW339792   6.667   4.000   2.646
 9868SOL    MW439793   6.688   3.977   2.565
 9869SOL     OW39794   6.583   5.211   1.893
 9869SOL    HW239795   6.610   5.289   1.845
 9869SOL    HW339796   6.490   5.226   1.912
 9869SOL    MW439797   6.574   5.224   1.889
 9870SOL     OW39798   7.447   4.734   3.580
 9870SOL    HW239799   7.360   4.714   3.616
 9870SOL    HW339800   7.501   4.660   3.605
 9870SOL    MW439801   7.442   4.723   3.588
 9871SOL     OW39802   5.668   5.247   2.737
 9871SOL    HW239803   5.700   5.251   2.828
 9871SOL    HW339804   5.573   5.255   2.745
 9871SOL    MW439805   5.660   5.250   2.750
 9872SOL     OW39806   5.623   4.373   2.284
 9872SOL    HW239807   5.563   4.345   2.354
 9872SOL    HW339808   5.697   4.313   2.290
 9872SOL    MW439809   5.625   4.362   2.293
 9873SOL     OW39810   7.191   5.585   3.718
 9873SOL    HW239811   7.236   5.509   3.683
 9873SOL    HW339812   7.229   5.598   3.805
 9873SOL    MW439813   7.201   5.578   3.724
 9874SOL     OW39814   6.791   5.104   2.444
 9874SOL    HW239815   6.814   5.055   2.522
 9874SOL    HW339816   6.872   5.146   2.416
 9874SOL    MW439817   6.804   5.104   2.451
 9875SOL     OW39818   6.049   4.112   3.173
 9875SOL    HW239819   6.082   4.193   3.213
 9875SOL    HW339820   6.022   4.138   3.085
 9875SOL    MW439821   6.048   4.126   3.167
 9876SOL     OW39822   6.003   4.079   2.909
 9876SOL    HW239823   6.033   3.993   2.880
 9876SOL    HW339824   5.908   4.072   2.912
 9876SOL    MW439825   5.995   4.068   2.907
 9877SOL     OW39826   6.832   4.288   3.600
 9877SOL    HW239827   6.884   4.223   3.553
 9877SOL    HW339828   6.790   4.339   3.530
 9877SOL    MW439829   6.833   4.285   3.583
 9878SOL     OW39830   6.931   4.083   3.461
 9878SOL    HW239831   6.838   4.067   3.448
 9878SOL    HW339832   6.957   4.021   3.529
 9878SOL    MW439833   6.921   4.073   3.468
 9879SOL     OW39834   6.146   3.857   2.800
 9879SOL    HW239835   6.156   3.766   2.826
 9879SOL    HW339836   6.102   3.853   2.715
 9879SOL    MW439837   6.142   3.845   2.792
 9880SOL     OW39838   6.240   5.472   3.346
 9880SOL    HW239839   6.157   5.457   3.391
 9880SOL    HW339840   6.299   5.405   3.381
 9880SOL    MW439841   6.238   5.462   3.356
 9881SOL     OW39842   7.297   4.179   2.971
 9881SOL    HW239843   7.230   4.212   3.031
 9881SOL    HW339844   7.340   4.257   2.937
 9881SOL    MW439845   7.295   4.194   2.975
 9882SOL     OW39846   7.475   4.899   2.941
 9882SOL    HW239847   7.468   4.839   2.866
 9882SOL    HW339848   7.401   4.959   2.930
 9882SOL    MW439849   7.465   4.899   2.930
 9883SOL     OW39850   6.857   4.761   2.859
 9883SOL    HW239851   6.871   4.733   2.950
 9883SOL    HW339852   6.943   4.792   2.831
 9883SOL    MW439853   6.870   4.762   2.868
 9884SOL     OW39854   6.940   4.256   3.138
 9884SOL    HW239855   6.961   4.257   3.045
 9884SOL    HW339856   6.985   4.178   3.171
 9884SOL    MW439857   6.947   4.246   3.130
 9885SOL     OW39858   7.433   4.387   3.680
 9885SOL    HW239859   7.470   4.332   3.749
 9885SOL    HW339860   7.458   4.344   3.598
 9885SOL    MW439861   7.440   4.375   3.679
 9886SOL     OW39862   6.980   4.685   3.731
 9886SOL    HW239863   7.046   4.633   3.685
 9886SOL    HW339864   7.000   4.672   3.824
 9886SOL    MW439865   6.991   4.676   3.738
 9887SOL     OW39866   6.931   3.771   2.080
 9887SOL    HW239867   7.005   3.815   2.123
 9887SOL    HW339868   6.855   3.825   2.102
 9887SOL    MW439869   6.931   3.783   2.088
 9888SOL     OW39870   6.991   4.546   2.358
 9888SOL    HW239871   6.906   4.516   2.328
 9888SOL    HW339872   6.983   4.553   2.453
 9888SOL    MW439873   6.979   4.544   2.367
 9889SOL     OW39874   6.067   5.009   3.089
 9889SOL    HW239875   6.079   5.036   3.180
 9889SOL    HW339876   6.048   5.090   3.042
 9889SOL    MW439877   6.066   5.024   3.094
 9890SOL     OW39878   6.351   3.989   2.912
 9890SOL    HW239879   6.324   3.991   3.003
 9890SOL    HW339880   6.281   3.941   2.867
 9890SOL    MW439881   6.339   3.985   2.919
 9891SOL     OW39882   6.205   5.481   3.074
 9891SOL    HW239883   6.257   5.558   3.051
 9891SOL    HW339884   6.214   5.473   3.169
 9891SOL    MW439885   6.214   5.488   3.085
 9892SOL     OW39886   7.107   5.066   3.306
 9892SOL    HW239887   7.092   4.995   3.369
 9892SOL    HW339888   7.153   5.024   3.234
 9892SOL    MW439889   7.113   5.050   3.306
 9893SOL     OW39890   6.181   4.797   3.423
 9893SOL    HW239891   6.218   4.802   3.335
 9893SOL    HW339892   6.220   4.870   3.470
 9893SOL    MW439893   6.191   4.807   3.418
 9894SOL     OW39894   6.361   4.840   3.235
 9894SOL    HW239895   6.420   4.786   3.288
 9894SOL    HW339896   6.376   4.812   3.145
 9894SOL    MW439897   6.371   4.829   3.231
 9895SOL     OW39898   6.364   4.212   2.084
 9895SOL    HW239899   6.437   4.261   2.047
 9895SOL    HW339900   6.380   4.121   2.058
 9895SOL    MW439901   6.376   4.207   2.077
 9896SOL     OW39902   7.172   5.329   3.407
 9896SOL    HW239903   7.214   5.314   3.492
 9896SOL    HW339904   7.163   5.242   3.369
 9896SOL    MW439905   7.176   5.317   3.414
 9897SOL     OW39906   6.832   3.808   2.998
 9897SOL    HW239907   6.887   3.817   2.920
 9897SOL    HW339908   6.887   3.842   3.069
 9897SOL    MW439909   6.846   3.813   2.997
 9898SOL     OW39910   5.839   4.721   2.182
 9898SOL    HW239911   5.776   4.737   2.111
 9898SOL    HW339912   5.786   4.684   2.253
 9898SOL    MW439913   5.824   4.718   2.182
 9899SOL     OW39914   6.195   5.075   2.041
 9899SOL    HW239915   6.210   5.051   2.133
 9899SOL    HW339916   6.103   5.053   2.025
 9899SOL    MW439917   6.185   5.068   2.051
 9900SOL     OW39918   6.734   5.306   2.193
 9900SOL    HW239919   6.742   5.224   2.144
 9900SOL    HW339920   6.653   5.345   2.160
 9900SOL    MW439921   6.724   5.301   2.183
 9901SOL     OW39922   5.993   5.464   2.762
 9901SOL    HW239923   5.997   5.375   2.797
 9901SOL    HW339924   6.019   5.455   2.671
 9901SOL    MW439925   5.996   5.452   2.754
 9902SOL     OW39926   6.610   4.942   3.005
 9902SOL    HW239927   6.542   4.876   3.021
 9902SOL    HW339928   6.628   4.936   2.912
 9902SOL    MW439929   6.603   4.933   2.996
 9903SOL     OW39930   5.699   5.217   3.256
 9903SOL    HW239931   5.689   5.175   3.342
 9903SOL    HW339932   5.620   5.270   3.246
 9903SOL    MW439933   5.688   5.218   3.267
 9904SOL     OW39934   6.603   4.081   2.826
 9904SOL    HW239935   6.533   4.033   2.871
 9904SOL    HW339936   6.635   4.144   2.890
 9904SOL    MW439937   6.598   4.083   2.840
 9905SOL     OW39938   6.254   4.517   3.446
 9905SOL    HW239939   6.247   4.612   3.434
 9905SOL    HW339940   6.263   4.506   3.541
 9905SOL    MW439941   6.255   4.529   3.456
 9906SOL     OW39942   5.975   5.032   3.704
 9906SOL    HW239943   6.047   5.034   3.641
 9906SOL    HW339944   5.945   4.941   3.703
 9906SOL    MW439945   5.980   5.021   3.696
 9907SOL     OW39946   7.059   3.795   3.171
 9907SOL    HW239947   7.130   3.741   3.135
 9907SOL    HW339948   7.058   3.774   3.264
 9907SOL    MW439949   7.068   3.786   3.179
 9908SOL     OW39950   7.259   5.325   3.655
 9908SOL    HW239951   7.232   5.322   3.746
 9908SOL    HW339952   7.355   5.329   3.658
 9908SOL    MW439953   7.269   5.325   3.667
 9909SOL     OW39954   6.070   4.187   2.639
 9909SOL    HW239955   6.141   4.135   2.602
 9909SOL    HW339956   6.056   4.152   2.726
 9909SOL    MW439957   6.078   4.176   2.646
 9910SOL     OW39958   5.625   5.522   3.711
 9910SOL    HW239959   5.675   5.500   3.633
 9910SOL    HW339960   5.633   5.617   3.719
 9910SOL    MW439961   5.633   5.531   3.702
 9911SOL     OW39962   6.386   5.280   2.715
 9911SOL    HW239963   6.314   5.217   2.728
 9911SOL    HW339964   6.347   5.365   2.733
 9911SOL    MW439965   6.370   5.283   2.718
 9912SOL     OW39966   6.706   4.128   2.363
 9912SOL    HW239967   6.728   4.065   2.295
 9912SOL    HW339968   6.611   4.120   2.374
 9912SOL    MW439969   6.696   4.119   2.355
 9913SOL     OW39970   5.791   3.818   2.295
 9913SOL    HW239971   5.862   3.839   2.234
 9913SOL    HW339972   5.745   3.746   2.253
 9913SOL    MW439973   5.795   3.812   2.281
 9914SOL     OW39974   5.622   4.285   3.438
 9914SOL    HW239975   5.686   4.351   3.413
 9914SOL    HW339976   5.541   4.312   3.395
 9914SOL    MW439977   5.620   4.297   3.430
 9915SOL     OW39978   7.360   5.192   2.395
 9915SOL    HW239979   7.330   5.125   2.456
 9915SOL    HW339980   7.454   5.198   2.409
 9915SOL    MW439981   7.368   5.184   2.405
 9916SOL     OW39982   6.916   4.869   2.325
 9916SOL    HW239983   6.888   4.955   2.358
 9916SOL    HW339984   6.944   4.885   2.235
 9916SOL    MW439985   6.916   4.883   2.317
 9917SOL     OW39986   6.578   3.789   2.378
 9917SOL    HW239987   6.615   3.848   2.443
 9917SOL    HW339988   6.555   3.845   2.304
 9917SOL    MW439989   6.579   3.804   2.377
 9918SOL     OW39990   7.431   4.671   2.800
 9918SOL    HW239991   7.422   4.703   2.711
 9918SOL    HW339992   7.384   4.587   2.800
 9918SOL    MW439993   7.424   4.664   2.790
 9919SOL     OW39994   5.807   4.511   3.379
 9919SOL    HW239995   5.828   4.580   3.317
 9919SOL    HW339996   5.887   4.458   3.384
 9919SOL    MW439997   5.820   4.512   3.373
 9920SOL     OW39998   7.343   4.602   2.501
 9920SOL    HW239999   7.437   4.591   2.489
 9920SOL    HW340000   7.319   4.674   2.442
 9920SOL    MW440001   7.353   4.610   2.492
 9921SOL     OW40002   5.792   4.526   3.646
 9921SOL    HW240003   5.718   4.470   3.672
 9921SOL    HW340004   5.787   4.529   3.551
 9921SOL    MW440005   5.781   4.519   3.636
 9922SOL     OW40006   5.958   3.813   3.096
 9922SOL    HW240007   6.001   3.897   3.116
 9922SOL    HW340008   6.031   3.751   3.089
 9922SOL    MW440009   5.973   3.816   3.097
 9923SOL     OW40010   5.999   4.480   2.274
 9923SOL    HW240011   5.999   4.575   2.259
 9923SOL    HW340012   6.076   4.464   2.328
 9923SOL    MW440013   6.009   4.491   2.279
 9924SOL     OW40014   6.775   4.339   3.338
 9924SOL    HW240015   6.811   4.312   3.254
 9924SOL    HW340016   6.688   4.373   3.317
 9924SOL    MW440017   6.769   4.340   3.325
 9925SOL     OW40018   5.758   4.211   2.563
 9925SOL    HW240019   5.820   4.218   2.636
 9925SOL    HW340020   5.758   4.118   2.540
 9925SOL    MW440021   5.766   4.200   2.570
 9926SOL     OW40022   7.305   5.551   2.095
 9926SOL    HW240023   7.372   5.584   2.035
 9926SOL    HW340024   7.262   5.630   2.129
 9926SOL    MW440025   7.307   5.566   2.091
 9927SOL     OW40026   6.440   4.472   3.047
 9927SOL    HW240027   6.398   4.390   3.023
 9927SOL    HW340028   6.441   4.471   3.143
 9927SOL    MW440029   6.433   4.461   3.056
 9928SOL     OW40030   7.111   5.605   3.446
 9928SOL    HW240031   7.114   5.511   3.429
 9928SOL    HW340032   7.134   5.613   3.538
 9928SOL    MW440033   7.114   5.593   3.456
 9929SOL     OW40034   6.244   3.942   3.152
 9929SOL    HW240035   6.175   4.005   3.173
 9929SOL    HW340036   6.271   3.906   3.237
 9929SOL    MW440037   6.238   3.945   3.165
 9930SOL     OW40038   5.627   4.783   2.021
 9930SOL    HW240039   5.596   4.848   2.084
 9930SOL    HW340040   5.576   4.705   2.040
 9930SOL    MW440041   5.617   4.780   2.031
 9931SOL     OW40042   7.039   3.795   2.769
 9931SOL    HW240043   7.127   3.804   2.806
 9931SOL    HW340044   7.049   3.736   2.695
 9931SOL    MW440045   7.053   3.789   2.763
 9932SOL     OW40046   7.071   4.534   2.613
 9932SOL    HW240047   7.151   4.549   2.562
 9932SOL    HW340048   7.064   4.439   2.619
 9932SOL    MW440049   7.080   4.523   2.608
 9933SOL     OW40050   6.211   5.583   1.963
 9933SOL    HW240051   6.116   5.583   1.955
 9933SOL    HW340052   6.227   5.529   2.041
 9933SOL    MW440053   6.201   5.577   1.972
 9934SOL     OW40054   6.521   4.460   3.310
 9934SOL    HW240055   6.590   4.527   3.307
 9934SOL    HW340056   6.454   4.498   3.366
 9934SOL    MW440057   6.522   4.473   3.317
 9935SOL     OW40058   5.939   4.760   3.558
 9935SOL    HW240059   5.893   4.676   3.560
 9935SOL    HW340060   5.996   4.754   3.482
 9935SOL    MW440061   5.941   4.748   3.550
 9936SOL     OW40062   7.056   4.403   1.879
 9936SOL    HW240063   6.984   4.379   1.821
 9936SOL    HW340064   7.122   4.440   1.821
 9936SOL    MW440065   7.055   4.405   1.864
 9937SOL     OW40066   6.190   5.135   2.559
 9937SOL    HW240067   6.255   5.068   2.580
 9937SOL    HW340068   6.242   5.212   2.536
 9937SOL    MW440069   6.205   5.137   2.558
 9938SOL     OW40070   6.451   4.300   2.689
 9938SOL    HW240071   6.391   4.318   2.761
 9938SOL    HW340072   6.485   4.212   2.708
 9938SOL    MW440073   6.447   4.290   2.702
 9939SOL     OW40074   7.392   3.799   3.358
 9939SOL    HW240075   7.313   3.845   3.386
 9939SOL    HW340076   7.427   3.853   3.287
 9939SOL    MW440077   7.386   3.812   3.352
 9940SOL     OW40078   6.676   4.883   2.708
 9940SOL    HW240079   6.768   4.864   2.726
 9940SOL    HW340080   6.649   4.813   2.648
 9940SOL    MW440081   6.684   4.871   2.702
 9941SOL     OW40082   6.469   4.703   2.063
 9941SOL    HW240083   6.455   4.615   2.028
 9941SOL    HW340084   6.420   4.760   2.004
 9941SOL    MW440085   6.461   4.698   2.051
 9942SOL     OW40086   6.950   5.121   2.804
 9942SOL    HW240087   6.923   5.205   2.769
 9942SOL    HW340088   6.910   5.116   2.891
 9942SOL    MW440089   6.943   5.130   2.810
 9943SOL     OW40090   6.869   5.069   3.072
 9943SOL    HW240091   6.880   5.036   3.161
 9943SOL    HW340092   6.788   5.028   3.041
 9943SOL    MW440093   6.859   5.061   3.078
 9944SOL     OW40094   5.882   4.427   2.842
 9944SOL    HW240095   5.832   4.426   2.923
 9944SOL    HW340096   5.902   4.519   2.826
 9944SOL    MW440097   5.878   4.439   2.850
 9945SOL     OW40098   6.949   5.191   3.604
 9945SOL    HW240099   6.949   5.285   3.620
 9945SOL    HW340100   6.994   5.181   3.520
 9945SOL    MW440101   6.955   5.201   3.595
 9946SOL     OW40102   7.188   3.909   2.165
 9946SOL    HW240103   7.181   3.913   2.260
 9946SOL    HW340104   7.200   4.000   2.138
 9946SOL    MW440105   7.189   3.922   2.173
 9947SOL     OW40106   6.477   4.472   2.279
 9947SOL    HW240107   6.457   4.458   2.186
 9947SOL    HW340108   6.570   4.451   2.286
 9947SOL    MW440109   6.487   4.467   2.268
 9948SOL     OW40110   5.804   4.095   3.583
 9948SOL    HW240111   5.761   4.154   3.520
 9948SOL    HW340112   5.872   4.150   3.623
 9948SOL    MW440113   5.808   4.110   3.580
 9949SOL     OW40114   6.916   4.715   3.128
 9949SOL    HW240115   6.979   4.712   3.201
 9949SOL    HW340116   6.832   4.733   3.170
 9949SOL    MW440117   6.912   4.717   3.143
 9950SOL     OW40118   6.460   5.430   2.317
 9950SOL    HW240119   6.518   5.501   2.344
 9950SOL    HW340120   6.483   5.358   2.375
 9950SOL    MW440121   6.471   5.430   2.328
 9951SOL     OW40122   7.255   3.892   2.907
 9951SOL    HW240123   7.300   3.810   2.926
 9951SOL    HW340124   7.275   3.948   2.983
 9951SOL    MW440125   7.265   3.888   2.919
 9952SOL     OW40126   5.703   3.735   3.006
 9952SOL    HW240127   5.694   3.736   2.911
 9952SOL    HW340128   5.797   3.747   3.021
 9952SOL    MW440129   5.715   3.738   2.997
 9953SOL     OW40130   7.340   4.928   2.626
 9953SOL    HW240131   7.319   4.874   2.549
 9953SOL    HW340132   7.436   4.926   2.630
 9953SOL    MW440133   7.349   4.921   2.615
 9954SOL     OW40134   6.032   5.073   3.369
 9954SOL    HW240135   5.953   5.023   3.392
 9954SOL    HW340136   6.102   5.032   3.419
 9954SOL    MW440137   6.030   5.061   3.379
 9955SOL     OW40138   5.916   3.862   2.052
 9955SOL    HW240139   5.845   3.917   2.020
 9955SOL    HW340140   5.958   3.828   1.973
 9955SOL    MW440141   5.912   3.864   2.038
 9956SOL     OW40142   7.040   4.359   2.888
 9956SOL    HW240143   6.963   4.405   2.854
 9956SOL    HW340144   7.097   4.428   2.922
 9956SOL    MW440145   7.037   4.374   2.888
 9957SOL     OW40146   5.672   3.961   1.901
 9957SOL    HW240147   5.639   4.040   1.945
 9957SOL    HW340148   5.727   3.994   1.830
 9957SOL    MW440149   5.675   3.975   1.898
 9958SOL     OW40150   5.706   5.218   2.090
 9958SOL    HW240151   5.723   5.302   2.132
 9958SOL    HW340152   5.741   5.227   2.002
 9958SOL    MW440153   5.711   5.231   2.084
 9959SOL     OW40154   6.978   5.307   2.307
 9959SOL    HW240155   7.041   5.297   2.236
 9959SOL    HW340156   6.895   5.327   2.262
 9959SOL    MW440157   6.975   5.308   2.292
 9960SOL     OW40158   7.341   4.575   3.993
 9960SOL    HW240159   7.382   4.517   4.058
 9960SOL    HW340160   7.248   4.567   4.010
 9960SOL    MW440161   7.335   4.567   4.003
 9961SOL     OW40162   7.207   4.507   4.988
 9961SOL    HW240163   7.162   4.574   5.039
 9961SOL    HW340164   7.295   4.543   4.974
 9961SOL    MW440165   7.213   4.520   4.992
 9962SOL     OW40166   6.135   4.758   4.222
 9962SOL    HW240167   6.225   4.733   4.206
 9962SOL    HW340168   6.131   4.851   4.199
 9962SOL    MW440169   6.147   4.767   4.217
 9963SOL     OW40170   7.251   5.461   4.364
 9963SOL    HW240171   7.263   5.407   4.442
 9963SOL    HW340172   7.288   5.409   4.293
 9963SOL    MW440173   7.257   5.446   4.365
 9964SOL     OW40174   6.630   5.346   5.365
 9964SOL    HW240175   6.671   5.382   5.286
 9964SOL    HW340176   6.665   5.257   5.372
 9964SOL    MW440177   6.641   5.339   5.356
 9965SOL     OW40178   7.187   4.901   4.969
 9965SOL    HW240179   7.108   4.866   4.927
 9965SOL    HW340180   7.214   4.973   4.913
 9965SOL    MW440181   7.180   4.906   4.956
 9966SOL     OW40182   6.419   4.214   4.235
 9966SOL    HW240183   6.394   4.302   4.263
 9966SOL    HW340184   6.416   4.217   4.139
 9966SOL    MW440185   6.415   4.226   4.227
 9967SOL     OW40186   5.861   4.242   4.163
 9967SOL    HW240187   5.893   4.330   4.145
 9967SOL    HW340188   5.849   4.240   4.258
 9967SOL    MW440189   5.864   4.254   4.175
 9968SOL     OW40190   5.939   4.655   5.064
 9968SOL    HW240191   6.002   4.602   5.015
 9968SOL    HW340192   5.920   4.729   5.007
 9968SOL    MW440193   5.945   4.657   5.051
 9969SOL     OW40194   6.260   3.997   4.250
 9969SOL    HW240195   6.318   4.073   4.252
 9969SOL    HW340196   6.195   4.018   4.183
 9969SOL    MW440197   6.259   4.009   4.241
 9970SOL     OW40198   6.347   4.924   4.425
 9970SOL    HW240199   6.427   4.927   4.477
 9970SOL    HW340200   6.375   4.891   4.339
 9970SOL    MW440201   6.361   4.920   4.420
 9971SOL     OW40202   6.372   5.265   5.328
 9971SOL    HW240203   6.456   5.291   5.367
 9971SOL    HW340204   6.396   5.209   5.254
 9971SOL    MW440205   6.386   5.261   5.323
 9972SOL     OW40206   6.124   4.428   4.416
 9972SOL    HW240207   6.109   4.348   4.467
 9972SOL    HW340208   6.206   4.463   4.450
 9972SOL    MW440209   6.132   4.420   4.428
 9973SOL     OW40210   6.461   5.114   5.101
 9973SOL    HW240211   6.425   5.180   5.041
 9973SOL    HW340212   6.389   5.052   5.114
 9973SOL    MW440213   6.447   5.114   5.095
 9974SOL     OW40214   6.266   4.254   4.793
 9974SOL    HW240215   6.172   4.250   4.811
 9974SOL    HW340216   6.296   4.163   4.802
 9974SOL    MW440217   6.257   4.242   4.796
 9975SOL     OW40218   6.012   4.668   4.697
 9975SOL    HW240219   5.967   4.675   4.613
 9975SOL    HW340220   5.992   4.751   4.741
 9975SOL    MW440221   6.004   4.680   4.691
 9976SOL     OW40222   5.709   5.514   4.572
 9976SOL    HW240223   5.798   5.506   4.607
 9976SOL    HW340224   5.673   5.426   4.577
 9976SOL    MW440225   5.716   5.501   4.577
 9977SOL     OW40226   6.974   4.906   3.941
 9977SOL    HW240227   6.892   4.942   3.907
 9977SOL    HW340228   7.042   4.949   3.890
 9977SOL    MW440229   6.972   4.916   3.929
 9978SOL     OW40230   5.973   5.041   4.607
 9978SOL    HW240231   5.949   5.094   4.683
 9978SOL    HW340232   6.029   5.099   4.555
 9978SOL    MW440233   5.977   5.056   4.610
 9979SOL     OW40234   6.535   4.685   4.417
 9979SOL    HW240235   6.449   4.672   4.457
 9979SOL    HW340236   6.588   4.612   4.449
 9979SOL    MW440237   6.531   4.674   4.426
 9980SOL     OW40238   5.943   5.337   5.202
 9980SOL    HW240239   5.851   5.313   5.187
 9980SOL    HW340240   5.987   5.254   5.219
 9980SOL    MW440241   5.937   5.322   5.201
 9981SOL     OW40242   6.526   5.047   4.134
 9981SOL    HW240243   6.503   5.109   4.202
 9981SOL    HW340244   6.483   4.965   4.160
 9981SOL    MW440245   6.518   5.043   4.145
 9982SOL     OW40246   7.399   4.048   4.590
 9982SOL    HW240247   7.336   4.028   4.659
 9982SOL    HW340248   7.389   3.977   4.527
 9982SOL    MW440249   7.389   4.035   4.591
 9983SOL     OW40250   6.023   4.020   4.102
 9983SOL    HW240251   5.997   3.982   4.018
 9983SOL    HW340252   5.960   4.090   4.118
 9983SOL    MW440253   6.012   4.023   4.093
 9984SOL     OW40254   5.858   4.981   4.139
 9984SOL    HW240255   5.806   5.049   4.095
 9984SOL    HW340256   5.855   4.907   4.079
 9984SOL    MW440257   5.850   4.980   4.126
 9985SOL     OW40258   6.520   5.444   3.917
 9985SOL    HW240259   6.475   5.460   4.000
 9985SOL    HW340260   6.451   5.409   3.859
 9985SOL    MW440261   6.506   5.441   3.919
 9986SOL     OW40262   7.455   4.217   3.892
 9986SOL    HW240263   7.364   4.219   3.920
 9986SOL    HW340264   7.500   4.279   3.950
 9986SOL    MW440265   7.448   4.225   3.902
 9987SOL     OW40266   7.200   4.820   4.242
 9987SOL    HW240267   7.110   4.820   4.277
 9987SOL    HW340268   7.193   4.866   4.159
 9987SOL    MW440269   7.187   4.826   4.236
 9988SOL     OW40270   7.000   4.455   5.314
 9988SOL    HW240271   7.069   4.393   5.291
 9988SOL    HW340272   6.925   4.429   5.261
 9988SOL    MW440273   7.000   4.442   5.305
 9989SOL     OW40274   5.741   5.335   4.866
 9989SOL    HW240275   5.724   5.281   4.943
 9989SOL    HW340276   5.729   5.425   4.896
 9989SOL    MW440277   5.738   5.339   4.880
 9990SOL     OW40278   6.736   4.842   5.306
 9990SOL    HW240279   6.721   4.935   5.291
 9990SOL    HW340280   6.831   4.832   5.306
 9990SOL    MW440281   6.745   4.852   5.303
 9991SOL     OW40282   6.532   4.266   5.507
 9991SOL    HW240283   6.622   4.267   5.474
 9991SOL    HW340284   6.491   4.191   5.465
 9991SOL    MW440285   6.538   4.256   5.498
 9992SOL     OW40286   7.107   4.798   4.634
 9992SOL    HW240287   7.110   4.732   4.565
 9992SOL    HW340288   7.192   4.841   4.630
 9992SOL    MW440289   7.119   4.794   4.625
 9993SOL     OW40290   6.727   4.401   4.203
 9993SOL    HW240291   6.753   4.425   4.114
 9993SOL    HW340292   6.709   4.308   4.199
 9993SOL    MW440293   6.729   4.393   4.190
 9994SOL     OW40294   7.392   5.021   4.054
 9994SOL    HW240295   7.348   5.062   4.129
 9994SOL    HW340296   7.449   5.089   4.019
 9994SOL    MW440297   7.394   5.035   4.059
 9995SOL     OW40298   6.312   4.070   5.457
 9995SOL    HW240299   6.322   3.996   5.397
 9995SOL    HW340300   6.348   4.039   5.540
 9995SOL    MW440301   6.318   4.056   5.459
 9996SOL     OW40302   6.048   5.437   4.372
 9996SOL    HW240303   6.080   5.525   4.350
 9996SOL    HW340304   6.001   5.409   4.294
 9996SOL    MW440305   6.047   5.445   4.359
 9997SOL     OW40306   7.432   3.799   4.421
 9997SOL    HW240307   7.486   3.750   4.483
 9997SOL    HW340308   7.375   3.733   4.382
 9997SOL    MW440309   7.432   3.783   4.423
 9998SOL     OW40310   5.764   5.497   3.949
 9998SOL    HW240311   5.793   5.587   3.941
 9998SOL    HW340312   5.714   5.480   3.870
 9998SOL    MW440313   5.762   5.505   3.938
 9999SOL     OW40314   6.551   3.752   4.834
 9999SOL    HW240315   6.510   3.830   4.796
 9999SOL    HW340316   6.645   3.770   4.829
 9999SOL    MW440317   6.557   3.764   4.829
10000SOL     OW40318   7.168   5.305   3.920
10000SOL    HW240319   7.216   5.374   3.966
10000SOL    HW340320   7.089   5.349   3.889
10000SOL    MW440321   7.163   5.319   3.923
10001SOL     OW40322   6.566   4.430   3.864
10001SOL    HW240323   6.568   4.377   3.785
10001SOL    HW340324   6.654   4.467   3.870
10001SOL    MW440325   6.578   4.429   3.853
10002SOL     OW40326   7.180   4.356   4.200
10002SOL    HW240327   7.219   4.356   4.287
10002SOL    HW340328   7.121   4.432   4.200
10002SOL    MW440329   7.177   4.367   4.211
10003SOL     OW40330   6.497   4.723   5.329
10003SOL    HW240331   6.474   4.703   5.419
10003SOL    HW340332   6.582   4.767   5.334
10003SOL    MW440333   6.504   4.726   5.341
10004SOL     OW40334   6.577   3.860   5.089
10004SOL    HW240335   6.583   3.822   5.002
10004SOL    HW340336   6.566   3.954   5.074
10004SOL    MW440337   6.578   3.868   5.077
10005SOL     OW40338   6.666   4.349   4.923
10005SOL    HW240339   6.741   4.378   4.870
10005SOL    HW340340   6.598   4.414   4.907
10005SOL    MW440341   6.667   4.361   4.913
10006SOL     OW40342   7.216   4.317   5.200
10006SOL    HW240343   7.197   4.226   5.179
10006SOL    HW340344   7.194   4.366   5.121
10006SOL    MW440345   7.211   4.310   5.187
10007SOL     OW40346   7.358   5.411   5.104
10007SOL    HW240347   7.286   5.373   5.155
10007SOL    HW340348   7.375   5.496   5.145
10007SOL    MW440349   7.352   5.416   5.116
10008SOL     OW40350   6.663   4.055   5.306
10008SOL    HW240351   6.629   4.094   5.225
10008SOL    HW340352   6.641   3.963   5.299
10008SOL    MW440353   6.656   4.048   5.296
10009SOL     OW40354   7.072   4.869   5.382
10009SOL    HW240355   7.154   4.910   5.412
10009SOL    HW340356   7.035   4.831   5.462
10009SOL    MW440357   7.078   4.870   5.397
10010SOL     OW40358   7.367   4.242   4.366
10010SOL    HW240359   7.456   4.211   4.383
10010SOL    HW340360   7.310   4.182   4.414
10010SOL    MW440361   7.370   4.230   4.375
10011SOL     OW40362   5.793   3.956   4.395
10011SOL    HW240363   5.784   3.896   4.321
10011SOL    HW340364   5.726   3.927   4.458
10011SOL    MW440365   5.783   3.943   4.393
10012SOL     OW40366   6.736   5.049   3.956
10012SOL    HW240367   6.686   5.051   4.038
10012SOL    HW340368   6.670   5.067   3.888
10012SOL    MW440369   6.722   5.051   3.958
10013SOL     OW40370   5.740   4.129   4.758
10013SOL    HW240371   5.712   4.220   4.767
10013SOL    HW340372   5.677   4.090   4.697
10013SOL    MW440373   5.727   4.135   4.752
10014SOL     OW40374   6.199   5.467   4.064
10014SOL    HW240375   6.120   5.425   4.097
10014SOL    HW340376   6.265   5.450   4.131
10014SOL    MW440377   6.198   5.459   4.077
10015SOL     OW40378   7.327   4.987   5.461
10015SOL    HW240379   7.377   4.913   5.493
10015SOL    HW340380   7.273   5.014   5.536
10015SOL    MW440381   7.327   4.981   5.474
10016SOL     OW40382   6.335   4.882   3.771
10016SOL    HW240383   6.257   4.828   3.758
10016SOL    HW340384   6.306   4.955   3.824
10016SOL    MW440385   6.321   4.884   3.776
10017SOL     OW40386   7.461   4.622   4.963
10017SOL    HW240387   7.477   4.660   4.876
10017SOL    HW340388   7.495   4.688   5.024
10017SOL    MW440389   7.468   4.635   4.959
10018SOL     OW40390   7.253   5.331   4.632
10018SOL    HW240391   7.282   5.398   4.693
10018SOL    HW340392   7.234   5.255   4.687
10018SOL    MW440393   7.255   5.331   4.647
10019SOL     OW40394   6.916   5.398   3.839
10019SOL    HW240395   6.842   5.361   3.889
10019SOL    HW340396   6.924   5.488   3.872
10019SOL    MW440397   6.907   5.405   3.851
10020SOL     OW40398   5.724   4.404   4.928
10020SOL    HW240399   5.786   4.434   4.994
10020SOL    HW340400   5.658   4.473   4.922
10020SOL    MW440401   5.723   4.417   4.935
10021SOL     OW40402   7.140   5.072   3.781
10021SOL    HW240403   7.087   5.121   3.717
10021SOL    HW340404   7.171   5.138   3.842
10021SOL    MW440405   7.138   5.086   3.779
10022SOL     OW40406   6.365   3.961   3.836
10022SOL    HW240407   6.313   3.881   3.824
10022SOL    HW340408   6.452   3.938   3.804
10022SOL    MW440409   6.368   3.947   3.830
10023SOL     OW40410   5.819   5.513   5.380
10023SOL    HW240411   5.793   5.581   5.318
10023SOL    HW340412   5.867   5.450   5.328
10023SOL    MW440413   5.821   5.513   5.366
10024SOL     OW40414   5.871   4.832   4.887
10024SOL    HW240415   5.924   4.907   4.912
10024SOL    HW340416   5.790   4.870   4.853
10024SOL    MW440417   5.867   4.847   4.887
10025SOL     OW40418   6.411   4.736   4.875
10025SOL    HW240419   6.439   4.645   4.887
10025SOL    HW340420   6.340   4.730   4.811
10025SOL    MW440421   6.404   4.724   4.870
10026SOL     OW40422   5.726   4.601   4.293
10026SOL    HW240423   5.817   4.616   4.320
10026SOL    HW340424   5.729   4.522   4.239
10026SOL    MW440425   5.738   4.593   4.291
10027SOL     OW40426   5.962   4.309   5.547
10027SOL    HW240427   5.909   4.389   5.554
10027SOL    HW340428   6.032   4.321   5.612
10027SOL    MW440429   5.964   4.322   5.555
10028SOL     OW40430   6.348   3.859   5.254
10028SOL    HW240431   6.325   3.767   5.256
10028SOL    HW340432   6.434   3.861   5.211
10028SOL    MW440433   6.355   3.849   5.250
10029SOL     OW40434   6.032   4.383   5.293
10029SOL    HW240435   6.112   4.433   5.279
10029SOL    HW340436   6.023   4.377   5.388
10029SOL    MW440437   6.041   4.389   5.303
10030SOL     OW40438   6.353   5.533   4.667
10030SOL    HW240439   6.442   5.548   4.697
10030SOL    HW340440   6.348   5.580   4.583
10030SOL    MW440441   6.363   5.541   4.660
10031SOL     OW40442   7.009   3.908   5.564
10031SOL    HW240443   7.065   3.835   5.590
10031SOL    HW340444   6.979   3.946   5.646
10031SOL    MW440445   7.013   3.903   5.577
10032SOL     OW40446   5.734   5.213   4.332
10032SOL    HW240447   5.706   5.252   4.414
10032SOL    HW340448   5.754   5.122   4.354
10032SOL    MW440449   5.732   5.205   4.345
10033SOL     OW40450   6.567   5.256   4.367
10033SOL    HW240451   6.650   5.210   4.351
10033SOL    HW340452   6.557   5.255   4.463
10033SOL    MW440453   6.577   5.249   4.377
10034SOL     OW40454   7.399   4.401   4.681
10034SOL    HW240455   7.488   4.431   4.663
10034SOL    HW340456   7.379   4.341   4.610
10034SOL    MW440457   7.408   4.398   4.670
10035SOL     OW40458   7.250   4.580   5.561
10035SOL    HW240459   7.305   4.504   5.542
10035SOL    HW340460   7.252   4.588   5.656
10035SOL    MW440461   7.258   4.571   5.569
10036SOL     OW40462   6.300   5.313   3.772
10036SOL    HW240463   6.240   5.382   3.742
10036SOL    HW340464   6.245   5.255   3.825
10036SOL    MW440465   6.284   5.315   3.774
10037SOL     OW40466   6.738   3.958   3.995
10037SOL    HW240467   6.671   3.934   3.932
10037SOL    HW340468   6.803   4.007   3.944
10037SOL    MW440469   6.738   3.960   3.980
10038SOL     OW40470   6.545   4.142   5.080
10038SOL    HW240471   6.464   4.183   5.108
10038SOL    HW340472   6.592   4.210   5.032
10038SOL    MW440473   6.540   4.157   5.078
10039SOL     OW40474   6.805   4.480   4.703
10039SOL    HW240475   6.818   4.574   4.713
10039SOL    HW340476   6.766   4.470   4.617
10039SOL    MW440477   6.801   4.491   4.693
10040SOL     OW40478   6.257   4.675   4.507
10040SOL    HW240479   6.168   4.666   4.540
10040SOL    HW340480   6.261   4.765   4.475
10040SOL    MW440481   6.246   4.686   4.507
10041SOL     OW40482   7.056   4.258   4.502
10041SOL    HW240483   7.001   4.179   4.501
10041SOL    HW340484   7.038   4.299   4.586
10041SOL    MW440485   7.046   4.253   4.511
10042SOL     OW40486   6.027   3.945   5.319
10042SOL    HW240487   5.948   3.963   5.371
10042SOL    HW340488   6.022   4.007   5.246
10042SOL    MW440489   6.017   3.955   5.316
10043SOL     OW40490   6.675   4.462   4.459
10043SOL    HW240491   6.612   4.394   4.483
10043SOL    HW340492   6.695   4.443   4.367
10043SOL    MW440493   6.669   4.449   4.451
10044SOL     OW40494   5.931   5.357   4.161
10044SOL    HW240495   5.892   5.404   4.087
10044SOL    HW340496   5.865   5.292   4.186
10044SOL    MW440497   5.918   5.355   4.155
10045SOL     OW40498   6.423   4.766   4.185
10045SOL    HW240499   6.425   4.740   4.092
10045SOL    HW340500   6.481   4.703   4.228
10045SOL    MW440501   6.431   4.755   4.179
10046SOL     OW40502   6.976   5.326   4.957
10046SOL    HW240503   6.901   5.372   4.995
10046SOL    HW340504   6.958   5.233   4.974
10046SOL    MW440505   6.965   5.320   4.965
10047SOL     OW40506   6.980   5.534   4.387
10047SOL    HW240507   6.923   5.487   4.326
10047SOL    HW340508   7.066   5.495   4.374
10047SOL    MW440509   6.983   5.525   4.377
10048SOL     OW40510   6.933   4.010   4.518
10048SOL    HW240511   6.961   3.942   4.579
10048SOL    HW340512   6.847   3.981   4.488
10048SOL    MW440513   6.926   3.997   4.522
10049SOL     OW40514   5.738   4.944   4.452
10049SOL    HW240515   5.802   4.976   4.515
10049SOL    HW340516   5.787   4.880   4.400
10049SOL    MW440517   5.753   4.940   4.453
10050SOL     OW40518   6.238   5.020   5.434
10050SOL    HW240519   6.286   5.103   5.421
10050SOL    HW340520   6.295   4.968   5.490
10050SOL    MW440521   6.252   5.024   5.440
10051SOL     OW40522   5.814   5.262   5.574
10051SOL    HW240523   5.870   5.186   5.589
10051SOL    HW340524   5.763   5.240   5.496
10051SOL    MW440525   5.814   5.249   5.565
10052SOL     OW40526   6.913   4.114   3.853
10052SOL    HW240527   6.886   4.180   3.789
10052SOL    HW340528   6.983   4.157   3.903
10052SOL    MW440529   6.918   4.127   3.850
10053SOL     OW40530   6.581   3.819   3.790
10053SOL    HW240531   6.637   3.811   3.712
10053SOL    HW340532   6.558   3.729   3.812
10053SOL    MW440533   6.586   3.806   3.783
10054SOL     OW40534   7.086   4.670   3.995
10054SOL    HW240535   7.053   4.759   3.985
10054SOL    HW340536   7.051   4.641   4.080
10054SOL    MW440537   7.076   4.679   4.006
10055SOL     OW40538   6.699   5.099   5.183
10055SOL    HW240539   6.610   5.105   5.151
10055SOL    HW340540   6.743   5.178   5.151
10055SOL    MW440541   6.694   5.109   5.175
10056SOL     OW40542   5.992   3.767   5.525
10056SOL    HW240543   5.920   3.732   5.473
10056SOL    HW340544   6.050   3.808   5.460
10056SOL    MW440545   5.990   3.768   5.510
10057SOL     OW40546   6.016   5.257   4.824
10057SOL    HW240547   6.061   5.319   4.881
10057SOL    HW340548   5.923   5.276   4.837
10057SOL    MW440549   6.009   5.267   4.831
10058SOL     OW40550   7.456   4.786   5.178
10058SOL    HW240551   7.371   4.799   5.137
10058SOL    HW340552   7.436   4.750   5.265
10058SOL    MW440553   7.443   4.782   5.183
10059SOL     OW40554   6.438   5.325   4.932
10059SOL    HW240555   6.462   5.314   4.841
10059SOL    HW340556   6.361   5.382   4.930
10059SOL    MW440557   6.430   5.330   4.921
10060SOL     OW40558   6.080   4.708   3.787
10060SOL    HW240559   6.003   4.721   3.843
10060SOL    HW340560   6.044   4.672   3.706
10060SOL    MW440561   6.066   4.704   3.784
10061SOL     OW40562   6.733   4.681   4.030
10061SOL    HW240563   6.643   4.702   4.005
10061SOL    HW340564   6.760   4.754   4.086
10061SOL    MW440565   6.725   4.693   4.033
10062SOL     OW40566   6.233   5.030   4.722
10062SOL    HW240567   6.226   5.009   4.816
10062SOL    HW340568   6.151   4.998   4.685
10062SOL    MW440569   6.221   5.024   4.729
10063SOL     OW40570   7.097   4.040   5.124
10063SOL    HW240571   7.044   4.042   5.204
10063SOL    HW340572   7.082   3.953   5.087
10063SOL    MW440573   7.089   4.030   5.129
10064SOL     OW40574   7.433   3.964   4.997
10064SOL    HW240575   7.414   4.031   4.932
10064SOL    HW340576   7.490   3.902   4.952
10064SOL    MW440577   7.437   3.965   4.983
10065SOL     OW40578   5.679   5.122   5.385
10065SOL    HW240579   5.723   5.055   5.331
10065SOL    HW340580   5.594   5.084   5.405
10065SOL    MW440581   5.674   5.108   5.381
10066SOL     OW40582   6.362   3.797   4.437
10066SOL    HW240583   6.291   3.858   4.419
10066SOL    HW340584   6.413   3.794   4.356
10066SOL    MW440585   6.358   3.803   4.424
10067SOL     OW40586   6.120   5.037   4.186
10067SOL    HW240587   6.113   5.069   4.276
10067SOL    HW340588   6.030   5.021   4.158
10067SOL    MW440589   6.108   5.039   4.193
10068SOL     OW40590   6.715   5.430   5.095
10068SOL    HW240591   6.635   5.415   5.045
10068SOL    HW340592   6.722   5.525   5.102
10068SOL    MW440593   6.706   5.441   5.089
10069SOL     OW40594   6.829   5.395   4.585
10069SOL    HW240595   6.876   5.468   4.544
10069SOL    HW340596   6.750   5.434   4.621
10069SOL    MW440597   6.824   5.410   4.584
10070SOL     OW40598   7.237   5.490   4.860
10070SOL    HW240599   7.280   5.460   4.940
10070SOL    HW340600   7.156   5.438   4.857
10070SOL    MW440601   7.232   5.479   4.870
10071SOL     OW40602   6.322   4.454   5.567
10071SOL    HW240603   6.392   4.396   5.539
10071SOL    HW340604   6.265   4.399   5.622
10071SOL    MW440605   6.324   4.441   5.571
10072SOL     OW40606   7.109   4.666   5.200
10072SOL    HW240607   7.114   4.719   5.280
10072SOL    HW340608   7.071   4.583   5.228
10072SOL    MW440609   7.105   4.661   5.215
10073SOL     OW40610   6.749   3.801   5.446
10073SOL    HW240611   6.744   3.708   5.427
10073SOL    HW340612   6.832   3.812   5.492
10073SOL    MW440613   6.757   3.790   5.450
10074SOL     OW40614   6.123   4.321   3.900
10074SOL    HW240615   6.089   4.377   3.970
10074SOL    HW340616   6.194   4.271   3.940
10074SOL    MW440617   6.129   4.322   3.914
10075SOL     OW40618   7.219   5.072   4.722
10075SOL    HW240619   7.254   5.054   4.635
10075SOL    HW340620   7.124   5.073   4.709
10075SOL    MW440621   7.211   5.069   4.709
10076SOL     OW40622   6.648   4.720   5.091
10076SOL    HW240623   6.691   4.755   5.169
10076SOL    HW340624   6.631   4.797   5.037
10076SOL    MW440625   6.651   4.735   5.094
10077SOL     OW40626   7.179   4.207   3.964
10077SOL    HW240627   7.171   4.278   3.901
10077SOL    HW340628   7.197   4.251   4.047
10077SOL    MW440629   7.180   4.221   3.966
10078SOL     OW40630   6.039   3.862   4.393
10078SOL    HW240631   6.089   3.905   4.324
10078SOL    HW340632   5.954   3.906   4.393
10078SOL    MW440633   6.036   3.875   4.384
10079SOL     OW40634   5.798   4.924   5.253
10079SOL    HW240635   5.826   4.877   5.331
10079SOL    HW340636   5.719   4.879   5.224
10079SOL    MW440637   5.791   4.913   5.259
10080SOL     OW40638   6.306   4.251   5.220
10080SOL    HW240639   6.278   4.339   5.244
10080SOL    HW340640   6.275   4.195   5.291
10080SOL    MW440641   6.298   4.254   5.232
10081SOL     OW40642   6.848   4.469   3.939
10081SOL    HW240643   6.895   4.487   3.858
10081SOL    HW340644   6.814   4.553   3.967
10081SOL    MW440645   6.850   4.483   3.932
10082SOL     OW40646   5.961   4.647   4.433
10082SOL    HW240647   6.019   4.703   4.381
10082SOL    HW340648   6.005   4.562   4.435
10082SOL    MW440649   5.974   4.644   4.426
10083SOL     OW40650   7.101   3.999   4.270
10083SOL    HW240651   7.023   3.949   4.295
10083SOL    HW340652   7.072   4.090   4.270
10083SOL    MW440653   7.087   4.003   4.273
10084SOL     OW40654   6.687   3.961   4.429
10084SOL    HW240655   6.707   4.036   4.373
10084SOL    HW340656   6.667   4.000   4.514
10084SOL    MW440657   6.688   3.977   4.433
10085SOL     OW40658   6.583   5.211   3.761
10085SOL    HW240659   6.610   5.289   3.713
10085SOL    HW340660   6.490   5.226   3.780
10085SOL    MW440661   6.574   5.224   3.757
10086SOL     OW40662   7.447   4.734   5.448
10086SOL    HW240663   7.360   4.714   5.484
10086SOL    HW340664   7.501   4.660   5.473
10086SOL    MW440665   7.442   4.723   5.456
10087SOL     OW40666   5.668   5.247   4.605
10087SOL    HW240667   5.700   5.251   4.696
10087SOL    HW340668   5.573   5.255   4.613
10087SOL    MW440669   5.660   5.250   4.618
10088SOL     OW40670   5.623   4.373   4.152
10088SOL    HW240671   5.563   4.345   4.222
10088SOL    HW340672   5.697   4.313   4.158
10088SOL    MW440673   5.625   4.362   4.161
10089SOL     OW40674   7.191   5.585   5.586
10089SOL    HW240675   7.236   5.509   5.551
10089SOL    HW340676   7.229   5.598   5.673
10089SOL    MW440677   7.201   5.578   5.592
10090SOL     OW40678   6.791   5.104   4.312
10090SOL    HW240679   6.814   5.055   4.390
10090SOL    HW340680   6.872   5.146   4.284
10090SOL    MW440681   6.804   5.104   4.319
10091SOL     OW40682   6.049   4.112   5.041
10091SOL    HW240683   6.082   4.193   5.081
10091SOL    HW340684   6.022   4.138   4.953
10091SOL    MW440685   6.048   4.126   5.035
10092SOL     OW40686   6.003   4.079   4.777
10092SOL    HW240687   6.033   3.993   4.748
10092SOL    HW340688   5.908   4.072   4.780
10092SOL    MW440689   5.995   4.068   4.775
10093SOL     OW40690   6.832   4.288   5.468
10093SOL    HW240691   6.884   4.223   5.421
10093SOL    HW340692   6.790   4.339   5.398
10093SOL    MW440693   6.833   4.285   5.451
10094SOL     OW40694   6.931   4.083   5.329
10094SOL    HW240695   6.838   4.067   5.316
10094SOL    HW340696   6.957   4.021   5.397
10094SOL    MW440697   6.921   4.073   5.336
10095SOL     OW40698   6.146   3.857   4.668
10095SOL    HW240699   6.156   3.766   4.694
10095SOL    HW340700   6.102   3.853   4.583
10095SOL    MW440701   6.142   3.845   4.660
10096SOL     OW40702   6.240   5.472   5.214
10096SOL    HW240703   6.157   5.457   5.259
10096SOL    HW340704   6.299   5.405   5.249
10096SOL    MW440705   6.238   5.462   5.224
10097SOL     OW40706   7.475   4.899   4.809
10097SOL    HW240707   7.468   4.839   4.734
10097SOL    HW340708   7.401   4.959   4.798
10097SOL    MW440709   7.465   4.899   4.798
10098SOL     OW40710   6.857   4.761   4.727
10098SOL    HW240711   6.871   4.733   4.818
10098SOL    HW340712   6.943   4.792   4.699
10098SOL    MW440713   6.870   4.762   4.736
10099SOL     OW40714   6.940   4.256   5.006
10099SOL    HW240715   6.961   4.257   4.913
10099SOL    HW340716   6.985   4.178   5.039
10099SOL    MW440717   6.947   4.246   4.998
10100SOL     OW40718   7.433   4.387   5.548
10100SOL    HW240719   7.470   4.332   5.617
10100SOL    HW340720   7.458   4.344   5.466
10100SOL    MW440721   7.440   4.375   5.547
10101SOL     OW40722   6.980   4.685   5.600
10101SOL    HW240723   7.046   4.633   5.554
10101SOL    HW340724   7.000   4.672   5.693
10101SOL    MW440725   6.991   4.676   5.607
10102SOL     OW40726   6.931   3.771   3.948
10102SOL    HW240727   7.005   3.815   3.991
10102SOL    HW340728   6.855   3.825   3.970
10102SOL    MW440729   6.931   3.783   3.956
10103SOL     OW40730   6.991   4.546   4.226
10103SOL    HW240731   6.906   4.516   4.196
10103SOL    HW340732   6.983   4.553   4.321
10103SOL    MW440733   6.979   4.544   4.235
10104SOL     OW40734   6.067   5.009   4.957
10104SOL    HW240735   6.079   5.036   5.048
10104SOL    HW340736   6.048   5.090   4.910
10104SOL    MW440737   6.066   5.024   4.962
10105SOL     OW40738   6.351   3.989   4.780
10105SOL    HW240739   6.324   3.991   4.871
10105SOL    HW340740   6.281   3.941   4.735
10105SOL    MW440741   6.339   3.985   4.787
10106SOL     OW40742   6.205   5.481   4.942
10106SOL    HW240743   6.257   5.558   4.919
10106SOL    HW340744   6.214   5.473   5.037
10106SOL    MW440745   6.214   5.488   4.953
10107SOL     OW40746   7.107   5.066   5.174
10107SOL    HW240747   7.092   4.995   5.237
10107SOL    HW340748   7.153   5.024   5.102
10107SOL    MW440749   7.113   5.050   5.174
10108SOL     OW40750   6.181   4.797   5.291
10108SOL    HW240751   6.218   4.802   5.203
10108SOL    HW340752   6.220   4.870   5.338
10108SOL    MW440753   6.191   4.807   5.286
10109SOL     OW40754   6.361   4.840   5.103
10109SOL    HW240755   6.420   4.786   5.156
10109SOL    HW340756   6.376   4.812   5.013
10109SOL    MW440757   6.371   4.829   5.099
10110SOL     OW40758   6.364   4.212   3.952
10110SOL    HW240759   6.437   4.261   3.915
10110SOL    HW340760   6.380   4.121   3.926
10110SOL    MW440761   6.376   4.207   3.945
10111SOL     OW40762   7.172   5.329   5.275
10111SOL    HW240763   7.214   5.314   5.360
10111SOL    HW340764   7.163   5.242   5.237
10111SOL    MW440765   7.176   5.317   5.282
10112SOL     OW40766   6.832   3.808   4.866
10112SOL    HW240767   6.887   3.817   4.788
10112SOL    HW340768   6.887   3.842   4.937
10112SOL    MW440769   6.846   3.813   4.865
10113SOL     OW40770   5.839   4.721   4.050
10113SOL    HW240771   5.776   4.737   3.979
10113SOL    HW340772   5.786   4.684   4.121
10113SOL    MW440773   5.824   4.718   4.050
10114SOL     OW40774   6.195   5.075   3.909
10114SOL    HW240775   6.210   5.051   4.001
10114SOL    HW340776   6.103   5.053   3.893
10114SOL    MW440777   6.185   5.068   3.919
10115SOL     OW40778   6.734   5.306   4.061
10115SOL    HW240779   6.742   5.224   4.012
10115SOL    HW340780   6.653   5.345   4.028
10115SOL    MW440781   6.724   5.301   4.051
10116SOL     OW40782   5.993   5.464   4.630
10116SOL    HW240783   5.997   5.375   4.665
10116SOL    HW340784   6.019   5.455   4.539
10116SOL    MW440785   5.996   5.452   4.622
10117SOL     OW40786   6.610   4.942   4.873
10117SOL    HW240787   6.542   4.876   4.889
10117SOL    HW340788   6.628   4.936   4.780
10117SOL    MW440789   6.603   4.933   4.864
10118SOL     OW40790   5.699   5.217   5.124
10118SOL    HW240791   5.689   5.175   5.210
10118SOL    HW340792   5.620   5.270   5.114
10118SOL    MW440793   5.688   5.218   5.135
10119SOL     OW40794   6.603   4.081   4.694
10119SOL    HW240795   6.533   4.033   4.739
10119SOL    HW340796   6.635   4.144   4.758
10119SOL    MW440797   6.598   4.083   4.708
10120SOL     OW40798   6.254   4.517   5.314
10120SOL    HW240799   6.247   4.612   5.302
10120SOL    HW340800   6.263   4.506   5.409
10120SOL    MW440801   6.255   4.529   5.324
10121SOL     OW40802   5.975   5.032   5.572
10121SOL    HW240803   6.047   5.034   5.509
10121SOL    HW340804   5.945   4.941   5.571
10121SOL    MW440805   5.980   5.021   5.564
10122SOL     OW40806   7.059   3.795   5.039
10122SOL    HW240807   7.130   3.741   5.003
10122SOL    HW340808   7.058   3.774   5.132
10122SOL    MW440809   7.068   3.786   5.047
10123SOL     OW40810   7.259   5.325   5.523
10123SOL    HW240811   7.232   5.322   5.614
10123SOL    HW340812   7.355   5.329   5.526
10123SOL    MW440813   7.269   5.325   5.535
10124SOL     OW40814   6.070   4.187   4.507
10124SOL    HW240815   6.141   4.135   4.470
10124SOL    HW340816   6.056   4.152   4.594
10124SOL    MW440817   6.078   4.176   4.514
10125SOL     OW40818   5.625   5.522   5.579
10125SOL    HW240819   5.675   5.500   5.501
10125SOL    HW340820   5.633   5.617   5.587
10125SOL    MW440821   5.633   5.531   5.570
10126SOL     OW40822   6.386   5.280   4.583
10126SOL    HW240823   6.314   5.217   4.596
10126SOL    HW340824   6.347   5.365   4.601
10126SOL    MW440825   6.370   5.283   4.586
10127SOL     OW40826   6.706   4.128   4.231
10127SOL    HW240827   6.728   4.065   4.163
10127SOL    HW340828   6.611   4.120   4.242
10127SOL    MW440829   6.696   4.119   4.223
10128SOL     OW40830   5.791   3.818   4.163
10128SOL    HW240831   5.862   3.839   4.102
10128SOL    HW340832   5.745   3.746   4.121
10128SOL    MW440833   5.795   3.812   4.149
10129SOL     OW40834   5.622   4.285   5.306
10129SOL    HW240835   5.686   4.351   5.281
10129SOL    HW340836   5.541   4.312   5.263
10129SOL    MW440837   5.620   4.297   5.298
10130SOL     OW40838   7.360   5.192   4.263
10130SOL    HW240839   7.330   5.125   4.324
10130SOL    HW340840   7.454   5.198   4.277
10130SOL    MW440841   7.368   5.184   4.273
10131SOL     OW40842   6.916   4.869   4.193
10131SOL    HW240843   6.888   4.955   4.226
10131SOL    HW340844   6.944   4.885   4.103
10131SOL    MW440845   6.916   4.883   4.185
10132SOL     OW40846   6.578   3.789   4.246
10132SOL    HW240847   6.615   3.848   4.311
10132SOL    HW340848   6.555   3.845   4.172
10132SOL    MW440849   6.579   3.804   4.245
10133SOL     OW40850   7.431   4.671   4.668
10133SOL    HW240851   7.422   4.703   4.579
10133SOL    HW340852   7.384   4.587   4.668
10133SOL    MW440853   7.424   4.664   4.658
10134SOL     OW40854   7.343   4.602   4.369
10134SOL    HW240855   7.437   4.591   4.357
10134SOL    HW340856   7.319   4.674   4.310
10134SOL    MW440857   7.353   4.610   4.360
10135SOL     OW40858   5.792   4.526   5.514
10135SOL    HW240859   5.718   4.470   5.540
10135SOL    HW340860   5.787   4.529   5.419
10135SOL    MW440861   5.781   4.519   5.504
10136SOL     OW40862   5.958   3.813   4.964
10136SOL    HW240863   6.001   3.897   4.984
10136SOL    HW340864   6.031   3.751   4.957
10136SOL    MW440865   5.973   3.816   4.965
10137SOL     OW40866   5.999   4.480   4.142
10137SOL    HW240867   5.999   4.575   4.127
10137SOL    HW340868   6.076   4.464   4.196
10137SOL    MW440869   6.009   4.491   4.147
10138SOL     OW40870   6.775   4.339   5.206
10138SOL    HW240871   6.811   4.312   5.122
10138SOL    HW340872   6.688   4.373   5.185
10138SOL    MW440873   6.769   4.340   5.193
10139SOL     OW40874   5.758   4.211   4.431
10139SOL    HW240875   5.820   4.218   4.504
10139SOL    HW340876   5.758   4.118   4.408
10139SOL    MW440877   5.766   4.200   4.438
10140SOL     OW40878   7.305   5.551   3.963
10140SOL    HW240879   7.372   5.584   3.903
10140SOL    HW340880   7.262   5.630   3.997
10140SOL    MW440881   7.307   5.566   3.959
10141SOL     OW40882   6.440   4.472   4.915
10141SOL    HW240883   6.398   4.390   4.891
10141SOL    HW340884   6.441   4.471   5.011
10141SOL    MW440885   6.433   4.461   4.924
10142SOL     OW40886   7.111   5.605   5.314
10142SOL    HW240887   7.114   5.511   5.297
10142SOL    HW340888   7.134   5.613   5.406
10142SOL    MW440889   7.114   5.593   5.324
10143SOL     OW40890   6.244   3.942   5.020
10143SOL    HW240891   6.175   4.005   5.041
10143SOL    HW340892   6.271   3.906   5.105
10143SOL    MW440893   6.238   3.945   5.033
10144SOL     OW40894   5.627   4.783   3.889
10144SOL    HW240895   5.596   4.848   3.952
10144SOL    HW340896   5.576   4.705   3.908
10144SOL    MW440897   5.617   4.780   3.899
10145SOL     OW40898   7.039   3.795   4.637
10145SOL    HW240899   7.127   3.804   4.674
10145SOL    HW340900   7.049   3.736   4.563
10145SOL    MW440901   7.053   3.789   4.631
10146SOL     OW40902   7.071   4.534   4.481
10146SOL    HW240903   7.151   4.549   4.430
10146SOL    HW340904   7.064   4.439   4.487
10146SOL    MW440905   7.080   4.523   4.476
10147SOL     OW40906   6.211   5.583   3.831
10147SOL    HW240907   6.116   5.583   3.823
10147SOL    HW340908   6.227   5.529   3.909
10147SOL    MW440909   6.201   5.577   3.840
10148SOL     OW40910   6.521   4.460   5.178
10148SOL    HW240911   6.590   4.527   5.175
10148SOL    HW340912   6.454   4.498   5.234
10148SOL    MW440913   6.522   4.473   5.185
10149SOL     OW40914   5.939   4.760   5.426
10149SOL    HW240915   5.893   4.676   5.428
10149SOL    HW340916   5.996   4.754   5.350
10149SOL    MW440917   5.941   4.748   5.418
10150SOL     OW40918   7.056   4.403   3.747
10150SOL    HW240919   6.984   4.379   3.689
10150SOL    HW340920   7.122   4.440   3.689
10150SOL    MW440921   7.055   4.405   3.732
10151SOL     OW40922   6.190   5.135   4.427
10151SOL    HW240923   6.255   5.068   4.448
10151SOL    HW340924   6.242   5.212   4.404
10151SOL    MW440925   6.205   5.137   4.426
10152SOL     OW40926   6.451   4.300   4.557
10152SOL    HW240927   6.391   4.318   4.629
10152SOL    HW340928   6.485   4.212   4.576
10152SOL    MW440929   6.447   4.290   4.570
10153SOL     OW40930   7.392   3.799   5.226
10153SOL    HW240931   7.313   3.845   5.254
10153SOL    HW340932   7.427   3.853   5.155
10153SOL    MW440933   7.386   3.812   5.220
10154SOL     OW40934   6.676   4.883   4.576
10154SOL    HW240935   6.768   4.864   4.594
10154SOL    HW340936   6.649   4.813   4.516
10154SOL    MW440937   6.684   4.871   4.570
10155SOL     OW40938   6.469   4.703   3.931
10155SOL    HW240939   6.455   4.615   3.896
10155SOL    HW340940   6.420   4.760   3.872
10155SOL    MW440941   6.461   4.698   3.919
10156SOL     OW40942   6.950   5.121   4.672
10156SOL    HW240943   6.923   5.205   4.637
10156SOL    HW340944   6.910   5.116   4.759
10156SOL    MW440945   6.943   5.130   4.678
10157SOL     OW40946   6.869   5.069   4.940
10157SOL    HW240947   6.880   5.036   5.029
10157SOL    HW340948   6.788   5.028   4.909
10157SOL    MW440949   6.859   5.061   4.946
10158SOL     OW40950   5.882   4.427   4.710
10158SOL    HW240951   5.832   4.426   4.791
10158SOL    HW340952   5.902   4.519   4.694
10158SOL    MW440953   5.878   4.439   4.718
10159SOL     OW40954   6.949   5.191   5.472
10159SOL    HW240955   6.949   5.285   5.488
10159SOL    HW340956   6.994   5.181   5.388
10159SOL    MW440957   6.955   5.201   5.463
10160SOL     OW40958   7.188   3.909   4.033
10160SOL    HW240959   7.181   3.913   4.128
10160SOL    HW340960   7.200   4.000   4.006
10160SOL    MW440961   7.189   3.922   4.041
10161SOL     OW40962   6.477   4.472   4.147
10161SOL    HW240963   6.457   4.458   4.054
10161SOL    HW340964   6.570   4.451   4.154
10161SOL    MW440965   6.487   4.467   4.136
10162SOL     OW40966   5.804   4.095   5.451
10162SOL    HW240967   5.761   4.154   5.388
10162SOL    HW340968   5.872   4.150   5.491
10162SOL    MW440969   5.808   4.110   5.448
10163SOL     OW40970   6.916   4.715   4.996
10163SOL    HW240971   6.979   4.712   5.069
10163SOL    HW340972   6.832   4.733   5.038
10163SOL    MW440973   6.912   4.717   5.011
10164SOL     OW40974   6.460   5.430   4.185
10164SOL    HW240975   6.518   5.501   4.212
10164SOL    HW340976   6.483   5.358   4.243
10164SOL    MW440977   6.471   5.430   4.196
10165SOL     OW40978   7.255   3.892   4.775
10165SOL    HW240979   7.300   3.810   4.794
10165SOL    HW340980   7.275   3.948   4.851
10165SOL    MW440981   7.265   3.888   4.787
10166SOL     OW40982   5.703   3.735   4.874
10166SOL    HW240983   5.694   3.736   4.779
10166SOL    HW340984   5.797   3.747   4.889
10166SOL    MW440985   5.715   3.738   4.865
10167SOL     OW40986   7.340   4.928   4.494
10167SOL    HW240987   7.319   4.874   4.417
10167SOL    HW340988   7.436   4.926   4.498
10167SOL    MW440989   7.349   4.921   4.483
10168SOL     OW40990   6.032   5.073   5.237
10168SOL    HW240991   5.953   5.023   5.260
10168SOL    HW340992   6.102   5.032   5.287
10168SOL    MW440993   6.030   5.061   5.247
10169SOL     OW40994   5.916   3.862   3.920
10169SOL    HW240995   5.845   3.917   3.888
10169SOL    HW340996   5.958   3.828   3.841
10169SOL    MW440997   5.912   3.864   3.906
10170SOL     OW40998   7.040   4.359   4.756
10170SOL    HW240999   6.963   4.405   4.722
10170SOL    HW341000   7.097   4.428   4.790
10170SOL    MW441001   7.037   4.374   4.756
10171SOL     OW41002   5.672   3.961   3.769
10171SOL    HW241003   5.639   4.040   3.813
10171SOL    HW341004   5.727   3.994   3.698
10171SOL    MW441005   5.675   3.975   3.766
10172SOL     OW41006   5.706   5.218   3.958
10172SOL    HW241007   5.723   5.302   4.000
10172SOL    HW341008   5.741   5.227   3.870
10172SOL    MW441009   5.711   5.231   3.952
10173SOL     OW41010   6.978   5.307   4.175
10173SOL    HW241011   7.041   5.297   4.104
10173SOL    HW341012   6.895   5.327   4.130
10173SOL    MW441013   6.975   5.308   4.160
10174SOL     OW41014   7.341   4.575   5.862
10174SOL    HW241015   7.382   4.517   5.927
10174SOL    HW341016   7.248   4.567   5.879
10174SOL    MW441017   7.335   4.567   5.872
10175SOL     OW41018   6.135   4.758   6.091
10175SOL    HW241019   6.225   4.733   6.075
10175SOL    HW341020   6.131   4.851   6.068
10175SOL    MW441021   6.147   4.767   6.086
10176SOL     OW41022   5.861   4.242   6.032
10176SOL    HW241023   5.893   4.330   6.014
10176SOL    HW341024   5.849   4.240   6.127
10176SOL    MW441025   5.864   4.254   6.044
10177SOL     OW41026   6.260   3.997   6.119
10177SOL    HW241027   6.318   4.073   6.121
10177SOL    HW341028   6.195   4.018   6.052
10177SOL    MW441029   6.259   4.009   6.110
10178SOL     OW41030   6.347   4.924   6.294
10178SOL    HW241031   6.427   4.927   6.346
10178SOL    HW341032   6.375   4.891   6.208
10178SOL    MW441033   6.361   4.920   6.289
10179SOL     OW41034   6.974   4.906   5.810
10179SOL    HW241035   6.892   4.942   5.776
10179SOL    HW341036   7.042   4.949   5.759
10179SOL    MW441037   6.972   4.916   5.798
10180SOL     OW41038   5.973   5.041   6.476
10180SOL    HW241039   5.949   5.094   6.552
10180SOL    HW341040   6.029   5.099   6.424
10180SOL    MW441041   5.977   5.056   6.479
10181SOL     OW41042   6.526   5.047   6.003
10181SOL    HW241043   6.503   5.109   6.071
10181SOL    HW341044   6.483   4.965   6.029
10181SOL    MW441045   6.518   5.043   6.014
10182SOL     OW41046   6.023   4.020   5.971
10182SOL    HW241047   5.997   3.982   5.887
10182SOL    HW341048   5.960   4.090   5.987
10182SOL    MW441049   6.012   4.023   5.962
10183SOL     OW41050   5.858   4.981   6.008
10183SOL    HW241051   5.806   5.049   5.964
10183SOL    HW341052   5.855   4.907   5.948
10183SOL    MW441053   5.850   4.980   5.995
10184SOL     OW41054   6.520   5.444   5.786
10184SOL    HW241055   6.475   5.460   5.869
10184SOL    HW341056   6.451   5.409   5.728
10184SOL    MW441057   6.506   5.441   5.788
10185SOL     OW41058   7.455   4.217   5.761
10185SOL    HW241059   7.364   4.219   5.789
10185SOL    HW341060   7.500   4.279   5.819
10185SOL    MW441061   7.448   4.225   5.771
10186SOL     OW41062   7.200   4.820   6.111
10186SOL    HW241063   7.110   4.820   6.146
10186SOL    HW341064   7.193   4.866   6.028
10186SOL    MW441065   7.187   4.826   6.105
10187SOL     OW41066   6.727   4.401   6.072
10187SOL    HW241067   6.753   4.425   5.983
10187SOL    HW341068   6.709   4.308   6.068
10187SOL    MW441069   6.729   4.393   6.059
10188SOL     OW41070   7.392   5.021   5.923
10188SOL    HW241071   7.348   5.062   5.998
10188SOL    HW341072   7.449   5.089   5.888
10188SOL    MW441073   7.394   5.035   5.928
10189SOL     OW41074   5.764   5.497   5.818
10189SOL    HW241075   5.793   5.587   5.810
10189SOL    HW341076   5.714   5.480   5.739
10189SOL    MW441077   5.762   5.505   5.807
10190SOL     OW41078   7.168   5.305   5.789
10190SOL    HW241079   7.216   5.374   5.835
10190SOL    HW341080   7.089   5.349   5.758
10190SOL    MW441081   7.163   5.319   5.792
10191SOL     OW41082   6.566   4.430   5.733
10191SOL    HW241083   6.568   4.377   5.654
10191SOL    HW341084   6.654   4.467   5.739
10191SOL    MW441085   6.578   4.429   5.722
10192SOL     OW41086   7.180   4.356   6.069
10192SOL    HW241087   7.219   4.356   6.156
10192SOL    HW341088   7.121   4.432   6.069
10192SOL    MW441089   7.177   4.367   6.080
10193SOL     OW41090   6.736   5.049   5.825
10193SOL    HW241091   6.686   5.051   5.907
10193SOL    HW341092   6.670   5.067   5.757
10193SOL    MW441093   6.722   5.051   5.827
10194SOL     OW41094   6.199   5.467   5.933
10194SOL    HW241095   6.120   5.425   5.966
10194SOL    HW341096   6.265   5.450   6.000
10194SOL    MW441097   6.198   5.459   5.946
10195SOL     OW41098   6.335   4.882   5.640
10195SOL    HW241099   6.257   4.828   5.627
10195SOL    HW341100   6.306   4.955   5.693
10195SOL    MW441101   6.321   4.884   5.645
10196SOL     OW41102   6.916   5.398   5.708
10196SOL    HW241103   6.842   5.361   5.758
10196SOL    HW341104   6.924   5.488   5.741
10196SOL    MW441105   6.907   5.405   5.720
10197SOL     OW41106   7.140   5.072   5.650
10197SOL    HW241107   7.087   5.121   5.586
10197SOL    HW341108   7.171   5.138   5.711
10197SOL    MW441109   7.138   5.086   5.648
10198SOL     OW41110   6.365   3.961   5.705
10198SOL    HW241111   6.313   3.881   5.693
10198SOL    HW341112   6.452   3.938   5.673
10198SOL    MW441113   6.368   3.947   5.699
10199SOL     OW41114   6.300   5.313   5.641
10199SOL    HW241115   6.240   5.382   5.611
10199SOL    HW341116   6.245   5.255   5.694
10199SOL    MW441117   6.284   5.315   5.643
10200SOL     OW41118   6.738   3.958   5.864
10200SOL    HW241119   6.671   3.934   5.801
10200SOL    HW341120   6.803   4.007   5.813
10200SOL    MW441121   6.738   3.960   5.849
10201SOL     OW41122   6.675   4.462   6.328
10201SOL    HW241123   6.612   4.394   6.352
10201SOL    HW341124   6.695   4.443   6.236
10201SOL    MW441125   6.669   4.449   6.320
10202SOL     OW41126   5.931   5.357   6.030
10202SOL    HW241127   5.892   5.404   5.956
10202SOL    HW341128   5.865   5.292   6.055
10202SOL    MW441129   5.918   5.355   6.024
10203SOL     OW41130   6.423   4.766   6.054
10203SOL    HW241131   6.425   4.740   5.961
10203SOL    HW341132   6.481   4.703   6.097
10203SOL    MW441133   6.431   4.755   6.048
10204SOL     OW41134   6.913   4.114   5.722
10204SOL    HW241135   6.886   4.180   5.658
10204SOL    HW341136   6.983   4.157   5.772
10204SOL    MW441137   6.918   4.127   5.719
10205SOL     OW41138   6.581   3.819   5.659
10205SOL    HW241139   6.637   3.811   5.581
10205SOL    HW341140   6.558   3.729   5.681
10205SOL    MW441141   6.586   3.806   5.652
10206SOL     OW41142   7.086   4.670   5.864
10206SOL    HW241143   7.053   4.759   5.854
10206SOL    HW341144   7.051   4.641   5.949
10206SOL    MW441145   7.076   4.679   5.875
10207SOL     OW41146   6.080   4.708   5.656
10207SOL    HW241147   6.003   4.721   5.712
10207SOL    HW341148   6.044   4.672   5.575
10207SOL    MW441149   6.066   4.704   5.653
10208SOL     OW41150   6.733   4.681   5.899
10208SOL    HW241151   6.643   4.702   5.874
10208SOL    HW341152   6.760   4.754   5.955
10208SOL    MW441153   6.725   4.693   5.902
10209SOL     OW41154   6.123   4.321   5.769
10209SOL    HW241155   6.089   4.377   5.839
10209SOL    HW341156   6.194   4.271   5.809
10209SOL    MW441157   6.129   4.322   5.783
10210SOL     OW41158   7.179   4.207   5.833
10210SOL    HW241159   7.171   4.278   5.770
10210SOL    HW341160   7.197   4.251   5.916
10210SOL    MW441161   7.180   4.221   5.835
10211SOL     OW41162   6.848   4.469   5.808
10211SOL    HW241163   6.895   4.487   5.727
10211SOL    HW341164   6.814   4.553   5.836
10211SOL    MW441165   6.850   4.483   5.801
10212SOL     OW41166   6.583   5.211   5.630
10212SOL    HW241167   6.610   5.289   5.582
10212SOL    HW341168   6.490   5.226   5.649
10212SOL    MW441169   6.574   5.224   5.626
10213SOL     OW41170   5.623   4.373   6.021
10213SOL    HW241171   5.563   4.345   6.091
10213SOL    HW341172   5.697   4.313   6.027
10213SOL    MW441173   5.625   4.362   6.030
10214SOL     OW41174   6.791   5.104   6.181
10214SOL    HW241175   6.814   5.055   6.259
10214SOL    HW341176   6.872   5.146   6.153
10214SOL    MW441177   6.804   5.104   6.188
10215SOL     OW41178   6.931   3.771   5.817
10215SOL    HW241179   7.005   3.815   5.860
10215SOL    HW341180   6.855   3.825   5.839
10215SOL    MW441181   6.931   3.783   5.825
10216SOL     OW41182   6.991   4.546   6.095
10216SOL    HW241183   6.906   4.516   6.065
10216SOL    HW341184   6.983   4.553   6.190
10216SOL    MW441185   6.979   4.544   6.104
10217SOL     OW41186   6.364   4.212   5.821
10217SOL    HW241187   6.437   4.261   5.784
10217SOL    HW341188   6.380   4.121   5.795
10217SOL    MW441189   6.376   4.207   5.814
10218SOL     OW41190   5.839   4.721   5.919
10218SOL    HW241191   5.776   4.737   5.848
10218SOL    HW341192   5.786   4.684   5.990
10218SOL    MW441193   5.824   4.718   5.919
10219SOL     OW41194   6.195   5.075   5.778
10219SOL    HW241195   6.210   5.051   5.870
10219SOL    HW341196   6.103   5.053   5.762
10219SOL    MW441197   6.185   5.068   5.788
10220SOL     OW41198   6.734   5.306   5.930
10220SOL    HW241199   6.742   5.224   5.881
10220SOL    HW341200   6.653   5.345   5.897
10220SOL    MW441201   6.724   5.301   5.920
10221SOL     OW41202   6.706   4.128   6.100
10221SOL    HW241203   6.728   4.065   6.032
10221SOL    HW341204   6.611   4.120   6.111
10221SOL    MW441205   6.696   4.119   6.092
10222SOL     OW41206   5.791   3.818   6.032
10222SOL    HW241207   5.862   3.839   5.971
10222SOL    HW341208   5.745   3.746   5.990
10222SOL    MW441209   5.795   3.812   6.018
10223SOL     OW41210   7.360   5.192   6.132
10223SOL    HW241211   7.330   5.125   6.193
10223SOL    HW341212   7.454   5.198   6.146
10223SOL    MW441213   7.368   5.184   6.142
10224SOL     OW41214   6.916   4.869   6.062
10224SOL    HW241215   6.888   4.955   6.095
10224SOL    HW341216   6.944   4.885   5.972
10224SOL    MW441217   6.916   4.883   6.054
10225SOL     OW41218   6.578   3.789   6.115
10225SOL    HW241219   6.615   3.848   6.180
10225SOL    HW341220   6.555   3.845   6.041
10225SOL    MW441221   6.579   3.804   6.114
10226SOL     OW41222   5.999   4.480   6.011
10226SOL    HW241223   5.999   4.575   5.996
10226SOL    HW341224   6.076   4.464   6.065
10226SOL    MW441225   6.009   4.491   6.016
10227SOL     OW41226   7.305   5.551   5.832
10227SOL    HW241227   7.372   5.584   5.772
10227SOL    HW341228   7.262   5.630   5.866
10227SOL    MW441229   7.307   5.566   5.828
10228SOL     OW41230   5.627   4.783   5.758
10228SOL    HW241231   5.596   4.848   5.821
10228SOL    HW341232   5.576   4.705   5.777
10228SOL    MW441233   5.617   4.780   5.768
10229SOL     OW41234   7.039   3.795   6.506
10229SOL    HW241235   7.127   3.804   6.543
10229SOL    HW341236   7.049   3.736   6.432
10229SOL    MW441237   7.053   3.789   6.500
10230SOL     OW41238   6.211   5.583   5.700
10230SOL    HW241239   6.116   5.583   5.692
10230SOL    HW341240   6.227   5.529   5.778
10230SOL    MW441241   6.201   5.577   5.709
10231SOL     OW41242   7.056   4.403   5.615
10231SOL    HW241243   6.984   4.379   5.557
10231SOL    HW341244   7.122   4.440   5.557
10231SOL    MW441245   7.055   4.405   5.600
10232SOL     OW41246   6.469   4.703   5.800
10232SOL    HW241247   6.455   4.615   5.765
10232SOL    HW341248   6.420   4.760   5.741
10232SOL    MW441249   6.461   4.698   5.788
10233SOL     OW41250   7.188   3.909   5.902
10233SOL    HW241251   7.181   3.913   5.997
10233SOL    HW341252   7.200   4.000   5.875
10233SOL    MW441253   7.189   3.922   5.910
10234SOL     OW41254   6.477   4.472   6.016
10234SOL    HW241255   6.457   4.458   5.923
10234SOL    HW341256   6.570   4.451   6.023
10234SOL    MW441257   6.487   4.467   6.005
10235SOL     OW41258   6.460   5.430   6.054
10235SOL    HW241259   6.518   5.501   6.081
10235SOL    HW341260   6.483   5.358   6.112
10235SOL    MW441261   6.471   5.430   6.065
10236SOL     OW41262   5.916   3.862   5.789
10236SOL    HW241263   5.845   3.917   5.757
10236SOL    HW341264   5.958   3.828   5.710
10236SOL    MW441265   5.912   3.864   5.775
10237SOL     OW41266   5.672   3.961   5.638
10237SOL    HW241267   5.639   4.040   5.682
10237SOL    HW341268   5.727   3.994   5.567
10237SOL    MW441269   5.675   3.975   5.635
10238SOL     OW41270   5.706   5.218   5.827
10238SOL    HW241271   5.723   5.302   5.869
10238SOL    HW341272   5.741   5.227   5.739
10238SOL    MW441273   5.711   5.231   5.821
10239SOL     OW41274   6.978   5.307   6.044
10239SOL    HW241275   7.041   5.297   5.973
10239SOL    HW341276   6.895   5.327   5.999
10239SOL    MW441277   6.975   5.308   6.029
10240SOL     OW41278   7.341   6.444   0.257
10240SOL    HW241279   7.382   6.386   0.322
10240SOL    HW341280   7.248   6.436   0.274
10240SOL    MW441281   7.335   6.436   0.267
10241SOL     OW41282   7.207   6.376   1.252
10241SOL    HW241283   7.162   6.443   1.303
10241SOL    HW341284   7.295   6.412   1.238
10241SOL    MW441285   7.213   6.389   1.256
10242SOL     OW41286   6.135   6.627   0.486
10242SOL    HW241287   6.225   6.602   0.470
10242SOL    HW341288   6.131   6.720   0.463
10242SOL    MW441289   6.147   6.636   0.481
10243SOL     OW41290   7.187   6.770   1.233
10243SOL    HW241291   7.108   6.735   1.191
10243SOL    HW341292   7.214   6.842   1.177
10243SOL    MW441293   7.180   6.775   1.220
10244SOL     OW41294   6.419   6.083   0.499
10244SOL    HW241295   6.394   6.171   0.527
10244SOL    HW341296   6.416   6.086   0.403
10244SOL    MW441297   6.415   6.095   0.491
10245SOL     OW41298   5.861   6.111   0.427
10245SOL    HW241299   5.893   6.199   0.409
10245SOL    HW341300   5.849   6.109   0.522
10245SOL    MW441301   5.864   6.123   0.439
10246SOL     OW41302   5.939   6.524   1.328
10246SOL    HW241303   6.002   6.471   1.279
10246SOL    HW341304   5.920   6.598   1.271
10246SOL    MW441305   5.945   6.526   1.315
10247SOL     OW41306   6.260   5.866   0.514
10247SOL    HW241307   6.318   5.942   0.516
10247SOL    HW341308   6.195   5.887   0.447
10247SOL    MW441309   6.259   5.878   0.505
10248SOL     OW41310   6.347   6.793   0.689
10248SOL    HW241311   6.427   6.796   0.741
10248SOL    HW341312   6.375   6.760   0.603
10248SOL    MW441313   6.361   6.789   0.684
10249SOL     OW41314   6.372   7.134   1.592
10249SOL    HW241315   6.456   7.160   1.631
10249SOL    HW341316   6.396   7.078   1.518
10249SOL    MW441317   6.386   7.130   1.587
10250SOL     OW41318   6.124   6.297   0.680
10250SOL    HW241319   6.109   6.217   0.731
10250SOL    HW341320   6.206   6.332   0.714
10250SOL    MW441321   6.132   6.289   0.692
10251SOL     OW41322   6.461   6.983   1.365
10251SOL    HW241323   6.425   7.049   1.305
10251SOL    HW341324   6.389   6.921   1.378
10251SOL    MW441325   6.447   6.983   1.359
10252SOL     OW41326   6.266   6.123   1.057
10252SOL    HW241327   6.172   6.119   1.075
10252SOL    HW341328   6.296   6.032   1.066
10252SOL    MW441329   6.257   6.111   1.060
10253SOL     OW41330   6.012   6.537   0.961
10253SOL    HW241331   5.967   6.544   0.877
10253SOL    HW341332   5.992   6.620   1.005
10253SOL    MW441333   6.004   6.549   0.955
10254SOL     OW41334   6.974   6.775   0.205
10254SOL    HW241335   6.892   6.811   0.171
10254SOL    HW341336   7.042   6.818   0.154
10254SOL    MW441337   6.972   6.785   0.193
10255SOL     OW41338   5.973   6.910   0.871
10255SOL    HW241339   5.949   6.963   0.947
10255SOL    HW341340   6.029   6.968   0.819
10255SOL    MW441341   5.977   6.925   0.874
10256SOL     OW41342   6.535   6.554   0.681
10256SOL    HW241343   6.449   6.541   0.721
10256SOL    HW341344   6.588   6.481   0.713
10256SOL    MW441345   6.531   6.543   0.690
10257SOL     OW41346   6.526   6.916   0.398
10257SOL    HW241347   6.503   6.978   0.466
10257SOL    HW341348   6.483   6.834   0.424
10257SOL    MW441349   6.518   6.912   0.409
10258SOL     OW41350   7.399   5.917   0.854
10258SOL    HW241351   7.336   5.897   0.923
10258SOL    HW341352   7.389   5.846   0.791
10258SOL    MW441353   7.389   5.904   0.855
10259SOL     OW41354   7.200   6.689   0.506
10259SOL    HW241355   7.110   6.689   0.541
10259SOL    HW341356   7.193   6.735   0.423
10259SOL    MW441357   7.187   6.695   0.500
10260SOL     OW41358   7.000   6.324   1.578
10260SOL    HW241359   7.069   6.262   1.555
10260SOL    HW341360   6.925   6.298   1.525
10260SOL    MW441361   7.000   6.311   1.569
10261SOL     OW41362   6.736   6.711   1.570
10261SOL    HW241363   6.721   6.804   1.555
10261SOL    HW341364   6.831   6.701   1.570
10261SOL    MW441365   6.745   6.721   1.567
10262SOL     OW41366   6.532   6.135   1.771
10262SOL    HW241367   6.622   6.136   1.738
10262SOL    HW341368   6.491   6.060   1.729
10262SOL    MW441369   6.538   6.125   1.762
10263SOL     OW41370   7.107   6.667   0.898
10263SOL    HW241371   7.110   6.601   0.829
10263SOL    HW341372   7.192   6.710   0.894
10263SOL    MW441373   7.119   6.663   0.889
10264SOL     OW41374   6.312   5.939   1.721
10264SOL    HW241375   6.322   5.865   1.661
10264SOL    HW341376   6.348   5.908   1.804
10264SOL    MW441377   6.318   5.925   1.723
10265SOL     OW41378   6.048   7.306   0.636
10265SOL    HW241379   6.080   7.394   0.614
10265SOL    HW341380   6.001   7.278   0.558
10265SOL    MW441381   6.047   7.314   0.623
10266SOL     OW41382   7.432   5.668   0.685
10266SOL    HW241383   7.486   5.619   0.747
10266SOL    HW341384   7.375   5.602   0.646
10266SOL    MW441385   7.432   5.652   0.687
10267SOL     OW41386   6.551   5.621   1.098
10267SOL    HW241387   6.510   5.699   1.060
10267SOL    HW341388   6.645   5.639   1.093
10267SOL    MW441389   6.557   5.633   1.093
10268SOL     OW41390   7.180   6.225   0.464
10268SOL    HW241391   7.219   6.225   0.551
10268SOL    HW341392   7.121   6.301   0.464
10268SOL    MW441393   7.177   6.236   0.475
10269SOL     OW41394   6.497   6.592   1.593
10269SOL    HW241395   6.474   6.572   1.683
10269SOL    HW341396   6.582   6.636   1.598
10269SOL    MW441397   6.504   6.595   1.605
10270SOL     OW41398   6.577   5.729   1.353
10270SOL    HW241399   6.583   5.691   1.266
10270SOL    HW341400   6.566   5.823   1.338
10270SOL    MW441401   6.578   5.737   1.341
10271SOL     OW41402   6.666   6.218   1.187
10271SOL    HW241403   6.741   6.247   1.134
10271SOL    HW341404   6.598   6.283   1.171
10271SOL    MW441405   6.667   6.230   1.177
10272SOL     OW41406   7.216   6.186   1.464
10272SOL    HW241407   7.197   6.095   1.443
10272SOL    HW341408   7.194   6.235   1.385
10272SOL    MW441409   7.211   6.179   1.451
10273SOL     OW41410   6.663   5.924   1.570
10273SOL    HW241411   6.629   5.963   1.489
10273SOL    HW341412   6.641   5.832   1.563
10273SOL    MW441413   6.656   5.917   1.560
10274SOL     OW41414   7.072   6.738   1.646
10274SOL    HW241415   7.154   6.779   1.676
10274SOL    HW341416   7.035   6.700   1.726
10274SOL    MW441417   7.078   6.739   1.661
10275SOL     OW41418   7.367   6.111   0.630
10275SOL    HW241419   7.456   6.080   0.647
10275SOL    HW341420   7.310   6.051   0.678
10275SOL    MW441421   7.370   6.099   0.639
10276SOL     OW41422   5.793   5.825   0.659
10276SOL    HW241423   5.784   5.765   0.585
10276SOL    HW341424   5.726   5.796   0.722
10276SOL    MW441425   5.783   5.812   0.657
10277SOL     OW41426   6.736   6.918   0.220
10277SOL    HW241427   6.686   6.920   0.302
10277SOL    HW341428   6.670   6.936   0.152
10277SOL    MW441429   6.722   6.920   0.222
10278SOL     OW41430   5.740   5.998   1.022
10278SOL    HW241431   5.712   6.089   1.031
10278SOL    HW341432   5.677   5.959   0.961
10278SOL    MW441433   5.727   6.004   1.016
10279SOL     OW41434   6.199   7.336   0.328
10279SOL    HW241435   6.120   7.294   0.361
10279SOL    HW341436   6.265   7.319   0.395
10279SOL    MW441437   6.198   7.328   0.341
10280SOL     OW41438   7.327   6.856   1.725
10280SOL    HW241439   7.377   6.782   1.757
10280SOL    HW341440   7.273   6.883   1.800
10280SOL    MW441441   7.327   6.850   1.738
10281SOL     OW41442   7.461   6.491   1.227
10281SOL    HW241443   7.477   6.529   1.140
10281SOL    HW341444   7.495   6.557   1.288
10281SOL    MW441445   7.468   6.504   1.223
10282SOL     OW41446   7.253   7.200   0.896
10282SOL    HW241447   7.282   7.267   0.957
10282SOL    HW341448   7.234   7.124   0.951
10282SOL    MW441449   7.255   7.200   0.911
10283SOL     OW41450   5.724   6.273   1.192
10283SOL    HW241451   5.786   6.303   1.258
10283SOL    HW341452   5.658   6.342   1.186
10283SOL    MW441453   5.723   6.286   1.199
10284SOL     OW41454   5.871   6.701   1.151
10284SOL    HW241455   5.924   6.776   1.176
10284SOL    HW341456   5.790   6.739   1.117
10284SOL    MW441457   5.867   6.716   1.151
10285SOL     OW41458   6.411   6.605   1.139
10285SOL    HW241459   6.439   6.514   1.151
10285SOL    HW341460   6.340   6.599   1.075
10285SOL    MW441461   6.404   6.593   1.134
10286SOL     OW41462   5.726   6.470   0.557
10286SOL    HW241463   5.817   6.485   0.584
10286SOL    HW341464   5.729   6.391   0.503
10286SOL    MW441465   5.738   6.462   0.555
10287SOL     OW41466   5.962   6.178   1.811
10287SOL    HW241467   5.909   6.258   1.818
10287SOL    HW341468   6.032   6.190   1.876
10287SOL    MW441469   5.964   6.191   1.819
10288SOL     OW41470   6.348   5.728   1.518
10288SOL    HW241471   6.325   5.636   1.520
10288SOL    HW341472   6.434   5.730   1.475
10288SOL    MW441473   6.355   5.718   1.514
10289SOL     OW41474   6.032   6.252   1.557
10289SOL    HW241475   6.112   6.302   1.543
10289SOL    HW341476   6.023   6.246   1.652
10289SOL    MW441477   6.041   6.258   1.567
10290SOL     OW41478   7.009   5.777   1.828
10290SOL    HW241479   7.065   5.704   1.854
10290SOL    HW341480   6.979   5.815   1.910
10290SOL    MW441481   7.013   5.772   1.841
10291SOL     OW41482   5.734   7.082   0.596
10291SOL    HW241483   5.706   7.121   0.678
10291SOL    HW341484   5.754   6.991   0.618
10291SOL    MW441485   5.732   7.074   0.609
10292SOL     OW41486   6.567   7.125   0.631
10292SOL    HW241487   6.650   7.079   0.615
10292SOL    HW341488   6.557   7.124   0.727
10292SOL    MW441489   6.577   7.118   0.641
10293SOL     OW41490   7.399   6.270   0.945
10293SOL    HW241491   7.488   6.300   0.927
10293SOL    HW341492   7.379   6.210   0.874
10293SOL    MW441493   7.408   6.267   0.934
10294SOL     OW41494   7.250   6.449   1.825
10294SOL    HW241495   7.305   6.373   1.806
10294SOL    HW341496   7.252   6.457   1.920
10294SOL    MW441497   7.258   6.440   1.833
10295SOL     OW41498   6.545   6.011   1.344
10295SOL    HW241499   6.464   6.052   1.372
10295SOL    HW341500   6.592   6.079   1.296
10295SOL    MW441501   6.540   6.026   1.342
10296SOL     OW41502   6.805   6.349   0.967
10296SOL    HW241503   6.818   6.443   0.977
10296SOL    HW341504   6.766   6.339   0.881
10296SOL    MW441505   6.801   6.360   0.957
10297SOL     OW41506   6.257   6.544   0.771
10297SOL    HW241507   6.168   6.535   0.804
10297SOL    HW341508   6.261   6.634   0.739
10297SOL    MW441509   6.246   6.555   0.771
10298SOL     OW41510   7.056   6.127   0.766
10298SOL    HW241511   7.001   6.048   0.765
10298SOL    HW341512   7.038   6.168   0.850
10298SOL    MW441513   7.046   6.122   0.775
10299SOL     OW41514   6.027   5.814   1.583
10299SOL    HW241515   5.948   5.832   1.635
10299SOL    HW341516   6.022   5.876   1.510
10299SOL    MW441517   6.017   5.824   1.580
10300SOL     OW41518   6.675   6.331   0.723
10300SOL    HW241519   6.612   6.263   0.747
10300SOL    HW341520   6.695   6.312   0.631
10300SOL    MW441521   6.669   6.318   0.715
10301SOL     OW41522   6.423   6.635   0.449
10301SOL    HW241523   6.425   6.609   0.356
10301SOL    HW341524   6.481   6.572   0.492
10301SOL    MW441525   6.431   6.624   0.443
10302SOL     OW41526   6.933   5.879   0.782
10302SOL    HW241527   6.961   5.811   0.843
10302SOL    HW341528   6.847   5.850   0.752
10302SOL    MW441529   6.926   5.866   0.786
10303SOL     OW41530   5.738   6.813   0.716
10303SOL    HW241531   5.802   6.845   0.779
10303SOL    HW341532   5.787   6.749   0.664
10303SOL    MW441533   5.753   6.809   0.717
10304SOL     OW41534   6.238   6.889   1.698
10304SOL    HW241535   6.286   6.972   1.685
10304SOL    HW341536   6.295   6.837   1.754
10304SOL    MW441537   6.252   6.893   1.704
10305SOL     OW41538   6.699   6.968   1.447
10305SOL    HW241539   6.610   6.974   1.415
10305SOL    HW341540   6.743   7.047   1.415
10305SOL    MW441541   6.694   6.978   1.439
10306SOL     OW41542   5.992   5.636   1.789
10306SOL    HW241543   5.920   5.601   1.737
10306SOL    HW341544   6.050   5.677   1.724
10306SOL    MW441545   5.990   5.637   1.774
10307SOL     OW41546   7.456   6.655   1.442
10307SOL    HW241547   7.371   6.668   1.401
10307SOL    HW341548   7.436   6.619   1.529
10307SOL    MW441549   7.443   6.651   1.447
10308SOL     OW41550   6.233   6.899   0.986
10308SOL    HW241551   6.226   6.878   1.080
10308SOL    HW341552   6.151   6.867   0.949
10308SOL    MW441553   6.221   6.893   0.993
10309SOL     OW41554   7.097   5.909   1.388
10309SOL    HW241555   7.044   5.911   1.468
10309SOL    HW341556   7.082   5.822   1.351
10309SOL    MW441557   7.089   5.899   1.393
10310SOL     OW41558   7.433   5.833   1.261
10310SOL    HW241559   7.414   5.900   1.196
10310SOL    HW341560   7.490   5.771   1.216
10310SOL    MW441561   7.437   5.834   1.247
10311SOL     OW41562   5.679   6.991   1.649
10311SOL    HW241563   5.723   6.924   1.595
10311SOL    HW341564   5.594   6.953   1.669
10311SOL    MW441565   5.674   6.977   1.645
10312SOL     OW41566   6.362   5.666   0.701
10312SOL    HW241567   6.291   5.727   0.683
10312SOL    HW341568   6.413   5.663   0.620
10312SOL    MW441569   6.358   5.672   0.688
10313SOL     OW41570   6.120   6.906   0.450
10313SOL    HW241571   6.113   6.938   0.540
10313SOL    HW341572   6.030   6.890   0.422
10313SOL    MW441573   6.108   6.908   0.457
10314SOL     OW41574   6.322   6.323   1.831
10314SOL    HW241575   6.392   6.265   1.803
10314SOL    HW341576   6.265   6.268   1.886
10314SOL    MW441577   6.324   6.310   1.835
10315SOL     OW41578   7.109   6.535   1.464
10315SOL    HW241579   7.114   6.588   1.544
10315SOL    HW341580   7.071   6.452   1.492
10315SOL    MW441581   7.105   6.530   1.479
10316SOL     OW41582   6.749   5.670   1.710
10316SOL    HW241583   6.744   5.577   1.691
10316SOL    HW341584   6.832   5.681   1.756
10316SOL    MW441585   6.757   5.659   1.714
10317SOL     OW41586   7.219   6.941   0.986
10317SOL    HW241587   7.254   6.923   0.899
10317SOL    HW341588   7.124   6.942   0.973
10317SOL    MW441589   7.211   6.938   0.973
10318SOL     OW41590   6.648   6.589   1.355
10318SOL    HW241591   6.691   6.624   1.433
10318SOL    HW341592   6.631   6.666   1.301
10318SOL    MW441593   6.651   6.604   1.358
10319SOL     OW41594   7.179   6.076   0.228
10319SOL    HW241595   7.171   6.147   0.165
10319SOL    HW341596   7.197   6.120   0.311
10319SOL    MW441597   7.180   6.090   0.230
10320SOL     OW41598   6.039   5.731   0.657
10320SOL    HW241599   6.089   5.774   0.588
10320SOL    HW341600   5.954   5.775   0.657
10320SOL    MW441601   6.036   5.744   0.648
10321SOL     OW41602   5.798   6.793   1.517
10321SOL    HW241603   5.826   6.746   1.595
10321SOL    HW341604   5.719   6.748   1.488
10321SOL    MW441605   5.791   6.782   1.523
10322SOL     OW41606   6.306   6.120   1.484
10322SOL    HW241607   6.278   6.208   1.508
10322SOL    HW341608   6.275   6.064   1.555
10322SOL    MW441609   6.298   6.123   1.496
10323SOL     OW41610   5.961   6.516   0.697
10323SOL    HW241611   6.019   6.572   0.645
10323SOL    HW341612   6.005   6.431   0.699
10323SOL    MW441613   5.974   6.513   0.690
10324SOL     OW41614   7.101   5.868   0.534
10324SOL    HW241615   7.023   5.818   0.559
10324SOL    HW341616   7.072   5.959   0.534
10324SOL    MW441617   7.087   5.872   0.537
10325SOL     OW41618   6.687   5.830   0.693
10325SOL    HW241619   6.707   5.905   0.637
10325SOL    HW341620   6.667   5.869   0.778
10325SOL    MW441621   6.688   5.846   0.697
10326SOL     OW41622   7.447   6.603   1.712
10326SOL    HW241623   7.360   6.583   1.748
10326SOL    HW341624   7.501   6.529   1.737
10326SOL    MW441625   7.442   6.592   1.720
10327SOL     OW41626   5.668   7.116   0.869
10327SOL    HW241627   5.700   7.120   0.960
10327SOL    HW341628   5.573   7.124   0.877
10327SOL    MW441629   5.660   7.119   0.882
10328SOL     OW41630   5.623   6.242   0.416
10328SOL    HW241631   5.563   6.214   0.486
10328SOL    HW341632   5.697   6.182   0.422
10328SOL    MW441633   5.625   6.231   0.425
10329SOL     OW41634   6.791   6.973   0.576
10329SOL    HW241635   6.814   6.924   0.654
10329SOL    HW341636   6.872   7.015   0.548
10329SOL    MW441637   6.804   6.973   0.583
10330SOL     OW41638   6.049   5.981   1.305
10330SOL    HW241639   6.082   6.062   1.345
10330SOL    HW341640   6.022   6.007   1.217
10330SOL    MW441641   6.048   5.995   1.299
10331SOL     OW41642   6.003   5.948   1.041
10331SOL    HW241643   6.033   5.862   1.012
10331SOL    HW341644   5.908   5.941   1.044
10331SOL    MW441645   5.995   5.937   1.039
10332SOL     OW41646   6.832   6.157   1.732
10332SOL    HW241647   6.884   6.092   1.685
10332SOL    HW341648   6.790   6.208   1.662
10332SOL    MW441649   6.833   6.154   1.715
10333SOL     OW41650   6.931   5.952   1.593
10333SOL    HW241651   6.838   5.936   1.580
10333SOL    HW341652   6.957   5.890   1.661
10333SOL    MW441653   6.921   5.942   1.600
10334SOL     OW41654   6.146   5.726   0.932
10334SOL    HW241655   6.156   5.635   0.958
10334SOL    HW341656   6.102   5.722   0.847
10334SOL    MW441657   6.142   5.714   0.924
10335SOL     OW41658   7.297   6.048   1.103
10335SOL    HW241659   7.230   6.081   1.163
10335SOL    HW341660   7.340   6.126   1.069
10335SOL    MW441661   7.295   6.063   1.107
10336SOL     OW41662   7.475   6.768   1.073
10336SOL    HW241663   7.468   6.708   0.998
10336SOL    HW341664   7.401   6.828   1.062
10336SOL    MW441665   7.465   6.768   1.062
10337SOL     OW41666   6.857   6.630   0.991
10337SOL    HW241667   6.871   6.602   1.082
10337SOL    HW341668   6.943   6.661   0.963
10337SOL    MW441669   6.870   6.631   1.000
10338SOL     OW41670   6.940   6.125   1.270
10338SOL    HW241671   6.961   6.126   1.177
10338SOL    HW341672   6.985   6.047   1.303
10338SOL    MW441673   6.947   6.115   1.262
10339SOL     OW41674   7.433   6.256   1.812
10339SOL    HW241675   7.470   6.201   1.881
10339SOL    HW341676   7.458   6.213   1.730
10339SOL    MW441677   7.440   6.244   1.811
10340SOL     OW41678   6.980   6.554   1.863
10340SOL    HW241679   7.046   6.502   1.817
10340SOL    HW341680   7.000   6.541   1.956
10340SOL    MW441681   6.991   6.545   1.870
10341SOL     OW41682   6.067   6.878   1.221
10341SOL    HW241683   6.079   6.905   1.312
10341SOL    HW341684   6.048   6.959   1.174
10341SOL    MW441685   6.066   6.893   1.226
10342SOL     OW41686   6.351   5.858   1.044
10342SOL    HW241687   6.324   5.860   1.135
10342SOL    HW341688   6.281   5.810   0.999
10342SOL    MW441689   6.339   5.854   1.051
10343SOL     OW41690   7.107   6.935   1.438
10343SOL    HW241691   7.092   6.864   1.501
10343SOL    HW341692   7.153   6.893   1.366
10343SOL    MW441693   7.113   6.919   1.438
10344SOL     OW41694   6.181   6.666   1.555
10344SOL    HW241695   6.218   6.671   1.467
10344SOL    HW341696   6.220   6.739   1.602
10344SOL    MW441697   6.191   6.676   1.550
10345SOL     OW41698   6.361   6.709   1.367
10345SOL    HW241699   6.420   6.655   1.420
10345SOL    HW341700   6.376   6.681   1.277
10345SOL    MW441701   6.371   6.698   1.363
10346SOL     OW41702   6.832   5.677   1.130
10346SOL    HW241703   6.887   5.686   1.052
10346SOL    HW341704   6.887   5.711   1.201
10346SOL    MW441705   6.846   5.682   1.129
10347SOL     OW41706   5.839   6.590   0.314
10347SOL    HW241707   5.776   6.606   0.243
10347SOL    HW341708   5.786   6.553   0.385
10347SOL    MW441709   5.824   6.587   0.314
10348SOL     OW41710   6.734   7.175   0.325
10348SOL    HW241711   6.742   7.093   0.276
10348SOL    HW341712   6.653   7.214   0.292
10348SOL    MW441713   6.724   7.170   0.315
10349SOL     OW41714   6.610   6.811   1.137
10349SOL    HW241715   6.542   6.745   1.153
10349SOL    HW341716   6.628   6.805   1.044
10349SOL    MW441717   6.603   6.802   1.128
10350SOL     OW41718   5.699   7.086   1.388
10350SOL    HW241719   5.689   7.044   1.474
10350SOL    HW341720   5.620   7.139   1.378
10350SOL    MW441721   5.688   7.087   1.399
10351SOL     OW41722   6.603   5.950   0.958
10351SOL    HW241723   6.533   5.902   1.003
10351SOL    HW341724   6.635   6.013   1.022
10351SOL    MW441725   6.598   5.952   0.972
10352SOL     OW41726   6.254   6.386   1.578
10352SOL    HW241727   6.247   6.481   1.566
10352SOL    HW341728   6.263   6.375   1.673
10352SOL    MW441729   6.255   6.398   1.588
10353SOL     OW41730   5.975   6.901   1.836
10353SOL    HW241731   6.047   6.903   1.773
10353SOL    HW341732   5.945   6.810   1.835
10353SOL    MW441733   5.980   6.890   1.828
10354SOL     OW41734   7.059   5.664   1.303
10354SOL    HW241735   7.130   5.610   1.267
10354SOL    HW341736   7.058   5.643   1.396
10354SOL    MW441737   7.068   5.655   1.311
10355SOL     OW41738   6.070   6.056   0.771
10355SOL    HW241739   6.141   6.004   0.734
10355SOL    HW341740   6.056   6.021   0.858
10355SOL    MW441741   6.078   6.045   0.778
10356SOL     OW41742   6.706   5.997   0.495
10356SOL    HW241743   6.728   5.934   0.427
10356SOL    HW341744   6.611   5.989   0.506
10356SOL    MW441745   6.696   5.988   0.487
10357SOL     OW41746   5.622   6.154   1.570
10357SOL    HW241747   5.686   6.220   1.545
10357SOL    HW341748   5.541   6.181   1.527
10357SOL    MW441749   5.620   6.166   1.562
10358SOL     OW41750   7.360   7.061   0.527
10358SOL    HW241751   7.330   6.994   0.588
10358SOL    HW341752   7.454   7.067   0.541
10358SOL    MW441753   7.368   7.053   0.537
10359SOL     OW41754   6.916   6.738   0.457
10359SOL    HW241755   6.888   6.824   0.490
10359SOL    HW341756   6.944   6.754   0.367
10359SOL    MW441757   6.916   6.752   0.449
10360SOL     OW41758   6.578   5.658   0.510
10360SOL    HW241759   6.615   5.717   0.575
10360SOL    HW341760   6.555   5.714   0.436
10360SOL    MW441761   6.579   5.673   0.509
10361SOL     OW41762   7.431   6.540   0.932
10361SOL    HW241763   7.422   6.572   0.843
10361SOL    HW341764   7.384   6.456   0.932
10361SOL    MW441765   7.424   6.533   0.922
10362SOL     OW41766   5.807   6.380   1.511
10362SOL    HW241767   5.828   6.449   1.449
10362SOL    HW341768   5.887   6.327   1.516
10362SOL    MW441769   5.820   6.381   1.505
10363SOL     OW41770   7.343   6.471   0.633
10363SOL    HW241771   7.437   6.460   0.621
10363SOL    HW341772   7.319   6.543   0.574
10363SOL    MW441773   7.353   6.479   0.624
10364SOL     OW41774   5.792   6.395   1.778
10364SOL    HW241775   5.718   6.339   1.804
10364SOL    HW341776   5.787   6.398   1.683
10364SOL    MW441777   5.781   6.388   1.768
10365SOL     OW41778   5.958   5.682   1.228
10365SOL    HW241779   6.001   5.766   1.248
10365SOL    HW341780   6.031   5.620   1.221
10365SOL    MW441781   5.973   5.685   1.229
10366SOL     OW41782   5.999   6.349   0.406
10366SOL    HW241783   5.999   6.444   0.391
10366SOL    HW341784   6.076   6.333   0.460
10366SOL    MW441785   6.009   6.360   0.411
10367SOL     OW41786   6.775   6.208   1.470
10367SOL    HW241787   6.811   6.181   1.386
10367SOL    HW341788   6.688   6.242   1.449
10367SOL    MW441789   6.769   6.209   1.457
10368SOL     OW41790   5.758   6.080   0.695
10368SOL    HW241791   5.820   6.087   0.768
10368SOL    HW341792   5.758   5.987   0.672
10368SOL    MW441793   5.766   6.069   0.702
10369SOL     OW41794   6.440   6.341   1.179
10369SOL    HW241795   6.398   6.259   1.155
10369SOL    HW341796   6.441   6.340   1.275
10369SOL    MW441797   6.433   6.330   1.188
10370SOL     OW41798   6.244   5.811   1.284
10370SOL    HW241799   6.175   5.874   1.305
10370SOL    HW341800   6.271   5.775   1.369
10370SOL    MW441801   6.238   5.814   1.297
10371SOL     OW41802   5.627   6.652   0.153
10371SOL    HW241803   5.596   6.717   0.216
10371SOL    HW341804   5.576   6.574   0.172
10371SOL    MW441805   5.617   6.649   0.163
10372SOL     OW41806   7.039   5.664   0.901
10372SOL    HW241807   7.127   5.673   0.938
10372SOL    HW341808   7.049   5.605   0.827
10372SOL    MW441809   7.053   5.658   0.895
10373SOL     OW41810   7.071   6.403   0.745
10373SOL    HW241811   7.151   6.418   0.694
10373SOL    HW341812   7.064   6.308   0.751
10373SOL    MW441813   7.080   6.392   0.740
10374SOL     OW41814   6.521   6.329   1.442
10374SOL    HW241815   6.590   6.396   1.439
10374SOL    HW341816   6.454   6.367   1.498
10374SOL    MW441817   6.522   6.342   1.449
10375SOL     OW41818   5.939   6.629   1.690
10375SOL    HW241819   5.893   6.545   1.692
10375SOL    HW341820   5.996   6.623   1.614
10375SOL    MW441821   5.941   6.617   1.682
10376SOL     OW41822   6.451   6.169   0.821
10376SOL    HW241823   6.391   6.187   0.893
10376SOL    HW341824   6.485   6.081   0.840
10376SOL    MW441825   6.447   6.159   0.834
10377SOL     OW41826   7.392   5.668   1.490
10377SOL    HW241827   7.313   5.714   1.518
10377SOL    HW341828   7.427   5.722   1.419
10377SOL    MW441829   7.386   5.681   1.484
10378SOL     OW41830   6.676   6.752   0.840
10378SOL    HW241831   6.768   6.733   0.858
10378SOL    HW341832   6.649   6.682   0.780
10378SOL    MW441833   6.684   6.740   0.834
10379SOL     OW41834   6.950   6.990   0.936
10379SOL    HW241835   6.923   7.074   0.901
10379SOL    HW341836   6.910   6.985   1.023
10379SOL    MW441837   6.943   6.999   0.942
10380SOL     OW41838   6.869   6.938   1.204
10380SOL    HW241839   6.880   6.905   1.293
10380SOL    HW341840   6.788   6.897   1.173
10380SOL    MW441841   6.859   6.930   1.210
10381SOL     OW41842   5.882   6.296   0.974
10381SOL    HW241843   5.832   6.295   1.055
10381SOL    HW341844   5.902   6.388   0.958
10381SOL    MW441845   5.878   6.308   0.982
10382SOL     OW41846   6.949   7.060   1.736
10382SOL    HW241847   6.949   7.154   1.752
10382SOL    HW341848   6.994   7.050   1.652
10382SOL    MW441849   6.955   7.070   1.727
10383SOL     OW41850   6.477   6.341   0.411
10383SOL    HW241851   6.457   6.327   0.318
10383SOL    HW341852   6.570   6.320   0.418
10383SOL    MW441853   6.487   6.336   0.400
10384SOL     OW41854   5.804   5.964   1.715
10384SOL    HW241855   5.761   6.023   1.652
10384SOL    HW341856   5.872   6.019   1.755
10384SOL    MW441857   5.808   5.979   1.712
10385SOL     OW41858   6.916   6.584   1.260
10385SOL    HW241859   6.979   6.581   1.333
10385SOL    HW341860   6.832   6.602   1.302
10385SOL    MW441861   6.912   6.586   1.275
10386SOL     OW41862   7.255   5.761   1.039
10386SOL    HW241863   7.300   5.679   1.058
10386SOL    HW341864   7.275   5.817   1.115
10386SOL    MW441865   7.265   5.757   1.051
10387SOL     OW41866   5.703   5.604   1.138
10387SOL    HW241867   5.694   5.605   1.043
10387SOL    HW341868   5.797   5.616   1.153
10387SOL    MW441869   5.715   5.607   1.129
10388SOL     OW41870   7.340   6.797   0.758
10388SOL    HW241871   7.319   6.743   0.681
10388SOL    HW341872   7.436   6.795   0.762
10388SOL    MW441873   7.349   6.790   0.747
10389SOL     OW41874   6.032   6.942   1.501
10389SOL    HW241875   5.953   6.892   1.524
10389SOL    HW341876   6.102   6.901   1.551
10389SOL    MW441877   6.030   6.930   1.511
10390SOL     OW41878   5.916   5.731   0.184
10390SOL    HW241879   5.845   5.786   0.152
10390SOL    HW341880   5.958   5.697   0.105
10390SOL    MW441881   5.912   5.733   0.170
10391SOL     OW41882   7.040   6.228   1.020
10391SOL    HW241883   6.963   6.274   0.986
10391SOL    HW341884   7.097   6.297   1.054
10391SOL    MW441885   7.037   6.243   1.020
10392SOL     OW41886   7.341   6.444   2.125
10392SOL    HW241887   7.382   6.386   2.190
10392SOL    HW341888   7.248   6.436   2.142
10392SOL    MW441889   7.335   6.436   2.135
10393SOL     OW41890   7.207   6.376   3.120
10393SOL    HW241891   7.162   6.443   3.171
10393SOL    HW341892   7.295   6.412   3.106
10393SOL    MW441893   7.213   6.389   3.124
10394SOL     OW41894   6.135   6.627   2.354
10394SOL    HW241895   6.225   6.602   2.338
10394SOL    HW341896   6.131   6.720   2.331
10394SOL    MW441897   6.147   6.636   2.349
10395SOL     OW41898   7.187   6.770   3.101
10395SOL    HW241899   7.108   6.735   3.059
10395SOL    HW341900   7.214   6.842   3.045
10395SOL    MW441901   7.180   6.775   3.088
10396SOL     OW41902   6.419   6.083   2.367
10396SOL    HW241903   6.394   6.171   2.395
10396SOL    HW341904   6.416   6.086   2.271
10396SOL    MW441905   6.415   6.095   2.359
10397SOL     OW41906   5.861   6.111   2.295
10397SOL    HW241907   5.893   6.199   2.277
10397SOL    HW341908   5.849   6.109   2.390
10397SOL    MW441909   5.864   6.123   2.307
10398SOL     OW41910   5.939   6.524   3.196
10398SOL    HW241911   6.002   6.471   3.147
10398SOL    HW341912   5.920   6.598   3.139
10398SOL    MW441913   5.945   6.526   3.183
10399SOL     OW41914   6.260   5.866   2.382
10399SOL    HW241915   6.318   5.942   2.384
10399SOL    HW341916   6.195   5.887   2.315
10399SOL    MW441917   6.259   5.878   2.373
10400SOL     OW41918   6.347   6.793   2.557
10400SOL    HW241919   6.427   6.796   2.609
10400SOL    HW341920   6.375   6.760   2.471
10400SOL    MW441921   6.361   6.789   2.552
10401SOL     OW41922   6.372   7.134   3.460
10401SOL    HW241923   6.456   7.160   3.499
10401SOL    HW341924   6.396   7.078   3.386
10401SOL    MW441925   6.386   7.130   3.455
10402SOL     OW41926   6.124   6.297   2.548
10402SOL    HW241927   6.109   6.217   2.599
10402SOL    HW341928   6.206   6.332   2.582
10402SOL    MW441929   6.132   6.289   2.560
10403SOL     OW41930   6.461   6.983   3.233
10403SOL    HW241931   6.425   7.049   3.173
10403SOL    HW341932   6.389   6.921   3.246
10403SOL    MW441933   6.447   6.983   3.227
10404SOL     OW41934   6.266   6.123   2.925
10404SOL    HW241935   6.172   6.119   2.943
10404SOL    HW341936   6.296   6.032   2.934
10404SOL    MW441937   6.257   6.111   2.928
10405SOL     OW41938   6.012   6.537   2.829
10405SOL    HW241939   5.967   6.544   2.745
10405SOL    HW341940   5.992   6.620   2.873
10405SOL    MW441941   6.004   6.549   2.823
10406SOL     OW41942   6.974   6.775   2.073
10406SOL    HW241943   6.892   6.811   2.039
10406SOL    HW341944   7.042   6.818   2.022
10406SOL    MW441945   6.972   6.785   2.061
10407SOL     OW41946   5.973   6.910   2.739
10407SOL    HW241947   5.949   6.963   2.815
10407SOL    HW341948   6.029   6.968   2.687
10407SOL    MW441949   5.977   6.925   2.742
10408SOL     OW41950   6.535   6.554   2.549
10408SOL    HW241951   6.449   6.541   2.589
10408SOL    HW341952   6.588   6.481   2.581
10408SOL    MW441953   6.531   6.543   2.558
10409SOL     OW41954   6.526   6.916   2.266
10409SOL    HW241955   6.503   6.978   2.334
10409SOL    HW341956   6.483   6.834   2.292
10409SOL    MW441957   6.518   6.912   2.277
10410SOL     OW41958   7.399   5.917   2.722
10410SOL    HW241959   7.336   5.897   2.791
10410SOL    HW341960   7.389   5.846   2.659
10410SOL    MW441961   7.389   5.904   2.723
10411SOL     OW41962   6.023   5.889   2.234
10411SOL    HW241963   5.997   5.851   2.150
10411SOL    HW341964   5.960   5.959   2.250
10411SOL    MW441965   6.012   5.892   2.225
10412SOL     OW41966   5.858   6.850   2.271
10412SOL    HW241967   5.806   6.918   2.227
10412SOL    HW341968   5.855   6.776   2.211
10412SOL    MW441969   5.850   6.849   2.258
10413SOL     OW41970   7.455   6.086   2.024
10413SOL    HW241971   7.364   6.088   2.052
10413SOL    HW341972   7.500   6.148   2.082
10413SOL    MW441973   7.448   6.094   2.034
10414SOL     OW41974   7.200   6.689   2.374
10414SOL    HW241975   7.110   6.689   2.409
10414SOL    HW341976   7.193   6.735   2.291
10414SOL    MW441977   7.187   6.695   2.368
10415SOL     OW41978   7.000   6.324   3.446
10415SOL    HW241979   7.069   6.262   3.423
10415SOL    HW341980   6.925   6.298   3.393
10415SOL    MW441981   7.000   6.311   3.437
10416SOL     OW41982   6.736   6.711   3.438
10416SOL    HW241983   6.721   6.804   3.423
10416SOL    HW341984   6.831   6.701   3.438
10416SOL    MW441985   6.745   6.721   3.435
10417SOL     OW41986   6.532   6.135   3.639
10417SOL    HW241987   6.622   6.136   3.606
10417SOL    HW341988   6.491   6.060   3.597
10417SOL    MW441989   6.538   6.125   3.630
10418SOL     OW41990   7.107   6.667   2.766
10418SOL    HW241991   7.110   6.601   2.697
10418SOL    HW341992   7.192   6.710   2.762
10418SOL    MW441993   7.119   6.663   2.757
10419SOL     OW41994   6.727   6.270   2.335
10419SOL    HW241995   6.753   6.294   2.246
10419SOL    HW341996   6.709   6.177   2.331
10419SOL    MW441997   6.729   6.262   2.322
10420SOL     OW41998   7.392   6.890   2.186
10420SOL    HW241999   7.348   6.931   2.261
10420SOL    HW342000   7.449   6.958   2.151
10420SOL    MW442001   7.394   6.904   2.191
10421SOL     OW42002   6.312   5.939   3.589
10421SOL    HW242003   6.322   5.865   3.529
10421SOL    HW342004   6.348   5.908   3.672
10421SOL    MW442005   6.318   5.925   3.591
10422SOL     OW42006   6.048   7.306   2.504
10422SOL    HW242007   6.080   7.394   2.482
10422SOL    HW342008   6.001   7.278   2.426
10422SOL    MW442009   6.047   7.314   2.491
10423SOL     OW42010   7.432   5.668   2.553
10423SOL    HW242011   7.486   5.619   2.615
10423SOL    HW342012   7.375   5.602   2.514
10423SOL    MW442013   7.432   5.652   2.555
10424SOL     OW42014   6.551   5.621   2.966
10424SOL    HW242015   6.510   5.699   2.928
10424SOL    HW342016   6.645   5.639   2.961
10424SOL    MW442017   6.557   5.633   2.961
10425SOL     OW42018   6.566   6.299   1.996
10425SOL    HW242019   6.568   6.246   1.917
10425SOL    HW342020   6.654   6.336   2.002
10425SOL    MW442021   6.578   6.298   1.985
10426SOL     OW42022   7.180   6.225   2.332
10426SOL    HW242023   7.219   6.225   2.419
10426SOL    HW342024   7.121   6.301   2.332
10426SOL    MW442025   7.177   6.236   2.343
10427SOL     OW42026   6.497   6.592   3.461
10427SOL    HW242027   6.474   6.572   3.551
10427SOL    HW342028   6.582   6.636   3.466
10427SOL    MW442029   6.504   6.595   3.473
10428SOL     OW42030   6.577   5.729   3.221
10428SOL    HW242031   6.583   5.691   3.134
10428SOL    HW342032   6.566   5.823   3.206
10428SOL    MW442033   6.578   5.737   3.209
10429SOL     OW42034   6.666   6.218   3.055
10429SOL    HW242035   6.741   6.247   3.002
10429SOL    HW342036   6.598   6.283   3.039
10429SOL    MW442037   6.667   6.230   3.045
10430SOL     OW42038   7.216   6.186   3.332
10430SOL    HW242039   7.197   6.095   3.311
10430SOL    HW342040   7.194   6.235   3.253
10430SOL    MW442041   7.211   6.179   3.319
10431SOL     OW42042   6.663   5.924   3.438
10431SOL    HW242043   6.629   5.963   3.357
10431SOL    HW342044   6.641   5.832   3.431
10431SOL    MW442045   6.656   5.917   3.428
10432SOL     OW42046   7.072   6.738   3.514
10432SOL    HW242047   7.154   6.779   3.544
10432SOL    HW342048   7.035   6.700   3.594
10432SOL    MW442049   7.078   6.739   3.529
10433SOL     OW42050   7.367   6.111   2.498
10433SOL    HW242051   7.456   6.080   2.515
10433SOL    HW342052   7.310   6.051   2.546
10433SOL    MW442053   7.370   6.099   2.507
10434SOL     OW42054   5.793   5.825   2.527
10434SOL    HW242055   5.784   5.765   2.453
10434SOL    HW342056   5.726   5.796   2.590
10434SOL    MW442057   5.783   5.812   2.525
10435SOL     OW42058   6.736   6.918   2.088
10435SOL    HW242059   6.686   6.920   2.170
10435SOL    HW342060   6.670   6.936   2.020
10435SOL    MW442061   6.722   6.920   2.090
10436SOL     OW42062   5.740   5.998   2.890
10436SOL    HW242063   5.712   6.089   2.899
10436SOL    HW342064   5.677   5.959   2.829
10436SOL    MW442065   5.727   6.004   2.884
10437SOL     OW42066   6.199   7.336   2.196
10437SOL    HW242067   6.120   7.294   2.229
10437SOL    HW342068   6.265   7.319   2.263
10437SOL    MW442069   6.198   7.328   2.209
10438SOL     OW42070   7.327   6.856   3.593
10438SOL    HW242071   7.377   6.782   3.625
10438SOL    HW342072   7.273   6.883   3.668
10438SOL    MW442073   7.327   6.850   3.606
10439SOL     OW42074   6.335   6.751   1.903
10439SOL    HW242075   6.257   6.697   1.890
10439SOL    HW342076   6.306   6.824   1.956
10439SOL    MW442077   6.321   6.753   1.908
10440SOL     OW42078   7.461   6.491   3.095
10440SOL    HW242079   7.477   6.529   3.008
10440SOL    HW342080   7.495   6.557   3.156
10440SOL    MW442081   7.468   6.504   3.091
10441SOL     OW42082   7.253   7.200   2.764
10441SOL    HW242083   7.282   7.267   2.825
10441SOL    HW342084   7.234   7.124   2.819
10441SOL    MW442085   7.255   7.200   2.779
10442SOL     OW42086   5.724   6.273   3.060
10442SOL    HW242087   5.786   6.303   3.126
10442SOL    HW342088   5.658   6.342   3.054
10442SOL    MW442089   5.723   6.286   3.067
10443SOL     OW42090   7.140   6.941   1.913
10443SOL    HW242091   7.087   6.990   1.849
10443SOL    HW342092   7.171   7.007   1.974
10443SOL    MW442093   7.138   6.955   1.911
10444SOL     OW42094   6.365   5.830   1.968
10444SOL    HW242095   6.313   5.750   1.956
10444SOL    HW342096   6.452   5.807   1.936
10444SOL    MW442097   6.368   5.816   1.962
10445SOL     OW42098   5.871   6.701   3.019
10445SOL    HW242099   5.924   6.776   3.044
10445SOL    HW342100   5.790   6.739   2.985
10445SOL    MW442101   5.867   6.716   3.019
10446SOL     OW42102   6.411   6.605   3.007
10446SOL    HW242103   6.439   6.514   3.019
10446SOL    HW342104   6.340   6.599   2.943
10446SOL    MW442105   6.404   6.593   3.002
10447SOL     OW42106   5.726   6.470   2.425
10447SOL    HW242107   5.817   6.485   2.452
10447SOL    HW342108   5.729   6.391   2.371
10447SOL    MW442109   5.738   6.462   2.423
10448SOL     OW42110   5.962   6.178   3.679
10448SOL    HW242111   5.909   6.258   3.686
10448SOL    HW342112   6.032   6.190   3.744
10448SOL    MW442113   5.964   6.191   3.687
10449SOL     OW42114   6.348   5.728   3.386
10449SOL    HW242115   6.325   5.636   3.388
10449SOL    HW342116   6.434   5.730   3.343
10449SOL    MW442117   6.355   5.718   3.382
10450SOL     OW42118   6.032   6.252   3.425
10450SOL    HW242119   6.112   6.302   3.411
10450SOL    HW342120   6.023   6.246   3.520
10450SOL    MW442121   6.041   6.258   3.435
10451SOL     OW42122   7.009   5.777   3.696
10451SOL    HW242123   7.065   5.704   3.722
10451SOL    HW342124   6.979   5.815   3.778
10451SOL    MW442125   7.013   5.772   3.709
10452SOL     OW42126   5.734   7.082   2.464
10452SOL    HW242127   5.706   7.121   2.546
10452SOL    HW342128   5.754   6.991   2.486
10452SOL    MW442129   5.732   7.074   2.477
10453SOL     OW42130   6.567   7.125   2.499
10453SOL    HW242131   6.650   7.079   2.483
10453SOL    HW342132   6.557   7.124   2.595
10453SOL    MW442133   6.577   7.118   2.509
10454SOL     OW42134   7.399   6.270   2.813
10454SOL    HW242135   7.488   6.300   2.795
10454SOL    HW342136   7.379   6.210   2.742
10454SOL    MW442137   7.408   6.267   2.802
10455SOL     OW42138   7.250   6.449   3.693
10455SOL    HW242139   7.305   6.373   3.674
10455SOL    HW342140   7.252   6.457   3.788
10455SOL    MW442141   7.258   6.440   3.701
10456SOL     OW42142   6.300   7.182   1.904
10456SOL    HW242143   6.240   7.251   1.874
10456SOL    HW342144   6.245   7.124   1.957
10456SOL    MW442145   6.284   7.184   1.906
10457SOL     OW42146   6.738   5.827   2.127
10457SOL    HW242147   6.671   5.803   2.064
10457SOL    HW342148   6.803   5.876   2.076
10457SOL    MW442149   6.738   5.829   2.112
10458SOL     OW42150   6.545   6.011   3.212
10458SOL    HW242151   6.464   6.052   3.240
10458SOL    HW342152   6.592   6.079   3.164
10458SOL    MW442153   6.540   6.026   3.210
10459SOL     OW42154   6.805   6.349   2.835
10459SOL    HW242155   6.818   6.443   2.845
10459SOL    HW342156   6.766   6.339   2.749
10459SOL    MW442157   6.801   6.360   2.825
10460SOL     OW42158   6.257   6.544   2.639
10460SOL    HW242159   6.168   6.535   2.672
10460SOL    HW342160   6.261   6.634   2.607
10460SOL    MW442161   6.246   6.555   2.639
10461SOL     OW42162   7.056   6.127   2.634
10461SOL    HW242163   7.001   6.048   2.633
10461SOL    HW342164   7.038   6.168   2.718
10461SOL    MW442165   7.046   6.122   2.643
10462SOL     OW42166   6.027   5.814   3.451
10462SOL    HW242167   5.948   5.832   3.503
10462SOL    HW342168   6.022   5.876   3.378
10462SOL    MW442169   6.017   5.824   3.448
10463SOL     OW42170   6.675   6.331   2.591
10463SOL    HW242171   6.612   6.263   2.615
10463SOL    HW342172   6.695   6.312   2.499
10463SOL    MW442173   6.669   6.318   2.583
10464SOL     OW42174   6.423   6.635   2.317
10464SOL    HW242175   6.425   6.609   2.224
10464SOL    HW342176   6.481   6.572   2.360
10464SOL    MW442177   6.431   6.624   2.311
10465SOL     OW42178   6.933   5.879   2.650
10465SOL    HW242179   6.961   5.811   2.711
10465SOL    HW342180   6.847   5.850   2.620
10465SOL    MW442181   6.926   5.866   2.654
10466SOL     OW42182   5.738   6.813   2.584
10466SOL    HW242183   5.802   6.845   2.647
10466SOL    HW342184   5.787   6.749   2.532
10466SOL    MW442185   5.753   6.809   2.585
10467SOL     OW42186   6.238   6.889   3.566
10467SOL    HW242187   6.286   6.972   3.553
10467SOL    HW342188   6.295   6.837   3.622
10467SOL    MW442189   6.252   6.893   3.572
10468SOL     OW42190   6.913   5.983   1.985
10468SOL    HW242191   6.886   6.049   1.921
10468SOL    HW342192   6.983   6.026   2.035
10468SOL    MW442193   6.918   5.996   1.982
10469SOL     OW42194   6.581   5.688   1.922
10469SOL    HW242195   6.637   5.680   1.844
10469SOL    HW342196   6.558   5.598   1.944
10469SOL    MW442197   6.586   5.675   1.915
10470SOL     OW42198   7.086   6.539   2.127
10470SOL    HW242199   7.053   6.628   2.117
10470SOL    HW342200   7.051   6.510   2.212
10470SOL    MW442201   7.076   6.548   2.138
10471SOL     OW42202   6.699   6.968   3.315
10471SOL    HW242203   6.610   6.974   3.283
10471SOL    HW342204   6.743   7.047   3.283
10471SOL    MW442205   6.694   6.978   3.307
10472SOL     OW42206   5.992   5.636   3.657
10472SOL    HW242207   5.920   5.601   3.605
10472SOL    HW342208   6.050   5.677   3.592
10472SOL    MW442209   5.990   5.637   3.642
10473SOL     OW42210   7.456   6.655   3.310
10473SOL    HW242211   7.371   6.668   3.269
10473SOL    HW342212   7.436   6.619   3.397
10473SOL    MW442213   7.443   6.651   3.315
10474SOL     OW42214   6.080   6.577   1.919
10474SOL    HW242215   6.003   6.590   1.975
10474SOL    HW342216   6.044   6.541   1.838
10474SOL    MW442217   6.066   6.573   1.916
10475SOL     OW42218   6.733   6.550   2.162
10475SOL    HW242219   6.643   6.571   2.137
10475SOL    HW342220   6.760   6.623   2.218
10475SOL    MW442221   6.725   6.562   2.165
10476SOL     OW42222   6.233   6.899   2.854
10476SOL    HW242223   6.226   6.878   2.948
10476SOL    HW342224   6.151   6.867   2.817
10476SOL    MW442225   6.221   6.893   2.861
10477SOL     OW42226   7.097   5.909   3.256
10477SOL    HW242227   7.044   5.911   3.336
10477SOL    HW342228   7.082   5.822   3.219
10477SOL    MW442229   7.089   5.899   3.261
10478SOL     OW42230   7.433   5.833   3.129
10478SOL    HW242231   7.414   5.900   3.064
10478SOL    HW342232   7.490   5.771   3.084
10478SOL    MW442233   7.437   5.834   3.115
10479SOL     OW42234   5.679   6.991   3.517
10479SOL    HW242235   5.723   6.924   3.463
10479SOL    HW342236   5.594   6.953   3.537
10479SOL    MW442237   5.674   6.977   3.513
10480SOL     OW42238   6.362   5.666   2.569
10480SOL    HW242239   6.291   5.727   2.551
10480SOL    HW342240   6.413   5.663   2.488
10480SOL    MW442241   6.358   5.672   2.556
10481SOL     OW42242   6.120   6.906   2.318
10481SOL    HW242243   6.113   6.938   2.408
10481SOL    HW342244   6.030   6.890   2.290
10481SOL    MW442245   6.108   6.908   2.325
10482SOL     OW42246   6.322   6.323   3.699
10482SOL    HW242247   6.392   6.265   3.671
10482SOL    HW342248   6.265   6.268   3.754
10482SOL    MW442249   6.324   6.310   3.703
10483SOL     OW42250   7.109   6.535   3.332
10483SOL    HW242251   7.114   6.588   3.412
10483SOL    HW342252   7.071   6.452   3.360
10483SOL    MW442253   7.105   6.530   3.347
10484SOL     OW42254   6.749   5.670   3.578
10484SOL    HW242255   6.744   5.577   3.559
10484SOL    HW342256   6.832   5.681   3.624
10484SOL    MW442257   6.757   5.659   3.582
10485SOL     OW42258   6.123   6.190   2.032
10485SOL    HW242259   6.089   6.246   2.102
10485SOL    HW342260   6.194   6.140   2.072
10485SOL    MW442261   6.129   6.191   2.046
10486SOL     OW42262   7.219   6.941   2.854
10486SOL    HW242263   7.254   6.923   2.767
10486SOL    HW342264   7.124   6.942   2.841
10486SOL    MW442265   7.211   6.938   2.841
10487SOL     OW42266   6.648   6.589   3.223
10487SOL    HW242267   6.691   6.624   3.301
10487SOL    HW342268   6.631   6.666   3.169
10487SOL    MW442269   6.651   6.604   3.226
10488SOL     OW42270   7.179   6.076   2.096
10488SOL    HW242271   7.171   6.147   2.033
10488SOL    HW342272   7.197   6.120   2.179
10488SOL    MW442273   7.180   6.090   2.098
10489SOL     OW42274   6.039   5.731   2.525
10489SOL    HW242275   6.089   5.774   2.456
10489SOL    HW342276   5.954   5.775   2.525
10489SOL    MW442277   6.036   5.744   2.516
10490SOL     OW42278   5.798   6.793   3.385
10490SOL    HW242279   5.826   6.746   3.463
10490SOL    HW342280   5.719   6.748   3.356
10490SOL    MW442281   5.791   6.782   3.391
10491SOL     OW42282   6.306   6.120   3.352
10491SOL    HW242283   6.278   6.208   3.376
10491SOL    HW342284   6.275   6.064   3.423
10491SOL    MW442285   6.298   6.123   3.364
10492SOL     OW42286   6.848   6.338   2.071
10492SOL    HW242287   6.895   6.356   1.990
10492SOL    HW342288   6.814   6.422   2.099
10492SOL    MW442289   6.850   6.352   2.064
10493SOL     OW42290   5.961   6.516   2.565
10493SOL    HW242291   6.019   6.572   2.513
10493SOL    HW342292   6.005   6.431   2.567
10493SOL    MW442293   5.974   6.513   2.558
10494SOL     OW42294   7.101   5.868   2.402
10494SOL    HW242295   7.023   5.818   2.427
10494SOL    HW342296   7.072   5.959   2.402
10494SOL    MW442297   7.087   5.872   2.405
10495SOL     OW42298   6.687   5.830   2.561
10495SOL    HW242299   6.707   5.905   2.505
10495SOL    HW342300   6.667   5.869   2.646
10495SOL    MW442301   6.688   5.846   2.565
10496SOL     OW42302   7.447   6.603   3.580
10496SOL    HW242303   7.360   6.583   3.616
10496SOL    HW342304   7.501   6.529   3.605
10496SOL    MW442305   7.442   6.592   3.588
10497SOL     OW42306   5.668   7.116   2.737
10497SOL    HW242307   5.700   7.120   2.828
10497SOL    HW342308   5.573   7.124   2.745
10497SOL    MW442309   5.660   7.119   2.750
10498SOL     OW42310   5.623   6.242   2.284
10498SOL    HW242311   5.563   6.214   2.354
10498SOL    HW342312   5.697   6.182   2.290
10498SOL    MW442313   5.625   6.231   2.293
10499SOL     OW42314   6.791   6.973   2.444
10499SOL    HW242315   6.814   6.924   2.522
10499SOL    HW342316   6.872   7.015   2.416
10499SOL    MW442317   6.804   6.973   2.451
10500SOL     OW42318   6.049   5.981   3.173
10500SOL    HW242319   6.082   6.062   3.213
10500SOL    HW342320   6.022   6.007   3.085
10500SOL    MW442321   6.048   5.995   3.167
10501SOL     OW42322   6.003   5.948   2.909
10501SOL    HW242323   6.033   5.862   2.880
10501SOL    HW342324   5.908   5.941   2.912
10501SOL    MW442325   5.995   5.937   2.907
10502SOL     OW42326   6.832   6.157   3.600
10502SOL    HW242327   6.884   6.092   3.553
10502SOL    HW342328   6.790   6.208   3.530
10502SOL    MW442329   6.833   6.154   3.583
10503SOL     OW42330   6.931   5.952   3.461
10503SOL    HW242331   6.838   5.936   3.448
10503SOL    HW342332   6.957   5.890   3.529
10503SOL    MW442333   6.921   5.942   3.468
10504SOL     OW42334   6.146   5.726   2.800
10504SOL    HW242335   6.156   5.635   2.826
10504SOL    HW342336   6.102   5.722   2.715
10504SOL    MW442337   6.142   5.714   2.792
10505SOL     OW42338   7.297   6.048   2.971
10505SOL    HW242339   7.230   6.081   3.031
10505SOL    HW342340   7.340   6.126   2.937
10505SOL    MW442341   7.295   6.063   2.975
10506SOL     OW42342   7.475   6.768   2.941
10506SOL    HW242343   7.468   6.708   2.866
10506SOL    HW342344   7.401   6.828   2.930
10506SOL    MW442345   7.465   6.768   2.930
10507SOL     OW42346   6.857   6.630   2.859
10507SOL    HW242347   6.871   6.602   2.950
10507SOL    HW342348   6.943   6.661   2.831
10507SOL    MW442349   6.870   6.631   2.868
10508SOL     OW42350   6.940   6.125   3.138
10508SOL    HW242351   6.961   6.126   3.045
10508SOL    HW342352   6.985   6.047   3.171
10508SOL    MW442353   6.947   6.115   3.130
10509SOL     OW42354   7.433   6.256   3.680
10509SOL    HW242355   7.470   6.201   3.749
10509SOL    HW342356   7.458   6.213   3.598
10509SOL    MW442357   7.440   6.244   3.679
10510SOL     OW42358   6.980   6.554   3.731
10510SOL    HW242359   7.046   6.502   3.685
10510SOL    HW342360   7.000   6.541   3.824
10510SOL    MW442361   6.991   6.545   3.738
10511SOL     OW42362   6.931   5.640   2.080
10511SOL    HW242363   7.005   5.684   2.123
10511SOL    HW342364   6.855   5.694   2.102
10511SOL    MW442365   6.931   5.652   2.088
10512SOL     OW42366   6.991   6.415   2.358
10512SOL    HW242367   6.906   6.385   2.328
10512SOL    HW342368   6.983   6.422   2.453
10512SOL    MW442369   6.979   6.413   2.367
10513SOL     OW42370   6.067   6.878   3.089
10513SOL    HW242371   6.079   6.905   3.180
10513SOL    HW342372   6.048   6.959   3.042
10513SOL    MW442373   6.066   6.893   3.094
10514SOL     OW42374   6.351   5.858   2.912
10514SOL    HW242375   6.324   5.860   3.003
10514SOL    HW342376   6.281   5.810   2.867
10514SOL    MW442377   6.339   5.854   2.919
10515SOL     OW42378   7.107   6.935   3.306
10515SOL    HW242379   7.092   6.864   3.369
10515SOL    HW342380   7.153   6.893   3.234
10515SOL    MW442381   7.113   6.919   3.306
10516SOL     OW42382   6.181   6.666   3.423
10516SOL    HW242383   6.218   6.671   3.335
10516SOL    HW342384   6.220   6.739   3.470
10516SOL    MW442385   6.191   6.676   3.418
10517SOL     OW42386   6.361   6.709   3.235
10517SOL    HW242387   6.420   6.655   3.288
10517SOL    HW342388   6.376   6.681   3.145
10517SOL    MW442389   6.371   6.698   3.231
10518SOL     OW42390   6.364   6.081   2.084
10518SOL    HW242391   6.437   6.130   2.047
10518SOL    HW342392   6.380   5.990   2.058
10518SOL    MW442393   6.376   6.076   2.077
10519SOL     OW42394   6.832   5.677   2.998
10519SOL    HW242395   6.887   5.686   2.920
10519SOL    HW342396   6.887   5.711   3.069
10519SOL    MW442397   6.846   5.682   2.997
10520SOL     OW42398   5.839   6.590   2.182
10520SOL    HW242399   5.776   6.606   2.111
10520SOL    HW342400   5.786   6.553   2.253
10520SOL    MW442401   5.824   6.587   2.182
10521SOL     OW42402   6.195   6.944   2.041
10521SOL    HW242403   6.210   6.920   2.133
10521SOL    HW342404   6.103   6.922   2.025
10521SOL    MW442405   6.185   6.937   2.051
10522SOL     OW42406   6.610   6.811   3.005
10522SOL    HW242407   6.542   6.745   3.021
10522SOL    HW342408   6.628   6.805   2.912
10522SOL    MW442409   6.603   6.802   2.996
10523SOL     OW42410   5.699   7.086   3.256
10523SOL    HW242411   5.689   7.044   3.342
10523SOL    HW342412   5.620   7.139   3.246
10523SOL    MW442413   5.688   7.087   3.267
10524SOL     OW42414   6.603   5.950   2.826
10524SOL    HW242415   6.533   5.902   2.871
10524SOL    HW342416   6.635   6.013   2.890
10524SOL    MW442417   6.598   5.952   2.840
10525SOL     OW42418   6.254   6.386   3.446
10525SOL    HW242419   6.247   6.481   3.434
10525SOL    HW342420   6.263   6.375   3.541
10525SOL    MW442421   6.255   6.398   3.456
10526SOL     OW42422   5.975   6.901   3.704
10526SOL    HW242423   6.047   6.903   3.641
10526SOL    HW342424   5.945   6.810   3.703
10526SOL    MW442425   5.980   6.890   3.696
10527SOL     OW42426   7.059   5.664   3.171
10527SOL    HW242427   7.130   5.610   3.135
10527SOL    HW342428   7.058   5.643   3.264
10527SOL    MW442429   7.068   5.655   3.179
10528SOL     OW42430   6.070   6.056   2.639
10528SOL    HW242431   6.141   6.004   2.602
10528SOL    HW342432   6.056   6.021   2.726
10528SOL    MW442433   6.078   6.045   2.646
10529SOL     OW42434   6.706   5.997   2.363
10529SOL    HW242435   6.728   5.934   2.295
10529SOL    HW342436   6.611   5.989   2.374
10529SOL    MW442437   6.696   5.988   2.355
10530SOL     OW42438   5.791   5.687   2.295
10530SOL    HW242439   5.862   5.708   2.234
10530SOL    HW342440   5.745   5.615   2.253
10530SOL    MW442441   5.795   5.681   2.281
10531SOL     OW42442   5.622   6.154   3.438
10531SOL    HW242443   5.686   6.220   3.413
10531SOL    HW342444   5.541   6.181   3.395
10531SOL    MW442445   5.620   6.166   3.430
10532SOL     OW42446   7.360   7.061   2.395
10532SOL    HW242447   7.330   6.994   2.456
10532SOL    HW342448   7.454   7.067   2.409
10532SOL    MW442449   7.368   7.053   2.405
10533SOL     OW42450   6.916   6.738   2.325
10533SOL    HW242451   6.888   6.824   2.358
10533SOL    HW342452   6.944   6.754   2.235
10533SOL    MW442453   6.916   6.752   2.317
10534SOL     OW42454   6.578   5.658   2.378
10534SOL    HW242455   6.615   5.717   2.443
10534SOL    HW342456   6.555   5.714   2.304
10534SOL    MW442457   6.579   5.673   2.377
10535SOL     OW42458   7.431   6.540   2.800
10535SOL    HW242459   7.422   6.572   2.711
10535SOL    HW342460   7.384   6.456   2.800
10535SOL    MW442461   7.424   6.533   2.790
10536SOL     OW42462   5.807   6.380   3.379
10536SOL    HW242463   5.828   6.449   3.317
10536SOL    HW342464   5.887   6.327   3.384
10536SOL    MW442465   5.820   6.381   3.373
10537SOL     OW42466   7.343   6.471   2.501
10537SOL    HW242467   7.437   6.460   2.489
10537SOL    HW342468   7.319   6.543   2.442
10537SOL    MW442469   7.353   6.479   2.492
10538SOL     OW42470   5.792   6.395   3.646
10538SOL    HW242471   5.718   6.339   3.672
10538SOL    HW342472   5.787   6.398   3.551
10538SOL    MW442473   5.781   6.388   3.636
10539SOL     OW42474   5.958   5.682   3.096
10539SOL    HW242475   6.001   5.766   3.116
10539SOL    HW342476   6.031   5.620   3.089
10539SOL    MW442477   5.973   5.685   3.097
10540SOL     OW42478   5.999   6.349   2.274
10540SOL    HW242479   5.999   6.444   2.259
10540SOL    HW342480   6.076   6.333   2.328
10540SOL    MW442481   6.009   6.360   2.279
10541SOL     OW42482   6.775   6.208   3.338
10541SOL    HW242483   6.811   6.181   3.254
10541SOL    HW342484   6.688   6.242   3.317
10541SOL    MW442485   6.769   6.209   3.325
10542SOL     OW42486   5.758   6.080   2.563
10542SOL    HW242487   5.820   6.087   2.636
10542SOL    HW342488   5.758   5.987   2.540
10542SOL    MW442489   5.766   6.069   2.570
10543SOL     OW42490   6.440   6.341   3.047
10543SOL    HW242491   6.398   6.259   3.023
10543SOL    HW342492   6.441   6.340   3.143
10543SOL    MW442493   6.433   6.330   3.056
10544SOL     OW42494   6.244   5.811   3.152
10544SOL    HW242495   6.175   5.874   3.173
10544SOL    HW342496   6.271   5.775   3.237
10544SOL    MW442497   6.238   5.814   3.165
10545SOL     OW42498   5.627   6.652   2.021
10545SOL    HW242499   5.596   6.717   2.084
10545SOL    HW342500   5.576   6.574   2.040
10545SOL    MW442501   5.617   6.649   2.031
10546SOL     OW42502   7.039   5.664   2.769
10546SOL    HW242503   7.127   5.673   2.806
10546SOL    HW342504   7.049   5.605   2.695
10546SOL    MW442505   7.053   5.658   2.763
10547SOL     OW42506   7.071   6.403   2.613
10547SOL    HW242507   7.151   6.418   2.562
10547SOL    HW342508   7.064   6.308   2.619
10547SOL    MW442509   7.080   6.392   2.608
10548SOL     OW42510   6.521   6.329   3.310
10548SOL    HW242511   6.590   6.396   3.307
10548SOL    HW342512   6.454   6.367   3.366
10548SOL    MW442513   6.522   6.342   3.317
10549SOL     OW42514   5.939   6.629   3.558
10549SOL    HW242515   5.893   6.545   3.560
10549SOL    HW342516   5.996   6.623   3.482
10549SOL    MW442517   5.941   6.617   3.550
10550SOL     OW42518   7.056   6.272   1.879
10550SOL    HW242519   6.984   6.248   1.821
10550SOL    HW342520   7.122   6.309   1.821
10550SOL    MW442521   7.055   6.274   1.864
10551SOL     OW42522   6.451   6.169   2.689
10551SOL    HW242523   6.391   6.187   2.761
10551SOL    HW342524   6.485   6.081   2.708
10551SOL    MW442525   6.447   6.159   2.702
10552SOL     OW42526   7.392   5.668   3.358
10552SOL    HW242527   7.313   5.714   3.386
10552SOL    HW342528   7.427   5.722   3.287
10552SOL    MW442529   7.386   5.681   3.352
10553SOL     OW42530   6.676   6.752   2.708
10553SOL    HW242531   6.768   6.733   2.726
10553SOL    HW342532   6.649   6.682   2.648
10553SOL    MW442533   6.684   6.740   2.702
10554SOL     OW42534   6.469   6.572   2.063
10554SOL    HW242535   6.455   6.484   2.028
10554SOL    HW342536   6.420   6.629   2.004
10554SOL    MW442537   6.461   6.567   2.051
10555SOL     OW42538   6.950   6.990   2.804
10555SOL    HW242539   6.923   7.074   2.769
10555SOL    HW342540   6.910   6.985   2.891
10555SOL    MW442541   6.943   6.999   2.810
10556SOL     OW42542   6.869   6.938   3.072
10556SOL    HW242543   6.880   6.905   3.161
10556SOL    HW342544   6.788   6.897   3.041
10556SOL    MW442545   6.859   6.930   3.078
10557SOL     OW42546   5.882   6.296   2.842
10557SOL    HW242547   5.832   6.295   2.923
10557SOL    HW342548   5.902   6.388   2.826
10557SOL    MW442549   5.878   6.308   2.850
10558SOL     OW42550   6.949   7.060   3.604
10558SOL    HW242551   6.949   7.154   3.620
10558SOL    HW342552   6.994   7.050   3.520
10558SOL    MW442553   6.955   7.070   3.595
10559SOL     OW42554   7.188   5.778   2.165
10559SOL    HW242555   7.181   5.782   2.260
10559SOL    HW342556   7.200   5.869   2.138
10559SOL    MW442557   7.189   5.791   2.173
10560SOL     OW42558   6.477   6.341   2.279
10560SOL    HW242559   6.457   6.327   2.186
10560SOL    HW342560   6.570   6.320   2.286
10560SOL    MW442561   6.487   6.336   2.268
10561SOL     OW42562   5.804   5.964   3.583
10561SOL    HW242563   5.761   6.023   3.520
10561SOL    HW342564   5.872   6.019   3.623
10561SOL    MW442565   5.808   5.979   3.580
10562SOL     OW42566   6.916   6.584   3.128
10562SOL    HW242567   6.979   6.581   3.201
10562SOL    HW342568   6.832   6.602   3.170
10562SOL    MW442569   6.912   6.586   3.143
10563SOL     OW42570   7.255   5.761   2.907
10563SOL    HW242571   7.300   5.679   2.926
10563SOL    HW342572   7.275   5.817   2.983
10563SOL    MW442573   7.265   5.757   2.919
10564SOL     OW42574   5.703   5.604   3.006
10564SOL    HW242575   5.694   5.605   2.911
10564SOL    HW342576   5.797   5.616   3.021
10564SOL    MW442577   5.715   5.607   2.997
10565SOL     OW42578   7.340   6.797   2.626
10565SOL    HW242579   7.319   6.743   2.549
10565SOL    HW342580   7.436   6.795   2.630
10565SOL    MW442581   7.349   6.790   2.615
10566SOL     OW42582   6.032   6.942   3.369
10566SOL    HW242583   5.953   6.892   3.392
10566SOL    HW342584   6.102   6.901   3.419
10566SOL    MW442585   6.030   6.930   3.379
10567SOL     OW42586   5.916   5.731   2.052
10567SOL    HW242587   5.845   5.786   2.020
10567SOL    HW342588   5.958   5.697   1.973
10567SOL    MW442589   5.912   5.733   2.038
10568SOL     OW42590   7.040   6.228   2.888
10568SOL    HW242591   6.963   6.274   2.854
10568SOL    HW342592   7.097   6.297   2.922
10568SOL    MW442593   7.037   6.243   2.888
10569SOL     OW42594   5.672   5.830   1.901
10569SOL    HW242595   5.639   5.909   1.945
10569SOL    HW342596   5.727   5.863   1.830
10569SOL    MW442597   5.675   5.844   1.898
10570SOL     OW42598   6.978   7.176   2.307
10570SOL    HW242599   7.041   7.166   2.236
10570SOL    HW342600   6.895   7.196   2.262
10570SOL    MW442601   6.975   7.177   2.292
10571SOL     OW42602   7.341   6.444   3.993
10571SOL    HW242603   7.382   6.386   4.058
10571SOL    HW342604   7.248   6.436   4.010
10571SOL    MW442605   7.335   6.436   4.003
10572SOL     OW42606   7.207   6.376   4.988
10572SOL    HW242607   7.162   6.443   5.039
10572SOL    HW342608   7.295   6.412   4.974
10572SOL    MW442609   7.213   6.389   4.992
10573SOL     OW42610   6.135   6.627   4.222
10573SOL    HW242611   6.225   6.602   4.206
10573SOL    HW342612   6.131   6.720   4.199
10573SOL    MW442613   6.147   6.636   4.217
10574SOL     OW42614   7.187   6.770   4.969
10574SOL    HW242615   7.108   6.735   4.927
10574SOL    HW342616   7.214   6.842   4.913
10574SOL    MW442617   7.180   6.775   4.956
10575SOL     OW42618   6.419   6.083   4.235
10575SOL    HW242619   6.394   6.171   4.263
10575SOL    HW342620   6.416   6.086   4.139
10575SOL    MW442621   6.415   6.095   4.227
10576SOL     OW42622   5.861   6.111   4.163
10576SOL    HW242623   5.893   6.199   4.145
10576SOL    HW342624   5.849   6.109   4.258
10576SOL    MW442625   5.864   6.123   4.175
10577SOL     OW42626   5.939   6.524   5.064
10577SOL    HW242627   6.002   6.471   5.015
10577SOL    HW342628   5.920   6.598   5.007
10577SOL    MW442629   5.945   6.526   5.051
10578SOL     OW42630   6.260   5.866   4.250
10578SOL    HW242631   6.318   5.942   4.252
10578SOL    HW342632   6.195   5.887   4.183
10578SOL    MW442633   6.259   5.878   4.241
10579SOL     OW42634   6.347   6.793   4.425
10579SOL    HW242635   6.427   6.796   4.477
10579SOL    HW342636   6.375   6.760   4.339
10579SOL    MW442637   6.361   6.789   4.420
10580SOL     OW42638   6.372   7.134   5.328
10580SOL    HW242639   6.456   7.160   5.367
10580SOL    HW342640   6.396   7.078   5.254
10580SOL    MW442641   6.386   7.130   5.323
10581SOL     OW42642   6.124   6.297   4.416
10581SOL    HW242643   6.109   6.217   4.467
10581SOL    HW342644   6.206   6.332   4.450
10581SOL    MW442645   6.132   6.289   4.428
10582SOL     OW42646   6.461   6.983   5.101
10582SOL    HW242647   6.425   7.049   5.041
10582SOL    HW342648   6.389   6.921   5.114
10582SOL    MW442649   6.447   6.983   5.095
10583SOL     OW42650   6.266   6.123   4.793
10583SOL    HW242651   6.172   6.119   4.811
10583SOL    HW342652   6.296   6.032   4.802
10583SOL    MW442653   6.257   6.111   4.796
10584SOL     OW42654   6.012   6.537   4.697
10584SOL    HW242655   5.967   6.544   4.613
10584SOL    HW342656   5.992   6.620   4.741
10584SOL    MW442657   6.004   6.549   4.691
10585SOL     OW42658   6.974   6.775   3.941
10585SOL    HW242659   6.892   6.811   3.907
10585SOL    HW342660   7.042   6.818   3.890
10585SOL    MW442661   6.972   6.785   3.929
10586SOL     OW42662   5.973   6.910   4.607
10586SOL    HW242663   5.949   6.963   4.683
10586SOL    HW342664   6.029   6.968   4.555
10586SOL    MW442665   5.977   6.925   4.610
10587SOL     OW42666   6.535   6.554   4.417
10587SOL    HW242667   6.449   6.541   4.457
10587SOL    HW342668   6.588   6.481   4.449
10587SOL    MW442669   6.531   6.543   4.426
10588SOL     OW42670   6.526   6.916   4.134
10588SOL    HW242671   6.503   6.978   4.202
10588SOL    HW342672   6.483   6.834   4.160
10588SOL    MW442673   6.518   6.912   4.145
10589SOL     OW42674   7.399   5.917   4.590
10589SOL    HW242675   7.336   5.897   4.659
10589SOL    HW342676   7.389   5.846   4.527
10589SOL    MW442677   7.389   5.904   4.591
10590SOL     OW42678   6.023   5.889   4.102
10590SOL    HW242679   5.997   5.851   4.018
10590SOL    HW342680   5.960   5.959   4.118
10590SOL    MW442681   6.012   5.892   4.093
10591SOL     OW42682   5.858   6.850   4.139
10591SOL    HW242683   5.806   6.918   4.095
10591SOL    HW342684   5.855   6.776   4.079
10591SOL    MW442685   5.850   6.849   4.126
10592SOL     OW42686   7.455   6.086   3.892
10592SOL    HW242687   7.364   6.088   3.920
10592SOL    HW342688   7.500   6.148   3.950
10592SOL    MW442689   7.448   6.094   3.902
10593SOL     OW42690   7.200   6.689   4.242
10593SOL    HW242691   7.110   6.689   4.277
10593SOL    HW342692   7.193   6.735   4.159
10593SOL    MW442693   7.187   6.695   4.236
10594SOL     OW42694   7.000   6.324   5.314
10594SOL    HW242695   7.069   6.262   5.291
10594SOL    HW342696   6.925   6.298   5.261
10594SOL    MW442697   7.000   6.311   5.305
10595SOL     OW42698   6.736   6.711   5.306
10595SOL    HW242699   6.721   6.804   5.291
10595SOL    HW342700   6.831   6.701   5.306
10595SOL    MW442701   6.745   6.721   5.303
10596SOL     OW42702   6.532   6.135   5.507
10596SOL    HW242703   6.622   6.136   5.474
10596SOL    HW342704   6.491   6.060   5.465
10596SOL    MW442705   6.538   6.125   5.498
10597SOL     OW42706   7.107   6.667   4.634
10597SOL    HW242707   7.110   6.601   4.565
10597SOL    HW342708   7.192   6.710   4.630
10597SOL    MW442709   7.119   6.663   4.625
10598SOL     OW42710   6.727   6.270   4.203
10598SOL    HW242711   6.753   6.294   4.114
10598SOL    HW342712   6.709   6.177   4.199
10598SOL    MW442713   6.729   6.262   4.190
10599SOL     OW42714   7.392   6.890   4.054
10599SOL    HW242715   7.348   6.931   4.129
10599SOL    HW342716   7.449   6.958   4.019
10599SOL    MW442717   7.394   6.904   4.059
10600SOL     OW42718   6.312   5.939   5.457
10600SOL    HW242719   6.322   5.865   5.397
10600SOL    HW342720   6.348   5.908   5.540
10600SOL    MW442721   6.318   5.925   5.459
10601SOL     OW42722   6.048   7.306   4.372
10601SOL    HW242723   6.080   7.394   4.350
10601SOL    HW342724   6.001   7.278   4.294
10601SOL    MW442725   6.047   7.314   4.359
10602SOL     OW42726   7.432   5.668   4.421
10602SOL    HW242727   7.486   5.619   4.483
10602SOL    HW342728   7.375   5.602   4.382
10602SOL    MW442729   7.432   5.652   4.423
10603SOL     OW42730   6.551   5.621   4.834
10603SOL    HW242731   6.510   5.699   4.796
10603SOL    HW342732   6.645   5.639   4.829
10603SOL    MW442733   6.557   5.633   4.829
10604SOL     OW42734   6.566   6.299   3.864
10604SOL    HW242735   6.568   6.246   3.785
10604SOL    HW342736   6.654   6.336   3.870
10604SOL    MW442737   6.578   6.298   3.853
10605SOL     OW42738   7.180   6.225   4.200
10605SOL    HW242739   7.219   6.225   4.287
10605SOL    HW342740   7.121   6.301   4.200
10605SOL    MW442741   7.177   6.236   4.211
10606SOL     OW42742   6.497   6.592   5.329
10606SOL    HW242743   6.474   6.572   5.419
10606SOL    HW342744   6.582   6.636   5.334
10606SOL    MW442745   6.504   6.595   5.341
10607SOL     OW42746   6.577   5.729   5.089
10607SOL    HW242747   6.583   5.691   5.002
10607SOL    HW342748   6.566   5.823   5.074
10607SOL    MW442749   6.578   5.737   5.077
10608SOL     OW42750   6.666   6.218   4.923
10608SOL    HW242751   6.741   6.247   4.870
10608SOL    HW342752   6.598   6.283   4.907
10608SOL    MW442753   6.667   6.230   4.913
10609SOL     OW42754   7.216   6.186   5.200
10609SOL    HW242755   7.197   6.095   5.179
10609SOL    HW342756   7.194   6.235   5.121
10609SOL    MW442757   7.211   6.179   5.187
10610SOL     OW42758   6.663   5.924   5.306
10610SOL    HW242759   6.629   5.963   5.225
10610SOL    HW342760   6.641   5.832   5.299
10610SOL    MW442761   6.656   5.917   5.296
10611SOL     OW42762   7.072   6.738   5.382
10611SOL    HW242763   7.154   6.779   5.412
10611SOL    HW342764   7.035   6.700   5.462
10611SOL    MW442765   7.078   6.739   5.397
10612SOL     OW42766   7.367   6.111   4.366
10612SOL    HW242767   7.456   6.080   4.383
10612SOL    HW342768   7.310   6.051   4.414
10612SOL    MW442769   7.370   6.099   4.375
10613SOL     OW42770   5.793   5.825   4.395
10613SOL    HW242771   5.784   5.765   4.321
10613SOL    HW342772   5.726   5.796   4.458
10613SOL    MW442773   5.783   5.812   4.393
10614SOL     OW42774   6.736   6.918   3.956
10614SOL    HW242775   6.686   6.920   4.038
10614SOL    HW342776   6.670   6.936   3.888
10614SOL    MW442777   6.722   6.920   3.958
10615SOL     OW42778   5.740   5.998   4.758
10615SOL    HW242779   5.712   6.089   4.767
10615SOL    HW342780   5.677   5.959   4.697
10615SOL    MW442781   5.727   6.004   4.752
10616SOL     OW42782   6.199   7.336   4.064
10616SOL    HW242783   6.120   7.294   4.097
10616SOL    HW342784   6.265   7.319   4.131
10616SOL    MW442785   6.198   7.328   4.077
10617SOL     OW42786   7.327   6.856   5.461
10617SOL    HW242787   7.377   6.782   5.493
10617SOL    HW342788   7.273   6.883   5.536
10617SOL    MW442789   7.327   6.850   5.474
10618SOL     OW42790   7.461   6.491   4.963
10618SOL    HW242791   7.477   6.529   4.876
10618SOL    HW342792   7.495   6.557   5.024
10618SOL    MW442793   7.468   6.504   4.959
10619SOL     OW42794   7.253   7.200   4.632
10619SOL    HW242795   7.282   7.267   4.693
10619SOL    HW342796   7.234   7.124   4.687
10619SOL    MW442797   7.255   7.200   4.647
10620SOL     OW42798   5.724   6.273   4.928
10620SOL    HW242799   5.786   6.303   4.994
10620SOL    HW342800   5.658   6.342   4.922
10620SOL    MW442801   5.723   6.286   4.935
10621SOL     OW42802   7.140   6.941   3.781
10621SOL    HW242803   7.087   6.990   3.717
10621SOL    HW342804   7.171   7.007   3.842
10621SOL    MW442805   7.138   6.955   3.779
10622SOL     OW42806   6.365   5.830   3.836
10622SOL    HW242807   6.313   5.750   3.824
10622SOL    HW342808   6.452   5.807   3.804
10622SOL    MW442809   6.368   5.816   3.830
10623SOL     OW42810   5.871   6.701   4.887
10623SOL    HW242811   5.924   6.776   4.912
10623SOL    HW342812   5.790   6.739   4.853
10623SOL    MW442813   5.867   6.716   4.887
10624SOL     OW42814   6.411   6.605   4.875
10624SOL    HW242815   6.439   6.514   4.887
10624SOL    HW342816   6.340   6.599   4.811
10624SOL    MW442817   6.404   6.593   4.870
10625SOL     OW42818   5.726   6.470   4.293
10625SOL    HW242819   5.817   6.485   4.320
10625SOL    HW342820   5.729   6.391   4.239
10625SOL    MW442821   5.738   6.462   4.291
10626SOL     OW42822   5.962   6.178   5.547
10626SOL    HW242823   5.909   6.258   5.554
10626SOL    HW342824   6.032   6.190   5.612
10626SOL    MW442825   5.964   6.191   5.555
10627SOL     OW42826   6.348   5.728   5.254
10627SOL    HW242827   6.325   5.636   5.256
10627SOL    HW342828   6.434   5.730   5.211
10627SOL    MW442829   6.355   5.718   5.250
10628SOL     OW42830   6.032   6.252   5.293
10628SOL    HW242831   6.112   6.302   5.279
10628SOL    HW342832   6.023   6.246   5.388
10628SOL    MW442833   6.041   6.258   5.303
10629SOL     OW42834   7.009   5.777   5.564
10629SOL    HW242835   7.065   5.704   5.590
10629SOL    HW342836   6.979   5.815   5.646
10629SOL    MW442837   7.013   5.772   5.577
10630SOL     OW42838   5.734   7.082   4.332
10630SOL    HW242839   5.706   7.121   4.414
10630SOL    HW342840   5.754   6.991   4.354
10630SOL    MW442841   5.732   7.074   4.345
10631SOL     OW42842   6.567   7.125   4.367
10631SOL    HW242843   6.650   7.079   4.351
10631SOL    HW342844   6.557   7.124   4.463
10631SOL    MW442845   6.577   7.118   4.377
10632SOL     OW42846   7.399   6.270   4.681
10632SOL    HW242847   7.488   6.300   4.663
10632SOL    HW342848   7.379   6.210   4.610
10632SOL    MW442849   7.408   6.267   4.670
10633SOL     OW42850   7.250   6.449   5.561
10633SOL    HW242851   7.305   6.373   5.542
10633SOL    HW342852   7.252   6.457   5.656
10633SOL    MW442853   7.258   6.440   5.569
10634SOL     OW42854   6.300   7.182   3.772
10634SOL    HW242855   6.240   7.251   3.742
10634SOL    HW342856   6.245   7.124   3.825
10634SOL    MW442857   6.284   7.184   3.774
10635SOL     OW42858   6.738   5.827   3.995
10635SOL    HW242859   6.671   5.803   3.932
10635SOL    HW342860   6.803   5.876   3.944
10635SOL    MW442861   6.738   5.829   3.980
10636SOL     OW42862   6.545   6.011   5.080
10636SOL    HW242863   6.464   6.052   5.108
10636SOL    HW342864   6.592   6.079   5.032
10636SOL    MW442865   6.540   6.026   5.078
10637SOL     OW42866   6.805   6.349   4.703
10637SOL    HW242867   6.818   6.443   4.713
10637SOL    HW342868   6.766   6.339   4.617
10637SOL    MW442869   6.801   6.360   4.693
10638SOL     OW42870   6.257   6.544   4.507
10638SOL    HW242871   6.168   6.535   4.540
10638SOL    HW342872   6.261   6.634   4.475
10638SOL    MW442873   6.246   6.555   4.507
10639SOL     OW42874   7.056   6.127   4.502
10639SOL    HW242875   7.001   6.048   4.501
10639SOL    HW342876   7.038   6.168   4.586
10639SOL    MW442877   7.046   6.122   4.511
10640SOL     OW42878   6.027   5.814   5.319
10640SOL    HW242879   5.948   5.832   5.371
10640SOL    HW342880   6.022   5.876   5.246
10640SOL    MW442881   6.017   5.824   5.316
10641SOL     OW42882   6.675   6.331   4.459
10641SOL    HW242883   6.612   6.263   4.483
10641SOL    HW342884   6.695   6.312   4.367
10641SOL    MW442885   6.669   6.318   4.451
10642SOL     OW42886   6.423   6.635   4.185
10642SOL    HW242887   6.425   6.609   4.092
10642SOL    HW342888   6.481   6.572   4.228
10642SOL    MW442889   6.431   6.624   4.179
10643SOL     OW42890   6.933   5.879   4.518
10643SOL    HW242891   6.961   5.811   4.579
10643SOL    HW342892   6.847   5.850   4.488
10643SOL    MW442893   6.926   5.866   4.522
10644SOL     OW42894   5.738   6.813   4.452
10644SOL    HW242895   5.802   6.845   4.515
10644SOL    HW342896   5.787   6.749   4.400
10644SOL    MW442897   5.753   6.809   4.453
10645SOL     OW42898   6.238   6.889   5.434
10645SOL    HW242899   6.286   6.972   5.421
10645SOL    HW342900   6.295   6.837   5.490
10645SOL    MW442901   6.252   6.893   5.440
10646SOL     OW42902   6.913   5.983   3.853
10646SOL    HW242903   6.886   6.049   3.789
10646SOL    HW342904   6.983   6.026   3.903
10646SOL    MW442905   6.918   5.996   3.850
10647SOL     OW42906   6.581   5.688   3.790
10647SOL    HW242907   6.637   5.680   3.712
10647SOL    HW342908   6.558   5.598   3.812
10647SOL    MW442909   6.586   5.675   3.783
10648SOL     OW42910   7.086   6.539   3.995
10648SOL    HW242911   7.053   6.628   3.985
10648SOL    HW342912   7.051   6.510   4.080
10648SOL    MW442913   7.076   6.548   4.006
10649SOL     OW42914   6.699   6.968   5.183
10649SOL    HW242915   6.610   6.974   5.151
10649SOL    HW342916   6.743   7.047   5.151
10649SOL    MW442917   6.694   6.978   5.175
10650SOL     OW42918   5.992   5.636   5.525
10650SOL    HW242919   5.920   5.601   5.473
10650SOL    HW342920   6.050   5.677   5.460
10650SOL    MW442921   5.990   5.637   5.510
10651SOL     OW42922   7.456   6.655   5.178
10651SOL    HW242923   7.371   6.668   5.137
10651SOL    HW342924   7.436   6.619   5.265
10651SOL    MW442925   7.443   6.651   5.183
10652SOL     OW42926   6.080   6.577   3.787
10652SOL    HW242927   6.003   6.590   3.843
10652SOL    HW342928   6.044   6.541   3.706
10652SOL    MW442929   6.066   6.573   3.784
10653SOL     OW42930   6.733   6.550   4.030
10653SOL    HW242931   6.643   6.571   4.005
10653SOL    HW342932   6.760   6.623   4.086
10653SOL    MW442933   6.725   6.562   4.033
10654SOL     OW42934   6.233   6.899   4.722
10654SOL    HW242935   6.226   6.878   4.816
10654SOL    HW342936   6.151   6.867   4.685
10654SOL    MW442937   6.221   6.893   4.729
10655SOL     OW42938   7.097   5.909   5.124
10655SOL    HW242939   7.044   5.911   5.204
10655SOL    HW342940   7.082   5.822   5.087
10655SOL    MW442941   7.089   5.899   5.129
10656SOL     OW42942   7.433   5.833   4.997
10656SOL    HW242943   7.414   5.900   4.932
10656SOL    HW342944   7.490   5.771   4.952
10656SOL    MW442945   7.437   5.834   4.983
10657SOL     OW42946   5.679   6.991   5.385
10657SOL    HW242947   5.723   6.924   5.331
10657SOL    HW342948   5.594   6.953   5.405
10657SOL    MW442949   5.674   6.977   5.381
10658SOL     OW42950   6.362   5.666   4.437
10658SOL    HW242951   6.291   5.727   4.419
10658SOL    HW342952   6.413   5.663   4.356
10658SOL    MW442953   6.358   5.672   4.424
10659SOL     OW42954   6.120   6.906   4.186
10659SOL    HW242955   6.113   6.938   4.276
10659SOL    HW342956   6.030   6.890   4.158
10659SOL    MW442957   6.108   6.908   4.193
10660SOL     OW42958   6.322   6.323   5.567
10660SOL    HW242959   6.392   6.265   5.539
10660SOL    HW342960   6.265   6.268   5.622
10660SOL    MW442961   6.324   6.310   5.571
10661SOL     OW42962   7.109   6.535   5.200
10661SOL    HW242963   7.114   6.588   5.280
10661SOL    HW342964   7.071   6.452   5.228
10661SOL    MW442965   7.105   6.530   5.215
10662SOL     OW42966   6.749   5.670   5.446
10662SOL    HW242967   6.744   5.577   5.427
10662SOL    HW342968   6.832   5.681   5.492
10662SOL    MW442969   6.757   5.659   5.450
10663SOL     OW42970   6.123   6.190   3.900
10663SOL    HW242971   6.089   6.246   3.970
10663SOL    HW342972   6.194   6.140   3.940
10663SOL    MW442973   6.129   6.191   3.914
10664SOL     OW42974   7.219   6.941   4.722
10664SOL    HW242975   7.254   6.923   4.635
10664SOL    HW342976   7.124   6.942   4.709
10664SOL    MW442977   7.211   6.938   4.709
10665SOL     OW42978   6.648   6.589   5.091
10665SOL    HW242979   6.691   6.624   5.169
10665SOL    HW342980   6.631   6.666   5.037
10665SOL    MW442981   6.651   6.604   5.094
10666SOL     OW42982   7.179   6.076   3.964
10666SOL    HW242983   7.171   6.147   3.901
10666SOL    HW342984   7.197   6.120   4.047
10666SOL    MW442985   7.180   6.090   3.966
10667SOL     OW42986   6.039   5.731   4.393
10667SOL    HW242987   6.089   5.774   4.324
10667SOL    HW342988   5.954   5.775   4.393
10667SOL    MW442989   6.036   5.744   4.384
10668SOL     OW42990   5.798   6.793   5.253
10668SOL    HW242991   5.826   6.746   5.331
10668SOL    HW342992   5.719   6.748   5.224
10668SOL    MW442993   5.791   6.782   5.259
10669SOL     OW42994   6.306   6.120   5.220
10669SOL    HW242995   6.278   6.208   5.244
10669SOL    HW342996   6.275   6.064   5.291
10669SOL    MW442997   6.298   6.123   5.232
10670SOL     OW42998   6.848   6.338   3.939
10670SOL    HW242999   6.895   6.356   3.858
10670SOL    HW343000   6.814   6.422   3.967
10670SOL    MW443001   6.850   6.352   3.932
10671SOL     OW43002   5.961   6.516   4.433
10671SOL    HW243003   6.019   6.572   4.381
10671SOL    HW343004   6.005   6.431   4.435
10671SOL    MW443005   5.974   6.513   4.426
10672SOL     OW43006   7.101   5.868   4.270
10672SOL    HW243007   7.023   5.818   4.295
10672SOL    HW343008   7.072   5.959   4.270
10672SOL    MW443009   7.087   5.872   4.273
10673SOL     OW43010   6.687   5.830   4.429
10673SOL    HW243011   6.707   5.905   4.373
10673SOL    HW343012   6.667   5.869   4.514
10673SOL    MW443013   6.688   5.846   4.433
10674SOL     OW43014   7.447   6.603   5.448
10674SOL    HW243015   7.360   6.583   5.484
10674SOL    HW343016   7.501   6.529   5.473
10674SOL    MW443017   7.442   6.592   5.456
10675SOL     OW43018   5.668   7.116   4.605
10675SOL    HW243019   5.700   7.120   4.696
10675SOL    HW343020   5.573   7.124   4.613
10675SOL    MW443021   5.660   7.119   4.618
10676SOL     OW43022   5.623   6.242   4.152
10676SOL    HW243023   5.563   6.214   4.222
10676SOL    HW343024   5.697   6.182   4.158
10676SOL    MW443025   5.625   6.231   4.161
10677SOL     OW43026   6.791   6.973   4.312
10677SOL    HW243027   6.814   6.924   4.390
10677SOL    HW343028   6.872   7.015   4.284
10677SOL    MW443029   6.804   6.973   4.319
10678SOL     OW43030   6.049   5.981   5.041
10678SOL    HW243031   6.082   6.062   5.081
10678SOL    HW343032   6.022   6.007   4.953
10678SOL    MW443033   6.048   5.995   5.035
10679SOL     OW43034   6.003   5.948   4.777
10679SOL    HW243035   6.033   5.862   4.748
10679SOL    HW343036   5.908   5.941   4.780
10679SOL    MW443037   5.995   5.937   4.775
10680SOL     OW43038   6.832   6.157   5.468
10680SOL    HW243039   6.884   6.092   5.421
10680SOL    HW343040   6.790   6.208   5.398
10680SOL    MW443041   6.833   6.154   5.451
10681SOL     OW43042   6.931   5.952   5.329
10681SOL    HW243043   6.838   5.936   5.316
10681SOL    HW343044   6.957   5.890   5.397
10681SOL    MW443045   6.921   5.942   5.336
10682SOL     OW43046   6.146   5.726   4.668
10682SOL    HW243047   6.156   5.635   4.694
10682SOL    HW343048   6.102   5.722   4.583
10682SOL    MW443049   6.142   5.714   4.660
10683SOL     OW43050   7.297   6.048   4.839
10683SOL    HW243051   7.230   6.081   4.899
10683SOL    HW343052   7.340   6.126   4.805
10683SOL    MW443053   7.295   6.063   4.843
10684SOL     OW43054   7.475   6.768   4.809
10684SOL    HW243055   7.468   6.708   4.734
10684SOL    HW343056   7.401   6.828   4.798
10684SOL    MW443057   7.465   6.768   4.798
10685SOL     OW43058   6.857   6.630   4.727
10685SOL    HW243059   6.871   6.602   4.818
10685SOL    HW343060   6.943   6.661   4.699
10685SOL    MW443061   6.870   6.631   4.736
10686SOL     OW43062   6.940   6.125   5.006
10686SOL    HW243063   6.961   6.126   4.913
10686SOL    HW343064   6.985   6.047   5.039
10686SOL    MW443065   6.947   6.115   4.998
10687SOL     OW43066   7.433   6.256   5.548
10687SOL    HW243067   7.470   6.201   5.617
10687SOL    HW343068   7.458   6.213   5.466
10687SOL    MW443069   7.440   6.244   5.547
10688SOL     OW43070   6.980   6.554   5.600
10688SOL    HW243071   7.046   6.502   5.554
10688SOL    HW343072   7.000   6.541   5.693
10688SOL    MW443073   6.991   6.545   5.607
10689SOL     OW43074   6.931   5.640   3.948
10689SOL    HW243075   7.005   5.684   3.991
10689SOL    HW343076   6.855   5.694   3.970
10689SOL    MW443077   6.931   5.652   3.956
10690SOL     OW43078   6.991   6.415   4.226
10690SOL    HW243079   6.906   6.385   4.196
10690SOL    HW343080   6.983   6.422   4.321
10690SOL    MW443081   6.979   6.413   4.235
10691SOL     OW43082   6.067   6.878   4.957
10691SOL    HW243083   6.079   6.905   5.048
10691SOL    HW343084   6.048   6.959   4.910
10691SOL    MW443085   6.066   6.893   4.962
10692SOL     OW43086   6.351   5.858   4.780
10692SOL    HW243087   6.324   5.860   4.871
10692SOL    HW343088   6.281   5.810   4.735
10692SOL    MW443089   6.339   5.854   4.787
10693SOL     OW43090   7.107   6.935   5.174
10693SOL    HW243091   7.092   6.864   5.237
10693SOL    HW343092   7.153   6.893   5.102
10693SOL    MW443093   7.113   6.919   5.174
10694SOL     OW43094   6.181   6.666   5.291
10694SOL    HW243095   6.218   6.671   5.203
10694SOL    HW343096   6.220   6.739   5.338
10694SOL    MW443097   6.191   6.676   5.286
10695SOL     OW43098   6.361   6.709   5.103
10695SOL    HW243099   6.420   6.655   5.156
10695SOL    HW343100   6.376   6.681   5.013
10695SOL    MW443101   6.371   6.698   5.099
10696SOL     OW43102   6.364   6.081   3.952
10696SOL    HW243103   6.437   6.130   3.915
10696SOL    HW343104   6.380   5.990   3.926
10696SOL    MW443105   6.376   6.076   3.945
10697SOL     OW43106   5.839   6.590   4.050
10697SOL    HW243107   5.776   6.606   3.979
10697SOL    HW343108   5.786   6.553   4.121
10697SOL    MW443109   5.824   6.587   4.050
10698SOL     OW43110   6.195   6.944   3.909
10698SOL    HW243111   6.210   6.920   4.001
10698SOL    HW343112   6.103   6.922   3.893
10698SOL    MW443113   6.185   6.937   3.919
10699SOL     OW43114   6.610   6.811   4.873
10699SOL    HW243115   6.542   6.745   4.889
10699SOL    HW343116   6.628   6.805   4.780
10699SOL    MW443117   6.603   6.802   4.864
10700SOL     OW43118   5.699   7.086   5.124
10700SOL    HW243119   5.689   7.044   5.210
10700SOL    HW343120   5.620   7.139   5.114
10700SOL    MW443121   5.688   7.087   5.135
10701SOL     OW43122   6.603   5.950   4.694
10701SOL    HW243123   6.533   5.902   4.739
10701SOL    HW343124   6.635   6.013   4.758
10701SOL    MW443125   6.598   5.952   4.708
10702SOL     OW43126   6.254   6.386   5.314
10702SOL    HW243127   6.247   6.481   5.302
10702SOL    HW343128   6.263   6.375   5.409
10702SOL    MW443129   6.255   6.398   5.324
10703SOL     OW43130   5.975   6.901   5.572
10703SOL    HW243131   6.047   6.903   5.509
10703SOL    HW343132   5.945   6.810   5.571
10703SOL    MW443133   5.980   6.890   5.564
10704SOL     OW43134   7.059   5.664   5.039
10704SOL    HW243135   7.130   5.610   5.003
10704SOL    HW343136   7.058   5.643   5.132
10704SOL    MW443137   7.068   5.655   5.047
10705SOL     OW43138   6.070   6.056   4.507
10705SOL    HW243139   6.141   6.004   4.470
10705SOL    HW343140   6.056   6.021   4.594
10705SOL    MW443141   6.078   6.045   4.514
10706SOL     OW43142   6.706   5.997   4.231
10706SOL    HW243143   6.728   5.934   4.163
10706SOL    HW343144   6.611   5.989   4.242
10706SOL    MW443145   6.696   5.988   4.223
10707SOL     OW43146   5.791   5.687   4.163
10707SOL    HW243147   5.862   5.708   4.102
10707SOL    HW343148   5.745   5.615   4.121
10707SOL    MW443149   5.795   5.681   4.149
10708SOL     OW43150   5.622   6.154   5.306
10708SOL    HW243151   5.686   6.220   5.281
10708SOL    HW343152   5.541   6.181   5.263
10708SOL    MW443153   5.620   6.166   5.298
10709SOL     OW43154   7.360   7.061   4.263
10709SOL    HW243155   7.330   6.994   4.324
10709SOL    HW343156   7.454   7.067   4.277
10709SOL    MW443157   7.368   7.053   4.273
10710SOL     OW43158   6.916   6.738   4.193
10710SOL    HW243159   6.888   6.824   4.226
10710SOL    HW343160   6.944   6.754   4.103
10710SOL    MW443161   6.916   6.752   4.185
10711SOL     OW43162   6.578   5.658   4.246
10711SOL    HW243163   6.615   5.717   4.311
10711SOL    HW343164   6.555   5.714   4.172
10711SOL    MW443165   6.579   5.673   4.245
10712SOL     OW43166   7.431   6.540   4.668
10712SOL    HW243167   7.422   6.572   4.579
10712SOL    HW343168   7.384   6.456   4.668
10712SOL    MW443169   7.424   6.533   4.658
10713SOL     OW43170   5.807   6.380   5.247
10713SOL    HW243171   5.828   6.449   5.185
10713SOL    HW343172   5.887   6.327   5.252
10713SOL    MW443173   5.820   6.381   5.241
10714SOL     OW43174   7.343   6.471   4.369
10714SOL    HW243175   7.437   6.460   4.357
10714SOL    HW343176   7.319   6.543   4.310
10714SOL    MW443177   7.353   6.479   4.360
10715SOL     OW43178   5.792   6.395   5.514
10715SOL    HW243179   5.718   6.339   5.540
10715SOL    HW343180   5.787   6.398   5.419
10715SOL    MW443181   5.781   6.388   5.504
10716SOL     OW43182   5.958   5.682   4.964
10716SOL    HW243183   6.001   5.766   4.984
10716SOL    HW343184   6.031   5.620   4.957
10716SOL    MW443185   5.973   5.685   4.965
10717SOL     OW43186   5.999   6.349   4.142
10717SOL    HW243187   5.999   6.444   4.127
10717SOL    HW343188   6.076   6.333   4.196
10717SOL    MW443189   6.009   6.360   4.147
10718SOL     OW43190   6.775   6.208   5.206
10718SOL    HW243191   6.811   6.181   5.122
10718SOL    HW343192   6.688   6.242   5.185
10718SOL    MW443193   6.769   6.209   5.193
10719SOL     OW43194   5.758   6.080   4.431
10719SOL    HW243195   5.820   6.087   4.504
10719SOL    HW343196   5.758   5.987   4.408
10719SOL    MW443197   5.766   6.069   4.438
10720SOL     OW43198   6.440   6.341   4.915
10720SOL    HW243199   6.398   6.259   4.891
10720SOL    HW343200   6.441   6.340   5.011
10720SOL    MW443201   6.433   6.330   4.924
10721SOL     OW43202   6.244   5.811   5.020
10721SOL    HW243203   6.175   5.874   5.041
10721SOL    HW343204   6.271   5.775   5.105
10721SOL    MW443205   6.238   5.814   5.033
10722SOL     OW43206   5.627   6.652   3.889
10722SOL    HW243207   5.596   6.717   3.952
10722SOL    HW343208   5.576   6.574   3.908
10722SOL    MW443209   5.617   6.649   3.899
10723SOL     OW43210   7.039   5.664   4.637
10723SOL    HW243211   7.127   5.673   4.674
10723SOL    HW343212   7.049   5.605   4.563
10723SOL    MW443213   7.053   5.658   4.631
10724SOL     OW43214   7.071   6.403   4.481
10724SOL    HW243215   7.151   6.418   4.430
10724SOL    HW343216   7.064   6.308   4.487
10724SOL    MW443217   7.080   6.392   4.476
10725SOL     OW43218   6.521   6.329   5.178
10725SOL    HW243219   6.590   6.396   5.175
10725SOL    HW343220   6.454   6.367   5.234
10725SOL    MW443221   6.522   6.342   5.185
10726SOL     OW43222   5.939   6.629   5.426
10726SOL    HW243223   5.893   6.545   5.428
10726SOL    HW343224   5.996   6.623   5.350
10726SOL    MW443225   5.941   6.617   5.418
10727SOL     OW43226   7.056   6.272   3.747
10727SOL    HW243227   6.984   6.248   3.689
10727SOL    HW343228   7.122   6.309   3.689
10727SOL    MW443229   7.055   6.274   3.732
10728SOL     OW43230   6.451   6.169   4.557
10728SOL    HW243231   6.391   6.187   4.629
10728SOL    HW343232   6.485   6.081   4.576
10728SOL    MW443233   6.447   6.159   4.570
10729SOL     OW43234   7.392   5.668   5.226
10729SOL    HW243235   7.313   5.714   5.254
10729SOL    HW343236   7.427   5.722   5.155
10729SOL    MW443237   7.386   5.681   5.220
10730SOL     OW43238   6.676   6.752   4.576
10730SOL    HW243239   6.768   6.733   4.594
10730SOL    HW343240   6.649   6.682   4.516
10730SOL    MW443241   6.684   6.740   4.570
10731SOL     OW43242   6.469   6.572   3.931
10731SOL    HW243243   6.455   6.484   3.896
10731SOL    HW343244   6.420   6.629   3.872
10731SOL    MW443245   6.461   6.567   3.919
10732SOL     OW43246   6.950   6.990   4.672
10732SOL    HW243247   6.923   7.074   4.637
10732SOL    HW343248   6.910   6.985   4.759
10732SOL    MW443249   6.943   6.999   4.678
10733SOL     OW43250   6.869   6.938   4.940
10733SOL    HW243251   6.880   6.905   5.029
10733SOL    HW343252   6.788   6.897   4.909
10733SOL    MW443253   6.859   6.930   4.946
10734SOL     OW43254   5.882   6.296   4.710
10734SOL    HW243255   5.832   6.295   4.791
10734SOL    HW343256   5.902   6.388   4.694
10734SOL    MW443257   5.878   6.308   4.718
10735SOL     OW43258   6.949   7.060   5.472
10735SOL    HW243259   6.949   7.154   5.488
10735SOL    HW343260   6.994   7.050   5.388
10735SOL    MW443261   6.955   7.070   5.463
10736SOL     OW43262   7.188   5.778   4.033
10736SOL    HW243263   7.181   5.782   4.128
10736SOL    HW343264   7.200   5.869   4.006
10736SOL    MW443265   7.189   5.791   4.041
10737SOL     OW43266   6.477   6.341   4.147
10737SOL    HW243267   6.457   6.327   4.054
10737SOL    HW343268   6.570   6.320   4.154
10737SOL    MW443269   6.487   6.336   4.136
10738SOL     OW43270   5.804   5.964   5.451
10738SOL    HW243271   5.761   6.023   5.388
10738SOL    HW343272   5.872   6.019   5.491
10738SOL    MW443273   5.808   5.979   5.448
10739SOL     OW43274   6.916   6.584   4.996
10739SOL    HW243275   6.979   6.581   5.069
10739SOL    HW343276   6.832   6.602   5.038
10739SOL    MW443277   6.912   6.586   5.011
10740SOL     OW43278   7.255   5.761   4.775
10740SOL    HW243279   7.300   5.679   4.794
10740SOL    HW343280   7.275   5.817   4.851
10740SOL    MW443281   7.265   5.757   4.787
10741SOL     OW43282   5.703   5.604   4.874
10741SOL    HW243283   5.694   5.605   4.779
10741SOL    HW343284   5.797   5.616   4.889
10741SOL    MW443285   5.715   5.607   4.865
10742SOL     OW43286   7.340   6.797   4.494
10742SOL    HW243287   7.319   6.743   4.417
10742SOL    HW343288   7.436   6.795   4.498
10742SOL    MW443289   7.349   6.790   4.483
10743SOL     OW43290   6.032   6.942   5.237
10743SOL    HW243291   5.953   6.892   5.260
10743SOL    HW343292   6.102   6.901   5.287
10743SOL    MW443293   6.030   6.930   5.247
10744SOL     OW43294   5.916   5.731   3.920
10744SOL    HW243295   5.845   5.786   3.888
10744SOL    HW343296   5.958   5.697   3.841
10744SOL    MW443297   5.912   5.733   3.906
10745SOL     OW43298   7.040   6.228   4.756
10745SOL    HW243299   6.963   6.274   4.722
10745SOL    HW343300   7.097   6.297   4.790
10745SOL    MW443301   7.037   6.243   4.756
10746SOL     OW43302   5.672   5.830   3.769
10746SOL    HW243303   5.639   5.909   3.813
10746SOL    HW343304   5.727   5.863   3.698
10746SOL    MW443305   5.675   5.844   3.766
10747SOL     OW43306   6.978   7.176   4.175
10747SOL    HW243307   7.041   7.166   4.104
10747SOL    HW343308   6.895   7.196   4.130
10747SOL    MW443309   6.975   7.177   4.160
10748SOL     OW43310   7.341   6.444   5.862
10748SOL    HW243311   7.382   6.386   5.927
10748SOL    HW343312   7.248   6.436   5.879
10748SOL    MW443313   7.335   6.436   5.872
10749SOL     OW43314   6.135   6.627   6.091
10749SOL    HW243315   6.225   6.602   6.075
10749SOL    HW343316   6.131   6.720   6.068
10749SOL    MW443317   6.147   6.636   6.086
10750SOL     OW43318   5.861   6.111   6.032
10750SOL    HW243319   5.893   6.199   6.014
10750SOL    HW343320   5.849   6.109   6.127
10750SOL    MW443321   5.864   6.123   6.044
10751SOL     OW43322   6.260   5.866   6.119
10751SOL    HW243323   6.318   5.942   6.121
10751SOL    HW343324   6.195   5.887   6.052
10751SOL    MW443325   6.259   5.878   6.110
10752SOL     OW43326   6.347   6.793   6.294
10752SOL    HW243327   6.427   6.796   6.346
10752SOL    HW343328   6.375   6.760   6.208
10752SOL    MW443329   6.361   6.789   6.289
10753SOL     OW43330   6.974   6.775   5.810
10753SOL    HW243331   6.892   6.811   5.776
10753SOL    HW343332   7.042   6.818   5.759
10753SOL    MW443333   6.972   6.785   5.798
10754SOL     OW43334   5.973   6.910   6.476
10754SOL    HW243335   5.949   6.963   6.552
10754SOL    HW343336   6.029   6.968   6.424
10754SOL    MW443337   5.977   6.925   6.479
10755SOL     OW43338   6.526   6.916   6.003
10755SOL    HW243339   6.503   6.978   6.071
10755SOL    HW343340   6.483   6.834   6.029
10755SOL    MW443341   6.518   6.912   6.014
10756SOL     OW43342   6.023   5.889   5.971
10756SOL    HW243343   5.997   5.851   5.887
10756SOL    HW343344   5.960   5.959   5.987
10756SOL    MW443345   6.012   5.892   5.962
10757SOL     OW43346   5.858   6.850   6.008
10757SOL    HW243347   5.806   6.918   5.964
10757SOL    HW343348   5.855   6.776   5.948
10757SOL    MW443349   5.850   6.849   5.995
10758SOL     OW43350   7.455   6.086   5.761
10758SOL    HW243351   7.364   6.088   5.789
10758SOL    HW343352   7.500   6.148   5.819
10758SOL    MW443353   7.448   6.094   5.771
10759SOL     OW43354   7.200   6.689   6.111
10759SOL    HW243355   7.110   6.689   6.146
10759SOL    HW343356   7.193   6.735   6.028
10759SOL    MW443357   7.187   6.695   6.105
10760SOL     OW43358   6.727   6.270   6.072
10760SOL    HW243359   6.753   6.294   5.983
10760SOL    HW343360   6.709   6.177   6.068
10760SOL    MW443361   6.729   6.262   6.059
10761SOL     OW43362   7.392   6.890   5.923
10761SOL    HW243363   7.348   6.931   5.998
10761SOL    HW343364   7.449   6.958   5.888
10761SOL    MW443365   7.394   6.904   5.928
10762SOL     OW43366   6.566   6.299   5.733
10762SOL    HW243367   6.568   6.246   5.654
10762SOL    HW343368   6.654   6.336   5.739
10762SOL    MW443369   6.578   6.298   5.722
10763SOL     OW43370   7.180   6.225   6.069
10763SOL    HW243371   7.219   6.225   6.156
10763SOL    HW343372   7.121   6.301   6.069
10763SOL    MW443373   7.177   6.236   6.080
10764SOL     OW43374   6.736   6.918   5.825
10764SOL    HW243375   6.686   6.920   5.907
10764SOL    HW343376   6.670   6.936   5.757
10764SOL    MW443377   6.722   6.920   5.827
10765SOL     OW43378   6.199   7.336   5.933
10765SOL    HW243379   6.120   7.294   5.966
10765SOL    HW343380   6.265   7.319   6.000
10765SOL    MW443381   6.198   7.328   5.946
10766SOL     OW43382   6.335   6.751   5.640
10766SOL    HW243383   6.257   6.697   5.627
10766SOL    HW343384   6.306   6.824   5.693
10766SOL    MW443385   6.321   6.753   5.645
10767SOL     OW43386   7.140   6.941   5.650
10767SOL    HW243387   7.087   6.990   5.586
10767SOL    HW343388   7.171   7.007   5.711
10767SOL    MW443389   7.138   6.955   5.648
10768SOL     OW43390   6.365   5.830   5.705
10768SOL    HW243391   6.313   5.750   5.693
10768SOL    HW343392   6.452   5.807   5.673
10768SOL    MW443393   6.368   5.816   5.699
10769SOL     OW43394   6.300   7.182   5.641
10769SOL    HW243395   6.240   7.251   5.611
10769SOL    HW343396   6.245   7.124   5.694
10769SOL    MW443397   6.284   7.184   5.643
10770SOL     OW43398   6.738   5.827   5.864
10770SOL    HW243399   6.671   5.803   5.801
10770SOL    HW343400   6.803   5.876   5.813
10770SOL    MW443401   6.738   5.829   5.849
10771SOL     OW43402   6.675   6.331   6.328
10771SOL    HW243403   6.612   6.263   6.352
10771SOL    HW343404   6.695   6.312   6.236
10771SOL    MW443405   6.669   6.318   6.320
10772SOL     OW43406   6.423   6.635   6.054
10772SOL    HW243407   6.425   6.609   5.961
10772SOL    HW343408   6.481   6.572   6.097
10772SOL    MW443409   6.431   6.624   6.048
10773SOL     OW43410   6.913   5.983   5.722
10773SOL    HW243411   6.886   6.049   5.658
10773SOL    HW343412   6.983   6.026   5.772
10773SOL    MW443413   6.918   5.996   5.719
10774SOL     OW43414   6.581   5.688   5.659
10774SOL    HW243415   6.637   5.680   5.581
10774SOL    HW343416   6.558   5.598   5.681
10774SOL    MW443417   6.586   5.675   5.652
10775SOL     OW43418   7.086   6.539   5.864
10775SOL    HW243419   7.053   6.628   5.854
10775SOL    HW343420   7.051   6.510   5.949
10775SOL    MW443421   7.076   6.548   5.875
10776SOL     OW43422   6.080   6.577   5.656
10776SOL    HW243423   6.003   6.590   5.712
10776SOL    HW343424   6.044   6.541   5.575
10776SOL    MW443425   6.066   6.573   5.653
10777SOL     OW43426   6.733   6.550   5.899
10777SOL    HW243427   6.643   6.571   5.874
10777SOL    HW343428   6.760   6.623   5.955
10777SOL    MW443429   6.725   6.562   5.902
10778SOL     OW43430   6.123   6.190   5.769
10778SOL    HW243431   6.089   6.246   5.839
10778SOL    HW343432   6.194   6.140   5.809
10778SOL    MW443433   6.129   6.191   5.783
10779SOL     OW43434   7.179   6.076   5.833
10779SOL    HW243435   7.171   6.147   5.770
10779SOL    HW343436   7.197   6.120   5.916
10779SOL    MW443437   7.180   6.090   5.835
10780SOL     OW43438   6.848   6.338   5.808
10780SOL    HW243439   6.895   6.356   5.727
10780SOL    HW343440   6.814   6.422   5.836
10780SOL    MW443441   6.850   6.352   5.801
10781SOL     OW43442   5.623   6.242   6.021
10781SOL    HW243443   5.563   6.214   6.091
10781SOL    HW343444   5.697   6.182   6.027
10781SOL    MW443445   5.625   6.231   6.030
10782SOL     OW43446   6.791   6.973   6.181
10782SOL    HW243447   6.814   6.924   6.259
10782SOL    HW343448   6.872   7.015   6.153
10782SOL    MW443449   6.804   6.973   6.188
10783SOL     OW43450   6.931   5.640   5.817
10783SOL    HW243451   7.005   5.684   5.860
10783SOL    HW343452   6.855   5.694   5.839
10783SOL    MW443453   6.931   5.652   5.825
10784SOL     OW43454   6.991   6.415   6.095
10784SOL    HW243455   6.906   6.385   6.065
10784SOL    HW343456   6.983   6.422   6.190
10784SOL    MW443457   6.979   6.413   6.104
10785SOL     OW43458   6.364   6.081   5.821
10785SOL    HW243459   6.437   6.130   5.784
10785SOL    HW343460   6.380   5.990   5.795
10785SOL    MW443461   6.376   6.076   5.814
10786SOL     OW43462   5.839   6.590   5.919
10786SOL    HW243463   5.776   6.606   5.848
10786SOL    HW343464   5.786   6.553   5.990
10786SOL    MW443465   5.824   6.587   5.919
10787SOL     OW43466   6.195   6.944   5.778
10787SOL    HW243467   6.210   6.920   5.870
10787SOL    HW343468   6.103   6.922   5.762
10787SOL    MW443469   6.185   6.937   5.788
10788SOL     OW43470   6.706   5.997   6.100
10788SOL    HW243471   6.728   5.934   6.032
10788SOL    HW343472   6.611   5.989   6.111
10788SOL    MW443473   6.696   5.988   6.092
10789SOL     OW43474   5.791   5.687   6.032
10789SOL    HW243475   5.862   5.708   5.971
10789SOL    HW343476   5.745   5.615   5.990
10789SOL    MW443477   5.795   5.681   6.018
10790SOL     OW43478   7.360   7.061   6.132
10790SOL    HW243479   7.330   6.994   6.193
10790SOL    HW343480   7.454   7.067   6.146
10790SOL    MW443481   7.368   7.053   6.142
10791SOL     OW43482   6.916   6.738   6.062
10791SOL    HW243483   6.888   6.824   6.095
10791SOL    HW343484   6.944   6.754   5.972
10791SOL    MW443485   6.916   6.752   6.054
10792SOL     OW43486   6.578   5.658   6.115
10792SOL    HW243487   6.615   5.717   6.180
10792SOL    HW343488   6.555   5.714   6.041
10792SOL    MW443489   6.579   5.673   6.114
10793SOL     OW43490   5.999   6.349   6.011
10793SOL    HW243491   5.999   6.444   5.996
10793SOL    HW343492   6.076   6.333   6.065
10793SOL    MW443493   6.009   6.360   6.016
10794SOL     OW43494   5.758   6.080   6.300
10794SOL    HW243495   5.820   6.087   6.373
10794SOL    HW343496   5.758   5.987   6.277
10794SOL    MW443497   5.766   6.069   6.307
10795SOL     OW43498   5.627   6.652   5.758
10795SOL    HW243499   5.596   6.717   5.821
10795SOL    HW343500   5.576   6.574   5.777
10795SOL    MW443501   5.617   6.649   5.768
10796SOL     OW43502   7.039   5.664   6.506
10796SOL    HW243503   7.127   5.673   6.543
10796SOL    HW343504   7.049   5.605   6.432
10796SOL    MW443505   7.053   5.658   6.500
10797SOL     OW43506   7.056   6.272   5.615
10797SOL    HW243507   6.984   6.248   5.557
10797SOL    HW343508   7.122   6.309   5.557
10797SOL    MW443509   7.055   6.274   5.600
10798SOL     OW43510   6.469   6.572   5.800
10798SOL    HW243511   6.455   6.484   5.765
10798SOL    HW343512   6.420   6.629   5.741
10798SOL    MW443513   6.461   6.567   5.788
10799SOL     OW43514   7.188   5.778   5.902
10799SOL    HW243515   7.181   5.782   5.997
10799SOL    HW343516   7.200   5.869   5.875
10799SOL    MW443517   7.189   5.791   5.910
10800SOL     OW43518   6.477   6.341   6.016
10800SOL    HW243519   6.457   6.327   5.923
10800SOL    HW343520   6.570   6.320   6.023
10800SOL    MW443521   6.487   6.336   6.005
10801SOL     OW43522   5.916   5.731   5.789
10801SOL    HW243523   5.845   5.786   5.757
10801SOL    HW343524   5.958   5.697   5.710
10801SOL    MW443525   5.912   5.733   5.775
10802SOL     OW43526   5.672   5.830   5.638
10802SOL    HW243527   5.639   5.909   5.682
10802SOL    HW343528   5.727   5.863   5.567
10802SOL    MW443529   5.675   5.844   5.635
10803SOL     OW43530   6.978   7.176   6.044
10803SOL    HW243531   7.041   7.166   5.973
10803SOL    HW343532   6.895   7.196   5.999
10803SOL    MW443533   6.975   7.177   6.029
10804NA      NA43534   1.794   0.312   6.459
10805NA      NA43535   0.209   3.394   3.706
10806NA      NA43536   0.915   5.444   3.917
10807NA      NA43537   0.357   4.309   5.547
10808NA      NA43538   0.998   4.081   4.694
10809NA      NA43539   0.921   6.916   0.398
10810NA      NA43540   1.061   6.218   3.055
10811NA      NA43541   2.893   1.610   3.497
10812NA      NA43542   3.694   0.935   2.800
10813NA      NA43543   2.740   0.736   2.279
10814NA      NA43544   3.442   0.471   5.833
10815NA      NA43545   2.295   2.515   1.557
10816NA      NA43546   3.364   2.131   2.402
10817NA      NA43547   2.999   3.181   5.825
10818NA      NA43548   3.176   2.246   5.722
10819NA      NA43549   3.335   4.869   1.646
10820NA      NA43550   2.077   5.262   1.838
10821NA      NA43551   2.003   4.129   2.890
10822NA      NA43552   2.061   6.793   3.385
10823NA      NA43553   4.479   0.123   1.518
10824NA      NA43554   5.044   0.378   3.853
10825NA      NA43555   5.202   2.666   0.745
10826NA      NA43556   4.495   2.344   5.821
10827NA      NA43557   4.906   6.208   3.338
10828NA      NA43558   7.071   0.798   0.745
10829NA      NA43559   6.676   1.147   2.708
10830NA      NA43560   5.734   3.345   4.332
10831NA      NA43561   6.663   4.055   3.438
10832NA      NA43562   6.238   5.020   3.566
10833NA      NA43563   6.335   6.751   3.771
10834NA      NA43564   6.832   5.677   4.866
10835CL      CL43565   1.614   1.336   0.986
10836CL      CL43566   0.104   1.778   4.572
10837CL      CL43567   0.590   1.339   3.909
10838CL      CL43568   1.492   2.172   3.256
10839CL      CL43569   1.264   3.201   3.072
10840CL      CL43570   0.418   2.152   5.971
10841CL      CL43571   1.373   3.439   6.044
10842CL      CL43572   1.227   3.808   2.998
10843CL      CL43573   1.506   5.605   3.446
10844CL      CL43574   0.976   5.688   1.922
10845CL      CL43575   0.930   6.554   6.286
10846CL      CL43576   3.237   1.170   3.941
10847CL      CL43577   3.302   0.059   4.637
10848CL      CL43578   2.121   1.245   6.008
10849CL      CL43579   1.969   3.350   3.958
10850CL      CL43580   1.935   3.961   1.901
10851CL      CL43581   2.866   4.081   4.694
10852CL      CL43582   2.444   6.666   1.555
10853CL      CL43583   4.867   1.106   1.570
10854CL      CL43584   4.251   1.301   2.318
10855CL      CL43585   5.105   1.170   5.810
10856CL      CL43586   4.266   2.890   0.486
10857CL      CL43587   5.202   2.666   2.613
10858CL      CL43588   3.970   4.721   0.314
10859CL      CL43589   4.865   5.306   0.325
10860CL      CL43590   5.491   5.192   0.527
10861CL      CL43591   5.071   4.256   5.006
10862CL      CL43592   5.436   5.551   3.963
10863CL      CL43593   5.105   6.775   2.073
10864CL      CL43594   6.027   0.209   3.451
10865CL      CL43595   7.433   0.651   3.680
10866CL      CL43596   6.257   0.939   4.507
10867CL      CL43597   6.423   2.898   0.449
10868CL      CL43598   7.207   2.639   3.120
10869CL      CL43599   7.297   4.179   4.839
10870CL      CL43600   5.807   4.511   5.247
   7.60585   7.17087   6.21015   0.00000   0.00000   2.53528   0.00000  -2.53528   3.58543
